title                                                                   
SP        RMP2-FC                                                     Aug-CC-pVTZ         
Number of atoms                            I                5
Info1-9                                    I   N=           9
          33          24           0           0           0         110
           1           2           1
Full Title                                 C   N=           1
title       
Route                                      C   N=           4
#p SP mp2/aug-cc-pvtz density=current           
Charge                                     I                0
Multiplicity                               I                1
Number of electrons                        I               32
Number of alpha electrons                  I               16
Number of beta electrons                   I               16
Number of basis functions                  I              207
Number of independent functions            I              207
Number of point charges in /Mol/           I                0
Number of translation vectors              I                0
Atomic numbers                             I   N=           5
           1           8           8           7           8
Nuclear charges                            R   N=           5
  1.00000000E+00  8.00000000E+00  8.00000000E+00  7.00000000E+00  8.00000000E+00
Current cartesian coordinates              R   N=          15
  4.24191465E+00  8.12666312E-01  2.00270196E-01  3.02177596E+00 -5.35198778E-01
 -1.75433373E-02  7.56417281E-01  1.02278384E+00 -2.34793624E-02 -1.25357910E+00
 -8.63548047E-01  9.29845139E-03 -3.21155086E+00  1.66436186E-01  7.85278025E-03
Number of symbols in /Mol/                 I                0
Force Field                                I                0
Atom Types                                 C   N=           5
                                                            
Int Atom Types                             I   N=           5
           0           0           0           0           0
MM charges                                 R   N=           5
  0.00000000E+00  0.00000000E+00  0.00000000E+00  0.00000000E+00  0.00000000E+00
Integer atomic weights                     I   N=           5
           1          16          16          14          16
Real atomic weights                        R   N=           5
  1.00782504E+00  1.59949146E+01  1.59949146E+01  1.40030740E+01  1.59949146E+01
Atom fragment info                         I   N=           5
           0           0           0           0           0
Atom residue num                           I   N=           5
           0           0           0           0           0
Nuclear spins                              I   N=           5
           1           0           0           2           0
Nuclear ZEff                               R   N=           5
 -1.00000000E+00 -5.60000000E+00 -5.60000000E+00 -4.55000000E+00 -5.60000000E+00
Nuclear ZNuc                               R   N=           5
  1.00000000E+00  8.00000000E+00  8.00000000E+00  7.00000000E+00  8.00000000E+00
Nuclear QMom                               R   N=           5
  0.00000000E+00  0.00000000E+00  0.00000000E+00  2.04400000E+00  0.00000000E+00
Nuclear GFac                               R   N=           5
  2.79284600E+00  0.00000000E+00  0.00000000E+00  4.03761000E-01  0.00000000E+00
MicOpt                                     I   N=           5
          -1          -1          -1          -1          -1
Number of residues                         I                0
Number of secondary structures             I                0
SymInf integers                            I   N=          26
           1           1           1           1           1           0
           0           0           0           0           0           0
           0           0           0           0           0           0
           0           0           0           0           0           0
           0           0
RotTr to input orientation                 R   N=          12
 -7.42389868E-01  6.96058041E-02 -6.66342492E-01  6.69828384E-01  9.74264993E-02
 -7.36096470E-01  1.36828296E-02 -9.92805675E-01 -1.18952389E-01  2.60206723E+00
 -1.75607727E-01  3.44859140E+00
Number of contracted shells                I               65
Number of primitive shells                 I              119
Pure/Cartesian d shells                    I                0
Pure/Cartesian f shells                    I                0
Highest angular momentum                   I                3
Largest degree of contraction              I                7
Shell types                                I   N=          65
           0           0           0           0           1           1
           1          -2          -2           0           0           0
           0           0           1           1           1           1
          -2          -2          -2          -3          -3           0
           0           0           0           0           1           1
           1           1          -2          -2          -2          -3
          -3           0           0           0           0           0
           1           1           1           1          -2          -2
          -2          -3          -3           0           0           0
           0           0           1           1           1           1
          -2          -2          -2          -3          -3
Number of primitives per shell             I   N=          65
           3           1           1           1           1           1
           1           1           1           7           6           1
           1           1           3           1           1           1
           1           1           1           1           1           7
           6           1           1           1           3           1
           1           1           1           1           1           1
           1           7           6           1           1           1
           3           1           1           1           1           1
           1           1           1           7           6           1
           1           1           3           1           1           1
           1           1           1           1           1
Shell to atom map                          I   N=          65
           1           1           1           1           1           1
           1           1           1           2           2           2
           2           2           2           2           2           2
           2           2           2           2           2           3
           3           3           3           3           3           3
           3           3           3           3           3           3
           3           4           4           4           4           4
           4           4           4           4           4           4
           4           4           4           5           5           5
           5           5           5           5           5           5
           5           5           5           5           5
Primitive exponents                        R   N=         119
  3.38700000E+01  5.09500000E+00  1.15900000E+00  3.25800000E-01  1.02700000E-01
  2.52600000E-02  1.40700000E+00  3.88000000E-01  1.02000000E-01  1.05700000E+00
  2.47000000E-01  1.53300000E+04  2.29900000E+03  5.22400000E+02  1.47300000E+02
  4.75500000E+01  1.67600000E+01  6.20700000E+00  5.22400000E+02  1.47300000E+02
  4.75500000E+01  1.67600000E+01  6.20700000E+00  6.88200000E-01  1.75200000E+00
  2.38400000E-01  7.37600000E-02  3.44600000E+01  7.74900000E+00  2.28000000E+00
  7.15600000E-01  2.14000000E-01  5.97400000E-02  2.31400000E+00  6.45000000E-01
  2.14000000E-01  1.42800000E+00  5.00000000E-01  1.53300000E+04  2.29900000E+03
  5.22400000E+02  1.47300000E+02  4.75500000E+01  1.67600000E+01  6.20700000E+00
  5.22400000E+02  1.47300000E+02  4.75500000E+01  1.67600000E+01  6.20700000E+00
  6.88200000E-01  1.75200000E+00  2.38400000E-01  7.37600000E-02  3.44600000E+01
  7.74900000E+00  2.28000000E+00  7.15600000E-01  2.14000000E-01  5.97400000E-02
  2.31400000E+00  6.45000000E-01  2.14000000E-01  1.42800000E+00  5.00000000E-01
  1.14200000E+04  1.71200000E+03  3.89300000E+02  1.10000000E+02  3.55700000E+01
  1.25400000E+01  4.64400000E+00  3.89300000E+02  1.10000000E+02  3.55700000E+01
  1.25400000E+01  4.64400000E+00  5.11800000E-01  1.29300000E+00  1.78700000E-01
  5.76000000E-02  2.66300000E+01  5.94800000E+00  1.74200000E+00  5.55000000E-01
  1.72500000E-01  4.91000000E-02  1.65400000E+00  4.69000000E-01  1.51000000E-01
  1.09300000E+00  3.64000000E-01  1.53300000E+04  2.29900000E+03  5.22400000E+02
  1.47300000E+02  4.75500000E+01  1.67600000E+01  6.20700000E+00  5.22400000E+02
  1.47300000E+02  4.75500000E+01  1.67600000E+01  6.20700000E+00  6.88200000E-01
  1.75200000E+00  2.38400000E-01  7.37600000E-02  3.44600000E+01  7.74900000E+00
  2.28000000E+00  7.15600000E-01  2.14000000E-01  5.97400000E-02  2.31400000E+00
  6.45000000E-01  2.14000000E-01  1.42800000E+00  5.00000000E-01
Contraction coefficients                   R   N=         119
  2.54948632E-02  1.90362766E-01  8.52162022E-01  1.00000000E+00  1.00000000E+00
  1.00000000E+00  1.00000000E+00  1.00000000E+00  1.00000000E+00  1.00000000E+00
  1.00000000E+00  5.19808943E-04  4.02025621E-03  2.07128267E-02  8.10105536E-02
  2.35962985E-01  4.42653446E-01  3.57064423E-01 -4.42115008E-05 -1.22591041E-03
 -1.05517725E-02 -6.74452633E-02 -1.71198607E-01  1.07329856E+00  1.00000000E+00
  1.00000000E+00  1.00000000E+00  4.11634896E-02  2.57762836E-01  8.02419274E-01
  1.00000000E+00  1.00000000E+00  1.00000000E+00  1.00000000E+00  1.00000000E+00
  1.00000000E+00  1.00000000E+00  1.00000000E+00  5.19808943E-04  4.02025621E-03
  2.07128267E-02  8.10105536E-02  2.35962985E-01  4.42653446E-01  3.57064423E-01
 -4.42115008E-05 -1.22591041E-03 -1.05517725E-02 -6.74452633E-02 -1.71198607E-01
  1.07329856E+00  1.00000000E+00  1.00000000E+00  1.00000000E+00  4.11634896E-02
  2.57762836E-01  8.02419274E-01  1.00000000E+00  1.00000000E+00  1.00000000E+00
  1.00000000E+00  1.00000000E+00  1.00000000E+00  1.00000000E+00  1.00000000E+00
  5.34563860E-04  4.13435660E-03  2.12335358E-02  8.25006224E-02  2.38138871E-01
  4.42551547E-01  3.53757422E-01 -4.89867350E-05 -1.19527323E-03 -1.03490714E-02
 -6.48680190E-02 -1.71552477E-01  1.07289568E+00  1.00000000E+00  1.00000000E+00
  1.00000000E+00  3.98072123E-02  2.49002660E-01  8.10479727E-01  1.00000000E+00
  1.00000000E+00  1.00000000E+00  1.00000000E+00  1.00000000E+00  1.00000000E+00
  1.00000000E+00  1.00000000E+00  5.19808943E-04  4.02025621E-03  2.07128267E-02
  8.10105536E-02  2.35962985E-01  4.42653446E-01  3.57064423E-01 -4.42115008E-05
 -1.22591041E-03 -1.05517725E-02 -6.74452633E-02 -1.71198607E-01  1.07329856E+00
  1.00000000E+00  1.00000000E+00  1.00000000E+00  4.11634896E-02  2.57762836E-01
  8.02419274E-01  1.00000000E+00  1.00000000E+00  1.00000000E+00  1.00000000E+00
  1.00000000E+00  1.00000000E+00  1.00000000E+00  1.00000000E+00
Coordinates of each shell                  R   N=         195
  4.24191465E+00  8.12666312E-01  2.00270196E-01  4.24191465E+00  8.12666312E-01
  2.00270196E-01  4.24191465E+00  8.12666312E-01  2.00270196E-01  4.24191465E+00
  8.12666312E-01  2.00270196E-01  4.24191465E+00  8.12666312E-01  2.00270196E-01
  4.24191465E+00  8.12666312E-01  2.00270196E-01  4.24191465E+00  8.12666312E-01
  2.00270196E-01  4.24191465E+00  8.12666312E-01  2.00270196E-01  4.24191465E+00
  8.12666312E-01  2.00270196E-01  3.02177596E+00 -5.35198778E-01 -1.75433373E-02
  3.02177596E+00 -5.35198778E-01 -1.75433373E-02  3.02177596E+00 -5.35198778E-01
 -1.75433373E-02  3.02177596E+00 -5.35198778E-01 -1.75433373E-02  3.02177596E+00
 -5.35198778E-01 -1.75433373E-02  3.02177596E+00 -5.35198778E-01 -1.75433373E-02
  3.02177596E+00 -5.35198778E-01 -1.75433373E-02  3.02177596E+00 -5.35198778E-01
 -1.75433373E-02  3.02177596E+00 -5.35198778E-01 -1.75433373E-02  3.02177596E+00
 -5.35198778E-01 -1.75433373E-02  3.02177596E+00 -5.35198778E-01 -1.75433373E-02
  3.02177596E+00 -5.35198778E-01 -1.75433373E-02  3.02177596E+00 -5.35198778E-01
 -1.75433373E-02  3.02177596E+00 -5.35198778E-01 -1.75433373E-02  7.56417281E-01
  1.02278384E+00 -2.34793624E-02  7.56417281E-01  1.02278384E+00 -2.34793624E-02
  7.56417281E-01  1.02278384E+00 -2.34793624E-02  7.56417281E-01  1.02278384E+00
 -2.34793624E-02  7.56417281E-01  1.02278384E+00 -2.34793624E-02  7.56417281E-01
  1.02278384E+00 -2.34793624E-02  7.56417281E-01  1.02278384E+00 -2.34793624E-02
  7.56417281E-01  1.02278384E+00 -2.34793624E-02  7.56417281E-01  1.02278384E+00
 -2.34793624E-02  7.56417281E-01  1.02278384E+00 -2.34793624E-02  7.56417281E-01
  1.02278384E+00 -2.34793624E-02  7.56417281E-01  1.02278384E+00 -2.34793624E-02
  7.56417281E-01  1.02278384E+00 -2.34793624E-02  7.56417281E-01  1.02278384E+00
 -2.34793624E-02 -1.25357910E+00 -8.63548047E-01  9.29845139E-03 -1.25357910E+00
 -8.63548047E-01  9.29845139E-03 -1.25357910E+00 -8.63548047E-01  9.29845139E-03
 -1.25357910E+00 -8.63548047E-01  9.29845139E-03 -1.25357910E+00 -8.63548047E-01
  9.29845139E-03 -1.25357910E+00 -8.63548047E-01  9.29845139E-03 -1.25357910E+00
 -8.63548047E-01  9.29845139E-03 -1.25357910E+00 -8.63548047E-01  9.29845139E-03
 -1.25357910E+00 -8.63548047E-01  9.29845139E-03 -1.25357910E+00 -8.63548047E-01
  9.29845139E-03 -1.25357910E+00 -8.63548047E-01  9.29845139E-03 -1.25357910E+00
 -8.63548047E-01  9.29845139E-03 -1.25357910E+00 -8.63548047E-01  9.29845139E-03
 -1.25357910E+00 -8.63548047E-01  9.29845139E-03 -3.21155086E+00  1.66436186E-01
  7.85278025E-03 -3.21155086E+00  1.66436186E-01  7.85278025E-03 -3.21155086E+00
  1.66436186E-01  7.85278025E-03 -3.21155086E+00  1.66436186E-01  7.85278025E-03
 -3.21155086E+00  1.66436186E-01  7.85278025E-03 -3.21155086E+00  1.66436186E-01
  7.85278025E-03 -3.21155086E+00  1.66436186E-01  7.85278025E-03 -3.21155086E+00
  1.66436186E-01  7.85278025E-03 -3.21155086E+00  1.66436186E-01  7.85278025E-03
 -3.21155086E+00  1.66436186E-01  7.85278025E-03 -3.21155086E+00  1.66436186E-01
  7.85278025E-03 -3.21155086E+00  1.66436186E-01  7.85278025E-03 -3.21155086E+00
  1.66436186E-01  7.85278025E-03 -3.21155086E+00  1.66436186E-01  7.85278025E-03
Num ILSW                                   I              100
ILSW                                       I   N=         100
           0           0           0           0           2           0
           0           0           0           0           0          -1
           5           0           0           0           0           0
           0           0           0           0           0           0
           1           0           0           0           0           0
           0           0      100000           0          -1           0
           0           0           0           0           0           0
           0           0           0           1           0           0
           0 -2000000000           1           0           0           0
           0           0           4          52           0           0
           0           0           0           0           0           0
           0           0           0           5           0           1
           0           0           0           0           0           0
           0           0           0           0           0           0
           0           0           0           0           0           0
           0           0           0           0           0           0
           0           0           0           0
Num RLSW                                   I               52
RLSW                                       R   N=          52
  1.00000000E+00  1.00000000E+00  1.00000000E+00  1.00000000E+00  1.00000000E+00
  0.00000000E+00  0.00000000E+00  1.00000000E+00  0.00000000E+00  0.00000000E+00
  0.00000000E+00  0.00000000E+00  1.00000000E+00  0.00000000E+00  0.00000000E+00
  0.00000000E+00  0.00000000E+00  1.00000000E+00  0.00000000E+00  0.00000000E+00
  0.00000000E+00  0.00000000E+00  1.00000000E+00  0.00000000E+00  0.00000000E+00
  0.00000000E+00  0.00000000E+00  1.00000000E+00  0.00000000E+00  0.00000000E+00
  0.00000000E+00  0.00000000E+00  1.00000000E+00  0.00000000E+00  0.00000000E+00
  0.00000000E+00  0.00000000E+00  0.00000000E+00  1.00000000E+00  1.00000000E+00
  0.00000000E+00  1.00000000E+00  0.00000000E+00  0.00000000E+00  0.00000000E+00
  0.00000000E+00  0.00000000E+00  0.00000000E+00  0.00000000E+00  0.00000000E+00
  0.00000000E+00  0.00000000E+00
MxBond                                     I                2
NBond                                      I   N=           5
           1           2           2           2           1
IBond                                      I   N=          10
           2           0           1           3           2           4
           3           5           4           0
RBond                                      R   N=          10
  1.00000000E+00  0.00000000E+00  1.00000000E+00  1.00000000E+00  1.00000000E+00
  1.00000000E+00  1.00000000E+00  2.00000000E+00  2.00000000E+00  0.00000000E+00
Virial Ratio                               R      2.002353662765502E+00
SCF Energy                                 R     -2.795017378774110E+02
MP2 Energy                                 R     -2.804468025950849E+02
Total Energy                               R     -2.804468025950849E+02
Post-SCF wavefunction norm                 R      1.120225605505699E+00
RMS Density                                R      9.025500836901941E-09
Job Status                                 I                1
Nuclear derivative order                   I                0
External E-field                           R   N=          35
  0.00000000E+00  0.00000000E+00  0.00000000E+00  0.00000000E+00  0.00000000E+00
  0.00000000E+00  0.00000000E+00  0.00000000E+00  0.00000000E+00  0.00000000E+00
  0.00000000E+00  0.00000000E+00  0.00000000E+00  0.00000000E+00  0.00000000E+00
  0.00000000E+00  0.00000000E+00  0.00000000E+00  0.00000000E+00  0.00000000E+00
  0.00000000E+00  0.00000000E+00  0.00000000E+00  0.00000000E+00  0.00000000E+00
  0.00000000E+00  0.00000000E+00  0.00000000E+00  0.00000000E+00  0.00000000E+00
  0.00000000E+00  0.00000000E+00  0.00000000E+00  0.00000000E+00  0.00000000E+00
IOpCl                                      I                0
IROHF                                      I                0
Alpha Orbital Energies                     R   N=         207
 -2.06909517E+01 -2.06842820E+01 -2.06600453E+01 -1.58127792E+01 -1.62402925E+00
 -1.49578109E+00 -1.25442109E+00 -9.48075825E-01 -7.72669121E-01 -7.59303614E-01
 -7.12255893E-01 -6.79125449E-01 -6.20213305E-01 -5.89173878E-01 -4.85973348E-01
 -4.72140282E-01  2.96087876E-02  7.16617424E-02  8.59370547E-02  1.01733187E-01
  1.33018385E-01  1.34685346E-01  1.44000324E-01  1.54488301E-01  1.78195863E-01
  1.94145479E-01  1.99562692E-01  2.06473723E-01  2.20809528E-01  2.35396077E-01
  2.37327384E-01  2.66446415E-01  2.93048279E-01  3.01848147E-01  3.11315900E-01
  3.43464457E-01  3.51634628E-01  3.87363683E-01  4.19815106E-01  4.30279703E-01
  5.27218602E-01  5.30125746E-01  5.58548697E-01  5.81361039E-01  6.25957763E-01
  6.38205475E-01  6.74133143E-01  6.84004371E-01  7.06624723E-01  7.12067262E-01
  7.21286500E-01  7.31312767E-01  7.46161807E-01  7.87861413E-01  7.94054637E-01
  8.10338719E-01  8.13335170E-01  8.32265019E-01  8.67966218E-01  9.08330109E-01
  9.18363971E-01  9.30490928E-01  9.56115438E-01  9.73494584E-01  9.87245206E-01
  1.01596653E+00  1.05460474E+00  1.05548909E+00  1.08293994E+00  1.11604441E+00
  1.13454203E+00  1.19474372E+00  1.21989898E+00  1.23333125E+00  1.33795562E+00
  1.35059791E+00  1.38738845E+00  1.45441910E+00  1.49002370E+00  1.50862457E+00
  1.53759984E+00  1.56709624E+00  1.58019383E+00  1.60858311E+00  1.66511126E+00
  1.66760647E+00  1.70451813E+00  1.79113210E+00  1.83044221E+00  1.83600866E+00
  1.87953676E+00  1.90773282E+00  1.95614261E+00  1.98564768E+00  2.01739173E+00
  2.07766884E+00  2.11832269E+00  2.12959192E+00  2.15291314E+00  2.22289302E+00
  2.26028739E+00  2.26937328E+00  2.28851768E+00  2.31300663E+00  2.34381426E+00
  2.38700070E+00  2.41097800E+00  2.44287378E+00  2.45394952E+00  2.46477466E+00
  2.47603703E+00  2.50401556E+00  2.58957880E+00  2.59764892E+00  2.61969155E+00
  2.62529965E+00  2.63627448E+00  2.66661390E+00  2.75412916E+00  2.82672156E+00
  2.85108087E+00  2.88766661E+00  2.89547213E+00  2.92094942E+00  2.95913268E+00
  3.02260748E+00  3.07232683E+00  3.12078155E+00  3.20462565E+00  3.22797047E+00
  3.31624252E+00  3.34119293E+00  3.51549833E+00  3.64549998E+00  3.83785648E+00
  3.84665678E+00  4.14130476E+00  4.16346499E+00  4.19419968E+00  4.25593354E+00
  4.34577955E+00  4.39377500E+00  4.46930896E+00  4.52146052E+00  4.65680329E+00
  4.71092541E+00  4.80466701E+00  4.82391344E+00  4.82750187E+00  4.89632204E+00
  5.02291156E+00  5.07490325E+00  5.10249772E+00  5.14518289E+00  5.18122933E+00
  5.24595485E+00  5.27183436E+00  5.30628224E+00  5.32980847E+00  5.35357234E+00
  5.60349310E+00  5.67359694E+00  5.76578066E+00  5.83060438E+00  5.95597451E+00
  6.16903673E+00  6.31033179E+00  6.33967569E+00  6.39339072E+00  6.49394264E+00
  6.50525889E+00  6.61761275E+00  6.66134121E+00  6.70316111E+00  6.75162148E+00
  6.76760369E+00  6.83378456E+00  6.89835049E+00  7.01261572E+00  7.05520870E+00
  7.05743176E+00  7.09217755E+00  7.12565545E+00  7.14786815E+00  7.18539750E+00
  7.22489554E+00  7.24010197E+00  7.30574303E+00  7.32349097E+00  7.35200534E+00
  7.39599492E+00  7.42983341E+00  7.48542305E+00  7.60715838E+00  7.61824150E+00
  7.62983782E+00  7.66971545E+00  7.78728094E+00  7.88556820E+00  8.09224293E+00
  8.31339043E+00  8.40454345E+00  8.54282877E+00  1.33881911E+01  1.43965996E+01
  1.51611803E+01  1.61513685E+01
Alpha MO coefficients                      R   N=       42849
  8.99981128E-05 -5.98841901E-04 -7.09227826E-04 -4.90117567E-06 -3.35629221E-05
 -9.09837133E-06 -1.01696310E-05 -1.08406505E-05  6.94600046E-05  1.89087573E-05
  8.30052174E-05 -2.02661965E-05  2.63084028E-05  3.16580569E-05  1.75285986E-06
  1.22909270E-07  6.45387208E-06  5.48161591E-05 -4.12950754E-06  6.66445814E-06
  1.14529192E-05  7.40819989E-05  1.63979270E-04  4.58481363E-03 -2.81393750E-04
  1.48518188E-05  1.53433078E-03  1.81674491E-03  8.99956753E-05 -5.69338150E-05
  2.11186335E-06 -5.18997418E-04  3.35789170E-04 -1.08967841E-05 -4.37386126E-04
  1.26976408E-03  3.95362983E-05 -2.80689966E-04  2.91562116E-04  3.37724718E-06
  2.87924539E-05 -1.28354881E-06 -4.19032448E-07 -1.04744029E-05  5.35972576E-05
 -3.77431673E-04  3.26562492E-06 -5.99389043E-06  1.87321517E-04 -7.19966808E-04
 -4.39095010E-04  4.29173178E-05  1.85120678E-05  6.27917571E-05 -2.47640535E-04
  5.88255652E-06  7.08701388E-05 -3.80617308E-05 -1.48241452E-06 -4.47917566E-06
  3.35270085E-05  1.04616922E-04 -1.47028513E-05  1.92637248E-04 -1.71476920E-04
  1.06194650E-05  1.04545255E-05  1.65628301E-04  3.16250670E-04  9.76911616E-01
 -9.21561705E-03  4.33178411E-02  2.04210721E-03 -9.35714727E-04  3.95508928E-04
 -1.97793058E-03  3.52732579E-05 -3.31785809E-04  1.96642299E-03 -3.16124769E-05
 -6.29432541E-04 -9.79782944E-04  1.34507879E-05 -1.29245409E-04  7.25951555E-05
  5.37948223E-06  4.64376706E-05  1.41082145E-06  8.02188188E-07  9.92160428E-06
  3.97830723E-05  7.46327411E-04  3.60740029E-06  1.15591062E-05 -4.39949153E-04
  1.09603906E-04 -3.56053603E-04  1.59096974E-05 -8.02788587E-07 -4.51179777E-04
  1.88300881E-04  3.05734246E-06  8.81434004E-06 -6.77290372E-05 -1.07538361E-06
 -9.78597458E-07 -1.53537347E-06  4.21626615E-05 -2.01720684E-06  3.32175986E-05
  3.97855791E-06  4.11818538E-06  2.07459625E-07 -3.07687979E-05  3.33937886E-04
  3.88449746E-05  4.44626263E-05 -2.64661032E-04 -6.91542177E-04 -1.25012132E-04
 -7.97549772E-05 -6.22663777E-05  1.86919488E-06  6.40339487E-04  4.09214866E-04
 -1.24305441E-05 -9.78156534E-04  1.13243478E-04  7.74943402E-06 -1.09152983E-04
  5.55249146E-05 -6.00229485E-06 -1.81823845E-05 -1.59702882E-06 -8.52668068E-07
  5.69234103E-06  3.28015991E-05 -3.28245046E-04 -4.64705143E-06 -1.34913510E-05
 -1.18724914E-04  8.28615078E-04 -3.86169412E-05  2.31410528E-05 -2.36099960E-06
 -8.02324442E-05 -1.34174221E-04  4.11777018E-06 -8.80204674E-05 -8.40534349E-05
  1.69971009E-07 -4.96571148E-06 -1.08791269E-04  1.04990389E-04  4.20215761E-06
 -8.67281571E-05 -1.24042516E-04  5.55002198E-06 -3.72311049E-06 -4.10508087E-04
  9.79667436E-05 -2.54239533E-03  1.21773935E-04 -1.22128415E-04 -2.64311197E-04
  1.22223484E-04 -2.28302259E-05 -1.77562232E-05  3.59882083E-07  1.52455300E-04
  9.15683612E-05 -1.92158732E-06  3.06133104E-04  2.71369685E-05  1.83747104E-05
  1.11157333E-04 -5.96434063E-05  4.64517989E-06 -3.34802744E-06 -7.08432762E-07
 -3.51222209E-07 -4.20641700E-06  1.74437677E-05  6.78529196E-07  3.44210263E-06
  1.77789627E-06  1.08239153E-04 -5.07540215E-05 -1.01473235E-04  5.92183499E-06
 -3.02808302E-06  2.05609376E-04 -1.12117982E-04  1.09813521E-07  1.06837117E-05
 -1.22899619E-05  2.63481712E-07 -1.93021098E-07 -9.90128970E-06  8.14095150E-06
 -2.66776448E-06 -4.28973763E-07  5.65500053E-05  2.00797831E-06  1.26646609E-06
  5.74510661E-05 -1.09358923E-04  3.79053198E-05 -9.67345725E-04 -4.77106537E-04
 -1.09776326E-05 -7.75858077E-06  2.54444945E-05 -1.14974499E-06  1.56991954E-04
  2.13110686E-04  3.74070456E-05  4.34324055E-05  1.30028436E-04  2.11378415E-05
  2.47866555E-05  6.88707152E-07 -7.76942010E-06  1.31922459E-05 -7.96285749E-06
 -2.75107325E-05 -3.00522782E-06  2.05138960E-06  3.66090688E-05 -2.90094631E-07
  1.12461043E-04  8.38734457E-05 -2.77784236E-05  7.34701807E-04  6.42036810E-04
  9.97966117E-06 -3.82739073E-06 -1.54829614E-06 -5.14036557E-05  5.37567278E-05
  1.19675396E-05  7.90587367E-04  5.11464415E-04  7.65581042E-05  5.22613595E-05
  6.16809332E-05  4.72378129E-06 -2.37931362E-06 -7.27997782E-07 -6.99593534E-07
 -5.70951361E-06 -1.66152753E-06 -3.34180745E-05  1.04815003E-05  1.04565565E-05
  7.34543724E-05  4.14119162E-05 -1.69824104E-05  3.03831189E-05  3.19169497E-05
 -2.31303722E-04  2.02807226E-04  6.86517349E-07  1.08753043E-05 -6.70964675E-07
  3.88061793E-07 -4.99974116E-07 -1.84394381E-05  3.66585697E-06 -9.43382748E-06
 -5.29437350E-05 -4.92022676E-06  1.71198996E-06  9.00829035E-06  4.43320640E-05
  6.42364155E-05  2.58145646E-03  4.00325730E-05  8.96357050E-05 -6.82908407E-05
 -4.70427625E-04  1.51376075E-05  8.53204812E-06 -4.70931616E-07 -8.23588281E-05
 -8.30117020E-06  1.85388660E-06  7.82914539E-05 -2.88032500E-04 -1.69494731E-05
 -1.88667727E-04  6.12703690E-05 -6.25420104E-06 -8.76043840E-06 -3.44099795E-07
  7.52329318E-08  2.54876653E-05 -1.55808253E-05  4.43298935E-06  6.06010258E-07
 -7.62863817E-07 -7.88223578E-05  9.84016851E-05 -4.64614536E-06 -1.02415394E-05
  3.54316501E-06 -2.60058516E-04  1.52192124E-04 -8.75686428E-08  2.19992486E-06
 -2.38570635E-06 -3.26299773E-07 -5.27772271E-07 -1.32764592E-05  2.96655259E-06
  5.04779204E-07 -3.48882900E-05  3.03678385E-05 -3.02655813E-07  3.20485098E-06
  2.02046607E-04  9.08021571E-06  2.58596299E-04  1.46446792E-03 -7.82794878E-05
 -1.53425271E-03  4.02672899E-04 -1.16159026E-04  8.60036414E-05 -9.68718773E-08
 -1.91911941E-03  9.17562254E-04 -2.15673816E-06  1.28495209E-03 -1.14275461E-06
 -5.55683630E-06 -1.03062788E-04  1.47328483E-04  7.55198389E-07 -1.23366412E-04
  9.58649357E-08  4.47921912E-07  1.61073153E-04 -2.04825799E-04 -4.42416661E-04
  7.14075830E-06 -2.29592232E-06  2.00844733E-04 -8.79264488E-04  1.11970670E-05
  1.29126748E-05 -5.23633285E-06 -2.17837986E-04  2.84622798E-04 -3.65067086E-07
  8.00689031E-06  1.30456836E-05 -1.95386447E-07  3.42096014E-07  6.38704066E-06
 -2.21580635E-05  2.44528251E-06  9.01824608E-05 -1.55500115E-04  2.19539742E-06
  2.82769485E-06  1.19507576E-04  2.13264351E-04  9.76649389E-01 -9.84809389E-03
  4.35679548E-02  4.49496268E-03 -4.47472379E-04  2.01291166E-03 -8.90714677E-04
 -2.77512861E-07 -2.27576962E-03  9.32870006E-04  7.38553597E-07  9.11873337E-04
 -6.82349353E-04  1.28517058E-05 -2.18515242E-05 -3.76898404E-05  2.90736743E-06
 -2.32324222E-04 -1.38915006E-06 -3.41908168E-06  6.05472265E-05 -8.88594648E-05
  3.90587573E-04  5.55192807E-07 -2.28349814E-06 -6.44898175E-04  6.74598457E-04
 -1.53940716E-04  2.40163324E-06 -3.96046239E-06  9.05328904E-05 -2.41024962E-04
 -4.32450162E-07  5.25338275E-05 -1.68876735E-05  5.23741626E-07  7.13267201E-07
 -5.15057522E-06  2.53382756E-05  8.75318185E-07  1.16651495E-04 -7.45963476E-05
 -1.13129731E-07 -1.69370068E-06 -6.95296913E-05  2.25397362E-04  4.73435858E-04
  2.07650955E-03  1.30398939E-04  1.47004483E-05 -1.79410818E-04 -1.71835876E-04
 -3.42645917E-05 -6.65957096E-04 -1.08630198E-03 -1.53542943E-04  4.20063733E-05
 -4.53044730E-04 -2.23668576E-05 -2.52883114E-06 -4.35267140E-06 -2.10769388E-06
  3.75331352E-05 -6.68014590E-05 -1.50299023E-04  6.12930667E-05  7.42425898E-05
 -1.77164658E-04  5.00038785E-04  9.76830332E-01 -9.16314930E-03  4.34493374E-02
  1.54741795E-04 -1.15009575E-03 -4.04910745E-04  2.07946316E-03  1.87260694E-04
  5.06922975E-04 -1.96263075E-03 -1.72971690E-04 -9.76538823E-04 -3.59946429E-04
 -7.30304058E-05  3.28077171E-05 -5.66264348E-05  5.90797942E-07  3.03585780E-05
  3.33452287E-06  6.66253151E-06 -3.72696349E-05  1.11517251E-04  7.45372648E-04
 -8.57043068E-05 -8.71777213E-05 -2.84773613E-04  1.30870312E-04 -2.66141076E-04
 -2.16712366E-05 -1.19745230E-06  1.73384188E-04 -1.29677182E-04  3.88779640E-06
 -5.08178487E-05  3.84666946E-05  5.10252070E-06 -1.27213365E-06  2.79550572E-06
 -2.16041399E-05  2.14143021E-05  6.77185874E-05  9.56707559E-05 -7.18578799E-06
 -3.12233177E-05  2.09099858E-07 -2.70096458E-04 -4.67669552E-03 -2.09713346E-04