title                                                                   
SP        RMP2-FC                                                     Aug-CC-pVTZ         
Number of atoms                            I                5
Info1-9                                    I   N=           9
          33          24           0           0           0         110
           1           2           1
Full Title                                 C   N=           1
title       
Route                                      C   N=           4
#p SP mp2/aug-cc-pvtz density=current           
Charge                                     I                0
Multiplicity                               I                1
Number of electrons                        I               32
Number of alpha electrons                  I               16
Number of beta electrons                   I               16
Number of basis functions                  I              207
Number of independent functions            I              207
Number of point charges in /Mol/           I                0
Number of translation vectors              I                0
Atomic numbers                             I   N=           5
           1           8           8           7           8
Nuclear charges                            R   N=           5
  1.00000000E+00  8.00000000E+00  8.00000000E+00  7.00000000E+00  8.00000000E+00
Current cartesian coordinates              R   N=          15
  2.93222067E+00  3.18049892E+00 -6.54534641E-32  2.74801027E+00  1.35868993E+00
  5.71364238E-32 -1.32272811E-16  1.27131399E+00  1.61259686E-31 -5.01250561E-01
 -1.43943419E+00 -5.01814213E-32 -2.67594362E+00 -1.76806137E+00 -1.39171162E-32
Number of symbols in /Mol/                 I                0
Force Field                                I                0
Atom Types                                 C   N=           5
                                                            
Int Atom Types                             I   N=           5
           0           0           0           0           0
MM charges                                 R   N=           5
  0.00000000E+00  0.00000000E+00  0.00000000E+00  0.00000000E+00  0.00000000E+00
Integer atomic weights                     I   N=           5
           1          16          16          14          16
Real atomic weights                        R   N=           5
  1.00782504E+00  1.59949146E+01  1.59949146E+01  1.40030740E+01  1.59949146E+01
Atom fragment info                         I   N=           5
           0           0           0           0           0
Atom residue num                           I   N=           5
           0           0           0           0           0
Nuclear spins                              I   N=           5
           1           0           0           2           0
Nuclear ZEff                               R   N=           5
 -1.00000000E+00 -5.60000000E+00 -5.60000000E+00 -4.55000000E+00 -5.60000000E+00
Nuclear ZNuc                               R   N=           5
  1.00000000E+00  8.00000000E+00  8.00000000E+00  7.00000000E+00  8.00000000E+00
Nuclear QMom                               R   N=           5
  0.00000000E+00  0.00000000E+00  0.00000000E+00  2.04400000E+00  0.00000000E+00
Nuclear GFac                               R   N=           5
  2.79284600E+00  0.00000000E+00  0.00000000E+00  4.03761000E-01  0.00000000E+00
MicOpt                                     I   N=           5
          -1          -1          -1          -1          -1
Number of residues                         I                0
Number of secondary structures             I                0
SymInf integers                            I   N=          26
           1           2           1           1           1           1
           1          -1           0           0           0           0
           0           0           0           0           0           0
           0           0           0           0           0           0
           0           0
RotTr to input orientation                 R   N=          12
 -9.94926848E-01 -8.64260685E-16 -1.00601033E-01  1.00601033E-01  7.77221077E-16
 -9.94926848E-01  9.38065402E-16 -1.00000000E+00 -6.86332599E-16  2.59738359E+00
  0.00000000E+00  3.45934819E+00
Number of contracted shells                I               65
Number of primitive shells                 I              119
Pure/Cartesian d shells                    I                0
Pure/Cartesian f shells                    I                0
Highest angular momentum                   I                3
Largest degree of contraction              I                7
Shell types                                I   N=          65
           0           0           0           0           1           1
           1          -2          -2           0           0           0
           0           0           1           1           1           1
          -2          -2          -2          -3          -3           0
           0           0           0           0           1           1
           1           1          -2          -2          -2          -3
          -3           0           0           0           0           0
           1           1           1           1          -2          -2
          -2          -3          -3           0           0           0
           0           0           1           1           1           1
          -2          -2          -2          -3          -3
Number of primitives per shell             I   N=          65
           3           1           1           1           1           1
           1           1           1           7           6           1
           1           1           3           1           1           1
           1           1           1           1           1           7
           6           1           1           1           3           1
           1           1           1           1           1           1
           1           7           6           1           1           1
           3           1           1           1           1           1
           1           1           1           7           6           1
           1           1           3           1           1           1
           1           1           1           1           1
Shell to atom map                          I   N=          65
           1           1           1           1           1           1
           1           1           1           2           2           2
           2           2           2           2           2           2
           2           2           2           2           2           3
           3           3           3           3           3           3
           3           3           3           3           3           3
           3           4           4           4           4           4
           4           4           4           4           4           4
           4           4           4           5           5           5
           5           5           5           5           5           5
           5           5           5           5           5
Primitive exponents                        R   N=         119
  3.38700000E+01  5.09500000E+00  1.15900000E+00  3.25800000E-01  1.02700000E-01
  2.52600000E-02  1.40700000E+00  3.88000000E-01  1.02000000E-01  1.05700000E+00
  2.47000000E-01  1.53300000E+04  2.29900000E+03  5.22400000E+02  1.47300000E+02
  4.75500000E+01  1.67600000E+01  6.20700000E+00  5.22400000E+02  1.47300000E+02
  4.75500000E+01  1.67600000E+01  6.20700000E+00  6.88200000E-01  1.75200000E+00
  2.38400000E-01  7.37600000E-02  3.44600000E+01  7.74900000E+00  2.28000000E+00
  7.15600000E-01  2.14000000E-01  5.97400000E-02  2.31400000E+00  6.45000000E-01
  2.14000000E-01  1.42800000E+00  5.00000000E-01  1.53300000E+04  2.29900000E+03
  5.22400000E+02  1.47300000E+02  4.75500000E+01  1.67600000E+01  6.20700000E+00
  5.22400000E+02  1.47300000E+02  4.75500000E+01  1.67600000E+01  6.20700000E+00
  6.88200000E-01  1.75200000E+00  2.38400000E-01  7.37600000E-02  3.44600000E+01
  7.74900000E+00  2.28000000E+00  7.15600000E-01  2.14000000E-01  5.97400000E-02
  2.31400000E+00  6.45000000E-01  2.14000000E-01  1.42800000E+00  5.00000000E-01
  1.14200000E+04  1.71200000E+03  3.89300000E+02  1.10000000E+02  3.55700000E+01
  1.25400000E+01  4.64400000E+00  3.89300000E+02  1.10000000E+02  3.55700000E+01
  1.25400000E+01  4.64400000E+00  5.11800000E-01  1.29300000E+00  1.78700000E-01
  5.76000000E-02  2.66300000E+01  5.94800000E+00  1.74200000E+00  5.55000000E-01
  1.72500000E-01  4.91000000E-02  1.65400000E+00  4.69000000E-01  1.51000000E-01
  1.09300000E+00  3.64000000E-01  1.53300000E+04  2.29900000E+03  5.22400000E+02
  1.47300000E+02  4.75500000E+01  1.67600000E+01  6.20700000E+00  5.22400000E+02
  1.47300000E+02  4.75500000E+01  1.67600000E+01  6.20700000E+00  6.88200000E-01
  1.75200000E+00  2.38400000E-01  7.37600000E-02  3.44600000E+01  7.74900000E+00
  2.28000000E+00  7.15600000E-01  2.14000000E-01  5.97400000E-02  2.31400000E+00
  6.45000000E-01  2.14000000E-01  1.42800000E+00  5.00000000E-01
Contraction coefficients                   R   N=         119
  2.54948632E-02  1.90362766E-01  8.52162022E-01  1.00000000E+00  1.00000000E+00
  1.00000000E+00  1.00000000E+00  1.00000000E+00  1.00000000E+00  1.00000000E+00
  1.00000000E+00  5.19808943E-04  4.02025621E-03  2.07128267E-02  8.10105536E-02
  2.35962985E-01  4.42653446E-01  3.57064423E-01 -4.42115008E-05 -1.22591041E-03
 -1.05517725E-02 -6.74452633E-02 -1.71198607E-01  1.07329856E+00  1.00000000E+00
  1.00000000E+00  1.00000000E+00  4.11634896E-02  2.57762836E-01  8.02419274E-01
  1.00000000E+00  1.00000000E+00  1.00000000E+00  1.00000000E+00  1.00000000E+00
  1.00000000E+00  1.00000000E+00  1.00000000E+00  5.19808943E-04  4.02025621E-03
  2.07128267E-02  8.10105536E-02  2.35962985E-01  4.42653446E-01  3.57064423E-01
 -4.42115008E-05 -1.22591041E-03 -1.05517725E-02 -6.74452633E-02 -1.71198607E-01
  1.07329856E+00  1.00000000E+00  1.00000000E+00  1.00000000E+00  4.11634896E-02
  2.57762836E-01  8.02419274E-01  1.00000000E+00  1.00000000E+00  1.00000000E+00
  1.00000000E+00  1.00000000E+00  1.00000000E+00  1.00000000E+00  1.00000000E+00
  5.34563860E-04  4.13435660E-03  2.12335358E-02  8.25006224E-02  2.38138871E-01
  4.42551547E-01  3.53757422E-01 -4.89867350E-05 -1.19527323E-03 -1.03490714E-02
 -6.48680190E-02 -1.71552477E-01  1.07289568E+00  1.00000000E+00  1.00000000E+00
  1.00000000E+00  3.98072123E-02  2.49002660E-01  8.10479727E-01  1.00000000E+00
  1.00000000E+00  1.00000000E+00  1.00000000E+00  1.00000000E+00  1.00000000E+00
  1.00000000E+00  1.00000000E+00  5.19808943E-04  4.02025621E-03  2.07128267E-02
  8.10105536E-02  2.35962985E-01  4.42653446E-01  3.57064423E-01 -4.42115008E-05
 -1.22591041E-03 -1.05517725E-02 -6.74452633E-02 -1.71198607E-01  1.07329856E+00
  1.00000000E+00  1.00000000E+00  1.00000000E+00  4.11634896E-02  2.57762836E-01
  8.02419274E-01  1.00000000E+00  1.00000000E+00  1.00000000E+00  1.00000000E+00
  1.00000000E+00  1.00000000E+00  1.00000000E+00  1.00000000E+00
Coordinates of each shell                  R   N=         195
  2.93222067E+00  3.18049892E+00  4.59698315E-31  2.93222067E+00  3.18049892E+00
  4.59698315E-31  2.93222067E+00  3.18049892E+00  4.59698315E-31  2.93222067E+00
  3.18049892E+00  4.59698315E-31  2.93222067E+00  3.18049892E+00  4.59698315E-31
  2.93222067E+00  3.18049892E+00  4.59698315E-31  2.93222067E+00  3.18049892E+00
  4.59698315E-31  2.93222067E+00  3.18049892E+00  4.59698315E-31  2.93222067E+00
  3.18049892E+00  4.59698315E-31  2.74801027E+00  1.35868993E+00  3.51253645E-31
  2.74801027E+00  1.35868993E+00  3.51253645E-31  2.74801027E+00  1.35868993E+00
  3.51253645E-31  2.74801027E+00  1.35868993E+00  3.51253645E-31  2.74801027E+00
  1.35868993E+00  3.51253645E-31  2.74801027E+00  1.35868993E+00  3.51253645E-31
  2.74801027E+00  1.35868993E+00  3.51253645E-31  2.74801027E+00  1.35868993E+00
  3.51253645E-31  2.74801027E+00  1.35868993E+00  3.51253645E-31  2.74801027E+00
  1.35868993E+00  3.51253645E-31  2.74801027E+00  1.35868993E+00  3.51253645E-31
  2.74801027E+00  1.35868993E+00  3.51253645E-31  2.74801027E+00  1.35868993E+00
  3.51253645E-31  2.74801027E+00  1.35868993E+00  3.51253645E-31  2.29993016E-17
  1.27131399E+00  6.23626308E-32  2.29993016E-17  1.27131399E+00  6.23626308E-32
  2.29993016E-17  1.27131399E+00  6.23626308E-32  2.29993016E-17  1.27131399E+00
  6.23626308E-32  2.29993016E-17  1.27131399E+00  6.23626308E-32  2.29993016E-17
  1.27131399E+00  6.23626308E-32  2.29993016E-17  1.27131399E+00  6.23626308E-32
  2.29993016E-17  1.27131399E+00  6.23626308E-32  2.29993016E-17  1.27131399E+00
  6.23626308E-32  2.29993016E-17  1.27131399E+00  6.23626308E-32  2.29993016E-17
  1.27131399E+00  6.23626308E-32  2.29993016E-17  1.27131399E+00  6.23626308E-32
  2.29993016E-17  1.27131399E+00  6.23626308E-32  2.29993016E-17  1.27131399E+00
  6.23626308E-32 -5.01250561E-01 -1.43943419E+00 -1.22522877E-31 -5.01250561E-01
 -1.43943419E+00 -1.22522877E-31 -5.01250561E-01 -1.43943419E+00 -1.22522877E-31
 -5.01250561E-01 -1.43943419E+00 -1.22522877E-31 -5.01250561E-01 -1.43943419E+00
 -1.22522877E-31 -5.01250561E-01 -1.43943419E+00 -1.22522877E-31 -5.01250561E-01
 -1.43943419E+00 -1.22522877E-31 -5.01250561E-01 -1.43943419E+00 -1.22522877E-31
 -5.01250561E-01 -1.43943419E+00 -1.22522877E-31 -5.01250561E-01 -1.43943419E+00
 -1.22522877E-31 -5.01250561E-01 -1.43943419E+00 -1.22522877E-31 -5.01250561E-01
 -1.43943419E+00 -1.22522877E-31 -5.01250561E-01 -1.43943419E+00 -1.22522877E-31
 -5.01250561E-01 -1.43943419E+00 -1.22522877E-31 -2.67594362E+00 -1.76806137E+00
 -3.63871049E-31 -2.67594362E+00 -1.76806137E+00 -3.63871049E-31 -2.67594362E+00
 -1.76806137E+00 -3.63871049E-31 -2.67594362E+00 -1.76806137E+00 -3.63871049E-31
 -2.67594362E+00 -1.76806137E+00 -3.63871049E-31 -2.67594362E+00 -1.76806137E+00
 -3.63871049E-31 -2.67594362E+00 -1.76806137E+00 -3.63871049E-31 -2.67594362E+00
 -1.76806137E+00 -3.63871049E-31 -2.67594362E+00 -1.76806137E+00 -3.63871049E-31
 -2.67594362E+00 -1.76806137E+00 -3.63871049E-31 -2.67594362E+00 -1.76806137E+00
 -3.63871049E-31 -2.67594362E+00 -1.76806137E+00 -3.63871049E-31 -2.67594362E+00
 -1.76806137E+00 -3.63871049E-31 -2.67594362E+00 -1.76806137E+00 -3.63871049E-31
Num ILSW                                   I              100
ILSW                                       I   N=         100
           0           0           0           0           2           0
           0           0           0           0           0          -1
           5           0           0           0           0           0
           0           0           0           0           0           0
           1           0           0           0           0           0
           0           0      100000           0          -1           0
           0           0           0           0           0           0
           0           0           0           1           0           0
           0 -2000000000           1           0           0           0
           0           0           4          52           0           0
           0           0           0           0           0           0
           0           0           0           5           0           1
           0           0           0           0           0           0
           0           0           0           0           0           0
           0           0           0           0           0           0
           0           0           0           0           0           0
           0           0           0           0
Num RLSW                                   I               52
RLSW                                       R   N=          52
  1.00000000E+00  1.00000000E+00  1.00000000E+00  1.00000000E+00  1.00000000E+00
  0.00000000E+00  0.00000000E+00  1.00000000E+00  0.00000000E+00  0.00000000E+00
  0.00000000E+00  0.00000000E+00  1.00000000E+00  0.00000000E+00  0.00000000E+00
  0.00000000E+00  0.00000000E+00  1.00000000E+00  0.00000000E+00  0.00000000E+00
  0.00000000E+00  0.00000000E+00  1.00000000E+00  0.00000000E+00  0.00000000E+00
  0.00000000E+00  0.00000000E+00  1.00000000E+00  0.00000000E+00  0.00000000E+00
  0.00000000E+00  0.00000000E+00  1.00000000E+00  0.00000000E+00  0.00000000E+00
  0.00000000E+00  0.00000000E+00  0.00000000E+00  1.00000000E+00  1.00000000E+00
  0.00000000E+00  1.00000000E+00  0.00000000E+00  0.00000000E+00  0.00000000E+00
  0.00000000E+00  0.00000000E+00  0.00000000E+00  0.00000000E+00  0.00000000E+00
  0.00000000E+00  0.00000000E+00
MxBond                                     I                2
NBond                                      I   N=           5
           1           2           2           2           1
IBond                                      I   N=          10
           2           0           1           3           2           4
           3           5           4           0
RBond                                      R   N=          10
  1.00000000E+00  0.00000000E+00  1.00000000E+00  1.00000000E+00  1.00000000E+00
  1.00000000E+00  1.00000000E+00  2.00000000E+00  2.00000000E+00  0.00000000E+00
Virial Ratio                               R      2.002235359173995E+00
SCF Energy                                 R     -2.795027824069508E+02
MP2 Energy                                 R     -2.804466601976415E+02
Total Energy                               R     -2.804466601976415E+02
Post-SCF wavefunction norm                 R      1.119745021818569E+00
RMS Density                                R      3.608581925837523E-09
Job Status                                 I                1
Nuclear derivative order                   I                0
External E-field                           R   N=          35
  0.00000000E+00  0.00000000E+00  0.00000000E+00  0.00000000E+00  0.00000000E+00
  0.00000000E+00  0.00000000E+00  0.00000000E+00  0.00000000E+00  0.00000000E+00
  0.00000000E+00  0.00000000E+00  0.00000000E+00  0.00000000E+00  0.00000000E+00
  0.00000000E+00  0.00000000E+00  0.00000000E+00  0.00000000E+00  0.00000000E+00
  0.00000000E+00  0.00000000E+00  0.00000000E+00  0.00000000E+00  0.00000000E+00
  0.00000000E+00  0.00000000E+00  0.00000000E+00  0.00000000E+00  0.00000000E+00
  0.00000000E+00  0.00000000E+00  0.00000000E+00  0.00000000E+00  0.00000000E+00
IOpCl                                      I                0
IROHF                                      I                0
Alpha Orbital Energies                     R   N=         207
 -2.06892650E+01 -2.06845853E+01 -2.06590989E+01 -1.58118325E+01 -1.62967704E+00
 -1.49580004E+00 -1.25371439E+00 -9.47134975E-01 -7.73617960E-01 -7.61006975E-01
 -7.13257954E-01 -6.80173058E-01 -6.21807692E-01 -5.88972659E-01 -4.84638618E-01
 -4.71152707E-01  2.98146793E-02  7.37926072E-02  8.58275062E-02  1.01717370E-01
  1.33826449E-01  1.34045127E-01  1.44226051E-01  1.54700359E-01  1.78383375E-01
  1.94094012E-01  2.00064614E-01  2.06372311E-01  2.21039727E-01  2.36011139E-01
  2.37429080E-01  2.66127274E-01  2.94131773E-01  3.04157424E-01  3.10784103E-01
  3.43359384E-01  3.49973654E-01  3.87488385E-01  4.22326725E-01  4.31741051E-01
  5.27198587E-01  5.30167741E-01  5.58883973E-01  5.81802221E-01  6.29629605E-01
  6.38038631E-01  6.72338593E-01  6.84994994E-01  7.06463736E-01  7.11324348E-01
  7.24348703E-01  7.29815730E-01  7.44659257E-01  7.91927933E-01  7.92482917E-01
  8.10087708E-01  8.13343782E-01  8.32422906E-01  8.68812063E-01  9.08939092E-01
  9.22590136E-01  9.26956697E-01  9.56982749E-01  9.79008506E-01  9.85228036E-01
  1.01680610E+00  1.05245381E+00  1.05544090E+00  1.08382313E+00  1.11862222E+00
  1.14186163E+00  1.18992514E+00  1.22175863E+00  1.23369864E+00  1.33936820E+00
  1.35091224E+00  1.38735383E+00  1.45385990E+00  1.48814583E+00  1.50984891E+00
  1.53822510E+00  1.56691712E+00  1.57957834E+00  1.61377931E+00  1.66578772E+00
  1.67001848E+00  1.70305111E+00  1.79351317E+00  1.83067945E+00  1.83495029E+00
  1.88016947E+00  1.90996095E+00  1.95435809E+00  1.99396887E+00  2.00569023E+00
  2.07808044E+00  2.12120631E+00  2.13272333E+00  2.15066319E+00  2.22481828E+00
  2.26508668E+00  2.26539046E+00  2.29022648E+00  2.31517725E+00  2.34627137E+00
  2.38676976E+00  2.42601899E+00  2.43050115E+00  2.45436532E+00  2.46375110E+00
  2.47781561E+00  2.50263065E+00  2.59047331E+00  2.59805360E+00  2.62226078E+00
  2.62750585E+00  2.63556193E+00  2.66973384E+00  2.76022893E+00  2.82797157E+00
  2.85842063E+00  2.88758199E+00  2.89590236E+00  2.92677937E+00  2.95981104E+00
  3.02672195E+00  3.06706606E+00  3.12398494E+00  3.20531557E+00  3.22854532E+00
  3.31804102E+00  3.34275276E+00  3.52005850E+00  3.64403738E+00  3.83935358E+00
  3.84661017E+00  4.14957917E+00  4.16411579E+00  4.18493546E+00  4.27410220E+00
  4.35250333E+00  4.39436309E+00  4.46520206E+00  4.52069769E+00  4.67039381E+00
  4.71193847E+00  4.80857128E+00  4.82623028E+00  4.83080648E+00  4.89542317E+00
  5.02219378E+00  5.07815356E+00  5.10621567E+00  5.14095151E+00  5.18121388E+00
  5.24510528E+00  5.27278186E+00  5.30746097E+00  5.33079410E+00  5.36216780E+00
  5.60780939E+00  5.68515866E+00  5.77626288E+00  5.83209630E+00  5.95543255E+00
  6.17046311E+00  6.31009438E+00  6.33902949E+00  6.39544546E+00  6.49362491E+00
  6.50551952E+00  6.61478340E+00  6.66893179E+00  6.70239404E+00  6.75892308E+00
  6.76466987E+00  6.83693040E+00  6.90088696E+00  7.01583420E+00  7.05824010E+00
  7.05851344E+00  7.09117033E+00  7.12790277E+00  7.15161172E+00  7.18257848E+00
  7.23015511E+00  7.24327875E+00  7.31072120E+00  7.33839425E+00  7.35248281E+00
  7.40641513E+00  7.43272232E+00  7.48544691E+00  7.60950792E+00  7.62884038E+00
  7.63610795E+00  7.66788393E+00  7.79523178E+00  7.89829324E+00  8.09603431E+00
  8.31754341E+00  8.41007009E+00  8.54600850E+00  1.34038876E+01  1.44485955E+01
  1.51650640E+01  1.63652944E+01
Alpha MO coefficients                      R   N=       42849
  9.22344809E-05 -6.32087509E-04 -7.28321807E-04 -4.01302372E-06 -2.14040991E-05
 -2.72140614E-05  0.00000000E+00 -4.32472697E-05  5.91084432E-05  0.00000000E+00
  8.83562598E-05  3.68892329E-05  0.00000000E+00  3.19173595E-05  0.00000000E+00
  0.00000000E+00 -4.97991165E-05  2.10637170E-05 -4.41798478E-06  0.00000000E+00
  0.00000000E+00 -1.38657903E-04  1.17875016E-04  4.69445518E-03 -2.82790860E-04
  1.94555479E-05  1.54932598E-03  1.82548053E-03  1.06211515E-04  7.41471475E-06
  0.00000000E+00 -6.17214330E-04 -3.46248292E-05  0.00000000E+00 -1.10147767E-03
  7.87173874E-04  0.00000000E+00 -4.04105349E-04  6.27386351E-05  0.00000000E+00
  2.88617879E-05  0.00000000E+00  0.00000000E+00 -5.42396580E-05  6.16335351E-06
 -3.78248383E-04  0.00000000E+00  0.00000000E+00  7.41131581E-04 -3.63870275E-05
 -4.46864308E-04  0.00000000E+00  0.00000000E+00  2.44457735E-04 -1.36568424E-05
  0.00000000E+00  8.01368949E-05  1.25100095E-05  0.00000000E+00  0.00000000E+00
 -1.09707265E-04 -2.47912107E-06  0.00000000E+00  2.55310169E-04 -2.79624705E-05
  0.00000000E+00  0.00000000E+00 -3.52872984E-04  5.29240611E-05  9.76904982E-01
 -9.21760299E-03  4.33212813E-02  2.05937008E-03 -9.10436445E-04  1.49188528E-03
 -1.34824186E-03  0.00000000E+00 -1.43484913E-03  1.37676983E-03  0.00000000E+00
  8.16676148E-05 -1.16208119E-03  0.00000000E+00 -1.33974951E-04 -1.22778035E-05
  0.00000000E+00  4.60914794E-05  0.00000000E+00  0.00000000E+00 -3.56066701E-05
  2.19379606E-05  7.45750253E-04  0.00000000E+00  0.00000000E+00 -2.38316166E-04
 -3.88019825E-04 -3.59715372E-04  0.00000000E+00  0.00000000E+00 -3.12676617E-04
 -3.71081818E-04  0.00000000E+00  4.74512449E-05 -4.86516439E-05  0.00000000E+00
  0.00000000E+00 -3.90023720E-05 -1.52209293E-05  0.00000000E+00  2.33473997E-05
  2.16366989E-05  0.00000000E+00  0.00000000E+00 -3.06408255E-04 -1.36687607E-04
  3.79536801E-05  3.95054376E-05 -2.64226040E-04 -7.22863833E-04 -1.57362231E-04
 -2.66817410E-05 -9.66327963E-05  0.00000000E+00  2.76096643E-04  7.06077682E-04
  0.00000000E+00 -8.44983353E-04 -4.96210091E-04  0.00000000E+00 -1.26399635E-04
 -3.04283347E-05  0.00000000E+00 -1.80180371E-05  0.00000000E+00  0.00000000E+00
 -3.02153300E-05  1.52333574E-05 -3.26331513E-04  0.00000000E+00  0.00000000E+00
 -8.25062451E-04  1.29886909E-04 -3.41141981E-05  0.00000000E+00  0.00000000E+00
  1.00746787E-04 -1.17315635E-04  0.00000000E+00 -2.06496748E-05 -1.19674448E-04
  0.00000000E+00  0.00000000E+00 -6.32524468E-05 -1.36335171E-04  0.00000000E+00
  3.24314717E-06 -1.51148156E-04  0.00000000E+00  0.00000000E+00  4.31059119E-05
 -4.17428448E-04 -3.66648247E-03  1.33161168E-04 -1.71377648E-04 -2.46588653E-04
  1.46340355E-04 -1.05759080E-05 -2.79738611E-05  0.00000000E+00  7.31118127E-05
  1.63962210E-04  0.00000000E+00  2.43458506E-04  2.06649118E-04  0.00000000E+00
  1.29621552E-04  2.57440187E-05  0.00000000E+00 -2.95778341E-06  0.00000000E+00
  0.00000000E+00 -1.84499176E-05  1.48480505E-06  5.89953593E-07  0.00000000E+00
  0.00000000E+00  8.40635434E-05  8.59432240E-05 -1.02390322E-04  0.00000000E+00
  0.00000000E+00  1.69328237E-04  1.64775788E-04  0.00000000E+00  1.57874761E-05
 -3.18135773E-06  0.00000000E+00  0.00000000E+00 -3.58821513E-06 -1.21921716E-05
  0.00000000E+00 -3.39340689E-05  4.55495517E-05  0.00000000E+00  0.00000000E+00
  8.45504793E-05  8.92036669E-05  3.98907202E-05 -9.83965038E-04 -4.77601170E-04
 -9.25715147E-06 -2.19085687E-05  1.55814363E-05  0.00000000E+00  2.54486018E-06
  2.72275783E-04  0.00000000E+00 -3.96116382E-05  1.31134227E-04  0.00000000E+00
  2.59586601E-05  0.00000000E+00  0.00000000E+00  1.21497021E-05  1.05114331E-05
 -2.76640657E-05  0.00000000E+00  0.00000000E+00  1.18002565E-05  3.36519133E-05
  1.14155444E-04  8.40784815E-05 -2.82696085E-05  7.54458610E-04  6.46865824E-04
  1.07879483E-05  2.26083247E-06  0.00000000E+00 -7.62173395E-05  1.67057609E-05
  0.00000000E+00  3.24910625E-04  9.02785459E-04  0.00000000E+00  6.16320003E-07
  7.75222745E-05  0.00000000E+00 -2.33123542E-06  0.00000000E+00  0.00000000E+00
 -4.40402197E-07 -5.69876368E-06 -3.62396533E-05  0.00000000E+00  0.00000000E+00
 -1.54488983E-05  8.06825151E-05 -2.52206539E-05  0.00000000E+00  0.00000000E+00
 -2.66100630E-04 -1.66165074E-04  0.00000000E+00  9.18189737E-06  5.82237134E-06
  0.00000000E+00  0.00000000E+00  1.96168122E-06 -1.83392473E-05  0.00000000E+00
 -3.88932475E-05 -3.74485529E-05  0.00000000E+00  0.00000000E+00 -7.67321011E-05
  2.13482171E-05  3.70553835E-03  2.80674744E-05  1.40623333E-04 -7.12040910E-05
 -4.63214340E-04  8.31506940E-06  1.43429656E-05  0.00000000E+00 -6.11563097E-05
 -5.22275950E-05  0.00000000E+00  2.40973552E-04 -2.07530001E-04  0.00000000E+00
 -1.83424725E-04 -6.37012875E-05  0.00000000E+00 -8.66538138E-06  0.00000000E+00
  0.00000000E+00  2.32664519E-05  2.11286671E-05  6.19731577E-06  0.00000000E+00
  0.00000000E+00 -1.22562176E-04 -5.54302399E-05 -5.49279112E-06  0.00000000E+00
  0.00000000E+00 -2.28317489E-04 -2.20802969E-04  0.00000000E+00  3.03783371E-06
 -9.14864783E-07  0.00000000E+00  0.00000000E+00  1.50699101E-06 -1.20704758E-05
  0.00000000E+00 -4.63098618E-05  5.79776277E-06  0.00000000E+00  0.00000000E+00
 -8.29836252E-05  1.87227759E-04  2.60146111E-04  1.47415173E-03 -4.74074845E-05
 -1.69186695E-03  3.56357033E-04 -1.62080942E-04 -2.68513098E-06  0.00000000E+00
 -2.06377233E-03 -3.88724978E-04  0.00000000E+00  1.11421862E-03  7.64511129E-04
  0.00000000E+00 -1.63654005E-04  5.62089524E-05  0.00000000E+00 -1.21224723E-04
  0.00000000E+00  0.00000000E+00  2.41128647E-04  9.30556238E-05 -4.22152626E-04
  0.00000000E+00  0.00000000E+00  8.60041268E-04 -9.34473894E-05  2.21298091E-05
  0.00000000E+00  0.00000000E+00 -3.59732399E-04 -1.30293242E-04  0.00000000E+00
 -1.26186699E-05  1.29997286E-05  0.00000000E+00  0.00000000E+00  3.24459602E-05
  2.05797384E-05  0.00000000E+00  1.61327248E-04 -7.17614849E-05  0.00000000E+00
  0.00000000E+00 -2.23941321E-04  4.06008898E-05  9.76634371E-01 -9.83778691E-03
  4.35874801E-02  4.64228214E-03 -3.95749996E-04  2.15608714E-03  4.77131371E-04
  0.00000000E+00 -2.35155246E-03 -5.94661676E-04  0.00000000E+00  1.17172202E-03
  2.93533779E-06  0.00000000E+00  9.95121802E-06 -4.03711524E-05  0.00000000E+00
 -2.37325912E-04  0.00000000E+00  0.00000000E+00  1.11382379E-04  3.41877409E-05
  3.85591852E-04  0.00000000E+00  0.00000000E+00 -8.23290612E-04 -4.12659445E-04
 -1.47581492E-04  0.00000000E+00  0.00000000E+00  2.47975063E-04  1.59362680E-05
  0.00000000E+00  4.81868215E-05  1.71194299E-05  0.00000000E+00  0.00000000E+00
 -1.71259722E-05 -1.10317714E-05  0.00000000E+00  1.42652194E-04  9.66426964E-06
  0.00000000E+00  0.00000000E+00 -1.92399160E-04 -1.40842998E-04  4.74870349E-04
  2.06326949E-03  1.17134872E-04  1.46249757E-05 -4.17153525E-05 -2.46761859E-04
  0.00000000E+00  1.07890678E-04 -1.27593305E-03  0.00000000E+00  3.08639664E-04
 -3.40021850E-04  0.00000000E+00 -2.65860889E-06  0.00000000E+00  0.00000000E+00
  7.60401230E-05  1.49623317E-05 -1.60195371E-04  0.00000000E+00  0.00000000E+00
 -5.37307900E-04 -2.06809080E-05  9.76829360E-01 -9.16312902E-03  4.34500506E-02
  1.64523307E-04 -1.14023085E-03 -1.55709656E-03  1.44636007E-03  0.00000000E+00
  1.56998625E-03 -1.28914356E-03  0.00000000E+00 -5.72734257E-04 -8.67241800E-04
  0.00000000E+00  5.62075624E-05 -2.99678198E-05  0.00000000E+00  2.93917969E-05
  0.00000000E+00  0.00000000E+00 -1.17929098E-04 -2.17155360E-06  7.57346279E-04
  0.00000000E+00  0.00000000E+00 -2.02721189E-04 -2.34338864E-04 -2.66016225E-04
  0.00000000E+00  0.00000000E+00  1.69883013E-04  1.27378055E-04  0.00000000E+00
 -6.40779356E-05  1.40793339E-06  0.00000000E+00  0.00000000E+00  1.88700216E-05
  9.73238635E-06  0.00000000E+00 -8.61405891E-07  1.22968190E-04  0.00000000E+00
  0.00000000E+00  2.57996741E-04  8.96895294E-05 -4.78680697E-03 -2.10269482E-04