 Entering Gaussian System, Link 0=g16
 Input=hoono_d2_183p3042.gjf
 Output=hoono_d2_183p3042.log
 Initial command:
 /sw/contrib/gaussian/g16/B01/g16/l1.exe "/scr/Gau-16240.inp" -scrdir="/scr/"
 Entering Link 1 = /sw/contrib/gaussian/g16/B01/g16/l1.exe PID=     16241.
  
 Copyright (c) 1988-2017, Gaussian, Inc.  All Rights Reserved.
  
 This is part of the Gaussian(R) 16 program.  It is based on
 the Gaussian(R) 09 system (copyright 2009, Gaussian, Inc.),
 the Gaussian(R) 03 system (copyright 2003, Gaussian, Inc.),
 the Gaussian(R) 98 system (copyright 1998, Gaussian, Inc.),
 the Gaussian(R) 94 system (copyright 1995, Gaussian, Inc.),
 the Gaussian 92(TM) system (copyright 1992, Gaussian, Inc.),
 the Gaussian 90(TM) system (copyright 1990, Gaussian, Inc.),
 the Gaussian 88(TM) system (copyright 1988, Gaussian, Inc.),
 the Gaussian 86(TM) system (copyright 1986, Carnegie Mellon
 University), and the Gaussian 82(TM) system (copyright 1983,
 Carnegie Mellon University). Gaussian is a federally registered
 trademark of Gaussian, Inc.
  
 This software contains proprietary and confidential information,
 including trade secrets, belonging to Gaussian, Inc.
  
 This software is provided under written license and may be
 used, copied, transmitted, or stored only in accord with that
 written license.
  
 The following legend is applicable only to US Government
 contracts under FAR:
  
                    RESTRICTED RIGHTS LEGEND
  
 Use, reproduction and disclosure by the US Government is
 subject to restrictions as set forth in subparagraphs (a)
 and (c) of the Commercial Computer Software - Restricted
 Rights clause in FAR 52.227-19.
  
 Gaussian, Inc.
 340 Quinnipiac St., Bldg. 40, Wallingford CT 06492
  
  
 ---------------------------------------------------------------
 Warning -- This program may not be used in any manner that
 competes with the business of Gaussian, Inc. or will provide
 assistance to any competitor of Gaussian, Inc.  The licensee
 of this program is prohibited from giving any competitor of
 Gaussian, Inc. access to this program.  By using this program,
 the user acknowledges that Gaussian, Inc. is engaged in the
 business of creating and licensing software in the field of
 computational chemistry and represents and warrants to the
 licensee that it is not a competitor of Gaussian, Inc. and that
 it will not use this program in any manner prohibited above.
 ---------------------------------------------------------------
  

 Cite this work as:
 Gaussian 16, Revision B.01,
 M. J. Frisch, G. W. Trucks, H. B. Schlegel, G. E. Scuseria, 
 M. A. Robb, J. R. Cheeseman, G. Scalmani, V. Barone, 
 G. A. Petersson, H. Nakatsuji, X. Li, M. Caricato, A. V. Marenich, 
 J. Bloino, B. G. Janesko, R. Gomperts, B. Mennucci, H. P. Hratchian, 
 J. V. Ortiz, A. F. Izmaylov, J. L. Sonnenberg, D. Williams-Young, 
 F. Ding, F. Lipparini, F. Egidi, J. Goings, B. Peng, A. Petrone, 
 T. Henderson, D. Ranasinghe, V. G. Zakrzewski, J. Gao, N. Rega, 
 G. Zheng, W. Liang, M. Hada, M. Ehara, K. Toyota, R. Fukuda, 
 J. Hasegawa, M. Ishida, T. Nakajima, Y. Honda, O. Kitao, H. Nakai, 
 T. Vreven, K. Throssell, J. A. Montgomery, Jr., J. E. Peralta, 
 F. Ogliaro, M. J. Bearpark, J. J. Heyd, E. N. Brothers, K. N. Kudin, 
 V. N. Staroverov, T. A. Keith, R. Kobayashi, J. Normand, 
 K. Raghavachari, A. P. Rendell, J. C. Burant, S. S. Iyengar, 
 J. Tomasi, M. Cossi, J. M. Millam, M. Klene, C. Adamo, R. Cammi, 
 J. W. Ochterski, R. L. Martin, K. Morokuma, O. Farkas, 
 J. B. Foresman, and D. J. Fox, Gaussian, Inc., Wallingford CT, 2016.
 
 ******************************************
 Gaussian 16:  ES64L-G16RevB.01 20-Dec-2017
                14-Feb-2022 
 ******************************************
 %nproc=28
 Will use up to   28 processors via shared memory.
 %mem=120GB
 %chk=hoono_d2_183p3042.chk
 -------------------------------------
 #p SP mp2/aug-cc-pvtz density=current
 -------------------------------------
 1/30=1,38=1,172=1/1;
 2/12=2,17=6,18=5,40=1/2;
 3/5=16,6=1,7=10,11=9,25=1,30=1,71=1/1,2,3;
 4//1;
 5/5=2,38=5/2;
 8/6=4,10=1/1;
 9/15=1,16=-3/6;
 10/5=1,13=10/2;
 6/7=2,8=2,9=2,10=2,22=-1/1;
 99/5=1,9=1/99;
 Leave Link    1 at Mon Feb 14 22:14:09 2022, MaxMem= 16106127360 cpu:               6.1 elap:               0.2
 (Enter /sw/contrib/gaussian/g16/B01/g16/l101.exe)
 -----
 title
 -----
 Symbolic Z-matrix:
 Charge =  0 Multiplicity = 1
 H
 O                    1    r1
 O                    2    r2       1    a1
 N                    3    r3       2    a2       1    d1       0
 O                    4    r4       3    a3       2    d2       0
       Variables:
  r1                    0.96898                  
  r2                    1.45492                  
  r3                    1.45878                  
  r4                    1.17073                  
  a1                   97.59495                  
  a2                  102.29752                  
  a3                  109.06955                  
  d1                  180.                       
  d2                  183.30425                  
 
 ITRead=  0  0  0  0  0
 MicOpt= -1 -1 -1 -1 -1
 NAtoms=      5 NQM=        5 NQMF=       0 NMMI=      0 NMMIF=      0
                NMic=       0 NMicF=      0.
                    Isotopes and Nuclear Properties:
 (Nuclear quadrupole moments (NQMom) in fm**2, nuclear magnetic moments (NMagM)
  in nuclear magnetons)

  Atom         1           2           3           4           5
 IAtWgt=           1          16          16          14          16
 AtmWgt=   1.0078250  15.9949146  15.9949146  14.0030740  15.9949146
 NucSpn=           1           0           0           2           0
 AtZEff=  -0.0000000  -0.0000000  -0.0000000  -0.0000000  -0.0000000
 NQMom=    0.0000000   0.0000000   0.0000000   2.0440000   0.0000000
 NMagM=    2.7928460   0.0000000   0.0000000   0.4037610   0.0000000
 AtZNuc=   1.0000000   8.0000000   8.0000000   7.0000000   8.0000000
 Leave Link  101 at Mon Feb 14 22:14:09 2022, MaxMem= 16106127360 cpu:               2.3 elap:               0.1
 (Enter /sw/contrib/gaussian/g16/B01/g16/l202.exe)
                          Input orientation:                          
 ---------------------------------------------------------------------
 Center     Atomic      Atomic             Coordinates (Angstroms)
 Number     Number       Type             X           Y           Z
 ---------------------------------------------------------------------
      1          1           0        0.000000    0.000000    0.000000
      2          8           0        0.000000    0.000000    0.968976
      3          8           0        1.442156    0.000000    1.161271
      4          7           0        1.561752    0.000000    2.615144
      5          8           0        2.694034    0.063776    2.905790
 ---------------------------------------------------------------------
                    Distance matrix (angstroms):
                    1          2          3          4          5
     1  H    0.000000
     2  O    0.968976   0.000000
     3  O    1.851584   1.454919   0.000000
     4  N    3.045989   2.269127   1.458784   0.000000
     5  O    3.963017   3.318605   2.148165   1.170729   0.000000
 Stoichiometry    HNO3
 Framework group  C1[X(HNO3)]
 Deg. of freedom     9
 Full point group                 C1      NOp   1
 Largest Abelian subgroup         C1      NOp   1
 Largest concise Abelian subgroup C1      NOp   1
                         Standard orientation:                         
 ---------------------------------------------------------------------
 Center     Atomic      Atomic             Coordinates (Angstroms)
 Number     Number       Type             X           Y           Z
 ---------------------------------------------------------------------
      1          1           0        2.248694    0.434365   -0.016704
      2          8           0        1.598472   -0.284044   -0.012946
      3          8           0        0.400450    0.541049    0.014577
      4          7           0       -0.663806   -0.456622    0.022437
      5          8           0       -1.699179    0.088244   -0.019176
 ---------------------------------------------------------------------
 Rotational constants (GHZ):          54.8556644           5.0121179           4.5941132
 Leave Link  202 at Mon Feb 14 22:14:09 2022, MaxMem= 16106127360 cpu:               2.2 elap:               0.1
 (Enter /sw/contrib/gaussian/g16/B01/g16/l301.exe)
 Standard basis: Aug-CC-pVTZ (5D, 7F)
 Ernie: Thresh=  0.10000D-02 Tol=  0.10000D-05 Strict=F.
 Ernie:  12 primitive shells out of 131 were deleted.
 There are   245 symmetry adapted cartesian basis functions of A   symmetry.
 There are   207 symmetry adapted basis functions of A   symmetry.
   207 basis functions,   315 primitive gaussians,   245 cartesian basis functions
    16 alpha electrons       16 beta electrons
       nuclear repulsion energy       116.8746016238 Hartrees.
 IExCor=    0 DFT=F Ex=HF Corr=None ExCW=0 ScaHFX=  1.000000
 ScaDFX=  1.000000  1.000000  1.000000  1.000000 ScalE2=  1.000000  1.000000
 IRadAn=      5 IRanWt=     -1 IRanGd=            0 ICorTp=0 IEmpDi=  4
 NAtoms=    5 NActive=    5 NUniq=    5 SFac= 1.00D+00 NAtFMM=   60 NAOKFM=F Big=F
 Integral buffers will be    131072 words long.
 Raffenetti 1 integral format.
 Two-electron integral symmetry is turned on.
 Leave Link  301 at Mon Feb 14 22:14:09 2022, MaxMem= 16106127360 cpu:               2.0 elap:               0.1
 (Enter /sw/contrib/gaussian/g16/B01/g16/l302.exe)
 NPDir=0 NMtPBC=     1 NCelOv=     1 NCel=       1 NClECP=     1 NCelD=      1
         NCelK=      1 NCelE2=     1 NClLst=     1 CellRange=     0.0.
 One-electron integrals computed using PRISM.
 One-electron integral symmetry used in STVInt
 NBasis=   207 RedAO= T EigKep=  1.82D-04  NBF=   207
 NBsUse=   207 1.00D-06 EigRej= -1.00D+00 NBFU=   207
 Leave Link  302 at Mon Feb 14 22:14:09 2022, MaxMem= 16106127360 cpu:               5.2 elap:               0.2
 (Enter /sw/contrib/gaussian/g16/B01/g16/l303.exe)
 DipDrv:  MaxL=1.
 Leave Link  303 at Mon Feb 14 22:14:10 2022, MaxMem= 16106127360 cpu:               2.6 elap:               0.1
 (Enter /sw/contrib/gaussian/g16/B01/g16/l401.exe)
 ExpMin= 2.53D-02 ExpMax= 1.53D+04 ExpMxC= 5.22D+02 IAcc=3 IRadAn=         5 AccDes= 0.00D+00
 Harris functional with IExCor=  205 and IRadAn=       5 diagonalized for initial guess.
 HarFok:  IExCor=  205 AccDes= 0.00D+00 IRadAn=         5 IDoV= 1 UseB2=F ITyADJ=14
 ICtDFT=  3500011 ScaDFX=  1.000000  1.000000  1.000000  1.000000
 FoFCou: FMM=F IPFlag=           0 FMFlag=      100000 FMFlg1=           0
         NFxFlg=           0 DoJE=T BraDBF=F KetDBF=T FulRan=T
         wScrn=  0.000000 ICntrl=       500 IOpCl=  0 I1Cent=   200000004 NGrid=           0
         NMat0=    1 NMatS0=      1 NMatT0=    0 NMatD0=    1 NMtDS0=    0 NMtDT0=    0
 Petite list used in FoFCou.
 Harris En= -279.628634512144    
 JPrj=0 DoOrth=F DoCkMO=F.
 Leave Link  401 at Mon Feb 14 22:14:10 2022, MaxMem= 16106127360 cpu:               6.7 elap:               0.3
 (Enter /sw/contrib/gaussian/g16/B01/g16/l502.exe)
 Keep R1 ints in memory in canonical form, NReq=245616893.
 FoFCou: FMM=F IPFlag=           0 FMFlag=           0 FMFlg1=           0
         NFxFlg=           0 DoJE=F BraDBF=F KetDBF=F FulRan=T
         wScrn=  0.000000 ICntrl=       600 IOpCl=  0 I1Cent=           0 NGrid=           0
         NMat0=    1 NMatS0=  21528 NMatT0=    0 NMatD0=    1 NMtDS0=    0 NMtDT0=    0
 Symmetry not used in FoFCou.
 Two-electron integral symmetry not used.
 Closed shell SCF:
 Using DIIS extrapolation, IDIIS=  1040.
 NGot= 16106127360 LenX= 15874260251 LenY= 15874199785
 Requested convergence on RMS density matrix=1.00D-08 within 128 cycles.
 Requested convergence on MAX density matrix=1.00D-06.
 Requested convergence on             energy=1.00D-06.
 No special actions if energy rises.

 Cycle   1  Pass 1  IDiag  1:
 E= -279.370468393240    
 DIIS: error= 2.58D-02 at cycle   1 NSaved=   1.
 NSaved= 1 IEnMin= 1 EnMin= -279.370468393240     IErMin= 1 ErrMin= 2.58D-02
 ErrMax= 2.58D-02  0.00D+00 EMaxC= 1.00D-01 BMatC= 4.38D-01 BMatP= 4.38D-01
 IDIUse=3 WtCom= 7.42D-01 WtEn= 2.58D-01
 Coeff-Com:  0.100D+01
 Coeff-En:   0.100D+01
 Coeff:      0.100D+01
 Gap=     0.519 Goal=   None    Shift=    0.000
 GapD=    0.519 DampG=2.000 DampE=0.500 DampFc=1.0000 IDamp=-1.
 RMSDP=1.62D-03 MaxDP=9.92D-02              OVMax= 1.13D-01

 Cycle   2  Pass 1  IDiag  1:
 E= -279.452417008178     Delta-E=       -0.081948614938 Rises=F Damp=F
 DIIS: error= 1.78D-02 at cycle   2 NSaved=   2.
 NSaved= 2 IEnMin= 2 EnMin= -279.452417008178     IErMin= 2 ErrMin= 1.78D-02
 ErrMax= 1.78D-02  0.00D+00 EMaxC= 1.00D-01 BMatC= 7.17D-02 BMatP= 4.38D-01
 IDIUse=3 WtCom= 8.22D-01 WtEn= 1.78D-01
 Coeff-Com:  0.195D+00 0.805D+00
 Coeff-En:   0.000D+00 0.100D+01
 Coeff:      0.160D+00 0.840D+00
 Gap=     0.534 Goal=   None    Shift=    0.000
 RMSDP=9.00D-04 MaxDP=3.73D-02 DE=-8.19D-02 OVMax= 6.91D-02

 Cycle   3  Pass 1  IDiag  1:
 E= -279.481513927678     Delta-E=       -0.029096919500 Rises=F Damp=F
 DIIS: error= 1.04D-02 at cycle   3 NSaved=   3.
 NSaved= 3 IEnMin= 3 EnMin= -279.481513927678     IErMin= 3 ErrMin= 1.04D-02
 ErrMax= 1.04D-02  0.00D+00 EMaxC= 1.00D-01 BMatC= 2.87D-02 BMatP= 7.17D-02
 IDIUse=3 WtCom= 8.96D-01 WtEn= 1.04D-01
 Coeff-Com: -0.330D-01 0.378D+00 0.655D+00
 Coeff-En:   0.000D+00 0.241D+00 0.759D+00
 Coeff:     -0.296D-01 0.364D+00 0.666D+00
 Gap=     0.510 Goal=   None    Shift=    0.000
 RMSDP=3.76D-04 MaxDP=1.54D-02 DE=-2.91D-02 OVMax= 3.81D-02

 Cycle   4  Pass 1  IDiag  1:
 E= -279.500567968109     Delta-E=       -0.019054040431 Rises=F Damp=F
 DIIS: error= 1.29D-03 at cycle   4 NSaved=   4.
 NSaved= 4 IEnMin= 4 EnMin= -279.500567968109     IErMin= 4 ErrMin= 1.29D-03
 ErrMax= 1.29D-03  0.00D+00 EMaxC= 1.00D-01 BMatC= 4.93D-04 BMatP= 2.87D-02
 IDIUse=3 WtCom= 9.87D-01 WtEn= 1.29D-02
 Coeff-Com: -0.117D-01 0.575D-01 0.158D+00 0.796D+00
 Coeff-En:   0.000D+00 0.000D+00 0.000D+00 0.100D+01
 Coeff:     -0.115D-01 0.567D-01 0.156D+00 0.798D+00
 Gap=     0.502 Goal=   None    Shift=    0.000
 RMSDP=9.02D-05 MaxDP=2.17D-03 DE=-1.91D-02 OVMax= 1.12D-02

 Cycle   5  Pass 1  IDiag  1:
 E= -279.501243781335     Delta-E=       -0.000675813225 Rises=F Damp=F
 DIIS: error= 7.36D-04 at cycle   5 NSaved=   5.
 NSaved= 5 IEnMin= 5 EnMin= -279.501243781335     IErMin= 5 ErrMin= 7.36D-04
 ErrMax= 7.36D-04  0.00D+00 EMaxC= 1.00D-01 BMatC= 8.71D-05 BMatP= 4.93D-04
 IDIUse=3 WtCom= 9.93D-01 WtEn= 7.36D-03
 Coeff-Com:  0.613D-02-0.724D-01-0.118D+00 0.202D-01 0.116D+01
 Coeff-En:   0.000D+00 0.000D+00 0.000D+00 0.000D+00 0.100D+01
 Coeff:      0.609D-02-0.719D-01-0.117D+00 0.200D-01 0.116D+01
 Gap=     0.502 Goal=   None    Shift=    0.000
 RMSDP=7.63D-05 MaxDP=2.10D-03 DE=-6.76D-04 OVMax= 1.11D-02

 Cycle   6  Pass 1  IDiag  1:
 E= -279.501559097724     Delta-E=       -0.000315316390 Rises=F Damp=F
 DIIS: error= 2.85D-04 at cycle   6 NSaved=   6.
 NSaved= 6 IEnMin= 6 EnMin= -279.501559097724     IErMin= 6 ErrMin= 2.85D-04
 ErrMax= 2.85D-04  0.00D+00 EMaxC= 1.00D-01 BMatC= 1.67D-05 BMatP= 8.71D-05
 IDIUse=3 WtCom= 9.97D-01 WtEn= 2.85D-03
 Coeff-Com:  0.593D-03 0.164D-02 0.456D-02-0.130D+00-0.231D+00 0.135D+01
 Coeff-En:   0.000D+00 0.000D+00 0.000D+00 0.000D+00 0.000D+00 0.100D+01
 Coeff:      0.591D-03 0.163D-02 0.454D-02-0.129D+00-0.231D+00 0.135D+01
 Gap=     0.502 Goal=   None    Shift=    0.000
 RMSDP=4.53D-05 MaxDP=1.06D-03 DE=-3.15D-04 OVMax= 5.55D-03

 Cycle   7  Pass 1  IDiag  1:
 E= -279.501631877525     Delta-E=       -0.000072779800 Rises=F Damp=F
 DIIS: error= 1.22D-04 at cycle   7 NSaved=   7.
 NSaved= 7 IEnMin= 7 EnMin= -279.501631877525     IErMin= 7 ErrMin= 1.22D-04
 ErrMax= 1.22D-04  0.00D+00 EMaxC= 1.00D-01 BMatC= 4.51D-06 BMatP= 1.67D-05
 IDIUse=3 WtCom= 9.99D-01 WtEn= 1.22D-03
 Coeff-Com: -0.939D-03 0.136D-01 0.265D-01-0.242D-01-0.287D+00 0.390D+00
 Coeff-Com:  0.882D+00
 Coeff-En:   0.000D+00 0.000D+00 0.000D+00 0.000D+00 0.000D+00 0.000D+00
 Coeff-En:   0.100D+01
 Coeff:     -0.938D-03 0.135D-01 0.264D-01-0.242D-01-0.287D+00 0.390D+00
 Coeff:      0.882D+00
 Gap=     0.502 Goal=   None    Shift=    0.000
 RMSDP=1.33D-05 MaxDP=3.78D-04 DE=-7.28D-05 OVMax= 1.55D-03

 Cycle   8  Pass 1  IDiag  1:
 E= -279.501640775404     Delta-E=       -0.000008897880 Rises=F Damp=F
 DIIS: error= 5.68D-05 at cycle   8 NSaved=   8.
 NSaved= 8 IEnMin= 8 EnMin= -279.501640775404     IErMin= 8 ErrMin= 5.68D-05
 ErrMax= 5.68D-05  0.00D+00 EMaxC= 1.00D-01 BMatC= 6.07D-07 BMatP= 4.51D-06
 IDIUse=1 WtCom= 1.00D+00 WtEn= 0.00D+00
 Coeff-Com: -0.449D-03 0.345D-02 0.761D-02 0.274D-01-0.409D-01-0.198D+00
 Coeff-Com:  0.172D+00 0.103D+01
 Coeff:     -0.449D-03 0.345D-02 0.761D-02 0.274D-01-0.409D-01-0.198D+00
 Coeff:      0.172D+00 0.103D+01
 Gap=     0.502 Goal=   None    Shift=    0.000
 RMSDP=6.91D-06 MaxDP=2.02D-04 DE=-8.90D-06 OVMax= 7.46D-04

 Cycle   9  Pass 1  IDiag  1:
 E= -279.501642553195     Delta-E=       -0.000001777790 Rises=F Damp=F
 DIIS: error= 1.58D-05 at cycle   9 NSaved=   9.
 NSaved= 9 IEnMin= 9 EnMin= -279.501642553195     IErMin= 9 ErrMin= 1.58D-05
 ErrMax= 1.58D-05  0.00D+00 EMaxC= 1.00D-01 BMatC= 6.94D-08 BMatP= 6.07D-07
 IDIUse=1 WtCom= 1.00D+00 WtEn= 0.00D+00
 Coeff-Com:  0.123D-03-0.173D-02-0.308D-02-0.207D-02 0.342D-01 0.487D-04
 Coeff-Com: -0.167D+00-0.103D+00 0.124D+01
 Coeff:      0.123D-03-0.173D-02-0.308D-02-0.207D-02 0.342D-01 0.487D-04
 Coeff:     -0.167D+00-0.103D+00 0.124D+01
 Gap=     0.502 Goal=   None    Shift=    0.000
 RMSDP=1.94D-06 MaxDP=5.17D-05 DE=-1.78D-06 OVMax= 1.75D-04

 Cycle  10  Pass 1  IDiag  1:
 E= -279.501642714289     Delta-E=       -0.000000161094 Rises=F Damp=F
 DIIS: error= 4.07D-06 at cycle  10 NSaved=  10.
 NSaved=10 IEnMin=10 EnMin= -279.501642714289     IErMin=10 ErrMin= 4.07D-06
 ErrMax= 4.07D-06  0.00D+00 EMaxC= 1.00D-01 BMatC= 5.59D-09 BMatP= 6.94D-08
 IDIUse=1 WtCom= 1.00D+00 WtEn= 0.00D+00
 Coeff-Com:  0.310D-04-0.242D-03-0.322D-03-0.270D-02 0.161D-02 0.197D-01
 Coeff-Com: -0.129D-01-0.744D-01-0.812D-01 0.115D+01
 Coeff:      0.310D-04-0.242D-03-0.322D-03-0.270D-02 0.161D-02 0.197D-01
 Coeff:     -0.129D-01-0.744D-01-0.812D-01 0.115D+01
 Gap=     0.502 Goal=   None    Shift=    0.000
 RMSDP=5.09D-07 MaxDP=2.11D-05 DE=-1.61D-07 OVMax= 4.18D-05

 Cycle  11  Pass 1  IDiag  1:
 E= -279.501642727038     Delta-E=       -0.000000012749 Rises=F Damp=F
 DIIS: error= 2.01D-06 at cycle  11 NSaved=  11.
 NSaved=11 IEnMin=11 EnMin= -279.501642727038     IErMin=11 ErrMin= 2.01D-06
 ErrMax= 2.01D-06  0.00D+00 EMaxC= 1.00D-01 BMatC= 6.74D-10 BMatP= 5.59D-09
 IDIUse=1 WtCom= 1.00D+00 WtEn= 0.00D+00
 Coeff-Com: -0.215D-04 0.246D-03 0.491D-03 0.541D-03-0.432D-02-0.362D-02
 Coeff-Com:  0.213D-01 0.313D-01-0.140D+00-0.181D+00 0.128D+01
 Coeff:     -0.215D-04 0.246D-03 0.491D-03 0.541D-03-0.432D-02-0.362D-02
 Coeff:      0.213D-01 0.313D-01-0.140D+00-0.181D+00 0.128D+01
 Gap=     0.502 Goal=   None    Shift=    0.000
 RMSDP=1.83D-07 MaxDP=6.52D-06 DE=-1.27D-08 OVMax= 1.75D-05

 Cycle  12  Pass 1  IDiag  1:
 E= -279.501642728927     Delta-E=       -0.000000001889 Rises=F Damp=F
 DIIS: error= 5.75D-07 at cycle  12 NSaved=  12.
 NSaved=12 IEnMin=12 EnMin= -279.501642728927     IErMin=12 ErrMin= 5.75D-07
 ErrMax= 5.75D-07  0.00D+00 EMaxC= 1.00D-01 BMatC= 7.54D-11 BMatP= 6.74D-10
 IDIUse=1 WtCom= 1.00D+00 WtEn= 0.00D+00
 Coeff-Com:  0.136D-05-0.307D-04-0.665D-04 0.184D-03 0.112D-02-0.232D-02
 Coeff-Com: -0.426D-02 0.539D-02 0.430D-01-0.115D+00-0.287D+00 0.136D+01
 Coeff:      0.136D-05-0.307D-04-0.665D-04 0.184D-03 0.112D-02-0.232D-02
 Coeff:     -0.426D-02 0.539D-02 0.430D-01-0.115D+00-0.287D+00 0.136D+01
 Gap=     0.502 Goal=   None    Shift=    0.000
 RMSDP=7.65D-08 MaxDP=2.82D-06 DE=-1.89D-09 OVMax= 6.77D-06

 Cycle  13  Pass 1  IDiag  1:
 E= -279.501642729180     Delta-E=       -0.000000000253 Rises=F Damp=F
 DIIS: error= 1.64D-07 at cycle  13 NSaved=  13.
 NSaved=13 IEnMin=13 EnMin= -279.501642729180     IErMin=13 ErrMin= 1.64D-07
 ErrMax= 1.64D-07  0.00D+00 EMaxC= 1.00D-01 BMatC= 5.03D-12 BMatP= 7.54D-11
 IDIUse=1 WtCom= 1.00D+00 WtEn= 0.00D+00
 Coeff-Com:  0.135D-05-0.145D-04-0.234D-04-0.959D-04 0.118D-03 0.832D-03
 Coeff-Com: -0.847D-03-0.354D-02 0.256D-03 0.446D-01-0.352D-01-0.351D+00
 Coeff-Com:  0.134D+01
 Coeff:      0.135D-05-0.145D-04-0.234D-04-0.959D-04 0.118D-03 0.832D-03
 Coeff:     -0.847D-03-0.354D-02 0.256D-03 0.446D-01-0.352D-01-0.351D+00
 Coeff:      0.134D+01
 Gap=     0.502 Goal=   None    Shift=    0.000
 RMSDP=2.30D-08 MaxDP=5.68D-07 DE=-2.53D-10 OVMax= 2.23D-06

 Cycle  14  Pass 1  IDiag  1:
 E= -279.501642729198     Delta-E=       -0.000000000018 Rises=F Damp=F
 DIIS: error= 6.64D-08 at cycle  14 NSaved=  14.
 NSaved=14 IEnMin=14 EnMin= -279.501642729198     IErMin=14 ErrMin= 6.64D-08
 ErrMax= 6.64D-08  0.00D+00 EMaxC= 1.00D-01 BMatC= 5.52D-13 BMatP= 5.03D-12
 IDIUse=1 WtCom= 1.00D+00 WtEn= 0.00D+00
 Coeff-Com: -0.333D-06 0.496D-05 0.856D-05 0.121D-04-0.111D-03-0.662D-06
 Coeff-Com:  0.422D-03 0.491D-03-0.302D-02-0.138D-02 0.240D-01-0.762D-02
 Coeff-Com: -0.334D+00 0.132D+01
 Coeff:     -0.333D-06 0.496D-05 0.856D-05 0.121D-04-0.111D-03-0.662D-06
 Coeff:      0.422D-03 0.491D-03-0.302D-02-0.138D-02 0.240D-01-0.762D-02
 Coeff:     -0.334D+00 0.132D+01
 Gap=     0.502 Goal=   None    Shift=    0.000
 RMSDP=7.71D-09 MaxDP=1.59D-07 DE=-1.83D-11 OVMax= 1.03D-06

 SCF Done:  E(RHF) =  -279.501642729     A.U. after   14 cycles
            NFock= 14  Conv=0.77D-08     -V/T= 2.0024
 KE= 2.788455332358D+02 PE=-8.950761959438D+02 EE= 2.198544183550D+02
 Leave Link  502 at Mon Feb 14 22:14:17 2022, MaxMem= 16106127360 cpu:              43.2 elap:               7.0
 (Enter /sw/contrib/gaussian/g16/B01/g16/l801.exe)
 ExpMin= 2.53D-02 ExpMax= 1.53D+04 ExpMxC= 5.22D+02 IAcc=3 IRadAn=         5 AccDes= 0.00D+00
 HarFok:  IExCor=  205 AccDes= 0.00D+00 IRadAn=         5 IDoV=-2 UseB2=F ITyADJ=14
 ICtDFT= 12500011 ScaDFX=  1.000000  1.000000  1.000000  1.000000
 DSYEVD-2 returned Info=          93 IAlg= 4 N=    46 NDim=    46 NE2=   350130240 trying  DSYEV.
 Largest valence mixing into a core orbital is  2.08D-04
 Largest core mixing into a valence orbital is  3.63D-05
 Range of M.O.s used for correlation:     5   207
 NBasis=   207 NAE=    16 NBE=    16 NFC=     4 NFV=     0
 NROrb=    203 NOA=    12 NOB=    12 NVA=   191 NVB=   191

 **** Warning!!: The largest alpha MO coefficient is  0.17663061D+02

 Leave Link  801 at Mon Feb 14 22:14:17 2022, MaxMem= 16106127360 cpu:               2.1 elap:               0.1
 (Enter /sw/contrib/gaussian/g16/B01/g16/l906.exe)
 Frozen-core derivative calculation, NFC=   4 NFV=   0.
 FulOut=F Deriv=T AODrv=F NAtomX=     5
   MMem=          76  MDisk=          12 MDiskD=          12
  W3Min=      811440 MinDsk=     1524655 NBas6D=         245
 NBas2D=       30762    NTT=       30135    LW2=     3500000
    MDV= 16105643539 MDiskM=      328645 NBas2p=       30466
 Fully in-core method, ICMem=   960157634.
 IMap=   1   2   3   4   5   6   7   8   9  10  11  12  13  14  15  16
 JobTyp=1 Pass  1 fully in-core, NPsUse= 28.
 Compute canonical integrals.
 FoFCou: FMM=F IPFlag=           0 FMFlag=           0 FMFlg1=           0
         NFxFlg=           0 DoJE=F BraDBF=F KetDBF=F FulRan=T
         wScrn=  0.000000 ICntrl=       600 IOpCl=  1 I1Cent=           0 NGrid=           0
         NMat0=    1 NMatS0=  30762 NMatT0=    0 NMatD0=    1 NMtDS0=    0 NMtDT0=    0
 Symmetry not used in FoFCou.
 Spin components of T(2) and E(2):
     alpha-alpha T2 =       0.3402227736D-01 E2=     -0.1224004782D+00
     alpha-beta  T2 =       0.1868409587D+00 E2=     -0.7002227829D+00
     beta-beta   T2 =       0.3402227736D-01 E2=     -0.1224004782D+00
 The integrals were generated   1 times.
 ANorm=    0.1120216726D+01
 E2 =    -0.9450237392D+00 EUMP2 =    -0.28044666646840D+03
 Leave Link  906 at Mon Feb 14 22:14:26 2022, MaxMem= 16106127360 cpu:             246.1 elap:               8.8
 (Enter /sw/contrib/gaussian/g16/B01/g16/l1002.exe)
 Minotr:  Closed shell wavefunction.
          Computing MP2/KS-MP2 derivatives.
          Using Z-Vector for PSCF gradient.
          Skipping F1 and S1 gradient terms here.
          Frozen-core window.
          Direct CPHF calculation.
          Differentiating once with respect to electric field.
                with respect to dipole field.
          Electric field/nuclear overlap derivatives assumed to be zero.
          Requested convergence is 1.0D-10 RMS, and 1.0D-09 maximum.
          NewPWx=F KeepS1=T KeepF1=T KeepIn=T MapXYZ=F SortEE=F KeepMc=T.
 Keep R1 ints in memory in canonical form, NReq=245621348.
 FoFCou: FMM=F IPFlag=           0 FMFlag=           0 FMFlg1=           0
         NFxFlg=           0 DoJE=F BraDBF=F KetDBF=F FulRan=T
         wScrn=  0.000000 ICntrl=       600 IOpCl=  0 I1Cent=           0 NGrid=           0
         NMat0=    1 NMatS0=  21528 NMatT0=    0 NMatD0=    1 NMtDS0=    0 NMtDT0=    0
 Symmetry not used in FoFCou.
 Two-electron integral symmetry not used.
          MDV=   16106127360 using IRadAn=       5.
          Solving linear equations separately, MaxMat=       0.
          There are     1 degrees of freedom in the 1st order CPHF.  IDoFFX=0 NUNeed=     1.
 LinEq1:  Iter=  0 NonCon=     1 RMS=5.96D-03 Max=1.32D-01 NDo=     1
 AX will form     1 AO Fock derivatives at one time.
 LinEq1:  Iter=  1 NonCon=     1 RMS=1.90D-03 Max=3.82D-02 NDo=     1
 LinEq1:  Iter=  2 NonCon=     1 RMS=8.68D-04 Max=1.40D-02 NDo=     1
 LinEq1:  Iter=  3 NonCon=     1 RMS=3.86D-04 Max=7.80D-03 NDo=     1
 LinEq1:  Iter=  4 NonCon=     1 RMS=1.19D-04 Max=1.89D-03 NDo=     1
 LinEq1:  Iter=  5 NonCon=     1 RMS=4.55D-05 Max=7.22D-04 NDo=     1
 LinEq1:  Iter=  6 NonCon=     1 RMS=2.03D-05 Max=2.17D-04 NDo=     1
 LinEq1:  Iter=  7 NonCon=     1 RMS=8.16D-06 Max=1.46D-04 NDo=     1
 LinEq1:  Iter=  8 NonCon=     1 RMS=3.49D-06 Max=3.39D-05 NDo=     1
 LinEq1:  Iter=  9 NonCon=     1 RMS=9.57D-07 Max=1.29D-05 NDo=     1
 LinEq1:  Iter= 10 NonCon=     1 RMS=1.95D-07 Max=2.30D-06 NDo=     1
 LinEq1:  Iter= 11 NonCon=     1 RMS=4.36D-08 Max=1.03D-06 NDo=     1
 LinEq1:  Iter= 12 NonCon=     1 RMS=1.45D-08 Max=4.00D-07 NDo=     1
 LinEq1:  Iter= 13 NonCon=     1 RMS=3.45D-09 Max=7.16D-08 NDo=     1
 LinEq1:  Iter= 14 NonCon=     1 RMS=6.56D-10 Max=1.00D-08 NDo=     1
 LinEq1:  Iter= 15 NonCon=     1 RMS=1.51D-10 Max=2.54D-09 NDo=     1
 LinEq1:  Iter= 16 NonCon=     0 RMS=3.98D-11 Max=6.93D-10 NDo=     1
 Linear equations converged to 1.000D-10 1.000D-09 after    16 iterations.
 End of Minotr F.D. properties file   721 does not exist.
 End of Minotr F.D. properties file   722 does not exist.
 End of Minotr F.D. properties file   788 does not exist.
 Leave Link 1002 at Mon Feb 14 22:14:34 2022, MaxMem= 16106127360 cpu:              39.0 elap:               8.1
 (Enter /sw/contrib/gaussian/g16/B01/g16/l601.exe)
 Copying SCF densities to generalized density rwf, IOpCl= 0 IROHF=0.

 **********************************************************************

            Population analysis using the MP2 Density.

 **********************************************************************

 Orbital symmetries:
       Occupied  (A) (A) (A) (A) (A) (A) (A) (A) (A) (A) (A) (A)
                 (A) (A) (A) (A)
       Virtual   (A) (A) (A) (A) (A) (A) (A) (A) (A) (A) (A) (A)
                 (A) (A) (A) (A) (A) (A) (A) (A) (A) (A) (A) (A)
                 (A) (A) (A) (A) (A) (A) (A) (A) (A) (A) (A) (A)
                 (A) (A) (A) (A) (A) (A) (A) (A) (A) (A) (A) (A)
                 (A) (A) (A) (A) (A) (A) (A) (A) (A) (A) (A) (A)
                 (A) (A) (A) (A) (A) (A) (A) (A) (A) (A) (A) (A)
                 (A) (A) (A) (A) (A) (A) (A) (A) (A) (A) (A) (A)
                 (A) (A) (A) (A) (A) (A) (A) (A) (A) (A) (A) (A)
                 (A) (A) (A) (A) (A) (A) (A) (A) (A) (A) (A) (A)
                 (A) (A) (A) (A) (A) (A) (A) (A) (A) (A) (A) (A)
                 (A) (A) (A) (A) (A) (A) (A) (A) (A) (A) (A) (A)
                 (A) (A) (A) (A) (A) (A) (A) (A) (A) (A) (A) (A)
                 (A) (A) (A) (A) (A) (A) (A) (A) (A) (A) (A) (A)
                 (A) (A) (A) (A) (A) (A) (A) (A) (A) (A) (A) (A)
                 (A) (A) (A) (A) (A) (A) (A) (A) (A) (A) (A) (A)
                 (A) (A) (A) (A) (A) (A) (A) (A) (A) (A) (A)
 The electronic state is 1-A.
 Alpha  occ. eigenvalues --  -20.69083 -20.68433 -20.65999 -15.81281  -1.62404
 Alpha  occ. eigenvalues --   -1.49573  -1.25440  -0.94807  -0.77277  -0.75917
 Alpha  occ. eigenvalues --   -0.71191  -0.67925  -0.62049  -0.58940  -0.48522
 Alpha  occ. eigenvalues --   -0.47250
 Alpha virt. eigenvalues --    0.02963   0.07162   0.08597   0.10172   0.13295
 Alpha virt. eigenvalues --    0.13492   0.14409   0.15454   0.17818   0.19415
 Alpha virt. eigenvalues --    0.19970   0.20647   0.22085   0.23496   0.23793
 Alpha virt. eigenvalues --    0.26584   0.29343   0.30360   0.31091   0.34342
 Alpha virt. eigenvalues --    0.34979   0.38721   0.42174   0.43129   0.52639
 Alpha virt. eigenvalues --    0.53024   0.55844   0.58151   0.62598   0.63836
 Alpha virt. eigenvalues --    0.67344   0.68558   0.70642   0.71122   0.72448
 Alpha virt. eigenvalues --    0.72954   0.74470   0.79053   0.79324   0.80898
 Alpha virt. eigenvalues --    0.81411   0.83043   0.86818   0.90813   0.92194
 Alpha virt. eigenvalues --    0.92633   0.95643   0.97696   0.98495   1.01634
 Alpha virt. eigenvalues --    1.05101   1.05507   1.08345   1.11738   1.14070
 Alpha virt. eigenvalues --    1.18988   1.22112   1.23247   1.33865   1.35073
 Alpha virt. eigenvalues --    1.38687   1.45284   1.48768   1.50882   1.53806
 Alpha virt. eigenvalues --    1.56629   1.58048   1.61324   1.66386   1.66937
 Alpha virt. eigenvalues --    1.70353   1.79253   1.83000   1.83608   1.87890
 Alpha virt. eigenvalues --    1.91042   1.95612   1.99168   2.00651   2.07763
 Alpha virt. eigenvalues --    2.12059   2.13152   2.15044   2.22483   2.26420
 Alpha virt. eigenvalues --    2.26520   2.28973   2.31421   2.34442   2.38626
 Alpha virt. eigenvalues --    2.42171   2.43094   2.45407   2.46279   2.47699
 Alpha virt. eigenvalues --    2.50178   2.58984   2.59656   2.62004   2.62463
 Alpha virt. eigenvalues --    2.63495   2.66724   2.75663   2.82348   2.85472
 Alpha virt. eigenvalues --    2.88487   2.89676   2.92334   2.95946   3.02574
 Alpha virt. eigenvalues --    3.06847   3.12173   3.20483   3.22632   3.31616
 Alpha virt. eigenvalues --    3.34182   3.51638   3.64233   3.83778   3.84544
 Alpha virt. eigenvalues --    4.14878   4.16265   4.18389   4.25728   4.35170
 Alpha virt. eigenvalues --    4.39335   4.46366   4.51919   4.66067   4.71031
 Alpha virt. eigenvalues --    4.80538   4.82459   4.82828   4.89686   5.02307
 Alpha virt. eigenvalues --    5.07659   5.10389   5.14507   5.17907   5.24291
 Alpha virt. eigenvalues --    5.27241   5.30736   5.32950   5.35517   5.60628
 Alpha virt. eigenvalues --    5.67383   5.76925   5.82893   5.95761   6.16874
 Alpha virt. eigenvalues --    6.30908   6.33795   6.39431   6.49356   6.50540
 Alpha virt. eigenvalues --    6.61401   6.66777   6.69925   6.75740   6.76360
 Alpha virt. eigenvalues --    6.83257   6.89824   7.01383   7.05525   7.05784
 Alpha virt. eigenvalues --    7.09015   7.12462   7.15056   7.18155   7.22516
 Alpha virt. eigenvalues --    7.24182   7.30746   7.32551   7.34768   7.39937
 Alpha virt. eigenvalues --    7.43166   7.48418   7.60010   7.62394   7.62734
 Alpha virt. eigenvalues --    7.66681   7.78947   7.88667   8.09259   8.31415
 Alpha virt. eigenvalues --    8.40902   8.54401  13.39179  14.39235  15.16227
 Alpha virt. eigenvalues --   16.15149
          Condensed to atoms (all electrons):
               1          2          3          4          5
     1  H    0.589533   0.128399   0.019999   0.012416  -0.000646
     2  O    0.128399   8.321613  -0.173457  -0.090450   0.015469
     3  O    0.019999  -0.173457   8.469764  -0.130196  -0.038791
     4  N    0.012416  -0.090450  -0.130196   6.972268  -0.055739
     5  O   -0.000646   0.015469  -0.038791  -0.055739   8.272816
 Mulliken charges:
               1
     1  H    0.250300
     2  O   -0.201573
     3  O   -0.147318
     4  N    0.291701
     5  O   -0.193109
 Sum of Mulliken charges =  -0.00000
 Mulliken charges with hydrogens summed into heavy atoms:
               1
     2  O    0.048726
     3  O   -0.147318
     4  N    0.291701
     5  O   -0.193109
 Electronic spatial extent (au):  <R**2>=            252.8529
 Charge=             -0.0000 electrons
 Dipole moment (field-independent basis, Debye):
    X=              1.2171    Y=              0.7911    Z=             -0.0061  Tot=              1.4516
 Quadrupole moment (field-independent basis, Debye-Ang):
   XX=            -17.9889   YY=            -23.0931   ZZ=            -22.0123
   XY=              2.7913   XZ=             -0.0900   YZ=              0.0351
 Traceless Quadrupole moment (field-independent basis, Debye-Ang):
   XX=              3.0425   YY=             -2.0617   ZZ=             -0.9808
   XY=              2.7913   XZ=             -0.0900   YZ=              0.0351
 Octapole moment (field-independent basis, Debye-Ang**2):
  XXX=             18.1962  YYY=              1.7569  ZZZ=             -0.0495  XYY=              1.0890
  XXY=              6.2027  XXZ=             -0.1110  XZZ=             -1.7743  YZZ=              0.2534
  YYZ=             -0.0658  XYZ=             -0.0793
 Hexadecapole moment (field-independent basis, Debye-Ang**3):
 XXXX=           -190.0414 YYYY=            -41.0776 ZZZZ=            -18.2860 XXXY=             12.1371
 XXXZ=             -0.4901 YYYX=              1.0057 YYYZ=              0.1130 ZZZX=              0.0758
 ZZZY=              0.0240 XXYY=            -42.4441 XXZZ=            -41.6513 YYZZ=             -9.8872
 XXYZ=              0.0008 YYXZ=             -0.0277 ZZXY=              0.4761
 N-N= 1.168746016238D+02 E-N=-8.958599111895D+02  KE= 2.801975478844D+02
 No NMR shielding tensors so no spin-rotation constants.
 Leave Link  601 at Mon Feb 14 22:14:34 2022, MaxMem= 16106127360 cpu:               4.3 elap:               0.2
 (Enter /sw/contrib/gaussian/g16/B01/g16/l9999.exe)
 1\1\GINC-N2132\SP\RMP2-FC\Aug-CC-pVTZ\H1N1O3\CGAVINH\14-Feb-2022\0\\#p
  SP mp2/aug-cc-pvtz density=current\\title\\0,1\H\O,1,0.96897556\O,2,1
 .45491931,1,97.59494903\N,3,1.45878406,2,102.29752444,1,180.,0\O,4,1.1
 7072885,3,109.06955123,2,183.30424945,0\\Version=ES64L-G16RevB.01\Stat
 e=1-A\HF=-279.5016427\MP2=-280.4466665\RMSD=7.709e-09\Dipole=-0.146144
 6,-0.002469,-0.5520867\Quadrupole=-1.5093092,-0.7318365,2.2411457,-0.0
 734736,2.0944639,0.0248668\PG=C01 [X(H1N1O3)]\\@


 NECESSARY EVIL: ONE WE LIKE TOO MUCH TO RELINQUISH.
 Job cpu time:       0 days  0 hours  6 minutes  2.7 seconds.
 Elapsed time:       0 days  0 hours  0 minutes 25.6 seconds.
 File lengths (MBytes):  RWF=     21 Int=      0 D2E=      0 Chk=      8 Scr=      1
 Normal termination of Gaussian 16 at Mon Feb 14 22:14:34 2022.
