title                                                                   
SP        RMP2-FC                                                     Aug-CC-pVTZ         
Number of atoms                            I                5
Info1-9                                    I   N=           9
          33          24           0           0           0         110
           1           2           1
Full Title                                 C   N=           1
title       
Route                                      C   N=           4
#p SP mp2/aug-cc-pvtz density=current           
Charge                                     I                0
Multiplicity                               I                1
Number of electrons                        I               32
Number of alpha electrons                  I               16
Number of beta electrons                   I               16
Number of basis functions                  I              207
Number of independent functions            I              207
Number of point charges in /Mol/           I                0
Number of translation vectors              I                0
Atomic numbers                             I   N=           5
           1           8           8           7           8
Nuclear charges                            R   N=           5
  1.00000000E+00  8.00000000E+00  8.00000000E+00  7.00000000E+00  8.00000000E+00
Current cartesian coordinates              R   N=          15
  2.87942000E+00  3.19543182E+00  1.10065285E-30  2.74767329E+00  1.36907910E+00
  4.06064572E-31 -6.52717855E-17  1.27168049E+00  2.70617998E-31 -4.91359890E-01
 -1.44087795E+00  4.49530853E-32 -2.67766089E+00 -1.77942035E+00 -3.70758503E-31
Number of symbols in /Mol/                 I                0
Force Field                                I                0
Atom Types                                 C   N=           5
                                                            
Int Atom Types                             I   N=           5
           0           0           0           0           0
MM charges                                 R   N=           5
  0.00000000E+00  0.00000000E+00  0.00000000E+00  0.00000000E+00  0.00000000E+00
Integer atomic weights                     I   N=           5
           1          16          16          14          16
Real atomic weights                        R   N=           5
  1.00782504E+00  1.59949146E+01  1.59949146E+01  1.40030740E+01  1.59949146E+01
Atom fragment info                         I   N=           5
           0           0           0           0           0
Atom residue num                           I   N=           5
           0           0           0           0           0
Nuclear spins                              I   N=           5
           1           0           0           2           0
Nuclear ZEff                               R   N=           5
 -1.00000000E+00 -5.60000000E+00 -5.60000000E+00 -4.55000000E+00 -5.60000000E+00
Nuclear ZNuc                               R   N=           5
  1.00000000E+00  8.00000000E+00  8.00000000E+00  7.00000000E+00  8.00000000E+00
Nuclear QMom                               R   N=           5
  0.00000000E+00  0.00000000E+00  0.00000000E+00  2.04400000E+00  0.00000000E+00
Nuclear GFac                               R   N=           5
  2.79284600E+00  0.00000000E+00  0.00000000E+00  4.03761000E-01  0.00000000E+00
MicOpt                                     I   N=           5
          -1          -1          -1          -1          -1
Number of residues                         I                0
Number of secondary structures             I                0
SymInf integers                            I   N=          26
           1           2           1           1           1           1
           1          -1           0           0           0           0
           0           0           0           0           0           0
           0           0           0           0           0           0
           0           0
RotTr to input orientation                 R   N=          12
 -9.97408273E-01 -8.46717434E-16 -7.19495466E-02  7.19495466E-02  7.43446583E-16
 -9.97408273E-01  8.98013618E-16 -1.00000000E+00 -6.80598837E-16  2.64204745E+00
  0.00000000E+00  3.39432310E+00
Number of contracted shells                I               65
Number of primitive shells                 I              119
Pure/Cartesian d shells                    I                0
Pure/Cartesian f shells                    I                0
Highest angular momentum                   I                3
Largest degree of contraction              I                7
Shell types                                I   N=          65
           0           0           0           0           1           1
           1          -2          -2           0           0           0
           0           0           1           1           1           1
          -2          -2          -2          -3          -3           0
           0           0           0           0           1           1
           1           1          -2          -2          -2          -3
          -3           0           0           0           0           0
           1           1           1           1          -2          -2
          -2          -3          -3           0           0           0
           0           0           1           1           1           1
          -2          -2          -2          -3          -3
Number of primitives per shell             I   N=          65
           3           1           1           1           1           1
           1           1           1           7           6           1
           1           1           3           1           1           1
           1           1           1           1           1           7
           6           1           1           1           3           1
           1           1           1           1           1           1
           1           7           6           1           1           1
           3           1           1           1           1           1
           1           1           1           7           6           1
           1           1           3           1           1           1
           1           1           1           1           1
Shell to atom map                          I   N=          65
           1           1           1           1           1           1
           1           1           1           2           2           2
           2           2           2           2           2           2
           2           2           2           2           2           3
           3           3           3           3           3           3
           3           3           3           3           3           3
           3           4           4           4           4           4
           4           4           4           4           4           4
           4           4           4           5           5           5
           5           5           5           5           5           5
           5           5           5           5           5
Primitive exponents                        R   N=         119
  3.38700000E+01  5.09500000E+00  1.15900000E+00  3.25800000E-01  1.02700000E-01
  2.52600000E-02  1.40700000E+00  3.88000000E-01  1.02000000E-01  1.05700000E+00
  2.47000000E-01  1.53300000E+04  2.29900000E+03  5.22400000E+02  1.47300000E+02
  4.75500000E+01  1.67600000E+01  6.20700000E+00  5.22400000E+02  1.47300000E+02
  4.75500000E+01  1.67600000E+01  6.20700000E+00  6.88200000E-01  1.75200000E+00
  2.38400000E-01  7.37600000E-02  3.44600000E+01  7.74900000E+00  2.28000000E+00
  7.15600000E-01  2.14000000E-01  5.97400000E-02  2.31400000E+00  6.45000000E-01
  2.14000000E-01  1.42800000E+00  5.00000000E-01  1.53300000E+04  2.29900000E+03
  5.22400000E+02  1.47300000E+02  4.75500000E+01  1.67600000E+01  6.20700000E+00
  5.22400000E+02  1.47300000E+02  4.75500000E+01  1.67600000E+01  6.20700000E+00
  6.88200000E-01  1.75200000E+00  2.38400000E-01  7.37600000E-02  3.44600000E+01
  7.74900000E+00  2.28000000E+00  7.15600000E-01  2.14000000E-01  5.97400000E-02
  2.31400000E+00  6.45000000E-01  2.14000000E-01  1.42800000E+00  5.00000000E-01
  1.14200000E+04  1.71200000E+03  3.89300000E+02  1.10000000E+02  3.55700000E+01
  1.25400000E+01  4.64400000E+00  3.89300000E+02  1.10000000E+02  3.55700000E+01
  1.25400000E+01  4.64400000E+00  5.11800000E-01  1.29300000E+00  1.78700000E-01
  5.76000000E-02  2.66300000E+01  5.94800000E+00  1.74200000E+00  5.55000000E-01
  1.72500000E-01  4.91000000E-02  1.65400000E+00  4.69000000E-01  1.51000000E-01
  1.09300000E+00  3.64000000E-01  1.53300000E+04  2.29900000E+03  5.22400000E+02
  1.47300000E+02  4.75500000E+01  1.67600000E+01  6.20700000E+00  5.22400000E+02
  1.47300000E+02  4.75500000E+01  1.67600000E+01  6.20700000E+00  6.88200000E-01
  1.75200000E+00  2.38400000E-01  7.37600000E-02  3.44600000E+01  7.74900000E+00
  2.28000000E+00  7.15600000E-01  2.14000000E-01  5.97400000E-02  2.31400000E+00
  6.45000000E-01  2.14000000E-01  1.42800000E+00  5.00000000E-01
Contraction coefficients                   R   N=         119
  2.54948632E-02  1.90362766E-01  8.52162022E-01  1.00000000E+00  1.00000000E+00
  1.00000000E+00  1.00000000E+00  1.00000000E+00  1.00000000E+00  1.00000000E+00
  1.00000000E+00  5.19808943E-04  4.02025621E-03  2.07128267E-02  8.10105536E-02
  2.35962985E-01  4.42653446E-01  3.57064423E-01 -4.42115008E-05 -1.22591041E-03
 -1.05517725E-02 -6.74452633E-02 -1.71198607E-01  1.07329856E+00  1.00000000E+00
  1.00000000E+00  1.00000000E+00  4.11634896E-02  2.57762836E-01  8.02419274E-01
  1.00000000E+00  1.00000000E+00  1.00000000E+00  1.00000000E+00  1.00000000E+00
  1.00000000E+00  1.00000000E+00  1.00000000E+00  5.19808943E-04  4.02025621E-03
  2.07128267E-02  8.10105536E-02  2.35962985E-01  4.42653446E-01  3.57064423E-01
 -4.42115008E-05 -1.22591041E-03 -1.05517725E-02 -6.74452633E-02 -1.71198607E-01
  1.07329856E+00  1.00000000E+00  1.00000000E+00  1.00000000E+00  4.11634896E-02
  2.57762836E-01  8.02419274E-01  1.00000000E+00  1.00000000E+00  1.00000000E+00
  1.00000000E+00  1.00000000E+00  1.00000000E+00  1.00000000E+00  1.00000000E+00
  5.34563860E-04  4.13435660E-03  2.12335358E-02  8.25006224E-02  2.38138871E-01
  4.42551547E-01  3.53757422E-01 -4.89867350E-05 -1.19527323E-03 -1.03490714E-02
 -6.48680190E-02 -1.71552477E-01  1.07289568E+00  1.00000000E+00  1.00000000E+00
  1.00000000E+00  3.98072123E-02  2.49002660E-01  8.10479727E-01  1.00000000E+00
  1.00000000E+00  1.00000000E+00  1.00000000E+00  1.00000000E+00  1.00000000E+00
  1.00000000E+00  1.00000000E+00  5.19808943E-04  4.02025621E-03  2.07128267E-02
  8.10105536E-02  2.35962985E-01  4.42653446E-01  3.57064423E-01 -4.42115008E-05
 -1.22591041E-03 -1.05517725E-02 -6.74452633E-02 -1.71198607E-01  1.07329856E+00
  1.00000000E+00  1.00000000E+00  1.00000000E+00  4.11634896E-02  2.57762836E-01
  8.02419274E-01  1.00000000E+00  1.00000000E+00  1.00000000E+00  1.00000000E+00
  1.00000000E+00  1.00000000E+00  1.00000000E+00  1.00000000E+00
Coordinates of each shell                  R   N=         195
  2.87942000E+00  3.19543182E+00  6.18638832E-31  2.87942000E+00  3.19543182E+00
  6.18638832E-31  2.87942000E+00  3.19543182E+00  6.18638832E-31  2.87942000E+00
  3.19543182E+00  6.18638832E-31  2.87942000E+00  3.19543182E+00  6.18638832E-31
  2.87942000E+00  3.19543182E+00  6.18638832E-31  2.87942000E+00  3.19543182E+00
  6.18638832E-31  2.87942000E+00  3.19543182E+00  6.18638832E-31  2.87942000E+00
  3.19543182E+00  6.18638832E-31  2.74767329E+00  1.36907910E+00  4.25087358E-31
  2.74767329E+00  1.36907910E+00  4.25087358E-31  2.74767329E+00  1.36907910E+00
  4.25087358E-31  2.74767329E+00  1.36907910E+00  4.25087358E-31  2.74767329E+00
  1.36907910E+00  4.25087358E-31  2.74767329E+00  1.36907910E+00  4.25087358E-31
  2.74767329E+00  1.36907910E+00  4.25087358E-31  2.74767329E+00  1.36907910E+00
  4.25087358E-31  2.74767329E+00  1.36907910E+00  4.25087358E-31  2.74767329E+00
  1.36907910E+00  4.25087358E-31  2.74767329E+00  1.36907910E+00  4.25087358E-31
  2.74767329E+00  1.36907910E+00  4.25087358E-31  2.74767329E+00  1.36907910E+00
  4.25087358E-31  2.74767329E+00  1.36907910E+00  4.25087358E-31 -1.32612579E-17
  1.27168049E+00  1.25072382E-31 -1.32612579E-17  1.27168049E+00  1.25072382E-31
 -1.32612579E-17  1.27168049E+00  1.25072382E-31 -1.32612579E-17  1.27168049E+00
  1.25072382E-31 -1.32612579E-17  1.27168049E+00  1.25072382E-31 -1.32612579E-17
  1.27168049E+00  1.25072382E-31 -1.32612579E-17  1.27168049E+00  1.25072382E-31
 -1.32612579E-17  1.27168049E+00  1.25072382E-31 -1.32612579E-17  1.27168049E+00
  1.25072382E-31 -1.32612579E-17  1.27168049E+00  1.25072382E-31 -1.32612579E-17
  1.27168049E+00  1.25072382E-31 -1.32612579E-17  1.27168049E+00  1.25072382E-31
 -1.32612579E-17  1.27168049E+00  1.25072382E-31 -1.32612579E-17  1.27168049E+00
  1.25072382E-31 -4.91359890E-01 -1.44087795E+00 -1.93651212E-31 -4.91359890E-01
 -1.44087795E+00 -1.93651212E-31 -4.91359890E-01 -1.44087795E+00 -1.93651212E-31
 -4.91359890E-01 -1.44087795E+00 -1.93651212E-31 -4.91359890E-01 -1.44087795E+00
 -1.93651212E-31 -4.91359890E-01 -1.44087795E+00 -1.93651212E-31 -4.91359890E-01
 -1.44087795E+00 -1.93651212E-31 -4.91359890E-01 -1.44087795E+00 -1.93651212E-31
 -4.91359890E-01 -1.44087795E+00 -1.93651212E-31 -4.91359890E-01 -1.44087795E+00
 -1.93651212E-31 -4.91359890E-01 -1.44087795E+00 -1.93651212E-31 -4.91359890E-01
 -1.44087795E+00 -1.93651212E-31 -4.91359890E-01 -1.44087795E+00 -1.93651212E-31
 -4.91359890E-01 -1.44087795E+00 -1.93651212E-31 -2.67766089E+00 -1.77942035E+00
 -4.58044783E-31 -2.67766089E+00 -1.77942035E+00 -4.58044783E-31 -2.67766089E+00
 -1.77942035E+00 -4.58044783E-31 -2.67766089E+00 -1.77942035E+00 -4.58044783E-31
 -2.67766089E+00 -1.77942035E+00 -4.58044783E-31 -2.67766089E+00 -1.77942035E+00
 -4.58044783E-31 -2.67766089E+00 -1.77942035E+00 -4.58044783E-31 -2.67766089E+00
 -1.77942035E+00 -4.58044783E-31 -2.67766089E+00 -1.77942035E+00 -4.58044783E-31
 -2.67766089E+00 -1.77942035E+00 -4.58044783E-31 -2.67766089E+00 -1.77942035E+00
 -4.58044783E-31 -2.67766089E+00 -1.77942035E+00 -4.58044783E-31 -2.67766089E+00
 -1.77942035E+00 -4.58044783E-31 -2.67766089E+00 -1.77942035E+00 -4.58044783E-31
Num ILSW                                   I              100
ILSW                                       I   N=         100
           0           0           0           0           2           0
           0           0           0           0           0          -1
           5           0           0           0           0           0
           0           0           0           0           0           0
           1           0           0           0           0           0
           0           0      100000           0          -1           0
           0           0           0           0           0           0
           0           0           0           1           0           0
           0 -2000000000           1           0           0           0
           0           0           4          52           0           0
           0           0           0           0           0           0
           0           0           0           5           0           1
           0           0           0           0           0           0
           0           0           0           0           0           0
           0           0           0           0           0           0
           0           0           0           0           0           0
           0           0           0           0
Num RLSW                                   I               52
RLSW                                       R   N=          52
  1.00000000E+00  1.00000000E+00  1.00000000E+00  1.00000000E+00  1.00000000E+00
  0.00000000E+00  0.00000000E+00  1.00000000E+00  0.00000000E+00  0.00000000E+00
  0.00000000E+00  0.00000000E+00  1.00000000E+00  0.00000000E+00  0.00000000E+00
  0.00000000E+00  0.00000000E+00  1.00000000E+00  0.00000000E+00  0.00000000E+00
  0.00000000E+00  0.00000000E+00  1.00000000E+00  0.00000000E+00  0.00000000E+00
  0.00000000E+00  0.00000000E+00  1.00000000E+00  0.00000000E+00  0.00000000E+00
  0.00000000E+00  0.00000000E+00  1.00000000E+00  0.00000000E+00  0.00000000E+00
  0.00000000E+00  0.00000000E+00  0.00000000E+00  1.00000000E+00  1.00000000E+00
  0.00000000E+00  1.00000000E+00  0.00000000E+00  0.00000000E+00  0.00000000E+00
  0.00000000E+00  0.00000000E+00  0.00000000E+00  0.00000000E+00  0.00000000E+00
  0.00000000E+00  0.00000000E+00
MxBond                                     I                2
NBond                                      I   N=           5
           1           2           2           2           1
IBond                                      I   N=          10
           2           0           1           3           2           4
           3           5           4           0
RBond                                      R   N=          10
  1.00000000E+00  0.00000000E+00  1.00000000E+00  1.00000000E+00  1.00000000E+00
  1.00000000E+00  1.00000000E+00  2.00000000E+00  2.00000000E+00  0.00000000E+00
Virial Ratio                               R      2.002333532768339E+00
SCF Energy                                 R     -2.795014151141969E+02
MP2 Energy                                 R     -2.804466690677297E+02
Total Energy                               R     -2.804466690677297E+02
Post-SCF wavefunction norm                 R      1.120264350526485E+00
RMS Density                                R      3.776028784891063E-09
Job Status                                 I                1
Nuclear derivative order                   I                0
External E-field                           R   N=          35
  0.00000000E+00  0.00000000E+00  0.00000000E+00  0.00000000E+00  0.00000000E+00
  0.00000000E+00  0.00000000E+00  0.00000000E+00  0.00000000E+00  0.00000000E+00
  0.00000000E+00  0.00000000E+00  0.00000000E+00  0.00000000E+00  0.00000000E+00
  0.00000000E+00  0.00000000E+00  0.00000000E+00  0.00000000E+00  0.00000000E+00
  0.00000000E+00  0.00000000E+00  0.00000000E+00  0.00000000E+00  0.00000000E+00
  0.00000000E+00  0.00000000E+00  0.00000000E+00  0.00000000E+00  0.00000000E+00
  0.00000000E+00  0.00000000E+00  0.00000000E+00  0.00000000E+00  0.00000000E+00
IOpCl                                      I                0
IROHF                                      I                0
Alpha Orbital Energies                     R   N=         207
 -2.06907231E+01 -2.06842729E+01 -2.06605397E+01 -1.58128019E+01 -1.62409827E+00
 -1.49664529E+00 -1.25419231E+00 -9.48145114E-01 -7.73514998E-01 -7.58252874E-01
 -7.11955807E-01 -6.78968630E-01 -6.20714986E-01 -5.90763659E-01 -4.85404569E-01
 -4.72518361E-01  2.97892358E-02  7.16136551E-02  8.59307502E-02  1.01665567E-01
  1.33881749E-01  1.34046886E-01  1.44102512E-01  1.54610027E-01  1.78211903E-01
  1.94025803E-01  1.99679731E-01  2.06404161E-01  2.20736157E-01  2.35368464E-01
  2.37361863E-01  2.65419590E-01  2.93436888E-01  3.03746553E-01  3.10885604E-01
  3.43308642E-01  3.49965260E-01  3.87276404E-01  4.23147956E-01  4.31203436E-01
  5.27574749E-01  5.29349014E-01  5.58206075E-01  5.81272493E-01  6.26072526E-01
  6.38156314E-01  6.74598353E-01  6.84729413E-01  7.06477652E-01  7.10252754E-01
  7.26971598E-01  7.28695563E-01  7.44459306E-01  7.92913471E-01  7.93834776E-01
  8.11314502E-01  8.12308422E-01  8.29697282E-01  8.67842650E-01  9.08603620E-01
  9.21132972E-01  9.27142545E-01  9.55140878E-01  9.76765625E-01  9.85703033E-01
  1.01720074E+00  1.05165841E+00  1.05453945E+00  1.08259149E+00  1.11750012E+00
  1.14316338E+00  1.19000155E+00  1.22086018E+00  1.23461519E+00  1.33931253E+00
  1.35159028E+00  1.38572876E+00  1.45588847E+00  1.48726120E+00  1.50674751E+00
  1.53746830E+00  1.56664683E+00  1.57958282E+00  1.61121237E+00  1.66292309E+00
  1.67044387E+00  1.70315083E+00  1.79647135E+00  1.83081137E+00  1.83570071E+00
  1.87759144E+00  1.91091286E+00  1.95523964E+00  1.99353828E+00  2.00434905E+00
  2.07875530E+00  2.12498609E+00  2.13206486E+00  2.14968577E+00  2.22604589E+00
  2.26308628E+00  2.26427038E+00  2.29064494E+00  2.31392101E+00  2.34279138E+00
  2.38655310E+00  2.42686760E+00  2.43250904E+00  2.45350233E+00  2.46252929E+00
  2.47890600E+00  2.49987108E+00  2.59034188E+00  2.59840539E+00  2.62090191E+00
  2.62495112E+00  2.63503976E+00  2.66595297E+00  2.75790337E+00  2.82687146E+00
  2.84850535E+00  2.88052412E+00  2.89266275E+00  2.92699173E+00  2.95504623E+00
  3.02432220E+00  3.06882002E+00  3.12056844E+00  3.20789914E+00  3.22435270E+00
  3.31487047E+00  3.34251317E+00  3.51876209E+00  3.63897287E+00  3.83746278E+00
  3.84179195E+00  4.14660455E+00  4.16928455E+00  4.18353245E+00  4.25839380E+00
  4.34634089E+00  4.39548136E+00  4.46205087E+00  4.52549571E+00  4.65965136E+00
  4.72624265E+00  4.80340560E+00  4.82439376E+00  4.82785102E+00  4.89562983E+00
  5.02441970E+00  5.07712144E+00  5.10261817E+00  5.13892547E+00  5.17459532E+00
  5.24854282E+00  5.27067537E+00  5.30685007E+00  5.32869158E+00  5.35719311E+00
  5.60322864E+00  5.67354627E+00  5.76599263E+00  5.83887319E+00  5.95788303E+00
  6.17297597E+00  6.31073119E+00  6.33412081E+00  6.39350365E+00  6.49375933E+00
  6.50523935E+00  6.61475875E+00  6.66800775E+00  6.70188374E+00  6.76050643E+00
  6.76168214E+00  6.83420249E+00  6.89888611E+00  7.02229777E+00  7.05103087E+00
  7.05676469E+00  7.08932670E+00  7.12506871E+00  7.14407995E+00  7.18200900E+00
  7.22637807E+00  7.24162860E+00  7.30396124E+00  7.32462567E+00  7.34925669E+00
  7.39973961E+00  7.44445281E+00  7.48473679E+00  7.60732216E+00  7.62028511E+00
  7.62646838E+00  7.66653848E+00  7.79447967E+00  7.88702726E+00  8.09386932E+00
  8.31780820E+00  8.39835619E+00  8.54314118E+00  1.33893601E+01  1.43899567E+01
  1.51792514E+01  1.61536387E+01
Alpha MO coefficients                      R   N=       42849
  9.04201535E-05 -5.50139507E-04 -6.72193883E-04 -3.19259058E-06 -1.02106607E-05
 -2.93740525E-05  0.00000000E+00 -5.38945149E-05  6.80688928E-06  0.00000000E+00
  7.67199854E-05  1.36708427E-05  0.00000000E+00  2.84153807E-05  0.00000000E+00
  0.00000000E+00 -5.78424551E-05  1.75270745E-05 -8.35567332E-06  0.00000000E+00
  0.00000000E+00 -1.55102276E-04  1.23848898E-04  4.69195840E-03 -2.90313571E-04
  2.21251479E-05  1.42230385E-03  1.74769479E-03  1.05683986E-04  9.53555769E-06
  0.00000000E+00 -6.16403567E-04 -6.09307996E-05  0.00000000E+00 -1.08038125E-03
  7.25057437E-04  0.00000000E+00 -3.92545733E-04  5.97776047E-05  0.00000000E+00
  2.86617536E-05  0.00000000E+00  0.00000000E+00 -5.30149172E-05  6.47642041E-06
 -3.71219302E-04  0.00000000E+00  0.00000000E+00  7.44662996E-04 -3.31786503E-05
 -4.38802015E-04  0.00000000E+00  0.00000000E+00  2.40381153E-04 -5.16745219E-06
  0.00000000E+00  7.97991711E-05  1.34893364E-05  0.00000000E+00  0.00000000E+00
 -1.09680377E-04 -2.14364618E-06  0.00000000E+00  2.55440742E-04 -2.70369222E-05
  0.00000000E+00  0.00000000E+00 -3.48024610E-04  4.41479643E-05  9.76908770E-01
 -9.21809898E-03  4.33210919E-02  2.03958272E-03 -8.82992824E-04  1.48852704E-03
 -1.35325775E-03  0.00000000E+00 -1.42925716E-03  1.38210454E-03  0.00000000E+00
  1.08340262E-04 -1.12049134E-03  0.00000000E+00 -1.26039711E-04 -8.26272705E-06
  0.00000000E+00  4.54507731E-05  0.00000000E+00  0.00000000E+00 -3.58980978E-05
  2.26714278E-05  7.48724414E-04  0.00000000E+00  0.00000000E+00 -2.25614370E-04
 -3.91455240E-04 -3.68327573E-04  0.00000000E+00  0.00000000E+00 -3.07348718E-04
 -3.53108557E-04  0.00000000E+00  4.71769928E-05 -4.84667655E-05  0.00000000E+00
  0.00000000E+00 -3.82306278E-05 -1.63586112E-05  0.00000000E+00  2.36638089E-05
  1.98945813E-05  0.00000000E+00  0.00000000E+00 -3.04941949E-04 -1.39693549E-04
  3.92179494E-05  4.63188270E-05 -2.65483866E-04 -6.86184002E-04 -1.40006589E-04
 -2.70048512E-05 -9.81461560E-05  0.00000000E+00  2.70309592E-04  7.13588646E-04
  0.00000000E+00 -8.21174091E-04 -4.44142404E-04  0.00000000E+00 -1.20882526E-04
 -2.46703230E-05  0.00000000E+00 -1.80230174E-05  0.00000000E+00  0.00000000E+00
 -2.95737386E-05  1.50713935E-05 -3.30703405E-04  0.00000000E+00  0.00000000E+00
 -8.31709524E-04  1.25235190E-04 -3.65634572E-05  0.00000000E+00  0.00000000E+00
  8.54765592E-05 -1.21846028E-04  0.00000000E+00 -2.06088465E-05 -1.20425212E-04
  0.00000000E+00  0.00000000E+00 -6.20715026E-05 -1.38338708E-04  0.00000000E+00
  3.27485744E-06 -1.54224028E-04  0.00000000E+00  0.00000000E+00  4.41534751E-05
 -4.18017935E-04 -2.63673021E-03  1.22627523E-04 -1.26202386E-04 -2.33130374E-04
  1.41488223E-04 -8.11968687E-06 -2.79822410E-05  0.00000000E+00  6.97291274E-05
  1.64808992E-04  0.00000000E+00  2.35066271E-04  1.84387667E-04  0.00000000E+00
  1.25533210E-04  2.26363541E-05  0.00000000E+00 -3.35736524E-06  0.00000000E+00
  0.00000000E+00 -1.79837933E-05  1.41617108E-06  6.64977661E-07  0.00000000E+00
  0.00000000E+00  8.07935322E-05  8.68700286E-05 -9.82280520E-05  0.00000000E+00
  0.00000000E+00  1.68509121E-04  1.55520496E-04  0.00000000E+00  1.58628673E-05
 -3.50359580E-06  0.00000000E+00  0.00000000E+00 -4.33806417E-06 -1.18827096E-05
  0.00000000E+00 -3.34996602E-05  4.57220227E-05  0.00000000E+00  0.00000000E+00
  8.40851816E-05  8.95974449E-05  4.20673719E-05 -9.89288219E-04 -4.81756628E-04
 -1.02374619E-05 -2.07812818E-05  1.54677195E-05  0.00000000E+00  2.32272301E-06
  2.76972359E-04  0.00000000E+00 -3.72683179E-05  1.32820277E-04  0.00000000E+00
  2.73438989E-05  0.00000000E+00  0.00000000E+00  1.12284891E-05  9.41882297E-06
 -2.57671886E-05  0.00000000E+00  0.00000000E+00  9.41420362E-06  3.11801227E-05
  1.15154043E-04  8.41098702E-05 -2.75120133E-05  7.53793143E-04  6.43727241E-04
  1.04837716E-05  2.43114539E-06  0.00000000E+00 -7.45361625E-05  1.77739211E-05
  0.00000000E+00  3.00395669E-04  8.96548110E-04  0.00000000E+00 -1.19772788E-06
  7.77017951E-05  0.00000000E+00 -2.38332020E-06  0.00000000E+00  0.00000000E+00
  6.13470302E-08 -5.58548274E-06 -3.55583318E-05  0.00000000E+00  0.00000000E+00
 -2.29914805E-05  7.82305688E-05 -2.36098271E-05  0.00000000E+00  0.00000000E+00
 -2.62879254E-04 -1.76391418E-04  0.00000000E+00  8.96132137E-06  5.94412214E-06
  0.00000000E+00  0.00000000E+00  2.88306463E-06 -1.91533489E-05  0.00000000E+00
 -3.83460604E-05 -3.79444560E-05  0.00000000E+00  0.00000000E+00 -7.20524555E-05
  1.81631647E-05  2.67573677E-03  3.91338370E-05  9.39838551E-05 -8.94120187E-05
 -4.59259713E-04  7.27390701E-06  1.58470375E-05  0.00000000E+00 -6.21251809E-05
 -5.66439275E-05  0.00000000E+00  2.32602914E-04 -1.77986965E-04  0.00000000E+00
 -1.84171255E-04 -6.26793499E-05  0.00000000E+00 -8.82734062E-06  0.00000000E+00
  0.00000000E+00  2.21448574E-05  1.98904716E-05  4.97937197E-06  0.00000000E+00
  0.00000000E+00 -1.15855540E-04 -4.75728685E-05 -7.60000493E-06  0.00000000E+00
  0.00000000E+00 -2.20057627E-04 -1.99229212E-04  0.00000000E+00  3.46246230E-06
 -2.34873285E-07  0.00000000E+00  0.00000000E+00  2.00941906E-06 -1.39670521E-05
  0.00000000E+00 -4.76307158E-05  1.98904621E-06  0.00000000E+00  0.00000000E+00
 -7.71574019E-05  1.89053635E-04  2.58643831E-04  1.46474163E-03 -7.82024457E-05
 -1.54124166E-03  3.89305569E-04 -1.44557051E-04 -2.78578118E-07  0.00000000E+00
 -2.08773429E-03 -4.04803400E-04  0.00000000E+00  1.05050894E-03  7.73708224E-04
  0.00000000E+00 -1.70799858E-04  5.41030676E-05  0.00000000E+00 -1.23320853E-04
  0.00000000E+00  0.00000000E+00  2.42877693E-04  9.46684989E-05 -4.42640543E-04
  0.00000000E+00  0.00000000E+00  8.97458561E-04 -6.41938196E-05  1.16011745E-05
  0.00000000E+00  0.00000000E+00 -3.41909886E-04 -1.22920378E-04  0.00000000E+00
 -1.41108845E-06  1.50859317E-05  0.00000000E+00  0.00000000E+00  1.89532185E-05
  1.33652863E-05  0.00000000E+00  1.64997939E-04 -7.16738048E-05  0.00000000E+00
  0.00000000E+00 -2.40487368E-04  4.10891000E-05  9.76648912E-01 -9.84859364E-03
  4.35682483E-02  4.51290601E-03 -4.38597535E-04  2.14721008E-03  4.82357429E-04
  0.00000000E+00 -2.38229398E-03 -6.05248285E-04  0.00000000E+00  1.14349733E-03
 -5.05253050E-06  0.00000000E+00  5.69333208E-06 -4.14484121E-05  0.00000000E+00
 -2.32449766E-04  0.00000000E+00  0.00000000E+00  1.02569371E-04  3.22166873E-05
  3.90247490E-04  0.00000000E+00  0.00000000E+00 -8.32684291E-04 -4.20765781E-04
 -1.52733452E-04  0.00000000E+00  0.00000000E+00  2.57416175E-04  1.60930140E-05
  0.00000000E+00  5.21496623E-05  1.77494798E-05  0.00000000E+00  0.00000000E+00
 -2.20290825E-05 -1.33094988E-05  0.00000000E+00  1.38551673E-04  9.49587736E-06
  0.00000000E+00  0.00000000E+00 -1.88959013E-04 -1.41304285E-04  4.71298244E-04
  1.96668882E-03  9.75823481E-05  1.76578736E-05 -3.86335590E-05 -2.48646576E-04
  0.00000000E+00  1.41716499E-04 -1.25383160E-03  0.00000000E+00  3.41024331E-04
 -3.33821524E-04  0.00000000E+00 -4.11673127E-06  0.00000000E+00  0.00000000E+00
  7.48979592E-05  2.48504870E-05 -1.67911635E-04  0.00000000E+00  0.00000000E+00
 -5.34722525E-04 -4.89365197E-05  9.76830473E-01 -9.17269007E-03  4.34443718E-02
  2.63459631E-04 -1.18986875E-03 -1.57991537E-03  1.42349918E-03  0.00000000E+00
  1.59590808E-03 -1.27534890E-03  0.00000000E+00 -5.42764950E-04 -7.86331161E-04
  0.00000000E+00  5.44089468E-05 -5.14138482E-05  0.00000000E+00  3.16952857E-05
  0.00000000E+00  0.00000000E+00 -1.18028332E-04 -1.11509235E-05  7.50615737E-04
  0.00000000E+00  0.00000000E+00 -1.97566547E-04 -2.06379390E-04 -2.68762373E-04
  0.00000000E+00  0.00000000E+00  1.47991514E-04  1.13001401E-04  0.00000000E+00
 -6.42174648E-05  2.50416640E-06  0.00000000E+00  0.00000000E+00  1.76453315E-05
  9.51874248E-06  0.00000000E+00 -5.75803240E-06  1.17254438E-04  0.00000000E+00
  0.00000000E+00  2.40681997E-04  9.48424948E-05 -4.78561537E-03 -2.10700563E-04