title                                                                   
SP        RMP2-FC                                                     Aug-CC-pVTZ         
Number of atoms                            I                5
Info1-9                                    I   N=           9
          33          24           0           0           0         110
           1           2           1
Full Title                                 C   N=           1
title       
Route                                      C   N=           4
#p SP mp2/aug-cc-pvtz density=current           
Charge                                     I                0
Multiplicity                               I                1
Number of electrons                        I               32
Number of alpha electrons                  I               16
Number of beta electrons                   I               16
Number of basis functions                  I              207
Number of independent functions            I              207
Number of point charges in /Mol/           I                0
Number of translation vectors              I                0
Atomic numbers                             I   N=           5
           1           8           8           7           8
Nuclear charges                            R   N=           5
  1.00000000E+00  8.00000000E+00  8.00000000E+00  7.00000000E+00  8.00000000E+00
Current cartesian coordinates              R   N=          15
  2.92962621E+00  3.19415446E+00 -3.82502977E-31  2.74788913E+00  1.37209708E+00
 -8.72809341E-31  1.18050990E-17  1.28099073E+00 -2.29502653E-31 -4.97570201E-01
 -1.43043541E+00  5.62279387E-32 -2.67871848E+00 -1.80072613E+00  4.86913166E-31
Number of symbols in /Mol/                 I                0
Force Field                                I                0
Atom Types                                 C   N=           5
                                                            
Int Atom Types                             I   N=           5
           0           0           0           0           0
MM charges                                 R   N=           5
  0.00000000E+00  0.00000000E+00  0.00000000E+00  0.00000000E+00  0.00000000E+00
Integer atomic weights                     I   N=           5
           1          16          16          14          16
Real atomic weights                        R   N=           5
  1.00782504E+00  1.59949146E+01  1.59949146E+01  1.40030740E+01  1.59949146E+01
Atom fragment info                         I   N=           5
           0           0           0           0           0
Atom residue num                           I   N=           5
           0           0           0           0           0
Nuclear spins                              I   N=           5
           1           0           0           2           0
Nuclear ZEff                               R   N=           5
 -1.00000000E+00 -5.60000000E+00 -5.60000000E+00 -4.55000000E+00 -5.60000000E+00
Nuclear ZNuc                               R   N=           5
  1.00000000E+00  8.00000000E+00  8.00000000E+00  7.00000000E+00  8.00000000E+00
Nuclear QMom                               R   N=           5
  0.00000000E+00  0.00000000E+00  0.00000000E+00  2.04400000E+00  0.00000000E+00
Nuclear GFac                               R   N=           5
  2.79284600E+00  0.00000000E+00  0.00000000E+00  4.03761000E-01  0.00000000E+00
MicOpt                                     I   N=           5
          -1          -1          -1          -1          -1
Number of residues                         I                0
Number of secondary structures             I                0
SymInf integers                            I   N=          26
           1           2           1           1           1           1
           1          -1           0           0           0           0
           0           0           0           0           0           0
           0           0           0           0           0           0
           0           0
RotTr to input orientation                 R   N=          12
 -9.95062499E-01  6.76612887E-16 -9.92503055E-02  9.92503055E-02 -9.27561757E-16
 -9.95062499E-01 -7.65332898E-16 -1.00000000E+00  8.55827885E-16  2.59814037E+00
  0.00000000E+00  3.46914961E+00
Number of contracted shells                I               65
Number of primitive shells                 I              119
Pure/Cartesian d shells                    I                0
Pure/Cartesian f shells                    I                0
Highest angular momentum                   I                3
Largest degree of contraction              I                7
Shell types                                I   N=          65
           0           0           0           0           1           1
           1          -2          -2           0           0           0
           0           0           1           1           1           1
          -2          -2          -2          -3          -3           0
           0           0           0           0           1           1
           1           1          -2          -2          -2          -3
          -3           0           0           0           0           0
           1           1           1           1          -2          -2
          -2          -3          -3           0           0           0
           0           0           1           1           1           1
          -2          -2          -2          -3          -3
Number of primitives per shell             I   N=          65
           3           1           1           1           1           1
           1           1           1           7           6           1
           1           1           3           1           1           1
           1           1           1           1           1           7
           6           1           1           1           3           1
           1           1           1           1           1           1
           1           7           6           1           1           1
           3           1           1           1           1           1
           1           1           1           7           6           1
           1           1           3           1           1           1
           1           1           1           1           1
Shell to atom map                          I   N=          65
           1           1           1           1           1           1
           1           1           1           2           2           2
           2           2           2           2           2           2
           2           2           2           2           2           3
           3           3           3           3           3           3
           3           3           3           3           3           3
           3           4           4           4           4           4
           4           4           4           4           4           4
           4           4           4           5           5           5
           5           5           5           5           5           5
           5           5           5           5           5
Primitive exponents                        R   N=         119
  3.38700000E+01  5.09500000E+00  1.15900000E+00  3.25800000E-01  1.02700000E-01
  2.52600000E-02  1.40700000E+00  3.88000000E-01  1.02000000E-01  1.05700000E+00
  2.47000000E-01  1.53300000E+04  2.29900000E+03  5.22400000E+02  1.47300000E+02
  4.75500000E+01  1.67600000E+01  6.20700000E+00  5.22400000E+02  1.47300000E+02
  4.75500000E+01  1.67600000E+01  6.20700000E+00  6.88200000E-01  1.75200000E+00
  2.38400000E-01  7.37600000E-02  3.44600000E+01  7.74900000E+00  2.28000000E+00
  7.15600000E-01  2.14000000E-01  5.97400000E-02  2.31400000E+00  6.45000000E-01
  2.14000000E-01  1.42800000E+00  5.00000000E-01  1.53300000E+04  2.29900000E+03
  5.22400000E+02  1.47300000E+02  4.75500000E+01  1.67600000E+01  6.20700000E+00
  5.22400000E+02  1.47300000E+02  4.75500000E+01  1.67600000E+01  6.20700000E+00
  6.88200000E-01  1.75200000E+00  2.38400000E-01  7.37600000E-02  3.44600000E+01
  7.74900000E+00  2.28000000E+00  7.15600000E-01  2.14000000E-01  5.97400000E-02
  2.31400000E+00  6.45000000E-01  2.14000000E-01  1.42800000E+00  5.00000000E-01
  1.14200000E+04  1.71200000E+03  3.89300000E+02  1.10000000E+02  3.55700000E+01
  1.25400000E+01  4.64400000E+00  3.89300000E+02  1.10000000E+02  3.55700000E+01
  1.25400000E+01  4.64400000E+00  5.11800000E-01  1.29300000E+00  1.78700000E-01
  5.76000000E-02  2.66300000E+01  5.94800000E+00  1.74200000E+00  5.55000000E-01
  1.72500000E-01  4.91000000E-02  1.65400000E+00  4.69000000E-01  1.51000000E-01
  1.09300000E+00  3.64000000E-01  1.53300000E+04  2.29900000E+03  5.22400000E+02
  1.47300000E+02  4.75500000E+01  1.67600000E+01  6.20700000E+00  5.22400000E+02
  1.47300000E+02  4.75500000E+01  1.67600000E+01  6.20700000E+00  6.88200000E-01
  1.75200000E+00  2.38400000E-01  7.37600000E-02  3.44600000E+01  7.74900000E+00
  2.28000000E+00  7.15600000E-01  2.14000000E-01  5.97400000E-02  2.31400000E+00
  6.45000000E-01  2.14000000E-01  1.42800000E+00  5.00000000E-01
Contraction coefficients                   R   N=         119
  2.54948632E-02  1.90362766E-01  8.52162022E-01  1.00000000E+00  1.00000000E+00
  1.00000000E+00  1.00000000E+00  1.00000000E+00  1.00000000E+00  1.00000000E+00
  1.00000000E+00  5.19808943E-04  4.02025621E-03  2.07128267E-02  8.10105536E-02
  2.35962985E-01  4.42653446E-01  3.57064423E-01 -4.42115008E-05 -1.22591041E-03
 -1.05517725E-02 -6.74452633E-02 -1.71198607E-01  1.07329856E+00  1.00000000E+00
  1.00000000E+00  1.00000000E+00  4.11634896E-02  2.57762836E-01  8.02419274E-01
  1.00000000E+00  1.00000000E+00  1.00000000E+00  1.00000000E+00  1.00000000E+00
  1.00000000E+00  1.00000000E+00  1.00000000E+00  5.19808943E-04  4.02025621E-03
  2.07128267E-02  8.10105536E-02  2.35962985E-01  4.42653446E-01  3.57064423E-01
 -4.42115008E-05 -1.22591041E-03 -1.05517725E-02 -6.74452633E-02 -1.71198607E-01
  1.07329856E+00  1.00000000E+00  1.00000000E+00  1.00000000E+00  4.11634896E-02
  2.57762836E-01  8.02419274E-01  1.00000000E+00  1.00000000E+00  1.00000000E+00
  1.00000000E+00  1.00000000E+00  1.00000000E+00  1.00000000E+00  1.00000000E+00
  5.34563860E-04  4.13435660E-03  2.12335358E-02  8.25006224E-02  2.38138871E-01
  4.42551547E-01  3.53757422E-01 -4.89867350E-05 -1.19527323E-03 -1.03490714E-02
 -6.48680190E-02 -1.71552477E-01  1.07289568E+00  1.00000000E+00  1.00000000E+00
  1.00000000E+00  3.98072123E-02  2.49002660E-01  8.10479727E-01  1.00000000E+00
  1.00000000E+00  1.00000000E+00  1.00000000E+00  1.00000000E+00  1.00000000E+00
  1.00000000E+00  1.00000000E+00  5.19808943E-04  4.02025621E-03  2.07128267E-02
  8.10105536E-02  2.35962985E-01  4.42653446E-01  3.57064423E-01 -4.42115008E-05
 -1.22591041E-03 -1.05517725E-02 -6.74452633E-02 -1.71198607E-01  1.07329856E+00
  1.00000000E+00  1.00000000E+00  1.00000000E+00  4.11634896E-02  2.57762836E-01
  8.02419274E-01  1.00000000E+00  1.00000000E+00  1.00000000E+00  1.00000000E+00
  1.00000000E+00  1.00000000E+00  1.00000000E+00  1.00000000E+00
Coordinates of each shell                  R   N=         195
  2.92962621E+00  3.19415446E+00 -5.77766895E-31  2.92962621E+00  3.19415446E+00
 -5.77766895E-31  2.92962621E+00  3.19415446E+00 -5.77766895E-31  2.92962621E+00
  3.19415446E+00 -5.77766895E-31  2.92962621E+00  3.19415446E+00 -5.77766895E-31
  2.92962621E+00  3.19415446E+00 -5.77766895E-31  2.92962621E+00  3.19415446E+00
 -5.77766895E-31  2.92962621E+00  3.19415446E+00 -5.77766895E-31  2.92962621E+00
  3.19415446E+00 -5.77766895E-31  2.74788913E+00  1.37209708E+00 -5.41925576E-31
  2.74788913E+00  1.37209708E+00 -5.41925576E-31  2.74788913E+00  1.37209708E+00
 -5.41925576E-31  2.74788913E+00  1.37209708E+00 -5.41925576E-31  2.74788913E+00
  1.37209708E+00 -5.41925576E-31  2.74788913E+00  1.37209708E+00 -5.41925576E-31
  2.74788913E+00  1.37209708E+00 -5.41925576E-31  2.74788913E+00  1.37209708E+00
 -5.41925576E-31  2.74788913E+00  1.37209708E+00 -5.41925576E-31  2.74788913E+00
  1.37209708E+00 -5.41925576E-31  2.74788913E+00  1.37209708E+00 -5.41925576E-31
  2.74788913E+00  1.37209708E+00 -5.41925576E-31  2.74788913E+00  1.37209708E+00
 -5.41925576E-31  2.74788913E+00  1.37209708E+00 -5.41925576E-31  1.36910040E-18
  1.28099073E+00  0.00000000E+00  1.36910040E-18  1.28099073E+00  0.00000000E+00
  1.36910040E-18  1.28099073E+00  0.00000000E+00  1.36910040E-18  1.28099073E+00
  0.00000000E+00  1.36910040E-18  1.28099073E+00  0.00000000E+00  1.36910040E-18
  1.28099073E+00  0.00000000E+00  1.36910040E-18  1.28099073E+00  0.00000000E+00
  1.36910040E-18  1.28099073E+00  0.00000000E+00  1.36910040E-18  1.28099073E+00
  0.00000000E+00  1.36910040E-18  1.28099073E+00  0.00000000E+00  1.36910040E-18
  1.28099073E+00  0.00000000E+00  1.36910040E-18  1.28099073E+00  0.00000000E+00
  1.36910040E-18  1.28099073E+00  0.00000000E+00  1.36910040E-18  1.28099073E+00
  0.00000000E+00 -4.97570201E-01 -1.43043541E+00  9.81284197E-32 -4.97570201E-01
 -1.43043541E+00  9.81284197E-32 -4.97570201E-01 -1.43043541E+00  9.81284197E-32
 -4.97570201E-01 -1.43043541E+00  9.81284197E-32 -4.97570201E-01 -1.43043541E+00
  9.81284197E-32 -4.97570201E-01 -1.43043541E+00  9.81284197E-32 -4.97570201E-01
 -1.43043541E+00  9.81284197E-32 -4.97570201E-01 -1.43043541E+00  9.81284197E-32
 -4.97570201E-01 -1.43043541E+00  9.81284197E-32 -4.97570201E-01 -1.43043541E+00
  9.81284197E-32 -4.97570201E-01 -1.43043541E+00  9.81284197E-32 -4.97570201E-01
 -1.43043541E+00  9.81284197E-32 -4.97570201E-01 -1.43043541E+00  9.81284197E-32
 -4.97570201E-01 -1.43043541E+00  9.81284197E-32 -2.67871848E+00 -1.80072613E+00
  5.28284071E-31 -2.67871848E+00 -1.80072613E+00  5.28284071E-31 -2.67871848E+00
 -1.80072613E+00  5.28284071E-31 -2.67871848E+00 -1.80072613E+00  5.28284071E-31
 -2.67871848E+00 -1.80072613E+00  5.28284071E-31 -2.67871848E+00 -1.80072613E+00
  5.28284071E-31 -2.67871848E+00 -1.80072613E+00  5.28284071E-31 -2.67871848E+00
 -1.80072613E+00  5.28284071E-31 -2.67871848E+00 -1.80072613E+00  5.28284071E-31
 -2.67871848E+00 -1.80072613E+00  5.28284071E-31 -2.67871848E+00 -1.80072613E+00
  5.28284071E-31 -2.67871848E+00 -1.80072613E+00  5.28284071E-31 -2.67871848E+00
 -1.80072613E+00  5.28284071E-31 -2.67871848E+00 -1.80072613E+00  5.28284071E-31
Num ILSW                                   I              100
ILSW                                       I   N=         100
           0           0           0           0           2           0
           0           0           0           0           0          -1
           5           0           0           0           0           0
           0           0           0           0           0           0
           1           0           0           0           0           0
           0           0      100000           0          -1           0
           0           0           0           0           0           0
           0           0           0           1           0           0
           0 -2000000000           1           0           0           0
           0           0           4          52           0           0
           0           0           0           0           0           0
           0           0           0           5           0           1
           0           0           0           0           0           0
           0           0           0           0           0           0
           0           0           0           0           0           0
           0           0           0           0           0           0
           0           0           0           0
Num RLSW                                   I               52
RLSW                                       R   N=          52
  1.00000000E+00  1.00000000E+00  1.00000000E+00  1.00000000E+00  1.00000000E+00
  0.00000000E+00  0.00000000E+00  1.00000000E+00  0.00000000E+00  0.00000000E+00
  0.00000000E+00  0.00000000E+00  1.00000000E+00  0.00000000E+00  0.00000000E+00
  0.00000000E+00  0.00000000E+00  1.00000000E+00  0.00000000E+00  0.00000000E+00
  0.00000000E+00  0.00000000E+00  1.00000000E+00  0.00000000E+00  0.00000000E+00
  0.00000000E+00  0.00000000E+00  1.00000000E+00  0.00000000E+00  0.00000000E+00
  0.00000000E+00  0.00000000E+00  1.00000000E+00  0.00000000E+00  0.00000000E+00
  0.00000000E+00  0.00000000E+00  0.00000000E+00  1.00000000E+00  1.00000000E+00
  0.00000000E+00  1.00000000E+00  0.00000000E+00  0.00000000E+00  0.00000000E+00
  0.00000000E+00  0.00000000E+00  0.00000000E+00  0.00000000E+00  0.00000000E+00
  0.00000000E+00  0.00000000E+00
MxBond                                     I                2
NBond                                      I   N=           5
           1           2           2           2           1
IBond                                      I   N=          10
           2           0           1           3           2           4
           3           5           4           0
RBond                                      R   N=          10
  1.00000000E+00  0.00000000E+00  1.00000000E+00  1.00000000E+00  1.00000000E+00
  1.00000000E+00  1.00000000E+00  2.00000000E+00  2.00000000E+00  0.00000000E+00
Virial Ratio                               R      2.002376153055204E+00
SCF Energy                                 R     -2.795015478728296E+02
MP2 Energy                                 R     -2.804466661961731E+02
Total Energy                               R     -2.804466661961731E+02
Post-SCF wavefunction norm                 R      1.120267554504942E+00
RMS Density                                R      3.836846592602725E-09
Job Status                                 I                1
Nuclear derivative order                   I                0
External E-field                           R   N=          35
  0.00000000E+00  0.00000000E+00  0.00000000E+00  0.00000000E+00  0.00000000E+00
  0.00000000E+00  0.00000000E+00  0.00000000E+00  0.00000000E+00  0.00000000E+00
  0.00000000E+00  0.00000000E+00  0.00000000E+00  0.00000000E+00  0.00000000E+00
  0.00000000E+00  0.00000000E+00  0.00000000E+00  0.00000000E+00  0.00000000E+00
  0.00000000E+00  0.00000000E+00  0.00000000E+00  0.00000000E+00  0.00000000E+00
  0.00000000E+00  0.00000000E+00  0.00000000E+00  0.00000000E+00  0.00000000E+00
  0.00000000E+00  0.00000000E+00  0.00000000E+00  0.00000000E+00  0.00000000E+00
IOpCl                                      I                0
IROHF                                      I                0
Alpha Orbital Energies                     R   N=         207
 -2.06912870E+01 -2.06846319E+01 -2.06605857E+01 -1.58124944E+01 -1.62324172E+00
 -1.49644570E+00 -1.25517928E+00 -9.47820764E-01 -7.73294383E-01 -7.58861271E-01
 -7.11614585E-01 -6.79619260E-01 -6.20829292E-01 -5.90254544E-01 -4.85673774E-01
 -4.71310776E-01  2.95535937E-02  7.20792250E-02  8.57545651E-02  1.01730086E-01
  1.34006826E-01  1.34012152E-01  1.44040987E-01  1.54595862E-01  1.78156440E-01
  1.94212224E-01  1.99771502E-01  2.06173980E-01  2.20816147E-01  2.34475862E-01
  2.37251571E-01  2.65367002E-01  2.94157943E-01  3.04186295E-01  3.10629817E-01
  3.43119730E-01  3.49877017E-01  3.86886276E-01  4.21592363E-01  4.31320143E-01
  5.26442841E-01  5.30003721E-01  5.58899275E-01  5.82610755E-01  6.26514663E-01
  6.36211298E-01  6.74196126E-01  6.84286168E-01  7.07843014E-01  7.10817901E-01
  7.24444295E-01  7.29632545E-01  7.45630968E-01  7.89975709E-01  7.91573061E-01
  8.09806641E-01  8.12349027E-01  8.30187794E-01  8.68273925E-01  9.07644988E-01
  9.21704191E-01  9.24284967E-01  9.56724080E-01  9.79309291E-01  9.84419971E-01
  1.01609063E+00  1.05210710E+00  1.05468751E+00  1.08185832E+00  1.11807806E+00
  1.14061587E+00  1.18894155E+00  1.22272415E+00  1.23220520E+00  1.33837904E+00
  1.34914715E+00  1.38458789E+00  1.45200068E+00  1.48797031E+00  1.50996434E+00
  1.53866131E+00  1.56596220E+00  1.57996582E+00  1.61384662E+00  1.66371221E+00
  1.66832761E+00  1.70419019E+00  1.79348445E+00  1.83255810E+00  1.83419077E+00
  1.87657573E+00  1.91159232E+00  1.95574718E+00  1.99111976E+00  2.00831133E+00
  2.07525620E+00  2.11950313E+00  2.13311892E+00  2.14885566E+00  2.22320295E+00
  2.26210903E+00  2.26392160E+00  2.28976826E+00  2.31420695E+00  2.34147367E+00
  2.38604719E+00  2.42258194E+00  2.42881221E+00  2.45617338E+00  2.46573409E+00
  2.47592488E+00  2.50189518E+00  2.58976934E+00  2.59491880E+00  2.61811067E+00
  2.62638144E+00  2.63486353E+00  2.66510544E+00  2.76064561E+00  2.83118291E+00
  2.86091169E+00  2.87807984E+00  2.89442057E+00  2.91254345E+00  2.96248072E+00
  3.02351837E+00  3.07137869E+00  3.11792318E+00  3.20472569E+00  3.22911820E+00
  3.31476563E+00  3.34478296E+00  3.51014269E+00  3.64740542E+00  3.83849174E+00
  3.84475351E+00  4.14801852E+00  4.15953908E+00  4.18309810E+00  4.25734363E+00
  4.35426348E+00  4.39299890E+00  4.46330059E+00  4.51835877E+00  4.66598092E+00
  4.70955168E+00  4.80731399E+00  4.82112834E+00  4.82743914E+00  4.89515310E+00
  5.02208498E+00  5.07828791E+00  5.10049755E+00  5.14288369E+00  5.18316260E+00
  5.24111991E+00  5.27041457E+00  5.31097234E+00  5.32876602E+00  5.35767471E+00
  5.60887779E+00  5.67361042E+00  5.75829989E+00  5.82911220E+00  5.95788637E+00
  6.16782409E+00  6.30719824E+00  6.33961780E+00  6.39395286E+00  6.49167607E+00
  6.50275827E+00  6.61268493E+00  6.66774469E+00  6.69543775E+00  6.75716680E+00
  6.76204395E+00  6.82829956E+00  6.90194707E+00  7.01240841E+00  7.05504298E+00
  7.05690101E+00  7.08866352E+00  7.12554960E+00  7.14791641E+00  7.18087793E+00
  7.22439520E+00  7.24105749E+00  7.30697101E+00  7.32485495E+00  7.34787372E+00
  7.39996466E+00  7.43218760E+00  7.48583060E+00  7.60680782E+00  7.61737867E+00
  7.62800234E+00  7.66248922E+00  7.78291495E+00  7.89206141E+00  8.09200987E+00
  8.31419845E+00  8.40916205E+00  8.54500064E+00  1.33822202E+01  1.44048713E+01
  1.51562513E+01  1.61505118E+01
Alpha MO coefficients                      R   N=       42849
  9.17366168E-05 -6.52560317E-04 -7.26593221E-04 -5.08317295E-06 -2.12126893E-05
 -2.65798469E-05  0.00000000E+00 -4.36820502E-05  6.41040085E-05  0.00000000E+00
  8.70861040E-05  3.56142514E-05  0.00000000E+00  3.19244588E-05  0.00000000E+00
  0.00000000E+00 -4.91898371E-05  2.13198093E-05 -6.13351356E-06  0.00000000E+00
  0.00000000E+00 -1.37023680E-04  1.17552868E-04  4.61198433E-03 -2.82637537E-04
  1.61815091E-05  1.57384917E-03  1.82313612E-03  1.05851548E-04  7.30288744E-06
  0.00000000E+00 -6.15946050E-04 -3.40852251E-05  0.00000000E+00 -1.10253514E-03
  8.09679340E-04  0.00000000E+00 -4.02800586E-04  6.49185490E-05  0.00000000E+00
  2.87566028E-05  0.00000000E+00  0.00000000E+00 -5.38972950E-05  5.80721136E-06
 -3.78002835E-04  0.00000000E+00  0.00000000E+00  7.37884884E-04 -3.28748852E-05
 -4.47275195E-04  0.00000000E+00  0.00000000E+00  2.38587077E-04 -2.09763889E-05
  0.00000000E+00  7.98983424E-05  1.26042449E-05  0.00000000E+00  0.00000000E+00
 -1.09561335E-04 -3.16727272E-06  0.00000000E+00  2.53990365E-04 -2.81702997E-05
  0.00000000E+00  0.00000000E+00 -3.52289012E-04  5.09529394E-05  9.76911301E-01
 -9.21571331E-03  4.33182906E-02  2.04813612E-03 -9.30755027E-04  1.48869722E-03
 -1.36513263E-03  0.00000000E+00 -1.42999691E-03  1.39443002E-03  0.00000000E+00
  7.90622207E-05 -1.17535306E-03  0.00000000E+00 -1.34646895E-04 -1.04407361E-05
  0.00000000E+00  4.58687644E-05  0.00000000E+00  0.00000000E+00 -3.62216121E-05
  2.07914711E-05  7.46105894E-04  0.00000000E+00  0.00000000E+00 -2.29347339E-04
 -3.88809295E-04 -3.54343488E-04  0.00000000E+00  0.00000000E+00 -3.21557207E-04
 -3.86459050E-04  0.00000000E+00  4.76114144E-05 -4.93033618E-05  0.00000000E+00
  0.00000000E+00 -3.86347602E-05 -1.64799119E-05  0.00000000E+00  2.21221602E-05
  2.16309647E-05  0.00000000E+00  0.00000000E+00 -3.06850425E-04 -1.38173436E-04
  3.92222292E-05  4.63215508E-05 -2.65812598E-04 -6.85786410E-04 -1.24425327E-04
 -2.76358572E-05 -9.82201979E-05  0.00000000E+00  2.68361678E-04  7.15684019E-04
  0.00000000E+00 -8.57090406E-04 -4.95632283E-04  0.00000000E+00 -1.26090348E-04
 -2.41366973E-05  0.00000000E+00 -1.80052183E-05  0.00000000E+00  0.00000000E+00
 -2.93259117E-05  1.40391207E-05 -3.30197608E-04  0.00000000E+00  0.00000000E+00
 -8.31995415E-04  1.31453650E-04 -3.65425709E-05  0.00000000E+00  0.00000000E+00
  1.01765117E-04 -1.11301113E-04  0.00000000E+00 -2.09703225E-05 -1.20448822E-04
  0.00000000E+00  0.00000000E+00 -6.29479139E-05 -1.38315661E-04  0.00000000E+00
  1.57604946E-06 -1.52065205E-04  0.00000000E+00  0.00000000E+00  4.43747018E-05
 -4.22836744E-04 -2.51584661E-03  1.14602783E-04 -1.23305249E-04 -2.61992135E-04
  1.20555420E-04 -8.17193846E-06 -2.96101706E-05  0.00000000E+00  6.53400838E-05
  1.72325391E-04  0.00000000E+00  2.23059718E-04  2.09944259E-04  0.00000000E+00
  1.23333842E-04  2.26725693E-05  0.00000000E+00 -2.80224159E-06  0.00000000E+00
  0.00000000E+00 -1.75067559E-05  5.57042262E-07 -3.72775313E-06  0.00000000E+00
  0.00000000E+00  7.23039941E-05  9.51526503E-05 -1.03688279E-04  0.00000000E+00
  0.00000000E+00  1.57392566E-04  1.64998035E-04  0.00000000E+00  1.52972642E-05
 -4.36581374E-06  0.00000000E+00  0.00000000E+00 -5.60867657E-06 -1.17646271E-05
  0.00000000E+00 -3.59131259E-05  4.64244735E-05  0.00000000E+00  0.00000000E+00
  7.82261417E-05  9.08503768E-05  3.87502363E-05 -9.99170074E-04 -4.94841596E-04
 -1.10029728E-05 -2.36108176E-05  1.69539740E-05  0.00000000E+00  3.74659204E-06
  2.82353353E-04  0.00000000E+00 -3.91064917E-05  1.35856392E-04  0.00000000E+00
  2.63997362E-05  0.00000000E+00  0.00000000E+00  1.35705429E-05  1.10098922E-05
 -2.54158176E-05  0.00000000E+00  0.00000000E+00  1.06373033E-05  3.43526376E-05
  1.11599926E-04  8.41744673E-05 -2.85124486E-05  7.72656697E-04  6.47359517E-04
  1.01222304E-05  2.45679500E-06  0.00000000E+00 -7.13760280E-05  1.88395426E-05
  0.00000000E+00  3.28905013E-04  8.90917632E-04  0.00000000E+00  5.50850694E-06
  7.89932698E-05  0.00000000E+00 -2.22388196E-06  0.00000000E+00  0.00000000E+00
 -5.62567062E-08 -6.97303903E-06 -3.69419504E-05  0.00000000E+00  0.00000000E+00
 -2.26748759E-05  8.90545725E-05 -2.27854515E-05  0.00000000E+00  0.00000000E+00
 -2.64179089E-04 -1.54451100E-04  0.00000000E+00  9.42757010E-06  5.87395467E-06
  0.00000000E+00  0.00000000E+00  2.92422088E-06 -1.91002563E-05  0.00000000E+00
 -4.17065284E-05 -3.74770361E-05  0.00000000E+00  0.00000000E+00 -7.78940127E-05
  1.66613179E-05  2.55382145E-03  3.79686684E-05  8.47972489E-05 -5.21222657E-05
 -4.44343209E-04  8.75911544E-06  1.82165055E-05  0.00000000E+00 -6.70593390E-05
 -6.50797490E-05  0.00000000E+00  2.04886004E-04 -1.89741549E-04  0.00000000E+00
 -1.80413343E-04 -6.08478161E-05  0.00000000E+00 -8.35873048E-06  0.00000000E+00
  0.00000000E+00  2.24770858E-05  1.80871117E-05 -5.20134610E-07  0.00000000E+00
  0.00000000E+00 -1.20257648E-04 -3.44818921E-05 -1.00860522E-05  0.00000000E+00
  0.00000000E+00 -2.22224137E-04 -1.79770058E-04  0.00000000E+00  4.70181051E-06
  1.59291147E-06  0.00000000E+00  0.00000000E+00  3.78031632E-06 -1.52090793E-05
  0.00000000E+00 -4.76856496E-05  1.14094713E-06  0.00000000E+00  0.00000000E+00
 -7.36931497E-05  1.93549109E-04  2.59263047E-04  1.47077701E-03 -7.59085470E-05
 -1.58709174E-03  3.83662725E-04 -1.43687508E-04 -2.91282091E-07  0.00000000E+00
 -2.09297104E-03 -4.39278765E-04  0.00000000E+00  1.07074529E-03  7.80690978E-04
  0.00000000E+00 -1.75281037E-04  4.66335662E-05  0.00000000E+00 -1.24075910E-04
  0.00000000E+00  0.00000000E+00  2.39488765E-04  1.00645282E-04 -4.38070029E-04
  0.00000000E+00  0.00000000E+00  9.09808084E-04 -4.37116261E-05  1.68335112E-05
  0.00000000E+00  0.00000000E+00 -3.37299504E-04 -1.26733537E-04  0.00000000E+00
 -4.88859276E-07  1.59704214E-05  0.00000000E+00  0.00000000E+00  1.81908019E-05
  1.51435155E-05  0.00000000E+00  1.62113453E-04 -6.93981259E-05  0.00000000E+00
  0.00000000E+00 -2.46414973E-04  3.84672996E-05  9.76651043E-01 -9.84684446E-03
  4.35657992E-02  4.52600957E-03 -4.40649143E-04  2.13945969E-03  5.24114000E-04
  0.00000000E+00 -2.37499396E-03 -6.49355937E-04  0.00000000E+00  1.14322354E-03
 -2.90297123E-06  0.00000000E+00  5.93182366E-06 -3.95927116E-05  0.00000000E+00
 -2.31613270E-04  0.00000000E+00  0.00000000E+00  1.02520593E-04  3.43036936E-05
  3.91838479E-04  0.00000000E+00  0.00000000E+00 -8.20635531E-04 -4.52471885E-04
 -1.49263659E-04  0.00000000E+00  0.00000000E+00  2.60360927E-04  1.50785785E-05
  0.00000000E+00  5.19884388E-05  1.80094138E-05  0.00000000E+00  0.00000000E+00
 -2.21503889E-05 -1.47417766E-05  0.00000000E+00  1.38718771E-04  1.38506675E-05
  0.00000000E+00  0.00000000E+00 -1.81132646E-04 -1.51411178E-04  4.74660214E-04
  2.06682832E-03  1.21111819E-04  1.50500260E-05 -4.14520374E-05 -2.46724878E-04
  0.00000000E+00  1.09283580E-04 -1.27743166E-03  0.00000000E+00  3.05611391E-04
 -3.41248575E-04  0.00000000E+00 -2.76934880E-06  0.00000000E+00  0.00000000E+00
  7.58228442E-05  1.53655653E-05 -1.60486859E-04  0.00000000E+00  0.00000000E+00
 -5.37112077E-04 -2.10941572E-05  9.76830556E-01 -9.16312114E-03  4.34489547E-02
  1.58851920E-04 -1.12765993E-03 -1.56267661E-03  1.44439833E-03  0.00000000E+00
  1.57453541E-03 -1.28730183E-03  0.00000000E+00 -5.73132203E-04 -8.71101092E-04
  0.00000000E+00  5.46796279E-05 -2.70648317E-05  0.00000000E+00  2.97253415E-05
  0.00000000E+00  0.00000000E+00 -1.18302564E-04 -2.89973973E-06  7.58045720E-04
  0.00000000E+00  0.00000000E+00 -2.02990056E-04 -2.35434050E-04 -2.65716686E-04
  0.00000000E+00  0.00000000E+00  1.71270236E-04  1.27917318E-04  0.00000000E+00
 -6.41454224E-05  1.34343231E-06  0.00000000E+00  0.00000000E+00  1.89679362E-05
  9.67966888E-06  0.00000000E+00 -1.12248149E-06  1.22921443E-04  0.00000000E+00
  0.00000000E+00  2.57623694E-04  9.11770886E-05 -4.70468583E-03 -2.12259900E-04