title                                                                   
SP        RMP2-FC                                                     Aug-CC-pVTZ         
Number of atoms                            I                5
Info1-9                                    I   N=           9
          33          24           0           0           0         110
           1           2           1
Full Title                                 C   N=           1
title       
Route                                      C   N=           4
#p SP mp2/aug-cc-pvtz density=current           
Charge                                     I                0
Multiplicity                               I                1
Number of electrons                        I               32
Number of alpha electrons                  I               16
Number of beta electrons                   I               16
Number of basis functions                  I              207
Number of independent functions            I              207
Number of point charges in /Mol/           I                0
Number of translation vectors              I                0
Atomic numbers                             I   N=           5
           1           8           8           7           8
Nuclear charges                            R   N=           5
  1.00000000E+00  8.00000000E+00  8.00000000E+00  7.00000000E+00  8.00000000E+00
Current cartesian coordinates              R   N=          15
  2.97119096E+00  3.13689117E+00 -2.55178173E-31  2.74923144E+00  1.31929511E+00
 -9.46496584E-31  1.51001807E-16  1.28893840E+00  2.43312047E-31 -4.97878349E-01
 -1.42243118E+00  1.18862218E-31 -2.68498675E+00 -1.75571763E+00  1.17584333E-30
Number of symbols in /Mol/                 I                0
Force Field                                I                0
Atom Types                                 C   N=           5
                                                            
Int Atom Types                             I   N=           5
           0           0           0           0           0
MM charges                                 R   N=           5
  0.00000000E+00  0.00000000E+00  0.00000000E+00  0.00000000E+00  0.00000000E+00
Integer atomic weights                     I   N=           5
           1          16          16          14          16
Real atomic weights                        R   N=           5
  1.00782504E+00  1.59949146E+01  1.59949146E+01  1.40030740E+01  1.59949146E+01
Atom fragment info                         I   N=           5
           0           0           0           0           0
Atom residue num                           I   N=           5
           0           0           0           0           0
Nuclear spins                              I   N=           5
           1           0           0           2           0
Nuclear ZEff                               R   N=           5
 -1.00000000E+00 -5.60000000E+00 -5.60000000E+00 -4.55000000E+00 -5.60000000E+00
Nuclear ZNuc                               R   N=           5
  1.00000000E+00  8.00000000E+00  8.00000000E+00  7.00000000E+00  8.00000000E+00
Nuclear QMom                               R   N=           5
  0.00000000E+00  0.00000000E+00  0.00000000E+00  2.04400000E+00  0.00000000E+00
Nuclear GFac                               R   N=           5
  2.79284600E+00  0.00000000E+00  0.00000000E+00  4.03761000E-01  0.00000000E+00
MicOpt                                     I   N=           5
          -1          -1          -1          -1          -1
Number of residues                         I                0
Number of secondary structures             I                0
SymInf integers                            I   N=          26
           1           2           1           1           1           1
           1          -1           0           0           0           0
           0           0           0           0           0           0
           0           0           0           0           0           0
           0           0
RotTr to input orientation                 R   N=          12
 -9.92626081E-01 -8.54418779E-16 -1.21216597E-01  1.21216597E-01  7.79820743E-16
 -9.92626081E-01  9.42645581E-16 -1.00000000E+00 -6.70500671E-16  2.56903836E+00
  0.00000000E+00  3.47391764E+00
Number of contracted shells                I               65
Number of primitive shells                 I              119
Pure/Cartesian d shells                    I                0
Pure/Cartesian f shells                    I                0
Highest angular momentum                   I                3
Largest degree of contraction              I                7
Shell types                                I   N=          65
           0           0           0           0           1           1
           1          -2          -2           0           0           0
           0           0           1           1           1           1
          -2          -2          -2          -3          -3           0
           0           0           0           0           1           1
           1           1          -2          -2          -2          -3
          -3           0           0           0           0           0
           1           1           1           1          -2          -2
          -2          -3          -3           0           0           0
           0           0           1           1           1           1
          -2          -2          -2          -3          -3
Number of primitives per shell             I   N=          65
           3           1           1           1           1           1
           1           1           1           7           6           1
           1           1           3           1           1           1
           1           1           1           1           1           7
           6           1           1           1           3           1
           1           1           1           1           1           1
           1           7           6           1           1           1
           3           1           1           1           1           1
           1           1           1           7           6           1
           1           1           3           1           1           1
           1           1           1           1           1
Shell to atom map                          I   N=          65
           1           1           1           1           1           1
           1           1           1           2           2           2
           2           2           2           2           2           2
           2           2           2           2           2           3
           3           3           3           3           3           3
           3           3           3           3           3           3
           3           4           4           4           4           4
           4           4           4           4           4           4
           4           4           4           5           5           5
           5           5           5           5           5           5
           5           5           5           5           5
Primitive exponents                        R   N=         119
  3.38700000E+01  5.09500000E+00  1.15900000E+00  3.25800000E-01  1.02700000E-01
  2.52600000E-02  1.40700000E+00  3.88000000E-01  1.02000000E-01  1.05700000E+00
  2.47000000E-01  1.53300000E+04  2.29900000E+03  5.22400000E+02  1.47300000E+02
  4.75500000E+01  1.67600000E+01  6.20700000E+00  5.22400000E+02  1.47300000E+02
  4.75500000E+01  1.67600000E+01  6.20700000E+00  6.88200000E-01  1.75200000E+00
  2.38400000E-01  7.37600000E-02  3.44600000E+01  7.74900000E+00  2.28000000E+00
  7.15600000E-01  2.14000000E-01  5.97400000E-02  2.31400000E+00  6.45000000E-01
  2.14000000E-01  1.42800000E+00  5.00000000E-01  1.53300000E+04  2.29900000E+03
  5.22400000E+02  1.47300000E+02  4.75500000E+01  1.67600000E+01  6.20700000E+00
  5.22400000E+02  1.47300000E+02  4.75500000E+01  1.67600000E+01  6.20700000E+00
  6.88200000E-01  1.75200000E+00  2.38400000E-01  7.37600000E-02  3.44600000E+01
  7.74900000E+00  2.28000000E+00  7.15600000E-01  2.14000000E-01  5.97400000E-02
  2.31400000E+00  6.45000000E-01  2.14000000E-01  1.42800000E+00  5.00000000E-01
  1.14200000E+04  1.71200000E+03  3.89300000E+02  1.10000000E+02  3.55700000E+01
  1.25400000E+01  4.64400000E+00  3.89300000E+02  1.10000000E+02  3.55700000E+01
  1.25400000E+01  4.64400000E+00  5.11800000E-01  1.29300000E+00  1.78700000E-01
  5.76000000E-02  2.66300000E+01  5.94800000E+00  1.74200000E+00  5.55000000E-01
  1.72500000E-01  4.91000000E-02  1.65400000E+00  4.69000000E-01  1.51000000E-01
  1.09300000E+00  3.64000000E-01  1.53300000E+04  2.29900000E+03  5.22400000E+02
  1.47300000E+02  4.75500000E+01  1.67600000E+01  6.20700000E+00  5.22400000E+02
  1.47300000E+02  4.75500000E+01  1.67600000E+01  6.20700000E+00  6.88200000E-01
  1.75200000E+00  2.38400000E-01  7.37600000E-02  3.44600000E+01  7.74900000E+00
  2.28000000E+00  7.15600000E-01  2.14000000E-01  5.97400000E-02  2.31400000E+00
  6.45000000E-01  2.14000000E-01  1.42800000E+00  5.00000000E-01
Contraction coefficients                   R   N=         119
  2.54948632E-02  1.90362766E-01  8.52162022E-01  1.00000000E+00  1.00000000E+00
  1.00000000E+00  1.00000000E+00  1.00000000E+00  1.00000000E+00  1.00000000E+00
  1.00000000E+00  5.19808943E-04  4.02025621E-03  2.07128267E-02  8.10105536E-02
  2.35962985E-01  4.42653446E-01  3.57064423E-01 -4.42115008E-05 -1.22591041E-03
 -1.05517725E-02 -6.74452633E-02 -1.71198607E-01  1.07329856E+00  1.00000000E+00
  1.00000000E+00  1.00000000E+00  4.11634896E-02  2.57762836E-01  8.02419274E-01
  1.00000000E+00  1.00000000E+00  1.00000000E+00  1.00000000E+00  1.00000000E+00
  1.00000000E+00  1.00000000E+00  1.00000000E+00  5.19808943E-04  4.02025621E-03
  2.07128267E-02  8.10105536E-02  2.35962985E-01  4.42653446E-01  3.57064423E-01
 -4.42115008E-05 -1.22591041E-03 -1.05517725E-02 -6.74452633E-02 -1.71198607E-01
  1.07329856E+00  1.00000000E+00  1.00000000E+00  1.00000000E+00  4.11634896E-02
  2.57762836E-01  8.02419274E-01  1.00000000E+00  1.00000000E+00  1.00000000E+00
  1.00000000E+00  1.00000000E+00  1.00000000E+00  1.00000000E+00  1.00000000E+00
  5.34563860E-04  4.13435660E-03  2.12335358E-02  8.25006224E-02  2.38138871E-01
  4.42551547E-01  3.53757422E-01 -4.89867350E-05 -1.19527323E-03 -1.03490714E-02
 -6.48680190E-02 -1.71552477E-01  1.07289568E+00  1.00000000E+00  1.00000000E+00
  1.00000000E+00  3.98072123E-02  2.49002660E-01  8.10479727E-01  1.00000000E+00
  1.00000000E+00  1.00000000E+00  1.00000000E+00  1.00000000E+00  1.00000000E+00
  1.00000000E+00  1.00000000E+00  5.19808943E-04  4.02025621E-03  2.07128267E-02
  8.10105536E-02  2.35962985E-01  4.42653446E-01  3.57064423E-01 -4.42115008E-05
 -1.22591041E-03 -1.05517725E-02 -6.74452633E-02 -1.71198607E-01  1.07329856E+00
  1.00000000E+00  1.00000000E+00  1.00000000E+00  4.11634896E-02  2.57762836E-01
  8.02419274E-01  1.00000000E+00  1.00000000E+00  1.00000000E+00  1.00000000E+00
  1.00000000E+00  1.00000000E+00  1.00000000E+00  1.00000000E+00
Coordinates of each shell                  R   N=         195
  2.97119096E+00  3.13689117E+00 -3.81730743E-31  2.97119096E+00  3.13689117E+00
 -3.81730743E-31  2.97119096E+00  3.13689117E+00 -3.81730743E-31  2.97119096E+00
  3.13689117E+00 -3.81730743E-31  2.97119096E+00  3.13689117E+00 -3.81730743E-31
  2.97119096E+00  3.13689117E+00 -3.81730743E-31  2.97119096E+00  3.13689117E+00
 -3.81730743E-31  2.97119096E+00  3.13689117E+00 -3.81730743E-31  2.97119096E+00
  3.13689117E+00 -3.81730743E-31  2.74923144E+00  1.31929511E+00 -5.86244697E-31
  2.74923144E+00  1.31929511E+00 -5.86244697E-31  2.74923144E+00  1.31929511E+00
 -5.86244697E-31  2.74923144E+00  1.31929511E+00 -5.86244697E-31  2.74923144E+00
  1.31929511E+00 -5.86244697E-31  2.74923144E+00  1.31929511E+00 -5.86244697E-31
  2.74923144E+00  1.31929511E+00 -5.86244697E-31  2.74923144E+00  1.31929511E+00
 -5.86244697E-31  2.74923144E+00  1.31929511E+00 -5.86244697E-31  2.74923144E+00
  1.31929511E+00 -5.86244697E-31  2.74923144E+00  1.31929511E+00 -5.86244697E-31
  2.74923144E+00  1.31929511E+00 -5.86244697E-31  2.74923144E+00  1.31929511E+00
 -5.86244697E-31  2.74923144E+00  1.31929511E+00 -5.86244697E-31 -5.05779419E-18
  1.28893840E+00  1.89711490E-31 -5.05779419E-18  1.28893840E+00  1.89711490E-31
 -5.05779419E-18  1.28893840E+00  1.89711490E-31 -5.05779419E-18  1.28893840E+00
  1.89711490E-31 -5.05779419E-18  1.28893840E+00  1.89711490E-31 -5.05779419E-18
  1.28893840E+00  1.89711490E-31 -5.05779419E-18  1.28893840E+00  1.89711490E-31
 -5.05779419E-18  1.28893840E+00  1.89711490E-31 -5.05779419E-18  1.28893840E+00
  1.89711490E-31 -5.05779419E-18  1.28893840E+00  1.89711490E-31 -5.05779419E-18
  1.28893840E+00  1.89711490E-31 -5.05779419E-18  1.28893840E+00  1.89711490E-31
 -5.05779419E-18  1.28893840E+00  1.89711490E-31 -5.05779419E-18  1.28893840E+00
  1.89711490E-31 -4.97878349E-01 -1.42243118E+00 -6.80268233E-32 -4.97878349E-01
 -1.42243118E+00 -6.80268233E-32 -4.97878349E-01 -1.42243118E+00 -6.80268233E-32
 -4.97878349E-01 -1.42243118E+00 -6.80268233E-32 -4.97878349E-01 -1.42243118E+00
 -6.80268233E-32 -4.97878349E-01 -1.42243118E+00 -6.80268233E-32 -4.97878349E-01
 -1.42243118E+00 -6.80268233E-32 -4.97878349E-01 -1.42243118E+00 -6.80268233E-32
 -4.97878349E-01 -1.42243118E+00 -6.80268233E-32 -4.97878349E-01 -1.42243118E+00
 -6.80268233E-32 -4.97878349E-01 -1.42243118E+00 -6.80268233E-32 -4.97878349E-01
 -1.42243118E+00 -6.80268233E-32 -4.97878349E-01 -1.42243118E+00 -6.80268233E-32
 -4.97878349E-01 -1.42243118E+00 -6.80268233E-32 -2.68498675E+00 -1.75571763E+00
  5.03773021E-31 -2.68498675E+00 -1.75571763E+00  5.03773021E-31 -2.68498675E+00
 -1.75571763E+00  5.03773021E-31 -2.68498675E+00 -1.75571763E+00  5.03773021E-31
 -2.68498675E+00 -1.75571763E+00  5.03773021E-31 -2.68498675E+00 -1.75571763E+00
  5.03773021E-31 -2.68498675E+00 -1.75571763E+00  5.03773021E-31 -2.68498675E+00
 -1.75571763E+00  5.03773021E-31 -2.68498675E+00 -1.75571763E+00  5.03773021E-31
 -2.68498675E+00 -1.75571763E+00  5.03773021E-31 -2.68498675E+00 -1.75571763E+00
  5.03773021E-31 -2.68498675E+00 -1.75571763E+00  5.03773021E-31 -2.68498675E+00
 -1.75571763E+00  5.03773021E-31 -2.68498675E+00 -1.75571763E+00  5.03773021E-31
Num ILSW                                   I              100
ILSW                                       I   N=         100
           0           0           0           0           2           0
           0           0           0           0           0          -1
           5           0           0           0           0           0
           0           0           0           0           0           0
           1           0           0           0           0           0
           0           0      100000           0          -1           0
           0           0           0           0           0           0
           0           0           0           1           0           0
           0 -2000000000           1           0           0           0
           0           0           4          52           0           0
           0           0           0           0           0           0
           0           0           0           5           0           1
           0           0           0           0           0           0
           0           0           0           0           0           0
           0           0           0           0           0           0
           0           0           0           0           0           0
           0           0           0           0
Num RLSW                                   I               52
RLSW                                       R   N=          52
  1.00000000E+00  1.00000000E+00  1.00000000E+00  1.00000000E+00  1.00000000E+00
  0.00000000E+00  0.00000000E+00  1.00000000E+00  0.00000000E+00  0.00000000E+00
  0.00000000E+00  0.00000000E+00  1.00000000E+00  0.00000000E+00  0.00000000E+00
  0.00000000E+00  0.00000000E+00  1.00000000E+00  0.00000000E+00  0.00000000E+00
  0.00000000E+00  0.00000000E+00  1.00000000E+00  0.00000000E+00  0.00000000E+00
  0.00000000E+00  0.00000000E+00  1.00000000E+00  0.00000000E+00  0.00000000E+00
  0.00000000E+00  0.00000000E+00  1.00000000E+00  0.00000000E+00  0.00000000E+00
  0.00000000E+00  0.00000000E+00  0.00000000E+00  1.00000000E+00  1.00000000E+00
  0.00000000E+00  1.00000000E+00  0.00000000E+00  0.00000000E+00  0.00000000E+00
  0.00000000E+00  0.00000000E+00  0.00000000E+00  0.00000000E+00  0.00000000E+00
  0.00000000E+00  0.00000000E+00
MxBond                                     I                2
NBond                                      I   N=           5
           1           2           2           2           1
IBond                                      I   N=          10
           2           0           1           3           2           4
           3           5           4           0
RBond                                      R   N=          10
  1.00000000E+00  0.00000000E+00  1.00000000E+00  1.00000000E+00  1.00000000E+00
  1.00000000E+00  1.00000000E+00  2.00000000E+00  2.00000000E+00  0.00000000E+00
Virial Ratio                               R      2.002325555919058E+00
SCF Energy                                 R     -2.795015003943012E+02
MP2 Energy                                 R     -2.804466662337947E+02
Total Energy                               R     -2.804466662337947E+02
Post-SCF wavefunction norm                 R      1.120224980765443E+00
RMS Density                                R      3.780711115246419E-09
Job Status                                 I                1
Nuclear derivative order                   I                0
External E-field                           R   N=          35
  0.00000000E+00  0.00000000E+00  0.00000000E+00  0.00000000E+00  0.00000000E+00
  0.00000000E+00  0.00000000E+00  0.00000000E+00  0.00000000E+00  0.00000000E+00
  0.00000000E+00  0.00000000E+00  0.00000000E+00  0.00000000E+00  0.00000000E+00
  0.00000000E+00  0.00000000E+00  0.00000000E+00  0.00000000E+00  0.00000000E+00
  0.00000000E+00  0.00000000E+00  0.00000000E+00  0.00000000E+00  0.00000000E+00
  0.00000000E+00  0.00000000E+00  0.00000000E+00  0.00000000E+00  0.00000000E+00
  0.00000000E+00  0.00000000E+00  0.00000000E+00  0.00000000E+00  0.00000000E+00
IOpCl                                      I                0
IROHF                                      I                0
Alpha Orbital Energies                     R   N=         207
 -2.06911976E+01 -2.06840141E+01 -2.06595545E+01 -1.58124482E+01 -1.62408011E+00
 -1.49610919E+00 -1.25378874E+00 -9.48328208E-01 -7.73781649E-01 -7.58654909E-01
 -7.11981469E-01 -6.77390792E-01 -6.20106942E-01 -5.90357274E-01 -4.85323339E-01
 -4.72759257E-01  2.96214509E-02  7.18259469E-02  8.59209568E-02  1.01379383E-01
  1.34066227E-01  1.34098950E-01  1.44232472E-01  1.54927163E-01  1.78202328E-01
  1.94020782E-01  1.99684271E-01  2.06410077E-01  2.21002749E-01  2.35519094E-01
  2.37488614E-01  2.65172086E-01  2.93218968E-01  3.04593607E-01  3.10222741E-01
  3.43149225E-01  3.50145836E-01  3.87796359E-01  4.21539200E-01  4.30818099E-01
  5.27145636E-01  5.30216182E-01  5.60185064E-01  5.83586424E-01  6.26183535E-01
  6.37233349E-01  6.74227420E-01  6.84362573E-01  7.05649683E-01  7.12028423E-01
  7.23811305E-01  7.30122833E-01  7.44713690E-01  7.90158385E-01  7.91941162E-01
  8.09678076E-01  8.12874131E-01  8.31812112E-01  8.68249364E-01  9.07647686E-01
  9.22571737E-01  9.25938906E-01  9.58603705E-01  9.82008434E-01  9.85731676E-01
  1.01652552E+00  1.05291027E+00  1.05386804E+00  1.08589283E+00  1.12074052E+00
  1.14346987E+00  1.18810305E+00  1.22195854E+00  1.23139262E+00  1.33779441E+00
  1.34949756E+00  1.38772100E+00  1.45264239E+00  1.48755951E+00  1.50892177E+00
  1.53958658E+00  1.56810308E+00  1.58060034E+00  1.61519060E+00  1.66605023E+00
  1.66871921E+00  1.70325463E+00  1.79288691E+00  1.82831827E+00  1.83313177E+00
  1.87939907E+00  1.91224886E+00  1.95834890E+00  1.99327677E+00  2.00596541E+00
  2.07694701E+00  2.11809289E+00  2.13114039E+00  2.15031408E+00  2.22497273E+00
  2.26392730E+00  2.26522254E+00  2.28829651E+00  2.31666880E+00  2.35116659E+00
  2.38772030E+00  2.42661925E+00  2.42861638E+00  2.45350895E+00  2.46408153E+00
  2.47698653E+00  2.50593943E+00  2.59004742E+00  2.59524286E+00  2.61930937E+00
  2.62633007E+00  2.63175868E+00  2.66994232E+00  2.76103030E+00  2.83003624E+00
  2.86607546E+00  2.89037275E+00  2.89554346E+00  2.92240289E+00  2.95610824E+00
  3.03274961E+00  3.07153282E+00  3.12496036E+00  3.20640833E+00  3.23076646E+00
  3.31531492E+00  3.33514842E+00  3.50777036E+00  3.65100382E+00  3.83983676E+00
  3.84470100E+00  4.15031668E+00  4.16234353E+00  4.18521147E+00  4.26079142E+00
  4.34797749E+00  4.39586960E+00  4.46380428E+00  4.51803878E+00  4.66963946E+00
  4.71145090E+00  4.80898227E+00  4.82396543E+00  4.82936872E+00  4.89690572E+00
  5.02199048E+00  5.07717711E+00  5.10180753E+00  5.14022562E+00  5.18366557E+00
  5.24603159E+00  5.27136643E+00  5.30835676E+00  5.33322542E+00  5.36234592E+00
  5.61669212E+00  5.67389546E+00  5.77216569E+00  5.82865266E+00  5.95741748E+00
  6.17312302E+00  6.30869674E+00  6.33688870E+00  6.39325148E+00  6.49306701E+00
  6.50435016E+00  6.61619027E+00  6.66563145E+00  6.69805419E+00  6.76192181E+00
  6.76359119E+00  6.83390921E+00  6.89656378E+00  7.01033080E+00  7.05251144E+00
  7.05771981E+00  7.09031866E+00  7.12589899E+00  7.15195355E+00  7.18256248E+00
  7.22311748E+00  7.24352676E+00  7.30950624E+00  7.32471999E+00  7.35469612E+00
  7.40224492E+00  7.42954578E+00  7.48672929E+00  7.60388851E+00  7.61780855E+00
  7.63353076E+00  7.66942844E+00  7.79338794E+00  7.89339359E+00  8.08874455E+00
  8.31561433E+00  8.40926337E+00  8.54360869E+00  1.34018435E+01  1.43681394E+01
  1.51771066E+01  1.61551064E+01
Alpha MO coefficients                      R   N=       42849
  9.11354833E-05 -6.17942424E-04 -7.14795671E-04 -3.14779778E-06 -2.04908446E-05
 -2.67659670E-05  0.00000000E+00 -4.63882494E-05  5.43579277E-05  0.00000000E+00
  8.27105159E-05  3.20340534E-05  0.00000000E+00  3.13473428E-05  0.00000000E+00
  0.00000000E+00 -4.89050027E-05  2.33783803E-05 -5.64436593E-06  0.00000000E+00
  0.00000000E+00 -1.30818992E-04  1.23442381E-04  4.47766424E-03 -2.82816152E-04
  1.16929468E-05  1.50012137E-03  1.81001382E-03  1.05213350E-04  5.08706241E-06
  0.00000000E+00 -6.09244331E-04 -2.20624260E-05  0.00000000E+00 -1.06033474E-03
  7.98473867E-04  0.00000000E+00 -3.97780242E-04  7.18650906E-05  0.00000000E+00
  2.89037369E-05  0.00000000E+00  0.00000000E+00 -5.36843852E-05  8.23808854E-06
 -3.75885279E-04  0.00000000E+00  0.00000000E+00  7.35063153E-04 -6.72528247E-05
 -4.43901758E-04  0.00000000E+00  0.00000000E+00  2.35152779E-04 -2.25830667E-05
  0.00000000E+00  7.98494506E-05  1.07569965E-05  0.00000000E+00  0.00000000E+00
 -1.10029433E-04  4.05604461E-06  0.00000000E+00  2.55523117E-04 -3.22386425E-05
  0.00000000E+00  0.00000000E+00 -3.44352458E-04  7.45845689E-05  9.76912498E-01
 -9.22424289E-03  4.33145903E-02  2.08727506E-03 -9.14426155E-04  1.47632606E-03
 -1.37465157E-03  0.00000000E+00 -1.42468797E-03  1.41010912E-03  0.00000000E+00
  9.55904596E-05 -1.15857913E-03  0.00000000E+00 -1.30523402E-04 -1.08301312E-05
  0.00000000E+00  4.80972224E-05  0.00000000E+00  0.00000000E+00 -3.55962391E-05
  1.90175621E-05  7.42410715E-04  0.00000000E+00  0.00000000E+00 -2.37078173E-04
 -3.56758853E-04 -3.60951373E-04  0.00000000E+00  0.00000000E+00 -3.16711953E-04
 -3.74020830E-04  0.00000000E+00  4.74552391E-05 -5.00374900E-05  0.00000000E+00
  0.00000000E+00 -3.92215887E-05 -1.36329601E-05  0.00000000E+00  2.22478332E-05
  2.12940763E-05  0.00000000E+00  0.00000000E+00 -3.03002797E-04 -1.22797154E-04
  3.82330235E-05  4.17032781E-05 -2.62370345E-04 -7.23649395E-04 -1.46306530E-04
 -2.66459646E-05 -9.65497745E-05  0.00000000E+00  2.60185840E-04  6.95804665E-04
  0.00000000E+00 -8.16654437E-04 -4.76887139E-04  0.00000000E+00 -1.28491506E-04
 -2.82177089E-05  0.00000000E+00 -1.77020104E-05  0.00000000E+00  0.00000000E+00
 -2.86720362E-05  1.50602998E-05 -3.27687535E-04  0.00000000E+00  0.00000000E+00
 -8.23992969E-04  1.27369839E-04 -3.66700835E-05  0.00000000E+00  0.00000000E+00
  9.30942278E-05 -1.12555962E-04  0.00000000E+00 -2.02024225E-05 -1.19675684E-04
  0.00000000E+00  0.00000000E+00 -6.46720693E-05 -1.37853834E-04  0.00000000E+00
 -1.75134587E-06 -1.56744942E-04  0.00000000E+00  0.00000000E+00  4.38626623E-05
 -4.10145886E-04 -2.38245305E-03  1.20021809E-04 -1.13681856E-04 -2.28739651E-04
  1.39792576E-04 -7.50293496E-06 -2.68497611E-05  0.00000000E+00  6.81889170E-05
  1.57706638E-04  0.00000000E+00  2.32729813E-04  2.06612713E-04  0.00000000E+00
  1.27711047E-04  2.76442056E-05  0.00000000E+00 -3.18134087E-06  0.00000000E+00
  0.00000000E+00 -1.77951295E-05  1.27152316E-06  1.19537950E-06  0.00000000E+00
  0.00000000E+00  7.86881475E-05  8.51918718E-05 -9.93586249E-05  0.00000000E+00
  0.00000000E+00  1.61200423E-04  1.64267014E-04  0.00000000E+00  1.59838196E-05
 -3.36557526E-06  0.00000000E+00  0.00000000E+00 -4.14505983E-06 -1.21654116E-05
  0.00000000E+00 -3.32722607E-05  4.49465626E-05  0.00000000E+00  0.00000000E+00
  8.10102287E-05  8.96158385E-05  4.11808540E-05 -9.96346142E-04 -4.74217652E-04
 -1.21320735E-05 -2.19293222E-05  1.55194844E-05  0.00000000E+00  4.77994633E-06
  2.71672725E-04  0.00000000E+00 -4.73145705E-05  1.29500484E-04  0.00000000E+00
  2.64754833E-05  0.00000000E+00  0.00000000E+00  1.14872319E-05  1.01276324E-05
 -3.12587863E-05  0.00000000E+00  0.00000000E+00  1.44331928E-05  3.78106318E-05
  1.11943206E-04  9.28672114E-05 -2.83200588E-05  7.23149683E-04  6.03706698E-04
  1.03091092E-05  2.29594750E-06  0.00000000E+00 -7.65321407E-05  1.40206827E-05
  0.00000000E+00  3.84655231E-04  9.37281578E-04  0.00000000E+00  1.99476042E-05
  8.88789481E-05  0.00000000E+00 -2.76146347E-06  0.00000000E+00  0.00000000E+00
 -2.11399134E-07 -4.52216591E-06 -3.37293065E-05  0.00000000E+00  0.00000000E+00
 -1.44939304E-05  7.60691990E-05 -1.87317156E-05  0.00000000E+00  0.00000000E+00
 -2.79041814E-04 -1.73354361E-04  0.00000000E+00  9.16486308E-06  6.05329231E-06
  0.00000000E+00  0.00000000E+00  2.45282674E-06 -1.83139985E-05  0.00000000E+00
 -4.20626430E-05 -3.95389193E-05  0.00000000E+00  0.00000000E+00 -7.98089877E-05
  3.25066972E-05  2.42105137E-03  4.00030477E-05  8.30419453E-05 -7.04080027E-05
 -4.54219859E-04  7.22505237E-06  1.57023719E-05  0.00000000E+00 -6.24254699E-05
 -5.29269340E-05  0.00000000E+00  2.36655842E-04 -2.13780186E-04  0.00000000E+00
 -1.75331341E-04 -6.04769833E-05  0.00000000E+00 -8.73920456E-06  0.00000000E+00
  0.00000000E+00  2.23074061E-05  2.03272368E-05  4.80458799E-06  0.00000000E+00
  0.00000000E+00 -1.17055223E-04 -4.88400180E-05 -6.18941303E-06  0.00000000E+00
  0.00000000E+00 -2.23397327E-04 -2.22215062E-04  0.00000000E+00  3.20838410E-06
 -1.16336451E-06  0.00000000E+00  0.00000000E+00  1.65788412E-06 -1.28236068E-05
  0.00000000E+00 -4.60407258E-05  6.14469299E-06  0.00000000E+00  0.00000000E+00
 -7.49014057E-05  1.81630471E-04  2.58637108E-04  1.46446841E-03 -7.79182215E-05
 -1.52398192E-03  4.23307699E-04 -1.44279553E-04  4.87409194E-07  0.00000000E+00
 -2.09768586E-03 -4.04878688E-04  0.00000000E+00  1.07880175E-03  7.84942002E-04
  0.00000000E+00 -1.71374016E-04  5.97647306E-05  0.00000000E+00 -1.23188484E-04
  0.00000000E+00  0.00000000E+00  2.43385333E-04  9.28674316E-05 -4.43970824E-04
  0.00000000E+00  0.00000000E+00  8.99213325E-04 -6.38608666E-05  9.32442586E-06
  0.00000000E+00  0.00000000E+00 -3.44326374E-04 -1.15012058E-04  0.00000000E+00
 -4.84984977E-07  1.57124427E-05  0.00000000E+00  0.00000000E+00  1.79334561E-05
  1.18735646E-05  0.00000000E+00  1.59324499E-04 -7.41095389E-05  0.00000000E+00
  0.00000000E+00 -2.39224037E-04  4.86793387E-05  9.76649501E-01 -9.84592769E-03
  4.35699784E-02  4.51801587E-03 -4.52247942E-04  2.14763867E-03  4.75612007E-04
  0.00000000E+00 -2.38438943E-03 -5.99810229E-04  0.00000000E+00  1.13295152E-03
 -7.15997693E-06  0.00000000E+00  2.46944099E-06 -4.02183821E-05  0.00000000E+00
 -2.32837885E-04  0.00000000E+00  0.00000000E+00  1.02573428E-04  3.21040431E-05
  3.90848292E-04  0.00000000E+00  0.00000000E+00 -8.37466170E-04 -4.17020643E-04
 -1.49837393E-04  0.00000000E+00  0.00000000E+00  2.51497487E-04  1.28232549E-05
  0.00000000E+00  5.22764950E-05  1.74331358E-05  0.00000000E+00  0.00000000E+00
 -2.25156823E-05 -1.29789251E-05  0.00000000E+00  1.39275362E-04  9.65821396E-06
  0.00000000E+00  0.00000000E+00 -1.91037349E-04 -1.40228365E-04  4.77987126E-04
  2.13647737E-03  1.41255816E-04  1.50230859E-05 -4.56702035E-05 -2.48619565E-04
  0.00000000E+00  7.67136334E-05 -1.30003898E-03  0.00000000E+00  2.79890843E-04
 -3.56036226E-04  0.00000000E+00 -3.63436145E-06  0.00000000E+00  0.00000000E+00
  7.52418176E-05  1.06030847E-05 -1.58891435E-04  0.00000000E+00  0.00000000E+00
 -5.38537216E-04  3.45255263E-06  9.76829200E-01 -9.16612279E-03  4.34527633E-02
  1.05095160E-04 -1.08577010E-03 -1.52188391E-03  1.48255970E-03  0.00000000E+00
  1.53680174E-03 -1.32730225E-03  0.00000000E+00 -5.97893395E-04 -9.48029972E-04
  0.00000000E+00  5.37545079E-05 -1.03692884E-05  0.00000000E+00  2.87257159E-05
  0.00000000E+00  0.00000000E+00 -1.19077403E-04  4.43109428E-06  7.61701233E-04
  0.00000000E+00  0.00000000E+00 -2.03257773E-04 -2.28493166E-04 -2.64923658E-04
  0.00000000E+00  0.00000000E+00  1.78178515E-04  1.46354716E-04  0.00000000E+00
 -6.36377970E-05  1.78644903E-06  0.00000000E+00  0.00000000E+00  1.80958973E-05
  8.82425891E-06  0.00000000E+00  2.15069925E-06  1.29491884E-04  0.00000000E+00
  0.00000000E+00  2.69480152E-04  7.55723553E-05 -4.57060862E-03 -2.12438677E-04