 Entering Gaussian System, Link 0=g16
 Input=hoono_a3_108p1053.gjf
 Output=hoono_a3_108p1053.log
 Initial command:
 /sw/contrib/gaussian/g16/B01/g16/l1.exe "/scr/Gau-14944.inp" -scrdir="/scr/"
 Entering Link 1 = /sw/contrib/gaussian/g16/B01/g16/l1.exe PID=     14945.
  
 Copyright (c) 1988-2017, Gaussian, Inc.  All Rights Reserved.
  
 This is part of the Gaussian(R) 16 program.  It is based on
 the Gaussian(R) 09 system (copyright 2009, Gaussian, Inc.),
 the Gaussian(R) 03 system (copyright 2003, Gaussian, Inc.),
 the Gaussian(R) 98 system (copyright 1998, Gaussian, Inc.),
 the Gaussian(R) 94 system (copyright 1995, Gaussian, Inc.),
 the Gaussian 92(TM) system (copyright 1992, Gaussian, Inc.),
 the Gaussian 90(TM) system (copyright 1990, Gaussian, Inc.),
 the Gaussian 88(TM) system (copyright 1988, Gaussian, Inc.),
 the Gaussian 86(TM) system (copyright 1986, Carnegie Mellon
 University), and the Gaussian 82(TM) system (copyright 1983,
 Carnegie Mellon University). Gaussian is a federally registered
 trademark of Gaussian, Inc.
  
 This software contains proprietary and confidential information,
 including trade secrets, belonging to Gaussian, Inc.
  
 This software is provided under written license and may be
 used, copied, transmitted, or stored only in accord with that
 written license.
  
 The following legend is applicable only to US Government
 contracts under FAR:
  
                    RESTRICTED RIGHTS LEGEND
  
 Use, reproduction and disclosure by the US Government is
 subject to restrictions as set forth in subparagraphs (a)
 and (c) of the Commercial Computer Software - Restricted
 Rights clause in FAR 52.227-19.
  
 Gaussian, Inc.
 340 Quinnipiac St., Bldg. 40, Wallingford CT 06492
  
  
 ---------------------------------------------------------------
 Warning -- This program may not be used in any manner that
 competes with the business of Gaussian, Inc. or will provide
 assistance to any competitor of Gaussian, Inc.  The licensee
 of this program is prohibited from giving any competitor of
 Gaussian, Inc. access to this program.  By using this program,
 the user acknowledges that Gaussian, Inc. is engaged in the
 business of creating and licensing software in the field of
 computational chemistry and represents and warrants to the
 licensee that it is not a competitor of Gaussian, Inc. and that
 it will not use this program in any manner prohibited above.
 ---------------------------------------------------------------
  

 Cite this work as:
 Gaussian 16, Revision B.01,
 M. J. Frisch, G. W. Trucks, H. B. Schlegel, G. E. Scuseria, 
 M. A. Robb, J. R. Cheeseman, G. Scalmani, V. Barone, 
 G. A. Petersson, H. Nakatsuji, X. Li, M. Caricato, A. V. Marenich, 
 J. Bloino, B. G. Janesko, R. Gomperts, B. Mennucci, H. P. Hratchian, 
 J. V. Ortiz, A. F. Izmaylov, J. L. Sonnenberg, D. Williams-Young, 
 F. Ding, F. Lipparini, F. Egidi, J. Goings, B. Peng, A. Petrone, 
 T. Henderson, D. Ranasinghe, V. G. Zakrzewski, J. Gao, N. Rega, 
 G. Zheng, W. Liang, M. Hada, M. Ehara, K. Toyota, R. Fukuda, 
 J. Hasegawa, M. Ishida, T. Nakajima, Y. Honda, O. Kitao, H. Nakai, 
 T. Vreven, K. Throssell, J. A. Montgomery, Jr., J. E. Peralta, 
 F. Ogliaro, M. J. Bearpark, J. J. Heyd, E. N. Brothers, K. N. Kudin, 
 V. N. Staroverov, T. A. Keith, R. Kobayashi, J. Normand, 
 K. Raghavachari, A. P. Rendell, J. C. Burant, S. S. Iyengar, 
 J. Tomasi, M. Cossi, J. M. Millam, M. Klene, C. Adamo, R. Cammi, 
 J. W. Ochterski, R. L. Martin, K. Morokuma, O. Farkas, 
 J. B. Foresman, and D. J. Fox, Gaussian, Inc., Wallingford CT, 2016.
 
 ******************************************
 Gaussian 16:  ES64L-G16RevB.01 20-Dec-2017
                14-Feb-2022 
 ******************************************
 %nproc=28
 Will use up to   28 processors via shared memory.
 %mem=120GB
 %chk=hoono_a3_108p1053.chk
 -------------------------------------
 #p SP mp2/aug-cc-pvtz density=current
 -------------------------------------
 1/30=1,38=1,172=1/1;
 2/12=2,17=6,18=5,40=1/2;
 3/5=16,6=1,7=10,11=9,25=1,30=1,71=1/1,2,3;
 4//1;
 5/5=2,38=5/2;
 8/6=4,10=1/1;
 9/15=1,16=-3/6;
 10/5=1,13=10/2;
 6/7=2,8=2,9=2,10=2,22=-1/1;
 99/5=1,9=1/99;
 Leave Link    1 at Mon Feb 14 22:12:57 2022, MaxMem= 16106127360 cpu:               3.3 elap:               0.1
 (Enter /sw/contrib/gaussian/g16/B01/g16/l101.exe)
 -----
 title
 -----
 Symbolic Z-matrix:
 Charge =  0 Multiplicity = 1
 H
 O                    1    r1
 O                    2    r2       1    a1
 N                    3    r3       2    a2       1    d1       0
 O                    4    r4       3    a3       2    d2       0
       Variables:
  r1                    0.96898                  
  r2                    1.45492                  
  r3                    1.45878                  
  r4                    1.17073                  
  a1                   97.59495                  
  a2                  102.29752                  
  a3                  108.10536                  
  d1                  180.                       
  d2                  180.                       
 
 ITRead=  0  0  0  0  0
 MicOpt= -1 -1 -1 -1 -1
 NAtoms=      5 NQM=        5 NQMF=       0 NMMI=      0 NMMIF=      0
                NMic=       0 NMicF=      0.
                    Isotopes and Nuclear Properties:
 (Nuclear quadrupole moments (NQMom) in fm**2, nuclear magnetic moments (NMagM)
  in nuclear magnetons)

  Atom         1           2           3           4           5
 IAtWgt=           1          16          16          14          16
 AtmWgt=   1.0078250  15.9949146  15.9949146  14.0030740  15.9949146
 NucSpn=           1           0           0           2           0
 AtZEff=  -0.0000000  -0.0000000  -0.0000000  -0.0000000  -0.0000000
 NQMom=    0.0000000   0.0000000   0.0000000   2.0440000   0.0000000
 NMagM=    2.7928460   0.0000000   0.0000000   0.4037610   0.0000000
 AtZNuc=   1.0000000   8.0000000   8.0000000   7.0000000   8.0000000
 Leave Link  101 at Mon Feb 14 22:12:57 2022, MaxMem= 16106127360 cpu:               2.1 elap:               0.1
 (Enter /sw/contrib/gaussian/g16/B01/g16/l202.exe)
                          Input orientation:                          
 ---------------------------------------------------------------------
 Center     Atomic      Atomic             Coordinates (Angstroms)
 Number     Number       Type             X           Y           Z
 ---------------------------------------------------------------------
      1          1           0        0.000000    0.000000    0.000000
      2          8           0        0.000000    0.000000    0.968976
      3          8           0        1.442156    0.000000    1.161271
      4          7           0        1.561752    0.000000    2.615144
      5          8           0        2.700595    0.000000    2.886513
 ---------------------------------------------------------------------
                    Distance matrix (angstroms):
                    1          2          3          4          5
     1  H    0.000000
     2  O    0.968976   0.000000
     3  O    1.851584   1.454919   0.000000
     4  N    3.045989   2.269127   1.458784   0.000000
     5  O    3.952869   3.312124   2.135447   1.170729   0.000000
 Stoichiometry    HNO3
 Framework group  CS[SG(HNO3)]
 Deg. of freedom     7
 Full point group                 CS      NOp   2
 Largest Abelian subgroup         CS      NOp   2
 Largest concise Abelian subgroup C1      NOp   1
                         Standard orientation:                         
 ---------------------------------------------------------------------
 Center     Atomic      Atomic             Coordinates (Angstroms)
 Number     Number       Type             X           Y           Z
 ---------------------------------------------------------------------
      1          1           0        1.548037    1.683981    0.000000
      2          8           0        1.454010    0.719578    0.000000
      3          8           0        0.000000    0.668135    0.000000
      4          7           0       -0.260113   -0.767271   -0.000000
      5          8           0       -1.419915   -0.926849   -0.000000
 ---------------------------------------------------------------------
 Rotational constants (GHZ):          54.6894858           5.0352683           4.6107554
 Leave Link  202 at Mon Feb 14 22:12:57 2022, MaxMem= 16106127360 cpu:               1.0 elap:               0.1
 (Enter /sw/contrib/gaussian/g16/B01/g16/l301.exe)
 Standard basis: Aug-CC-pVTZ (5D, 7F)
 Ernie: Thresh=  0.10000D-02 Tol=  0.10000D-05 Strict=F.
 Ernie:  12 primitive shells out of 131 were deleted.
 There are   166 symmetry adapted cartesian basis functions of A'  symmetry.
 There are    79 symmetry adapted cartesian basis functions of A"  symmetry.
 There are   136 symmetry adapted basis functions of A'  symmetry.
 There are    71 symmetry adapted basis functions of A"  symmetry.
   207 basis functions,   315 primitive gaussians,   245 cartesian basis functions
    16 alpha electrons       16 beta electrons
       nuclear repulsion energy       116.9912107648 Hartrees.
 IExCor=    0 DFT=F Ex=HF Corr=None ExCW=0 ScaHFX=  1.000000
 ScaDFX=  1.000000  1.000000  1.000000  1.000000 ScalE2=  1.000000  1.000000
 IRadAn=      5 IRanWt=     -1 IRanGd=            0 ICorTp=0 IEmpDi=  4
 NAtoms=    5 NActive=    5 NUniq=    5 SFac= 1.00D+00 NAtFMM=   60 NAOKFM=F Big=F
 Integral buffers will be    131072 words long.
 Raffenetti 1 integral format.
 Two-electron integral symmetry is turned on.
 Leave Link  301 at Mon Feb 14 22:12:58 2022, MaxMem= 16106127360 cpu:               3.2 elap:               0.2
 (Enter /sw/contrib/gaussian/g16/B01/g16/l302.exe)
 NPDir=0 NMtPBC=     1 NCelOv=     1 NCel=       1 NClECP=     1 NCelD=      1
         NCelK=      1 NCelE2=     1 NClLst=     1 CellRange=     0.0.
 One-electron integrals computed using PRISM.
 One-electron integral symmetry used in STVInt
 NBasis=   207 RedAO= T EigKep=  1.82D-04  NBF=   136    71
 NBsUse=   207 1.00D-06 EigRej= -1.00D+00 NBFU=   136    71
 Leave Link  302 at Mon Feb 14 22:12:58 2022, MaxMem= 16106127360 cpu:               4.4 elap:               0.2
 (Enter /sw/contrib/gaussian/g16/B01/g16/l303.exe)
 DipDrv:  MaxL=1.
 Leave Link  303 at Mon Feb 14 22:12:58 2022, MaxMem= 16106127360 cpu:               1.4 elap:               0.1
 (Enter /sw/contrib/gaussian/g16/B01/g16/l401.exe)
 ExpMin= 2.53D-02 ExpMax= 1.53D+04 ExpMxC= 5.22D+02 IAcc=3 IRadAn=         5 AccDes= 0.00D+00
 Harris functional with IExCor=  205 and IRadAn=       5 diagonalized for initial guess.
 HarFok:  IExCor=  205 AccDes= 0.00D+00 IRadAn=         5 IDoV= 1 UseB2=F ITyADJ=14
 ICtDFT=  3500011 ScaDFX=  1.000000  1.000000  1.000000  1.000000
 FoFCou: FMM=F IPFlag=           0 FMFlag=      100000 FMFlg1=           0
         NFxFlg=           0 DoJE=T BraDBF=F KetDBF=T FulRan=T
         wScrn=  0.000000 ICntrl=       500 IOpCl=  0 I1Cent=   200000004 NGrid=           0
         NMat0=    1 NMatS0=      1 NMatT0=    0 NMatD0=    1 NMtDS0=    0 NMtDT0=    0
 Petite list used in FoFCou.
 Harris En= -279.628659784604    
 JPrj=0 DoOrth=F DoCkMO=F.
 Initial guess orbital symmetries:
       Occupied  (A') (A') (A') (A') (A') (A') (A') (A') (A') (A')
                 (A") (A') (A') (A") (A") (A')
       Virtual   (A") (A') (A') (A') (A') (A') (A") (A') (A') (A')
                 (A") (A') (A") (A') (A') (A") (A') (A") (A') (A')
                 (A') (A') (A') (A') (A') (A") (A') (A") (A') (A')
                 (A") (A') (A") (A') (A') (A") (A') (A") (A') (A')
                 (A") (A') (A") (A') (A") (A') (A') (A') (A") (A")
                 (A') (A') (A') (A') (A") (A') (A") (A') (A") (A')
                 (A') (A') (A") (A') (A') (A") (A') (A") (A') (A')
                 (A") (A') (A') (A") (A") (A') (A') (A") (A') (A')
                 (A') (A") (A') (A") (A') (A") (A') (A") (A') (A')
                 (A') (A") (A') (A") (A') (A") (A") (A') (A') (A')
                 (A") (A') (A") (A') (A') (A') (A") (A') (A") (A')
                 (A") (A') (A') (A') (A") (A') (A') (A') (A") (A')
                 (A") (A') (A') (A") (A") (A') (A') (A") (A") (A')
                 (A') (A') (A') (A") (A") (A') (A") (A') (A') (A')
                 (A') (A") (A") (A') (A') (A") (A') (A') (A') (A')
                 (A") (A') (A') (A") (A') (A") (A') (A") (A') (A")
                 (A') (A") (A') (A") (A') (A") (A") (A") (A') (A')
                 (A") (A') (A") (A') (A") (A') (A") (A") (A') (A')
                 (A') (A') (A') (A') (A') (A') (A') (A') (A') (A')
                 (A')
 The electronic state of the initial guess is 1-A'.
 Leave Link  401 at Mon Feb 14 22:12:58 2022, MaxMem= 16106127360 cpu:               7.1 elap:               0.3
 (Enter /sw/contrib/gaussian/g16/B01/g16/l502.exe)
 Keep R1 ints in memory in symmetry-blocked form, NReq=348887737.
 FoFCou: FMM=F IPFlag=           0 FMFlag=           0 FMFlg1=           0
         NFxFlg=           0 DoJE=F BraDBF=F KetDBF=F FulRan=T
         wScrn=  0.000000 ICntrl=       600 IOpCl=  0 I1Cent=           0 NGrid=           0
         NMat0=    1 NMatS0=  21528 NMatT0=    0 NMatD0=    1 NMtDS0=    0 NMtDT0=    0
 Petite list used in FoFCou.
 Closed shell SCF:
 Using DIIS extrapolation, IDIIS=  1040.
 NGot= 16106127360 LenX= 15988850015 LenY= 15988789549
 Requested convergence on RMS density matrix=1.00D-08 within 128 cycles.
 Requested convergence on MAX density matrix=1.00D-06.
 Requested convergence on             energy=1.00D-06.
 No special actions if energy rises.

 Cycle   1  Pass 1  IDiag  1:
 E= -279.370119102015    
 DIIS: error= 2.54D-02 at cycle   1 NSaved=   1.
 NSaved= 1 IEnMin= 1 EnMin= -279.370119102015     IErMin= 1 ErrMin= 2.54D-02
 ErrMax= 2.54D-02  0.00D+00 EMaxC= 1.00D-01 BMatC= 4.39D-01 BMatP= 4.39D-01
 IDIUse=3 WtCom= 7.46D-01 WtEn= 2.54D-01
 Coeff-Com:  0.100D+01
 Coeff-En:   0.100D+01
 Coeff:      0.100D+01
 Gap=     0.512 Goal=   None    Shift=    0.000
 GapD=    0.512 DampG=2.000 DampE=0.500 DampFc=1.0000 IDamp=-1.
 RMSDP=1.63D-03 MaxDP=1.00D-01              OVMax= 1.14D-01

 Cycle   2  Pass 1  IDiag  1:
 E= -279.452296503607     Delta-E=       -0.082177401592 Rises=F Damp=F
 DIIS: error= 1.80D-02 at cycle   2 NSaved=   2.
 NSaved= 2 IEnMin= 2 EnMin= -279.452296503607     IErMin= 2 ErrMin= 1.80D-02
 ErrMax= 1.80D-02  0.00D+00 EMaxC= 1.00D-01 BMatC= 7.20D-02 BMatP= 4.39D-01
 IDIUse=3 WtCom= 8.20D-01 WtEn= 1.80D-01
 Coeff-Com:  0.195D+00 0.805D+00
 Coeff-En:   0.000D+00 0.100D+01
 Coeff:      0.160D+00 0.840D+00
 Gap=     0.532 Goal=   None    Shift=    0.000
 RMSDP=9.00D-04 MaxDP=3.75D-02 DE=-8.22D-02 OVMax= 6.96D-02

 Cycle   3  Pass 1  IDiag  1:
 E= -279.481618866923     Delta-E=       -0.029322363316 Rises=F Damp=F
 DIIS: error= 1.05D-02 at cycle   3 NSaved=   3.
 NSaved= 3 IEnMin= 3 EnMin= -279.481618866923     IErMin= 3 ErrMin= 1.05D-02
 ErrMax= 1.05D-02  0.00D+00 EMaxC= 1.00D-01 BMatC= 2.86D-02 BMatP= 7.20D-02
 IDIUse=3 WtCom= 8.95D-01 WtEn= 1.05D-01
 Coeff-Com: -0.330D-01 0.377D+00 0.656D+00
 Coeff-En:   0.000D+00 0.238D+00 0.762D+00
 Coeff:     -0.295D-01 0.363D+00 0.667D+00
 Gap=     0.511 Goal=   None    Shift=    0.000
 RMSDP=3.76D-04 MaxDP=1.56D-02 DE=-2.93D-02 OVMax= 3.81D-02

 Cycle   4  Pass 1  IDiag  1:
 E= -279.500600000036     Delta-E=       -0.018981133113 Rises=F Damp=F
 DIIS: error= 1.28D-03 at cycle   4 NSaved=   4.
 NSaved= 4 IEnMin= 4 EnMin= -279.500600000036     IErMin= 4 ErrMin= 1.28D-03
 ErrMax= 1.28D-03  0.00D+00 EMaxC= 1.00D-01 BMatC= 4.97D-04 BMatP= 2.86D-02
 IDIUse=3 WtCom= 9.87D-01 WtEn= 1.28D-02
 Coeff-Com: -0.117D-01 0.573D-01 0.159D+00 0.795D+00
 Coeff-En:   0.000D+00 0.000D+00 0.000D+00 0.100D+01
 Coeff:     -0.115D-01 0.565D-01 0.157D+00 0.798D+00
 Gap=     0.503 Goal=   None    Shift=    0.000
 RMSDP=9.00D-05 MaxDP=2.76D-03 DE=-1.90D-02 OVMax= 1.12D-02

 Cycle   5  Pass 1  IDiag  1:
 E= -279.501277887702     Delta-E=       -0.000677887666 Rises=F Damp=F
 DIIS: error= 7.33D-04 at cycle   5 NSaved=   5.
 NSaved= 5 IEnMin= 5 EnMin= -279.501277887702     IErMin= 5 ErrMin= 7.33D-04
 ErrMax= 7.33D-04  0.00D+00 EMaxC= 1.00D-01 BMatC= 8.70D-05 BMatP= 4.97D-04
 IDIUse=3 WtCom= 9.93D-01 WtEn= 7.33D-03
 Coeff-Com:  0.616D-02-0.726D-01-0.119D+00 0.178D-01 0.117D+01
 Coeff-En:   0.000D+00 0.000D+00 0.000D+00 0.000D+00 0.100D+01
 Coeff:      0.612D-02-0.720D-01-0.118D+00 0.176D-01 0.117D+01
 Gap=     0.503 Goal=   None    Shift=    0.000
 RMSDP=7.65D-05 MaxDP=2.12D-03 DE=-6.78D-04 OVMax= 1.12D-02

 Cycle   6  Pass 1  IDiag  1:
 E= -279.501593903773     Delta-E=       -0.000316016071 Rises=F Damp=F
 DIIS: error= 2.79D-04 at cycle   6 NSaved=   6.
 NSaved= 6 IEnMin= 6 EnMin= -279.501593903773     IErMin= 6 ErrMin= 2.79D-04
 ErrMax= 2.79D-04  0.00D+00 EMaxC= 1.00D-01 BMatC= 1.67D-05 BMatP= 8.70D-05
 IDIUse=3 WtCom= 9.97D-01 WtEn= 2.79D-03
 Coeff-Com:  0.566D-03 0.194D-02 0.511D-02-0.129D+00-0.235D+00 0.136D+01
 Coeff-En:   0.000D+00 0.000D+00 0.000D+00 0.000D+00 0.000D+00 0.100D+01
 Coeff:      0.564D-03 0.194D-02 0.510D-02-0.129D+00-0.234D+00 0.136D+01
 Gap=     0.503 Goal=   None    Shift=    0.000
 RMSDP=4.52D-05 MaxDP=1.24D-03 DE=-3.16D-04 OVMax= 5.56D-03

 Cycle   7  Pass 1  IDiag  1:
 E= -279.501666379106     Delta-E=       -0.000072475333 Rises=F Damp=F
 DIIS: error= 1.22D-04 at cycle   7 NSaved=   7.
 NSaved= 7 IEnMin= 7 EnMin= -279.501666379106     IErMin= 7 ErrMin= 1.22D-04
 ErrMax= 1.22D-04  0.00D+00 EMaxC= 1.00D-01 BMatC= 4.44D-06 BMatP= 1.67D-05
 IDIUse=3 WtCom= 9.99D-01 WtEn= 1.22D-03
 Coeff-Com: -0.940D-03 0.135D-01 0.265D-01-0.235D-01-0.285D+00 0.385D+00
 Coeff-Com:  0.885D+00
 Coeff-En:   0.000D+00 0.000D+00 0.000D+00 0.000D+00 0.000D+00 0.000D+00
 Coeff-En:   0.100D+01
 Coeff:     -0.939D-03 0.135D-01 0.264D-01-0.234D-01-0.285D+00 0.384D+00
 Coeff:      0.885D+00
 Gap=     0.504 Goal=   None    Shift=    0.000
 RMSDP=1.32D-05 MaxDP=3.73D-04 DE=-7.25D-05 OVMax= 1.54D-03

 Cycle   8  Pass 1  IDiag  1:
 E= -279.501675144094     Delta-E=       -0.000008764988 Rises=F Damp=F
 DIIS: error= 5.64D-05 at cycle   8 NSaved=   8.
 NSaved= 8 IEnMin= 8 EnMin= -279.501675144094     IErMin= 8 ErrMin= 5.64D-05
 ErrMax= 5.64D-05  0.00D+00 EMaxC= 1.00D-01 BMatC= 6.07D-07 BMatP= 4.44D-06
 IDIUse=1 WtCom= 1.00D+00 WtEn= 0.00D+00
 Coeff-Com: -0.447D-03 0.342D-02 0.760D-02 0.273D-01-0.404D-01-0.199D+00
 Coeff-Com:  0.179D+00 0.102D+01
 Coeff:     -0.447D-03 0.342D-02 0.760D-02 0.273D-01-0.404D-01-0.199D+00
 Coeff:      0.179D+00 0.102D+01
 Gap=     0.503 Goal=   None    Shift=    0.000
 RMSDP=6.84D-06 MaxDP=2.02D-04 DE=-8.76D-06 OVMax= 7.35D-04

 Cycle   9  Pass 1  IDiag  1:
 E= -279.501676899759     Delta-E=       -0.000001755665 Rises=F Damp=F
 DIIS: error= 1.61D-05 at cycle   9 NSaved=   9.
 NSaved= 9 IEnMin= 9 EnMin= -279.501676899759     IErMin= 9 ErrMin= 1.61D-05
 ErrMax= 1.61D-05  0.00D+00 EMaxC= 1.00D-01 BMatC= 6.97D-08 BMatP= 6.07D-07
 IDIUse=1 WtCom= 1.00D+00 WtEn= 0.00D+00
 Coeff-Com:  0.124D-03-0.173D-02-0.310D-02-0.211D-02 0.343D-01 0.129D-03
 Coeff-Com: -0.170D+00-0.100D+00 0.124D+01
 Coeff:      0.124D-03-0.173D-02-0.310D-02-0.211D-02 0.343D-01 0.129D-03
 Coeff:     -0.170D+00-0.100D+00 0.124D+01
 Gap=     0.503 Goal=   None    Shift=    0.000
 RMSDP=1.93D-06 MaxDP=6.66D-05 DE=-1.76D-06 OVMax= 1.75D-04

 Cycle  10  Pass 1  IDiag  1:
 E= -279.501677059791     Delta-E=       -0.000000160033 Rises=F Damp=F
 DIIS: error= 4.16D-06 at cycle  10 NSaved=  10.
 NSaved=10 IEnMin=10 EnMin= -279.501677059791     IErMin=10 ErrMin= 4.16D-06
 ErrMax= 4.16D-06  0.00D+00 EMaxC= 1.00D-01 BMatC= 5.49D-09 BMatP= 6.97D-08
 IDIUse=1 WtCom= 1.00D+00 WtEn= 0.00D+00
 Coeff-Com:  0.305D-04-0.237D-03-0.317D-03-0.267D-02 0.156D-02 0.196D-01
 Coeff-Com: -0.132D-01-0.733D-01-0.807D-01 0.115D+01
 Coeff:      0.305D-04-0.237D-03-0.317D-03-0.267D-02 0.156D-02 0.196D-01
 Coeff:     -0.132D-01-0.733D-01-0.807D-01 0.115D+01
 Gap=     0.503 Goal=   None    Shift=    0.000
 RMSDP=4.98D-07 MaxDP=2.10D-05 DE=-1.60D-07 OVMax= 4.13D-05

 Cycle  11  Pass 1  IDiag  1:
 E= -279.501677072160     Delta-E=       -0.000000012369 Rises=F Damp=F
 DIIS: error= 2.01D-06 at cycle  11 NSaved=  11.
 NSaved=11 IEnMin=11 EnMin= -279.501677072160     IErMin=11 ErrMin= 2.01D-06
 ErrMax= 2.01D-06  0.00D+00 EMaxC= 1.00D-01 BMatC= 6.54D-10 BMatP= 5.49D-09
 IDIUse=1 WtCom= 1.00D+00 WtEn= 0.00D+00
 Coeff-Com: -0.212D-04 0.243D-03 0.488D-03 0.525D-03-0.427D-02-0.354D-02
 Coeff-Com:  0.214D-01 0.303D-01-0.138D+00-0.176D+00 0.127D+01
 Coeff:     -0.212D-04 0.243D-03 0.488D-03 0.525D-03-0.427D-02-0.354D-02
 Coeff:      0.214D-01 0.303D-01-0.138D+00-0.176D+00 0.127D+01
 Gap=     0.503 Goal=   None    Shift=    0.000
 RMSDP=1.75D-07 MaxDP=6.35D-06 DE=-1.24D-08 OVMax= 1.74D-05

 Cycle  12  Pass 1  IDiag  1:
 E= -279.501677073946     Delta-E=       -0.000000001786 Rises=F Damp=F
 DIIS: error= 5.79D-07 at cycle  12 NSaved=  12.
 NSaved=12 IEnMin=12 EnMin= -279.501677073946     IErMin=12 ErrMin= 5.79D-07
 ErrMax= 5.79D-07  0.00D+00 EMaxC= 1.00D-01 BMatC= 7.14D-11 BMatP= 6.54D-10
 IDIUse=1 WtCom= 1.00D+00 WtEn= 0.00D+00
 Coeff-Com:  0.125D-05-0.291D-04-0.632D-04 0.181D-03 0.108D-02-0.233D-02
 Coeff-Com: -0.408D-02 0.557D-02 0.414D-01-0.115D+00-0.277D+00 0.135D+01
 Coeff:      0.125D-05-0.291D-04-0.632D-04 0.181D-03 0.108D-02-0.233D-02
 Coeff:     -0.408D-02 0.557D-02 0.414D-01-0.115D+00-0.277D+00 0.135D+01
 Gap=     0.503 Goal=   None    Shift=    0.000
 RMSDP=7.13D-08 MaxDP=2.75D-06 DE=-1.79D-09 OVMax= 6.74D-06

 Cycle  13  Pass 1  IDiag  1:
 E= -279.501677074175     Delta-E=       -0.000000000229 Rises=F Damp=F
 DIIS: error= 1.66D-07 at cycle  13 NSaved=  13.
 NSaved=13 IEnMin=13 EnMin= -279.501677074175     IErMin=13 ErrMin= 1.66D-07
 ErrMax= 1.66D-07  0.00D+00 EMaxC= 1.00D-01 BMatC= 3.97D-12 BMatP= 7.14D-11
 IDIUse=1 WtCom= 1.00D+00 WtEn= 0.00D+00
 Coeff-Com:  0.128D-05-0.140D-04-0.227D-04-0.880D-04 0.125D-03 0.755D-03
 Coeff-Com: -0.880D-03-0.322D-02 0.702D-03 0.410D-01-0.368D-01-0.323D+00
 Coeff-Com:  0.132D+01
 Coeff:      0.128D-05-0.140D-04-0.227D-04-0.880D-04 0.125D-03 0.755D-03
 Coeff:     -0.880D-03-0.322D-02 0.702D-03 0.410D-01-0.368D-01-0.323D+00
 Coeff:      0.132D+01
 Gap=     0.503 Goal=   None    Shift=    0.000
 RMSDP=1.90D-08 MaxDP=5.59D-07 DE=-2.29D-10 OVMax= 1.56D-06

 Cycle  14  Pass 1  IDiag  1:
 E= -279.501677074188     Delta-E=       -0.000000000013 Rises=F Damp=F
 DIIS: error= 2.47D-08 at cycle  14 NSaved=  14.
 NSaved=14 IEnMin=14 EnMin= -279.501677074188     IErMin=14 ErrMin= 2.47D-08
 ErrMax= 2.47D-08  0.00D+00 EMaxC= 1.00D-01 BMatC= 1.92D-13 BMatP= 3.97D-12
 IDIUse=1 WtCom= 1.00D+00 WtEn= 0.00D+00
 Coeff-Com: -0.187D-06 0.307D-05 0.555D-05 0.436D-05-0.819D-04 0.470D-04
 Coeff-Com:  0.282D-03 0.214D-03-0.244D-02 0.155D-02 0.169D-01-0.261D-01
 Coeff-Com: -0.198D+00 0.121D+01
 Coeff:     -0.187D-06 0.307D-05 0.555D-05 0.436D-05-0.819D-04 0.470D-04
 Coeff:      0.282D-03 0.214D-03-0.244D-02 0.155D-02 0.169D-01-0.261D-01
 Coeff:     -0.198D+00 0.121D+01
 Gap=     0.503 Goal=   None    Shift=    0.000
 RMSDP=3.75D-09 MaxDP=8.97D-08 DE=-1.28D-11 OVMax= 3.37D-07

 SCF Done:  E(RHF) =  -279.501677074     A.U. after   14 cycles
            NFock= 14  Conv=0.37D-08     -V/T= 2.0023
 KE= 2.788521193453D+02 PE=-8.953205051222D+02 EE= 2.199754979379D+02
 Leave Link  502 at Mon Feb 14 22:13:02 2022, MaxMem= 16106127360 cpu:              54.0 elap:               3.5
 (Enter /sw/contrib/gaussian/g16/B01/g16/l801.exe)
 ExpMin= 2.53D-02 ExpMax= 1.53D+04 ExpMxC= 5.22D+02 IAcc=3 IRadAn=         5 AccDes= 0.00D+00
 HarFok:  IExCor=  205 AccDes= 0.00D+00 IRadAn=         5 IDoV=-2 UseB2=F ITyADJ=14
 ICtDFT= 12500011 ScaDFX=  1.000000  1.000000  1.000000  1.000000
 Largest valence mixing into a core orbital is  2.08D-04
 Largest core mixing into a valence orbital is  3.64D-05
 Range of M.O.s used for correlation:     5   207
 NBasis=   207 NAE=    16 NBE=    16 NFC=     4 NFV=     0
 NROrb=    203 NOA=    12 NOB=    12 NVA=   191 NVB=   191

 **** Warning!!: The largest alpha MO coefficient is  0.17586962D+02

 Leave Link  801 at Mon Feb 14 22:13:02 2022, MaxMem= 16106127360 cpu:               2.0 elap:               0.1
 (Enter /sw/contrib/gaussian/g16/B01/g16/l906.exe)
 Frozen-core derivative calculation, NFC=   4 NFV=   0.
 FulOut=F Deriv=T AODrv=F NAtomX=     5
   MMem=          76  MDisk=          12 MDiskD=          12
  W3Min=      811440 MinDsk=     1524655 NBas6D=         245
 NBas2D=       30762    NTT=       30135    LW2=     3500000
    MDV= 16105579899 MDiskM=      328644 NBas2p=       30466
 Fully in-core method, ICMem=   960157634.
 IMap=   1   2   3   4   5   6   7   8   9  10  11  12  13  14  15  16
 JobTyp=1 Pass  1 fully in-core, NPsUse= 28.
 Compute canonical integrals.
 FoFCou: FMM=F IPFlag=           0 FMFlag=           0 FMFlg1=           0
         NFxFlg=           0 DoJE=F BraDBF=F KetDBF=F FulRan=T
         wScrn=  0.000000 ICntrl=       600 IOpCl=  1 I1Cent=           0 NGrid=           0
         NMat0=    1 NMatS0=  30762 NMatT0=    0 NMatD0=    1 NMtDS0=    0 NMtDT0=    0
 Symmetry not used in FoFCou.
 Spin components of T(2) and E(2):
     alpha-alpha T2 =       0.3400255248D-01 E2=     -0.1223886634D+00
     alpha-beta  T2 =       0.1868029838D+00 E2=     -0.7002122118D+00
     beta-beta   T2 =       0.3400255248D-01 E2=     -0.1223886634D+00
 The integrals were generated   1 times.
 ANorm=    0.1120182168D+01
 E2 =    -0.9449895387D+00 EUMP2 =    -0.28044666661285D+03
 Leave Link  906 at Mon Feb 14 22:13:11 2022, MaxMem= 16106127360 cpu:             244.9 elap:               8.8
 (Enter /sw/contrib/gaussian/g16/B01/g16/l1002.exe)
 Minotr:  Closed shell wavefunction.
          Computing MP2/KS-MP2 derivatives.
          Using Z-Vector for PSCF gradient.
          Skipping F1 and S1 gradient terms here.
          Frozen-core window.
          Direct CPHF calculation.
          Differentiating once with respect to electric field.
                with respect to dipole field.
          Electric field/nuclear overlap derivatives assumed to be zero.
          Using symmetry in CPHF.
          Requested convergence is 1.0D-10 RMS, and 1.0D-09 maximum.
          NewPWx=F KeepS1=T KeepF1=T KeepIn=T MapXYZ=F SortEE=F KeepMc=T.
 Keep R1 ints in memory in symmetry-blocked form, NReq=348888868.
 FoFCou: FMM=F IPFlag=           0 FMFlag=           0 FMFlg1=           0
         NFxFlg=           0 DoJE=F BraDBF=F KetDBF=F FulRan=T
         wScrn=  0.000000 ICntrl=       600 IOpCl=  0 I1Cent=           0 NGrid=           0
         NMat0=    1 NMatS0=  21528 NMatT0=    0 NMatD0=    1 NMtDS0=    0 NMtDT0=    0
 Petite list used in FoFCou.
          MDV=   16106127360 using IRadAn=       5.
          Solving linear equations separately, MaxMat=       0.
          There are     1 degrees of freedom in the 1st order CPHF.  IDoFFX=0 NUNeed=     1.
 LinEq1:  Iter=  0 NonCon=     1 RMS=5.94D-03 Max=1.32D-01 NDo=     1
 AX will form     1 AO Fock derivatives at one time.
 LinEq1:  Iter=  1 NonCon=     1 RMS=1.90D-03 Max=3.82D-02 NDo=     1
 LinEq1:  Iter=  2 NonCon=     1 RMS=8.65D-04 Max=1.41D-02 NDo=     1
 LinEq1:  Iter=  3 NonCon=     1 RMS=3.85D-04 Max=7.80D-03 NDo=     1
 LinEq1:  Iter=  4 NonCon=     1 RMS=1.19D-04 Max=1.87D-03 NDo=     1
 LinEq1:  Iter=  5 NonCon=     1 RMS=4.42D-05 Max=7.01D-04 NDo=     1
 LinEq1:  Iter=  6 NonCon=     1 RMS=1.98D-05 Max=2.33D-04 NDo=     1
 LinEq1:  Iter=  7 NonCon=     1 RMS=7.98D-06 Max=1.59D-04 NDo=     1
 LinEq1:  Iter=  8 NonCon=     1 RMS=3.43D-06 Max=3.40D-05 NDo=     1
 LinEq1:  Iter=  9 NonCon=     1 RMS=9.43D-07 Max=1.31D-05 NDo=     1
 LinEq1:  Iter= 10 NonCon=     1 RMS=1.85D-07 Max=2.02D-06 NDo=     1
 LinEq1:  Iter= 11 NonCon=     1 RMS=3.47D-08 Max=3.62D-07 NDo=     1
 LinEq1:  Iter= 12 NonCon=     1 RMS=8.34D-09 Max=1.33D-07 NDo=     1
 LinEq1:  Iter= 13 NonCon=     1 RMS=1.50D-09 Max=2.60D-08 NDo=     1
 LinEq1:  Iter= 14 NonCon=     1 RMS=2.72D-10 Max=3.82D-09 NDo=     1
 LinEq1:  Iter= 15 NonCon=     0 RMS=4.95D-11 Max=5.50D-10 NDo=     1
 Linear equations converged to 1.000D-10 1.000D-09 after    15 iterations.
 End of Minotr F.D. properties file   721 does not exist.
 End of Minotr F.D. properties file   722 does not exist.
 End of Minotr F.D. properties file   788 does not exist.
 Leave Link 1002 at Mon Feb 14 22:13:15 2022, MaxMem= 16106127360 cpu:              58.2 elap:               4.2
 (Enter /sw/contrib/gaussian/g16/B01/g16/l601.exe)
 Copying SCF densities to generalized density rwf, IOpCl= 0 IROHF=0.

 **********************************************************************

            Population analysis using the MP2 Density.

 **********************************************************************

 Orbital symmetries:
       Occupied  (A') (A') (A') (A') (A') (A') (A') (A') (A') (A')
                 (A") (A') (A") (A') (A") (A')
       Virtual   (A') (A") (A') (A') (A') (A") (A') (A') (A") (A')
                 (A") (A') (A') (A') (A") (A') (A') (A") (A') (A')
                 (A') (A') (A') (A') (A") (A') (A') (A") (A') (A')
                 (A") (A') (A") (A') (A') (A") (A') (A") (A') (A')
                 (A") (A') (A") (A') (A') (A") (A') (A') (A") (A')
                 (A") (A') (A') (A') (A") (A') (A") (A') (A") (A')
                 (A') (A') (A") (A') (A') (A") (A') (A") (A') (A')
                 (A") (A') (A') (A") (A") (A') (A') (A") (A') (A')
                 (A') (A") (A') (A") (A") (A') (A') (A") (A') (A')
                 (A") (A') (A') (A") (A') (A") (A') (A") (A') (A')
                 (A") (A') (A") (A') (A') (A") (A') (A') (A") (A')
                 (A") (A') (A') (A') (A") (A') (A') (A') (A") (A')
                 (A") (A') (A") (A') (A') (A") (A") (A') (A") (A')
                 (A') (A') (A') (A") (A") (A") (A') (A') (A') (A')
                 (A") (A') (A") (A') (A') (A") (A') (A') (A') (A')
                 (A") (A') (A') (A") (A') (A") (A') (A") (A') (A")
                 (A') (A") (A') (A") (A') (A") (A") (A') (A") (A')
                 (A") (A') (A") (A') (A") (A') (A") (A") (A') (A')
                 (A') (A') (A') (A') (A') (A') (A') (A') (A') (A')
                 (A')
 The electronic state is 1-A'.
 Alpha  occ. eigenvalues --  -20.69048 -20.68395 -20.65935 -15.81316  -1.62484
 Alpha  occ. eigenvalues --   -1.49502  -1.25362  -0.94832  -0.77225  -0.75952
 Alpha  occ. eigenvalues --   -0.71198  -0.67912  -0.62007  -0.58858  -0.48476
 Alpha  occ. eigenvalues --   -0.47365
 Alpha virt. eigenvalues --    0.02970   0.07126   0.08613   0.10170   0.13390
 Alpha virt. eigenvalues --    0.13390   0.14413   0.15446   0.17836   0.19413
 Alpha virt. eigenvalues --    0.19985   0.20654   0.22080   0.23638   0.23751
 Alpha virt. eigenvalues --    0.26673   0.29265   0.30360   0.31030   0.34373
 Alpha virt. eigenvalues --    0.34961   0.38754   0.42240   0.43198   0.52822
 Alpha virt. eigenvalues --    0.52851   0.55812   0.58070   0.62541   0.64028
 Alpha virt. eigenvalues --    0.67472   0.68461   0.70501   0.71152   0.72369
 Alpha virt. eigenvalues --    0.72922   0.74373   0.79252   0.79323   0.81087
 Alpha virt. eigenvalues --    0.81308   0.83103   0.86819   0.90893   0.92226
 Alpha virt. eigenvalues --    0.92836   0.95646   0.97567   0.98486   1.01684
 Alpha virt. eigenvalues --    1.05194   1.05495   1.08289   1.11736   1.14177
 Alpha virt. eigenvalues --    1.19011   1.21892   1.23316   1.33933   1.35193
 Alpha virt. eigenvalues --    1.38767   1.45500   1.48763   1.50792   1.53772
 Alpha virt. eigenvalues --    1.56788   1.57953   1.61270   1.66456   1.67100
 Alpha virt. eigenvalues --    1.70229   1.79251   1.83017   1.83507   1.88020
 Alpha virt. eigenvalues --    1.90850   1.95660   1.99322   2.00353   2.08006
 Alpha virt. eigenvalues --    2.12248   2.13090   2.15109   2.22585   2.26540
 Alpha virt. eigenvalues --    2.26702   2.28948   2.31454   2.34649   2.38628
 Alpha virt. eigenvalues --    2.42629   2.42854   2.45194   2.45992   2.47809
 Alpha virt. eigenvalues --    2.50082   2.58891   2.59835   2.62246   2.62405
 Alpha virt. eigenvalues --    2.63429   2.67049   2.75425   2.81820   2.85089
 Alpha virt. eigenvalues --    2.89070   2.89355   2.93584   2.95388   3.02665
 Alpha virt. eigenvalues --    3.06507   3.12554   3.20496   3.22451   3.31865
 Alpha virt. eigenvalues --    3.33859   3.52405   3.63950   3.83844   3.84423
 Alpha virt. eigenvalues --    4.14938   4.16670   4.18457   4.25796   4.34923
 Alpha virt. eigenvalues --    4.39348   4.46337   4.52016   4.65775   4.71177
 Alpha virt. eigenvalues --    4.80272   4.82822   4.83062   4.89632   5.02440
 Alpha virt. eigenvalues --    5.07665   5.10625   5.14573   5.17494   5.24394
 Alpha virt. eigenvalues --    5.27387   5.30535   5.33058   5.35271   5.60369
 Alpha virt. eigenvalues --    5.67354   5.78075   5.82912   5.95684   6.16937
 Alpha virt. eigenvalues --    6.31040   6.33666   6.39478   6.49563   6.50812
 Alpha virt. eigenvalues --    6.61487   6.66813   6.70397   6.75801   6.76471
 Alpha virt. eigenvalues --    6.83575   6.89437   7.01616   7.05700   7.05831
 Alpha virt. eigenvalues --    7.09153   7.12338   7.15130   7.18226   7.22593
 Alpha virt. eigenvalues --    7.24245   7.30765   7.32543   7.34739   7.39892
 Alpha virt. eigenvalues --    7.43112   7.48330   7.60914   7.61385   7.63020
 Alpha virt. eigenvalues --    7.66875   7.79657   7.88170   8.09394   8.31530
 Alpha virt. eigenvalues --    8.40919   8.54358  13.39890  14.38218  15.16750
 Alpha virt. eigenvalues --   16.15654
          Condensed to atoms (all electrons):
               1          2          3          4          5
     1  H    0.589629   0.128084   0.020213   0.012489  -0.000620
     2  O    0.128084   8.324753  -0.175318  -0.089581   0.015754
     3  O    0.020213  -0.175318   8.469647  -0.126258  -0.042512
     4  N    0.012489  -0.089581  -0.126258   6.964639  -0.054150
     5  O   -0.000620   0.015754  -0.042512  -0.054150   8.275131
 Mulliken charges:
               1
     1  H    0.250206
     2  O   -0.203693
     3  O   -0.145771
     4  N    0.292860
     5  O   -0.193602
 Sum of Mulliken charges =  -0.00000
 Mulliken charges with hydrogens summed into heavy atoms:
               1
     2  O    0.046513
     3  O   -0.145771
     4  N    0.292860
     5  O   -0.193602
 Electronic spatial extent (au):  <R**2>=            252.1005
 Charge=             -0.0000 electrons
 Dipole moment (field-independent basis, Debye):
    X=              0.5107    Y=              1.3479    Z=              0.0000  Tot=              1.4414
 Quadrupole moment (field-independent basis, Debye-Ang):
   XX=            -22.4998   YY=            -18.6097   ZZ=            -22.0055
   XY=              3.2322   XZ=             -0.0000   YZ=             -0.0000
 Traceless Quadrupole moment (field-independent basis, Debye-Ang):
   XX=             -1.4615   YY=              2.4287   ZZ=             -0.9672
   XY=              3.2322   XZ=             -0.0000   YZ=             -0.0000
 Octapole moment (field-independent basis, Debye-Ang**2):
  XXX=              2.8133  YYY=             11.2772  ZZZ=             -0.0000  XYY=              7.8799
  XXY=              6.5693  XXZ=              0.0000  XZZ=             -1.5847  YZZ=             -0.8493
  YYZ=              0.0000  XYZ=              0.0000
 Hexadecapole moment (field-independent basis, Debye-Ang**3):
 XXXX=           -158.5996 YYYY=            -88.9149 ZZZZ=            -18.2272 XXXY=            -36.4596
 XXXZ=             -0.0000 YYYX=            -30.5116 YYYZ=             -0.0000 ZZZX=             -0.0000
 ZZZY=             -0.0000 XXYY=            -33.9555 XXZZ=            -30.8815 YYZZ=            -20.5155
 XXYZ=             -0.0000 YYXZ=             -0.0000 ZZXY=            -14.9513
 N-N= 1.169912107648D+02 E-N=-8.961029080937D+02  KE= 2.802039581879D+02
 Symmetry A'   KE= 2.662300604886D+02
 Symmetry A"   KE= 1.397389769928D+01
 No NMR shielding tensors so no spin-rotation constants.
 Leave Link  601 at Mon Feb 14 22:13:15 2022, MaxMem= 16106127360 cpu:               4.5 elap:               0.2
 (Enter /sw/contrib/gaussian/g16/B01/g16/l9999.exe)
 1\1\GINC-N2132\SP\RMP2-FC\Aug-CC-pVTZ\H1N1O3\CGAVINH\14-Feb-2022\0\\#p
  SP mp2/aug-cc-pvtz density=current\\title\\0,1\H\O,1,0.96897556\O,2,1
 .45491931,1,97.59494903\N,3,1.45878406,2,102.29752444,1,180.,0\O,4,1.1
 7072885,3,108.10536085,2,180.,0\\Version=ES64L-G16RevB.01\State=1-A'\H
 F=-279.5016771\MP2=-280.4466666\RMSD=3.749e-09\Dipole=-0.148517,0.,-0.
 5472837\Quadrupole=-1.5235184,-0.7190831,2.2426015,0.,2.0784905,0.\PG=
 CS [SG(H1N1O3)]\\@


 A SLIP OF THE FOOT YOU MAY SOON RECOVER, BUT A SLIP OF THE TONGUE
 YOU MAY NEVER GET OVER. -- BEN FRANKLIN
 Job cpu time:       0 days  0 hours  6 minutes 27.0 seconds.
 Elapsed time:       0 days  0 hours  0 minutes 17.9 seconds.
 File lengths (MBytes):  RWF=     22 Int=      0 D2E=      0 Chk=      8 Scr=      1
 Normal termination of Gaussian 16 at Mon Feb 14 22:13:15 2022.
