 Entering Gaussian System, Link 0=g16
 Input=hoono_a2_103p5573.gjf
 Output=hoono_a2_103p5573.log
 Initial command:
 /sw/contrib/gaussian/g16/B01/g16/l1.exe "/scr/Gau-13690.inp" -scrdir="/scr/"
 Entering Link 1 = /sw/contrib/gaussian/g16/B01/g16/l1.exe PID=     13691.
  
 Copyright (c) 1988-2017, Gaussian, Inc.  All Rights Reserved.
  
 This is part of the Gaussian(R) 16 program.  It is based on
 the Gaussian(R) 09 system (copyright 2009, Gaussian, Inc.),
 the Gaussian(R) 03 system (copyright 2003, Gaussian, Inc.),
 the Gaussian(R) 98 system (copyright 1998, Gaussian, Inc.),
 the Gaussian(R) 94 system (copyright 1995, Gaussian, Inc.),
 the Gaussian 92(TM) system (copyright 1992, Gaussian, Inc.),
 the Gaussian 90(TM) system (copyright 1990, Gaussian, Inc.),
 the Gaussian 88(TM) system (copyright 1988, Gaussian, Inc.),
 the Gaussian 86(TM) system (copyright 1986, Carnegie Mellon
 University), and the Gaussian 82(TM) system (copyright 1983,
 Carnegie Mellon University). Gaussian is a federally registered
 trademark of Gaussian, Inc.
  
 This software contains proprietary and confidential information,
 including trade secrets, belonging to Gaussian, Inc.
  
 This software is provided under written license and may be
 used, copied, transmitted, or stored only in accord with that
 written license.
  
 The following legend is applicable only to US Government
 contracts under FAR:
  
                    RESTRICTED RIGHTS LEGEND
  
 Use, reproduction and disclosure by the US Government is
 subject to restrictions as set forth in subparagraphs (a)
 and (c) of the Commercial Computer Software - Restricted
 Rights clause in FAR 52.227-19.
  
 Gaussian, Inc.
 340 Quinnipiac St., Bldg. 40, Wallingford CT 06492
  
  
 ---------------------------------------------------------------
 Warning -- This program may not be used in any manner that
 competes with the business of Gaussian, Inc. or will provide
 assistance to any competitor of Gaussian, Inc.  The licensee
 of this program is prohibited from giving any competitor of
 Gaussian, Inc. access to this program.  By using this program,
 the user acknowledges that Gaussian, Inc. is engaged in the
 business of creating and licensing software in the field of
 computational chemistry and represents and warrants to the
 licensee that it is not a competitor of Gaussian, Inc. and that
 it will not use this program in any manner prohibited above.
 ---------------------------------------------------------------
  

 Cite this work as:
 Gaussian 16, Revision B.01,
 M. J. Frisch, G. W. Trucks, H. B. Schlegel, G. E. Scuseria, 
 M. A. Robb, J. R. Cheeseman, G. Scalmani, V. Barone, 
 G. A. Petersson, H. Nakatsuji, X. Li, M. Caricato, A. V. Marenich, 
 J. Bloino, B. G. Janesko, R. Gomperts, B. Mennucci, H. P. Hratchian, 
 J. V. Ortiz, A. F. Izmaylov, J. L. Sonnenberg, D. Williams-Young, 
 F. Ding, F. Lipparini, F. Egidi, J. Goings, B. Peng, A. Petrone, 
 T. Henderson, D. Ranasinghe, V. G. Zakrzewski, J. Gao, N. Rega, 
 G. Zheng, W. Liang, M. Hada, M. Ehara, K. Toyota, R. Fukuda, 
 J. Hasegawa, M. Ishida, T. Nakajima, Y. Honda, O. Kitao, H. Nakai, 
 T. Vreven, K. Throssell, J. A. Montgomery, Jr., J. E. Peralta, 
 F. Ogliaro, M. J. Bearpark, J. J. Heyd, E. N. Brothers, K. N. Kudin, 
 V. N. Staroverov, T. A. Keith, R. Kobayashi, J. Normand, 
 K. Raghavachari, A. P. Rendell, J. C. Burant, S. S. Iyengar, 
 J. Tomasi, M. Cossi, J. M. Millam, M. Klene, C. Adamo, R. Cammi, 
 J. W. Ochterski, R. L. Martin, K. Morokuma, O. Farkas, 
 J. B. Foresman, and D. J. Fox, Gaussian, Inc., Wallingford CT, 2016.
 
 ******************************************
 Gaussian 16:  ES64L-G16RevB.01 20-Dec-2017
                14-Feb-2022 
 ******************************************
 %nproc=28
 Will use up to   28 processors via shared memory.
 %mem=120GB
 %chk=hoono_a2_103p5573.chk
 -------------------------------------
 #p SP mp2/aug-cc-pvtz density=current
 -------------------------------------
 1/30=1,38=1,172=1/1;
 2/12=2,17=6,18=5,40=1/2;
 3/5=16,6=1,7=10,11=9,25=1,30=1,71=1/1,2,3;
 4//1;
 5/5=2,38=5/2;
 8/6=4,10=1/1;
 9/15=1,16=-3/6;
 10/5=1,13=10/2;
 6/7=2,8=2,9=2,10=2,22=-1/1;
 99/5=1,9=1/99;
 Leave Link    1 at Mon Feb 14 22:12:03 2022, MaxMem= 16106127360 cpu:               4.0 elap:               0.2
 (Enter /sw/contrib/gaussian/g16/B01/g16/l101.exe)
 -----
 title
 -----
 Symbolic Z-matrix:
 Charge =  0 Multiplicity = 1
 H
 O                    1    r1
 O                    2    r2       1    a1
 N                    3    r3       2    a2       1    d1       0
 O                    4    r4       3    a3       2    d2       0
       Variables:
  r1                    0.96898                  
  r2                    1.45492                  
  r3                    1.45878                  
  r4                    1.17073                  
  a1                   97.59495                  
  a2                  103.55733                  
  a3                  109.06955                  
  d1                  180.                       
  d2                  180.                       
 
 ITRead=  0  0  0  0  0
 MicOpt= -1 -1 -1 -1 -1
 NAtoms=      5 NQM=        5 NQMF=       0 NMMI=      0 NMMIF=      0
                NMic=       0 NMicF=      0.
                    Isotopes and Nuclear Properties:
 (Nuclear quadrupole moments (NQMom) in fm**2, nuclear magnetic moments (NMagM)
  in nuclear magnetons)

  Atom         1           2           3           4           5
 IAtWgt=           1          16          16          14          16
 AtmWgt=   1.0078250  15.9949146  15.9949146  14.0030740  15.9949146
 NucSpn=           1           0           0           2           0
 AtZEff=  -0.0000000  -0.0000000  -0.0000000  -0.0000000  -0.0000000
 NQMom=    0.0000000   0.0000000   0.0000000   2.0440000   0.0000000
 NMagM=    2.7928460   0.0000000   0.0000000   0.4037610   0.0000000
 AtZNuc=   1.0000000   8.0000000   8.0000000   7.0000000   8.0000000
 Leave Link  101 at Mon Feb 14 22:12:03 2022, MaxMem= 16106127360 cpu:               2.2 elap:               0.1
 (Enter /sw/contrib/gaussian/g16/B01/g16/l202.exe)
                          Input orientation:                          
 ---------------------------------------------------------------------
 Center     Atomic      Atomic             Coordinates (Angstroms)
 Number     Number       Type             X           Y           Z
 ---------------------------------------------------------------------
      1          1           0        0.000000    0.000000    0.000000
      2          8           0        0.000000    0.000000    0.968976
      3          8           0        1.442156    0.000000    1.161271
      4          7           0        1.593688    0.000000    2.612163
      5          8           0        2.733916    0.000000    2.877653
 ---------------------------------------------------------------------
                    Distance matrix (angstroms):
                    1          2          3          4          5
     1  H    0.000000
     2  O    0.968976   0.000000
     3  O    1.851584   1.454919   0.000000
     4  N    3.059941   2.289084   1.458784   0.000000
     5  O    3.969280   3.334269   2.148165   1.170729   0.000000
 Stoichiometry    HNO3
 Framework group  CS[SG(HNO3)]
 Deg. of freedom     7
 Full point group                 CS      NOp   2
 Largest Abelian subgroup         CS      NOp   2
 Largest concise Abelian subgroup C1      NOp   1
                         Standard orientation:                         
 ---------------------------------------------------------------------
 Center     Atomic      Atomic             Coordinates (Angstroms)
 Number     Number       Type             X           Y           Z
 ---------------------------------------------------------------------
      1          1           0        1.524747    1.714444    0.000000
      2          8           0        1.452481    0.748167    0.000000
      3          8           0       -0.000000    0.663964    0.000000
      4          7           0       -0.259318   -0.771587   -0.000000
      5          8           0       -1.416171   -0.951299   -0.000000
 ---------------------------------------------------------------------
 Rotational constants (GHZ):          56.0508237           4.9650618           4.5610385
 Leave Link  202 at Mon Feb 14 22:12:03 2022, MaxMem= 16106127360 cpu:               0.4 elap:               0.0
 (Enter /sw/contrib/gaussian/g16/B01/g16/l301.exe)
 Standard basis: Aug-CC-pVTZ (5D, 7F)
 Ernie: Thresh=  0.10000D-02 Tol=  0.10000D-05 Strict=F.
 Ernie:  12 primitive shells out of 131 were deleted.
 There are   166 symmetry adapted cartesian basis functions of A'  symmetry.
 There are    79 symmetry adapted cartesian basis functions of A"  symmetry.
 There are   136 symmetry adapted basis functions of A'  symmetry.
 There are    71 symmetry adapted basis functions of A"  symmetry.
   207 basis functions,   315 primitive gaussians,   245 cartesian basis functions
    16 alpha electrons       16 beta electrons
       nuclear repulsion energy       116.7055712062 Hartrees.
 IExCor=    0 DFT=F Ex=HF Corr=None ExCW=0 ScaHFX=  1.000000
 ScaDFX=  1.000000  1.000000  1.000000  1.000000 ScalE2=  1.000000  1.000000
 IRadAn=      5 IRanWt=     -1 IRanGd=            0 ICorTp=0 IEmpDi=  4
 NAtoms=    5 NActive=    5 NUniq=    5 SFac= 1.00D+00 NAtFMM=   60 NAOKFM=F Big=F
 Integral buffers will be    131072 words long.
 Raffenetti 1 integral format.
 Two-electron integral symmetry is turned on.
 Leave Link  301 at Mon Feb 14 22:12:03 2022, MaxMem= 16106127360 cpu:               2.0 elap:               0.1
 (Enter /sw/contrib/gaussian/g16/B01/g16/l302.exe)
 NPDir=0 NMtPBC=     1 NCelOv=     1 NCel=       1 NClECP=     1 NCelD=      1
         NCelK=      1 NCelE2=     1 NClLst=     1 CellRange=     0.0.
 One-electron integrals computed using PRISM.
 One-electron integral symmetry used in STVInt
 NBasis=   207 RedAO= T EigKep=  1.81D-04  NBF=   136    71
 NBsUse=   207 1.00D-06 EigRej= -1.00D+00 NBFU=   136    71
 Leave Link  302 at Mon Feb 14 22:12:04 2022, MaxMem= 16106127360 cpu:               5.3 elap:               0.2
 (Enter /sw/contrib/gaussian/g16/B01/g16/l303.exe)
 DipDrv:  MaxL=1.
 Leave Link  303 at Mon Feb 14 22:12:04 2022, MaxMem= 16106127360 cpu:               0.8 elap:               0.1
 (Enter /sw/contrib/gaussian/g16/B01/g16/l401.exe)
 ExpMin= 2.53D-02 ExpMax= 1.53D+04 ExpMxC= 5.22D+02 IAcc=3 IRadAn=         5 AccDes= 0.00D+00
 Harris functional with IExCor=  205 and IRadAn=       5 diagonalized for initial guess.
 HarFok:  IExCor=  205 AccDes= 0.00D+00 IRadAn=         5 IDoV= 1 UseB2=F ITyADJ=14
 ICtDFT=  3500011 ScaDFX=  1.000000  1.000000  1.000000  1.000000
 FoFCou: FMM=F IPFlag=           0 FMFlag=      100000 FMFlg1=           0
         NFxFlg=           0 DoJE=T BraDBF=F KetDBF=T FulRan=T
         wScrn=  0.000000 ICntrl=       500 IOpCl=  0 I1Cent=   200000004 NGrid=           0
         NMat0=    1 NMatS0=      1 NMatT0=    0 NMatD0=    1 NMtDS0=    0 NMtDT0=    0
 Petite list used in FoFCou.
 Harris En= -279.628857258008    
 JPrj=0 DoOrth=F DoCkMO=F.
 Initial guess orbital symmetries:
       Occupied  (A') (A') (A') (A') (A') (A') (A') (A') (A') (A')
                 (A") (A') (A') (A") (A") (A')
       Virtual   (A") (A') (A') (A') (A') (A') (A") (A') (A') (A')
                 (A") (A') (A") (A') (A') (A") (A') (A") (A') (A')
                 (A') (A') (A') (A') (A') (A") (A') (A") (A') (A')
                 (A") (A') (A") (A') (A') (A") (A') (A") (A') (A')
                 (A") (A') (A") (A') (A") (A') (A') (A') (A") (A")
                 (A') (A') (A') (A') (A") (A') (A") (A') (A") (A')
                 (A') (A') (A") (A') (A') (A") (A') (A") (A') (A')
                 (A") (A') (A') (A") (A") (A') (A') (A") (A') (A')
                 (A') (A") (A') (A") (A') (A") (A') (A") (A') (A')
                 (A') (A") (A') (A") (A') (A") (A") (A') (A') (A')
                 (A") (A') (A") (A') (A') (A') (A") (A') (A") (A')
                 (A") (A') (A') (A') (A") (A') (A') (A') (A") (A')
                 (A") (A') (A') (A") (A") (A') (A") (A') (A") (A')
                 (A') (A') (A') (A") (A") (A') (A") (A') (A') (A')
                 (A') (A") (A") (A') (A') (A") (A') (A') (A') (A')
                 (A") (A') (A') (A") (A') (A") (A') (A") (A') (A")
                 (A') (A") (A') (A") (A') (A") (A") (A") (A') (A')
                 (A") (A') (A") (A') (A") (A') (A") (A") (A') (A')
                 (A') (A') (A') (A') (A') (A') (A') (A') (A') (A')
                 (A')
 The electronic state of the initial guess is 1-A'.
 Leave Link  401 at Mon Feb 14 22:12:04 2022, MaxMem= 16106127360 cpu:               7.0 elap:               0.3
 (Enter /sw/contrib/gaussian/g16/B01/g16/l502.exe)
 Keep R1 ints in memory in symmetry-blocked form, NReq=348887737.
 FoFCou: FMM=F IPFlag=           0 FMFlag=           0 FMFlg1=           0
         NFxFlg=           0 DoJE=F BraDBF=F KetDBF=F FulRan=T
         wScrn=  0.000000 ICntrl=       600 IOpCl=  0 I1Cent=           0 NGrid=           0
         NMat0=    1 NMatS0=  21528 NMatT0=    0 NMatD0=    1 NMtDS0=    0 NMtDT0=    0
 Petite list used in FoFCou.
 Closed shell SCF:
 Using DIIS extrapolation, IDIIS=  1040.
 NGot= 16106127360 LenX= 15988850015 LenY= 15988789549
 Requested convergence on RMS density matrix=1.00D-08 within 128 cycles.
 Requested convergence on MAX density matrix=1.00D-06.
 Requested convergence on             energy=1.00D-06.
 No special actions if energy rises.

 Cycle   1  Pass 1  IDiag  1:
 E= -279.370655166862    
 DIIS: error= 2.47D-02 at cycle   1 NSaved=   1.
 NSaved= 1 IEnMin= 1 EnMin= -279.370655166862     IErMin= 1 ErrMin= 2.47D-02
 ErrMax= 2.47D-02  0.00D+00 EMaxC= 1.00D-01 BMatC= 4.38D-01 BMatP= 4.38D-01
 IDIUse=3 WtCom= 7.53D-01 WtEn= 2.47D-01
 Coeff-Com:  0.100D+01
 Coeff-En:   0.100D+01
 Coeff:      0.100D+01
 Gap=     0.512 Goal=   None    Shift=    0.000
 GapD=    0.512 DampG=2.000 DampE=0.500 DampFc=1.0000 IDamp=-1.
 RMSDP=1.62D-03 MaxDP=9.95D-02              OVMax= 1.12D-01

 Cycle   2  Pass 1  IDiag  1:
 E= -279.452568832851     Delta-E=       -0.081913665988 Rises=F Damp=F
 DIIS: error= 1.78D-02 at cycle   2 NSaved=   2.
 NSaved= 2 IEnMin= 2 EnMin= -279.452568832851     IErMin= 2 ErrMin= 1.78D-02
 ErrMax= 1.78D-02  0.00D+00 EMaxC= 1.00D-01 BMatC= 7.15D-02 BMatP= 4.38D-01
 IDIUse=3 WtCom= 8.22D-01 WtEn= 1.78D-01
 Coeff-Com:  0.194D+00 0.806D+00
 Coeff-En:   0.000D+00 0.100D+01
 Coeff:      0.160D+00 0.840D+00
 Gap=     0.529 Goal=   None    Shift=    0.000
 RMSDP=8.99D-04 MaxDP=3.73D-02 DE=-8.19D-02 OVMax= 6.93D-02

 Cycle   3  Pass 1  IDiag  1:
 E= -279.481550120288     Delta-E=       -0.028981287437 Rises=F Damp=F
 DIIS: error= 1.04D-02 at cycle   3 NSaved=   3.
 NSaved= 3 IEnMin= 3 EnMin= -279.481550120288     IErMin= 3 ErrMin= 1.04D-02
 ErrMax= 1.04D-02  0.00D+00 EMaxC= 1.00D-01 BMatC= 2.87D-02 BMatP= 7.15D-02
 IDIUse=3 WtCom= 8.96D-01 WtEn= 1.04D-01
 Coeff-Com: -0.330D-01 0.379D+00 0.654D+00
 Coeff-En:   0.000D+00 0.241D+00 0.759D+00
 Coeff:     -0.296D-01 0.364D+00 0.665D+00
 Gap=     0.510 Goal=   None    Shift=    0.000
 RMSDP=3.77D-04 MaxDP=1.55D-02 DE=-2.90D-02 OVMax= 3.81D-02

 Cycle   4  Pass 1  IDiag  1:
 E= -279.500628868203     Delta-E=       -0.019078747916 Rises=F Damp=F
 DIIS: error= 1.34D-03 at cycle   4 NSaved=   4.
 NSaved= 4 IEnMin= 4 EnMin= -279.500628868203     IErMin= 4 ErrMin= 1.34D-03
 ErrMax= 1.34D-03  0.00D+00 EMaxC= 1.00D-01 BMatC= 4.94D-04 BMatP= 2.87D-02
 IDIUse=3 WtCom= 9.87D-01 WtEn= 1.34D-02
 Coeff-Com: -0.117D-01 0.577D-01 0.159D+00 0.795D+00
 Coeff-En:   0.000D+00 0.000D+00 0.000D+00 0.100D+01
 Coeff:     -0.115D-01 0.569D-01 0.156D+00 0.798D+00
 Gap=     0.502 Goal=   None    Shift=    0.000
 RMSDP=9.04D-05 MaxDP=2.78D-03 DE=-1.91D-02 OVMax= 1.12D-02

 Cycle   5  Pass 1  IDiag  1:
 E= -279.501307273793     Delta-E=       -0.000678405589 Rises=F Damp=F
 DIIS: error= 7.49D-04 at cycle   5 NSaved=   5.
 NSaved= 5 IEnMin= 5 EnMin= -279.501307273793     IErMin= 5 ErrMin= 7.49D-04
 ErrMax= 7.49D-04  0.00D+00 EMaxC= 1.00D-01 BMatC= 8.76D-05 BMatP= 4.94D-04
 IDIUse=3 WtCom= 9.93D-01 WtEn= 7.49D-03
 Coeff-Com:  0.614D-02-0.727D-01-0.118D+00 0.211D-01 0.116D+01
 Coeff-En:   0.000D+00 0.000D+00 0.000D+00 0.000D+00 0.100D+01
 Coeff:      0.610D-02-0.721D-01-0.117D+00 0.210D-01 0.116D+01
 Gap=     0.502 Goal=   None    Shift=    0.000
 RMSDP=7.66D-05 MaxDP=2.11D-03 DE=-6.78D-04 OVMax= 1.12D-02

 Cycle   6  Pass 1  IDiag  1:
 E= -279.501624602609     Delta-E=       -0.000317328817 Rises=F Damp=F
 DIIS: error= 2.86D-04 at cycle   6 NSaved=   6.
 NSaved= 6 IEnMin= 6 EnMin= -279.501624602609     IErMin= 6 ErrMin= 2.86D-04
 ErrMax= 2.86D-04  0.00D+00 EMaxC= 1.00D-01 BMatC= 1.68D-05 BMatP= 8.76D-05
 IDIUse=3 WtCom= 9.97D-01 WtEn= 2.86D-03
 Coeff-Com:  0.580D-03 0.184D-02 0.489D-02-0.131D+00-0.233D+00 0.136D+01
 Coeff-En:   0.000D+00 0.000D+00 0.000D+00 0.000D+00 0.000D+00 0.100D+01
 Coeff:      0.578D-03 0.183D-02 0.487D-02-0.131D+00-0.232D+00 0.136D+01
 Gap=     0.502 Goal=   None    Shift=    0.000
 RMSDP=4.56D-05 MaxDP=1.26D-03 DE=-3.17D-04 OVMax= 5.59D-03

 Cycle   7  Pass 1  IDiag  1:
 E= -279.501698140858     Delta-E=       -0.000073538248 Rises=F Damp=F
 DIIS: error= 1.23D-04 at cycle   7 NSaved=   7.
 NSaved= 7 IEnMin= 7 EnMin= -279.501698140858     IErMin= 7 ErrMin= 1.23D-04
 ErrMax= 1.23D-04  0.00D+00 EMaxC= 1.00D-01 BMatC= 4.49D-06 BMatP= 1.68D-05
 IDIUse=3 WtCom= 9.99D-01 WtEn= 1.23D-03
 Coeff-Com: -0.948D-03 0.136D-01 0.266D-01-0.238D-01-0.286D+00 0.383D+00
 Coeff-Com:  0.887D+00
 Coeff-En:   0.000D+00 0.000D+00 0.000D+00 0.000D+00 0.000D+00 0.000D+00
 Coeff-En:   0.100D+01
 Coeff:     -0.946D-03 0.136D-01 0.266D-01-0.238D-01-0.285D+00 0.383D+00
 Coeff:      0.887D+00
 Gap=     0.502 Goal=   None    Shift=    0.000
 RMSDP=1.34D-05 MaxDP=3.82D-04 DE=-7.35D-05 OVMax= 1.56D-03

 Cycle   8  Pass 1  IDiag  1:
 E= -279.501707106235     Delta-E=       -0.000008965378 Rises=F Damp=F
 DIIS: error= 5.89D-05 at cycle   8 NSaved=   8.
 NSaved= 8 IEnMin= 8 EnMin= -279.501707106235     IErMin= 8 ErrMin= 5.89D-05
 ErrMax= 5.89D-05  0.00D+00 EMaxC= 1.00D-01 BMatC= 6.13D-07 BMatP= 4.49D-06
 IDIUse=1 WtCom= 1.00D+00 WtEn= 0.00D+00
 Coeff-Com: -0.450D-03 0.347D-02 0.763D-02 0.275D-01-0.411D-01-0.198D+00
 Coeff-Com:  0.177D+00 0.102D+01
 Coeff:     -0.450D-03 0.347D-02 0.763D-02 0.275D-01-0.411D-01-0.198D+00
 Coeff:      0.177D+00 0.102D+01
 Gap=     0.502 Goal=   None    Shift=    0.000
 RMSDP=6.95D-06 MaxDP=2.04D-04 DE=-8.97D-06 OVMax= 7.52D-04

 Cycle   9  Pass 1  IDiag  1:
 E= -279.501708899915     Delta-E=       -0.000001793680 Rises=F Damp=F
 DIIS: error= 1.51D-05 at cycle   9 NSaved=   9.
 NSaved= 9 IEnMin= 9 EnMin= -279.501708899915     IErMin= 9 ErrMin= 1.51D-05
 ErrMax= 1.51D-05  0.00D+00 EMaxC= 1.00D-01 BMatC= 7.09D-08 BMatP= 6.13D-07
 IDIUse=1 WtCom= 1.00D+00 WtEn= 0.00D+00
 Coeff-Com:  0.123D-03-0.173D-02-0.308D-02-0.191D-02 0.342D-01-0.756D-03
 Coeff-Com: -0.169D+00-0.947D-01 0.124D+01
 Coeff:      0.123D-03-0.173D-02-0.308D-02-0.191D-02 0.342D-01-0.756D-03
 Coeff:     -0.169D+00-0.947D-01 0.124D+01
 Gap=     0.502 Goal=   None    Shift=    0.000
 RMSDP=1.96D-06 MaxDP=6.66D-05 DE=-1.79D-06 OVMax= 1.76D-04

 Cycle  10  Pass 1  IDiag  1:
 E= -279.501709062961     Delta-E=       -0.000000163045 Rises=F Damp=F
 DIIS: error= 4.02D-06 at cycle  10 NSaved=  10.
 NSaved=10 IEnMin=10 EnMin= -279.501709062961     IErMin=10 ErrMin= 4.02D-06
 ErrMax= 4.02D-06  0.00D+00 EMaxC= 1.00D-01 BMatC= 5.63D-09 BMatP= 7.09D-08
 IDIUse=1 WtCom= 1.00D+00 WtEn= 0.00D+00
 Coeff-Com:  0.319D-04-0.252D-03-0.341D-03-0.274D-02 0.178D-02 0.199D-01
 Coeff-Com: -0.142D-01-0.748D-01-0.769D-01 0.115D+01
 Coeff:      0.319D-04-0.252D-03-0.341D-03-0.274D-02 0.178D-02 0.199D-01
 Coeff:     -0.142D-01-0.748D-01-0.769D-01 0.115D+01
 Gap=     0.502 Goal=   None    Shift=    0.000
 RMSDP=5.11D-07 MaxDP=2.13D-05 DE=-1.63D-07 OVMax= 4.18D-05

 Cycle  11  Pass 1  IDiag  1:
 E= -279.501709075717     Delta-E=       -0.000000012757 Rises=F Damp=F
 DIIS: error= 2.04D-06 at cycle  11 NSaved=  11.
 NSaved=11 IEnMin=11 EnMin= -279.501709075717     IErMin=11 ErrMin= 2.04D-06
 ErrMax= 2.04D-06  0.00D+00 EMaxC= 1.00D-01 BMatC= 6.70D-10 BMatP= 5.63D-09
 IDIUse=1 WtCom= 1.00D+00 WtEn= 0.00D+00
 Coeff-Com: -0.214D-04 0.246D-03 0.490D-03 0.530D-03-0.429D-02-0.361D-02
 Coeff-Com:  0.214D-01 0.305D-01-0.138D+00-0.181D+00 0.127D+01
 Coeff:     -0.214D-04 0.246D-03 0.490D-03 0.530D-03-0.429D-02-0.361D-02
 Coeff:      0.214D-01 0.305D-01-0.138D+00-0.181D+00 0.127D+01
 Gap=     0.502 Goal=   None    Shift=    0.000
 RMSDP=1.80D-07 MaxDP=6.66D-06 DE=-1.28D-08 OVMax= 1.75D-05

 Cycle  12  Pass 1  IDiag  1:
 E= -279.501709077558     Delta-E=       -0.000000001841 Rises=F Damp=F
 DIIS: error= 6.00D-07 at cycle  12 NSaved=  12.
 NSaved=12 IEnMin=12 EnMin= -279.501709077558     IErMin=12 ErrMin= 6.00D-07
 ErrMax= 6.00D-07  0.00D+00 EMaxC= 1.00D-01 BMatC= 7.29D-11 BMatP= 6.70D-10
 IDIUse=1 WtCom= 1.00D+00 WtEn= 0.00D+00
 Coeff-Com:  0.125D-05-0.295D-04-0.634D-04 0.183D-03 0.108D-02-0.230D-02
 Coeff-Com: -0.416D-02 0.552D-02 0.417D-01-0.111D+00-0.287D+00 0.136D+01
 Coeff:      0.125D-05-0.295D-04-0.634D-04 0.183D-03 0.108D-02-0.230D-02
 Coeff:     -0.416D-02 0.552D-02 0.417D-01-0.111D+00-0.287D+00 0.136D+01
 Gap=     0.502 Goal=   None    Shift=    0.000
 RMSDP=7.29D-08 MaxDP=2.89D-06 DE=-1.84D-09 OVMax= 6.73D-06

 Cycle  13  Pass 1  IDiag  1:
 E= -279.501709077791     Delta-E=       -0.000000000233 Rises=F Damp=F
 DIIS: error= 1.71D-07 at cycle  13 NSaved=  13.
 NSaved=13 IEnMin=13 EnMin= -279.501709077791     IErMin=13 ErrMin= 1.71D-07
 ErrMax= 1.71D-07  0.00D+00 EMaxC= 1.00D-01 BMatC= 4.08D-12 BMatP= 7.29D-11
 IDIUse=1 WtCom= 1.00D+00 WtEn= 0.00D+00
 Coeff-Com:  0.129D-05-0.141D-04-0.226D-04-0.896D-04 0.122D-03 0.767D-03
 Coeff-Com: -0.860D-03-0.324D-02 0.517D-03 0.408D-01-0.339D-01-0.329D+00
 Coeff-Com:  0.132D+01
 Coeff:      0.129D-05-0.141D-04-0.226D-04-0.896D-04 0.122D-03 0.767D-03
 Coeff:     -0.860D-03-0.324D-02 0.517D-03 0.408D-01-0.339D-01-0.329D+00
 Coeff:      0.132D+01
 Gap=     0.502 Goal=   None    Shift=    0.000
 RMSDP=1.94D-08 MaxDP=5.63D-07 DE=-2.33D-10 OVMax= 1.57D-06

 Cycle  14  Pass 1  IDiag  1:
 E= -279.501709077804     Delta-E=       -0.000000000013 Rises=F Damp=F
 DIIS: error= 2.46D-08 at cycle  14 NSaved=  14.
 NSaved=14 IEnMin=14 EnMin= -279.501709077804     IErMin=14 ErrMin= 2.46D-08
 ErrMax= 2.46D-08  0.00D+00 EMaxC= 1.00D-01 BMatC= 1.96D-13 BMatP= 4.08D-12
 IDIUse=1 WtCom= 1.00D+00 WtEn= 0.00D+00
 Coeff-Com: -0.188D-06 0.310D-05 0.554D-05 0.448D-05-0.820D-04 0.455D-04
 Coeff-Com:  0.283D-03 0.215D-03-0.241D-02 0.136D-02 0.171D-01-0.257D-01
 Coeff-Com: -0.198D+00 0.121D+01
 Coeff:     -0.188D-06 0.310D-05 0.554D-05 0.448D-05-0.820D-04 0.455D-04
 Coeff:      0.283D-03 0.215D-03-0.241D-02 0.136D-02 0.171D-01-0.257D-01
 Coeff:     -0.198D+00 0.121D+01
 Gap=     0.502 Goal=   None    Shift=    0.000
 RMSDP=3.80D-09 MaxDP=9.26D-08 DE=-1.33D-11 OVMax= 3.41D-07

 SCF Done:  E(RHF) =  -279.501709078     A.U. after   14 cycles
            NFock= 14  Conv=0.38D-08     -V/T= 2.0024
 KE= 2.788382854365D+02 PE=-8.947290073164D+02 EE= 2.196834415958D+02
 Leave Link  502 at Mon Feb 14 22:12:07 2022, MaxMem= 16106127360 cpu:              54.4 elap:               3.5
 (Enter /sw/contrib/gaussian/g16/B01/g16/l801.exe)
 ExpMin= 2.53D-02 ExpMax= 1.53D+04 ExpMxC= 5.22D+02 IAcc=3 IRadAn=         5 AccDes= 0.00D+00
 HarFok:  IExCor=  205 AccDes= 0.00D+00 IRadAn=         5 IDoV=-2 UseB2=F ITyADJ=14
 ICtDFT= 12500011 ScaDFX=  1.000000  1.000000  1.000000  1.000000
 Largest valence mixing into a core orbital is  2.08D-04
 Largest core mixing into a valence orbital is  3.62D-05
 Range of M.O.s used for correlation:     5   207
 NBasis=   207 NAE=    16 NBE=    16 NFC=     4 NFV=     0
 NROrb=    203 NOA=    12 NOB=    12 NVA=   191 NVB=   191

 **** Warning!!: The largest alpha MO coefficient is  0.17308648D+02

 Leave Link  801 at Mon Feb 14 22:12:08 2022, MaxMem= 16106127360 cpu:               2.1 elap:               0.1
 (Enter /sw/contrib/gaussian/g16/B01/g16/l906.exe)
 Frozen-core derivative calculation, NFC=   4 NFV=   0.
 FulOut=F Deriv=T AODrv=F NAtomX=     5
   MMem=          76  MDisk=          12 MDiskD=          12
  W3Min=      811440 MinDsk=     1524655 NBas6D=         245
 NBas2D=       30762    NTT=       30135    LW2=     3500000
    MDV= 16105579927 MDiskM=      328644 NBas2p=       30466
 Fully in-core method, ICMem=   960157634.
 IMap=   1   2   3   4   5   6   7   8   9  10  11  12  13  14  15  16
 JobTyp=1 Pass  1 fully in-core, NPsUse= 28.
 Compute canonical integrals.
 FoFCou: FMM=F IPFlag=           0 FMFlag=           0 FMFlg1=           0
         NFxFlg=           0 DoJE=F BraDBF=F KetDBF=F FulRan=T
         wScrn=  0.000000 ICntrl=       600 IOpCl=  1 I1Cent=           0 NGrid=           0
         NMat0=    1 NMatS0=  30762 NMatT0=    0 NMatD0=    1 NMtDS0=    0 NMtDT0=    0
 Symmetry not used in FoFCou.
 Spin components of T(2) and E(2):
     alpha-alpha T2 =       0.3403054268D-01 E2=     -0.1223917456D+00
     alpha-beta  T2 =       0.1868508018D+00 E2=     -0.7001739665D+00
     beta-beta   T2 =       0.3403054268D-01 E2=     -0.1223917456D+00
 The integrals were generated   1 times.
 ANorm=    0.1120228498D+01
 E2 =    -0.9449574576D+00 EUMP2 =    -0.28044666653544D+03
 Leave Link  906 at Mon Feb 14 22:12:17 2022, MaxMem= 16106127360 cpu:             248.4 elap:               8.9
 (Enter /sw/contrib/gaussian/g16/B01/g16/l1002.exe)
 Minotr:  Closed shell wavefunction.
          Computing MP2/KS-MP2 derivatives.
          Using Z-Vector for PSCF gradient.
          Skipping F1 and S1 gradient terms here.
          Frozen-core window.
          Direct CPHF calculation.
          Differentiating once with respect to electric field.
                with respect to dipole field.
          Electric field/nuclear overlap derivatives assumed to be zero.
          Using symmetry in CPHF.
          Requested convergence is 1.0D-10 RMS, and 1.0D-09 maximum.
          NewPWx=F KeepS1=T KeepF1=T KeepIn=T MapXYZ=F SortEE=F KeepMc=T.
 Keep R1 ints in memory in symmetry-blocked form, NReq=348888868.
 FoFCou: FMM=F IPFlag=           0 FMFlag=           0 FMFlg1=           0
         NFxFlg=           0 DoJE=F BraDBF=F KetDBF=F FulRan=T
         wScrn=  0.000000 ICntrl=       600 IOpCl=  0 I1Cent=           0 NGrid=           0
         NMat0=    1 NMatS0=  21528 NMatT0=    0 NMatD0=    1 NMtDS0=    0 NMtDT0=    0
 Petite list used in FoFCou.
          MDV=   16106127360 using IRadAn=       5.
          Solving linear equations separately, MaxMat=       0.
          There are     1 degrees of freedom in the 1st order CPHF.  IDoFFX=0 NUNeed=     1.
 LinEq1:  Iter=  0 NonCon=     1 RMS=5.98D-03 Max=1.33D-01 NDo=     1
 AX will form     1 AO Fock derivatives at one time.
 LinEq1:  Iter=  1 NonCon=     1 RMS=1.91D-03 Max=3.83D-02 NDo=     1
 LinEq1:  Iter=  2 NonCon=     1 RMS=8.71D-04 Max=1.37D-02 NDo=     1
 LinEq1:  Iter=  3 NonCon=     1 RMS=3.88D-04 Max=7.86D-03 NDo=     1
 LinEq1:  Iter=  4 NonCon=     1 RMS=1.21D-04 Max=1.93D-03 NDo=     1
 LinEq1:  Iter=  5 NonCon=     1 RMS=4.68D-05 Max=7.42D-04 NDo=     1
 LinEq1:  Iter=  6 NonCon=     1 RMS=2.08D-05 Max=2.48D-04 NDo=     1
 LinEq1:  Iter=  7 NonCon=     1 RMS=8.27D-06 Max=1.59D-04 NDo=     1
 LinEq1:  Iter=  8 NonCon=     1 RMS=3.51D-06 Max=3.47D-05 NDo=     1
 LinEq1:  Iter=  9 NonCon=     1 RMS=9.50D-07 Max=1.31D-05 NDo=     1
 LinEq1:  Iter= 10 NonCon=     1 RMS=1.87D-07 Max=2.00D-06 NDo=     1
 LinEq1:  Iter= 11 NonCon=     1 RMS=3.45D-08 Max=3.43D-07 NDo=     1
 LinEq1:  Iter= 12 NonCon=     1 RMS=8.28D-09 Max=1.24D-07 NDo=     1
 LinEq1:  Iter= 13 NonCon=     1 RMS=1.49D-09 Max=2.57D-08 NDo=     1
 LinEq1:  Iter= 14 NonCon=     1 RMS=2.72D-10 Max=3.69D-09 NDo=     1
 LinEq1:  Iter= 15 NonCon=     0 RMS=4.94D-11 Max=5.65D-10 NDo=     1
 Linear equations converged to 1.000D-10 1.000D-09 after    15 iterations.
 End of Minotr F.D. properties file   721 does not exist.
 End of Minotr F.D. properties file   722 does not exist.
 End of Minotr F.D. properties file   788 does not exist.
 Leave Link 1002 at Mon Feb 14 22:12:20 2022, MaxMem= 16106127360 cpu:              52.9 elap:               3.9
 (Enter /sw/contrib/gaussian/g16/B01/g16/l601.exe)
 Copying SCF densities to generalized density rwf, IOpCl= 0 IROHF=0.

 **********************************************************************

            Population analysis using the MP2 Density.

 **********************************************************************

 Orbital symmetries:
       Occupied  (A') (A') (A') (A') (A') (A') (A') (A') (A') (A')
                 (A") (A') (A") (A') (A") (A')
       Virtual   (A') (A") (A') (A') (A") (A') (A') (A') (A") (A')
                 (A") (A') (A') (A') (A") (A') (A') (A") (A') (A')
                 (A') (A') (A') (A') (A") (A') (A') (A") (A') (A')
                 (A") (A') (A") (A') (A') (A") (A') (A") (A') (A')
                 (A") (A') (A") (A') (A') (A") (A') (A') (A") (A')
                 (A") (A') (A') (A') (A") (A') (A") (A') (A") (A')
                 (A') (A') (A") (A') (A') (A") (A') (A") (A') (A')
                 (A") (A') (A') (A") (A") (A') (A') (A") (A') (A')
                 (A') (A") (A') (A") (A") (A') (A') (A") (A') (A')
                 (A") (A') (A') (A") (A') (A") (A') (A") (A') (A')
                 (A") (A') (A") (A') (A') (A") (A') (A') (A") (A')
                 (A") (A') (A') (A') (A") (A') (A') (A') (A") (A')
                 (A") (A') (A") (A') (A') (A") (A") (A') (A") (A')
                 (A') (A') (A') (A") (A") (A") (A') (A') (A') (A')
                 (A") (A') (A") (A') (A') (A") (A') (A') (A') (A')
                 (A") (A') (A') (A") (A') (A") (A') (A") (A') (A")
                 (A') (A") (A') (A") (A') (A") (A") (A') (A") (A')
                 (A") (A') (A") (A') (A") (A') (A") (A") (A') (A')
                 (A') (A') (A') (A') (A') (A') (A') (A') (A') (A')
                 (A')
 The electronic state is 1-A'.
 Alpha  occ. eigenvalues --  -20.69051 -20.68458 -20.66040 -15.81322  -1.62399
 Alpha  occ. eigenvalues --   -1.49538  -1.25500  -0.94783  -0.77183  -0.75968
 Alpha  occ. eigenvalues --   -0.71161  -0.68125  -0.62079  -0.58848  -0.48511
 Alpha  occ. eigenvalues --   -0.47224
 Alpha virt. eigenvalues --    0.02963   0.07152   0.08597   0.10206   0.13381
 Alpha virt. eigenvalues --    0.13382   0.14392   0.15410   0.17831   0.19430
 Alpha virt. eigenvalues --    0.19994   0.20618   0.22068   0.23526   0.23727
 Alpha virt. eigenvalues --    0.26698   0.29361   0.30320   0.31079   0.34375
 Alpha virt. eigenvalues --    0.34932   0.38666   0.42237   0.43260   0.52752
 Alpha virt. eigenvalues --    0.52816   0.55703   0.57974   0.62563   0.63928
 Alpha virt. eigenvalues --    0.67474   0.68455   0.70711   0.71032   0.72450
 Alpha virt. eigenvalues --    0.72871   0.74464   0.79212   0.79292   0.81104
 Alpha virt. eigenvalues --    0.81262   0.82937   0.86821   0.90857   0.92168
 Alpha virt. eigenvalues --    0.92668   0.95457   0.97319   0.98356   1.01640
 Alpha virt. eigenvalues --    1.05101   1.05576   1.07890   1.11459   1.13910
 Alpha virt. eigenvalues --    1.19103   1.21957   1.23427   1.33996   1.35135
 Alpha virt. eigenvalues --    1.38468   1.45453   1.48811   1.50881   1.53655
 Alpha virt. eigenvalues --    1.56570   1.57883   1.61157   1.66101   1.67207
 Alpha virt. eigenvalues --    1.70329   1.79216   1.83482   1.83640   1.87729
 Alpha virt. eigenvalues --    1.90791   1.95409   1.99117   2.00583   2.07842
 Alpha virt. eigenvalues --    2.12394   2.13286   2.14957   2.22348   2.26413
 Alpha virt. eigenvalues --    2.26524   2.29077   2.31245   2.33715   2.38461
 Alpha virt. eigenvalues --    2.42216   2.42934   2.45501   2.46142   2.47659
 Alpha virt. eigenvalues --    2.49755   2.58820   2.59771   2.61967   2.62685
 Alpha virt. eigenvalues --    2.63768   2.66533   2.75440   2.81947   2.84290
 Alpha virt. eigenvalues --    2.87684   2.89473   2.92647   2.96122   3.01728
 Alpha virt. eigenvalues --    3.06496   3.11854   3.20315   3.22360   3.31804
 Alpha virt. eigenvalues --    3.34793   3.52608   3.63605   3.83702   3.84377
 Alpha virt. eigenvalues --    4.14717   4.16364   4.18242   4.25504   4.35513
 Alpha virt. eigenvalues --    4.39059   4.46299   4.52042   4.65429   4.70969
 Alpha virt. eigenvalues --    4.80071   4.82408   4.83079   4.89474   5.02463
 Alpha virt. eigenvalues --    5.07771   5.10391   5.14992   5.17434   5.23940
 Alpha virt. eigenvalues --    5.27310   5.30809   5.32625   5.34906   5.59567
 Alpha virt. eigenvalues --    5.67341   5.76563   5.83078   5.95749   6.16437
 Alpha virt. eigenvalues --    6.30889   6.33960   6.39573   6.49415   6.50650
 Alpha virt. eigenvalues --    6.61131   6.67029   6.70088   6.75351   6.76319
 Alpha virt. eigenvalues --    6.83166   6.90010   7.01662   7.05608   7.06019
 Alpha virt. eigenvalues --    7.08983   7.12311   7.14729   7.18079   7.22658
 Alpha virt. eigenvalues --    7.24009   7.30614   7.32559   7.33973   7.39636
 Alpha virt. eigenvalues --    7.43350   7.48234   7.61208   7.61694   7.62096
 Alpha virt. eigenvalues --    7.66215   7.78678   7.88077   8.09546   8.31398
 Alpha virt. eigenvalues --    8.40938   8.54539  13.37979  14.41805  15.14816
 Alpha virt. eigenvalues --   16.15046
          Condensed to atoms (all electrons):
               1          2          3          4          5
     1  H    0.587193   0.128640   0.021147   0.011609  -0.000551
     2  O    0.128640   8.322379  -0.175969  -0.085988   0.015103
     3  O    0.021147  -0.175969   8.469428  -0.131900  -0.037398
     4  N    0.011609  -0.085988  -0.131900   6.972342  -0.055624
     5  O   -0.000551   0.015103  -0.037398  -0.055624   8.270521
 Mulliken charges:
               1
     1  H    0.251963
     2  O   -0.204165
     3  O   -0.145308
     4  N    0.289560
     5  O   -0.192050
 Sum of Mulliken charges =  -0.00000
 Mulliken charges with hydrogens summed into heavy atoms:
               1
     2  O    0.047798
     3  O   -0.145308
     4  N    0.289560
     5  O   -0.192050
 Electronic spatial extent (au):  <R**2>=            254.2826
 Charge=             -0.0000 electrons
 Dipole moment (field-independent basis, Debye):
    X=              0.4762    Y=              1.3701    Z=              0.0000  Tot=              1.4505
 Quadrupole moment (field-independent basis, Debye-Ang):
   XX=            -22.6016   YY=            -18.4881   ZZ=            -22.0128
   XY=              3.2105   XZ=              0.0000   YZ=             -0.0000
 Traceless Quadrupole moment (field-independent basis, Debye-Ang):
   XX=             -1.5675   YY=              2.5461   ZZ=             -0.9786
   XY=              3.2105   XZ=              0.0000   YZ=             -0.0000
 Octapole moment (field-independent basis, Debye-Ang**2):
  XXX=              2.5005  YYY=             11.7679  ZZZ=             -0.0000  XYY=              7.9536
  XXY=              6.3661  XXZ=              0.0000  XZZ=             -1.5753  YZZ=             -0.8676
  YYZ=              0.0000  XYZ=              0.0000
 Hexadecapole moment (field-independent basis, Debye-Ang**3):
 XXXX=           -158.5600 YYYY=            -90.8905 ZZZZ=            -18.2461 XXXY=            -37.9378
 XXXZ=             -0.0000 YYYX=            -31.1246 YYYZ=             -0.0000 ZZZX=             -0.0000
 ZZZY=             -0.0000 XXYY=            -34.3339 XXZZ=            -30.7666 YYZZ=            -21.0482
 XXYZ=             -0.0000 YYXZ=             -0.0000 ZZXY=            -15.3495
 N-N= 1.167055712062D+02 E-N=-8.955114202734D+02  KE= 2.801904568623D+02
 Symmetry A'   KE= 2.662200068245D+02
 Symmetry A"   KE= 1.397045003775D+01
 No NMR shielding tensors so no spin-rotation constants.
 Leave Link  601 at Mon Feb 14 22:12:21 2022, MaxMem= 16106127360 cpu:               4.5 elap:               0.2
 (Enter /sw/contrib/gaussian/g16/B01/g16/l9999.exe)
 1\1\GINC-N2132\SP\RMP2-FC\Aug-CC-pVTZ\H1N1O3\CGAVINH\14-Feb-2022\0\\#p
  SP mp2/aug-cc-pvtz density=current\\title\\0,1\H\O,1,0.96897556\O,2,1
 .45491931,1,97.59494903\N,3,1.45878406,2,103.5573325,1,180.,0\O,4,1.17
 072885,3,109.06955123,2,180.,0\\Version=ES64L-G16RevB.01\State=1-A'\HF
 =-279.5017091\MP2=-280.4466665\RMSD=3.803e-09\Dipole=-0.1466381,0.,-0.
 5515255\Quadrupole=-1.5033989,-0.7275934,2.2309922,0.,2.132925,0.\PG=C
 S [SG(H1N1O3)]\\@


 EVANS BOLDLY PUT 50 ATM. OF ETHYLENE IN A CELL WITH 25 ATM. OF OXYGEN.
 THE APPARATUS SUBSEQUENTLY BLEW UP, BUT LUCKILY NOT BEFORE HE
 OBTAINED THE SPECTRA SHOWN IN FIGURE 8.
 A.J.MERER AND R.S.MULLIKEN, CHEM.REV. 69, 645 (1969)
 Job cpu time:       0 days  0 hours  6 minutes 25.0 seconds.
 Elapsed time:       0 days  0 hours  0 minutes 17.7 seconds.
 File lengths (MBytes):  RWF=     22 Int=      0 D2E=      0 Chk=      8 Scr=      1
 Normal termination of Gaussian 16 at Mon Feb 14 22:12:21 2022.
