 Entering Gaussian System, Link 0=g16
 Input=hoono_d2_183p8154.gjf
 Output=hoono_d2_183p8154.log
 Initial command:
 /sw/contrib/gaussian/g16/B01/g16/l1.exe "/scr/Gau-7275.inp" -scrdir="/scr/"
 Entering Link 1 = /sw/contrib/gaussian/g16/B01/g16/l1.exe PID=      7276.
  
 Copyright (c) 1988-2017, Gaussian, Inc.  All Rights Reserved.
  
 This is part of the Gaussian(R) 16 program.  It is based on
 the Gaussian(R) 09 system (copyright 2009, Gaussian, Inc.),
 the Gaussian(R) 03 system (copyright 2003, Gaussian, Inc.),
 the Gaussian(R) 98 system (copyright 1998, Gaussian, Inc.),
 the Gaussian(R) 94 system (copyright 1995, Gaussian, Inc.),
 the Gaussian 92(TM) system (copyright 1992, Gaussian, Inc.),
 the Gaussian 90(TM) system (copyright 1990, Gaussian, Inc.),
 the Gaussian 88(TM) system (copyright 1988, Gaussian, Inc.),
 the Gaussian 86(TM) system (copyright 1986, Carnegie Mellon
 University), and the Gaussian 82(TM) system (copyright 1983,
 Carnegie Mellon University). Gaussian is a federally registered
 trademark of Gaussian, Inc.
  
 This software contains proprietary and confidential information,
 including trade secrets, belonging to Gaussian, Inc.
  
 This software is provided under written license and may be
 used, copied, transmitted, or stored only in accord with that
 written license.
  
 The following legend is applicable only to US Government
 contracts under FAR:
  
                    RESTRICTED RIGHTS LEGEND
  
 Use, reproduction and disclosure by the US Government is
 subject to restrictions as set forth in subparagraphs (a)
 and (c) of the Commercial Computer Software - Restricted
 Rights clause in FAR 52.227-19.
  
 Gaussian, Inc.
 340 Quinnipiac St., Bldg. 40, Wallingford CT 06492
  
  
 ---------------------------------------------------------------
 Warning -- This program may not be used in any manner that
 competes with the business of Gaussian, Inc. or will provide
 assistance to any competitor of Gaussian, Inc.  The licensee
 of this program is prohibited from giving any competitor of
 Gaussian, Inc. access to this program.  By using this program,
 the user acknowledges that Gaussian, Inc. is engaged in the
 business of creating and licensing software in the field of
 computational chemistry and represents and warrants to the
 licensee that it is not a competitor of Gaussian, Inc. and that
 it will not use this program in any manner prohibited above.
 ---------------------------------------------------------------
  

 Cite this work as:
 Gaussian 16, Revision B.01,
 M. J. Frisch, G. W. Trucks, H. B. Schlegel, G. E. Scuseria, 
 M. A. Robb, J. R. Cheeseman, G. Scalmani, V. Barone, 
 G. A. Petersson, H. Nakatsuji, X. Li, M. Caricato, A. V. Marenich, 
 J. Bloino, B. G. Janesko, R. Gomperts, B. Mennucci, H. P. Hratchian, 
 J. V. Ortiz, A. F. Izmaylov, J. L. Sonnenberg, D. Williams-Young, 
 F. Ding, F. Lipparini, F. Egidi, J. Goings, B. Peng, A. Petrone, 
 T. Henderson, D. Ranasinghe, V. G. Zakrzewski, J. Gao, N. Rega, 
 G. Zheng, W. Liang, M. Hada, M. Ehara, K. Toyota, R. Fukuda, 
 J. Hasegawa, M. Ishida, T. Nakajima, Y. Honda, O. Kitao, H. Nakai, 
 T. Vreven, K. Throssell, J. A. Montgomery, Jr., J. E. Peralta, 
 F. Ogliaro, M. J. Bearpark, J. J. Heyd, E. N. Brothers, K. N. Kudin, 
 V. N. Staroverov, T. A. Keith, R. Kobayashi, J. Normand, 
 K. Raghavachari, A. P. Rendell, J. C. Burant, S. S. Iyengar, 
 J. Tomasi, M. Cossi, J. M. Millam, M. Klene, C. Adamo, R. Cammi, 
 J. W. Ochterski, R. L. Martin, K. Morokuma, O. Farkas, 
 J. B. Foresman, and D. J. Fox, Gaussian, Inc., Wallingford CT, 2016.
 
 ******************************************
 Gaussian 16:  ES64L-G16RevB.01 20-Dec-2017
                 8-Feb-2022 
 ******************************************
 %nproc=28
 Will use up to   28 processors via shared memory.
 %mem=120GB
 %chk=hoono_d2_183p8154.chk
 -------------------------------------
 #p SP mp2/aug-cc-pvtz density=current
 -------------------------------------
 1/30=1,38=1,172=1/1;
 2/12=2,17=6,18=5,40=1/2;
 3/5=16,6=1,7=10,11=9,25=1,30=1,71=1/1,2,3;
 4//1;
 5/5=2,38=5/2;
 8/6=4,10=1/1;
 9/15=1,16=-3/6;
 10/5=1,13=10/2;
 6/7=2,8=2,9=2,10=2,22=-1/1;
 99/5=1,9=1/99;
 Leave Link    1 at Tue Feb  8 13:24:00 2022, MaxMem= 16106127360 cpu:               6.4 elap:               0.2
 (Enter /sw/contrib/gaussian/g16/B01/g16/l101.exe)
 -----
 title
 -----
 Symbolic Z-matrix:
 Charge =  0 Multiplicity = 1
 H
 O                    1    r1
 O                    2    r2       1    a1
 N                    3    r3       2    a2       1    d1       0
 O                    4    r4       3    a3       2    d2       0
       Variables:
  r1                    0.96898                  
  r2                    1.45492                  
  r3                    1.45878                  
  r4                    1.17073                  
  a1                   97.59495                  
  a2                  102.29752                  
  a3                  109.06955                  
  d1                  180.                       
  d2                  183.81542                  
 
 ITRead=  0  0  0  0  0
 MicOpt= -1 -1 -1 -1 -1
 NAtoms=      5 NQM=        5 NQMF=       0 NMMI=      0 NMMIF=      0
                NMic=       0 NMicF=      0.
                    Isotopes and Nuclear Properties:
 (Nuclear quadrupole moments (NQMom) in fm**2, nuclear magnetic moments (NMagM)
  in nuclear magnetons)

  Atom         1           2           3           4           5
 IAtWgt=           1          16          16          14          16
 AtmWgt=   1.0078250  15.9949146  15.9949146  14.0030740  15.9949146
 NucSpn=           1           0           0           2           0
 AtZEff=  -0.0000000  -0.0000000  -0.0000000  -0.0000000  -0.0000000
 NQMom=    0.0000000   0.0000000   0.0000000   2.0440000   0.0000000
 NMagM=    2.7928460   0.0000000   0.0000000   0.4037610   0.0000000
 AtZNuc=   1.0000000   8.0000000   8.0000000   7.0000000   8.0000000
 Leave Link  101 at Tue Feb  8 13:24:00 2022, MaxMem= 16106127360 cpu:               3.5 elap:               0.2
 (Enter /sw/contrib/gaussian/g16/B01/g16/l202.exe)
                          Input orientation:                          
 ---------------------------------------------------------------------
 Center     Atomic      Atomic             Coordinates (Angstroms)
 Number     Number       Type             X           Y           Z
 ---------------------------------------------------------------------
      1          1           0        0.000000    0.000000    0.000000
      2          8           0        0.000000    0.000000    0.968976
      3          8           0        1.442156    0.000000    1.161271
      4          7           0        1.561752    0.000000    2.615144
      5          8           0        2.693423    0.073628    2.905840
 ---------------------------------------------------------------------
                    Distance matrix (angstroms):
                    1          2          3          4          5
     1  H    0.000000
     2  O    0.968976   0.000000
     3  O    1.851584   1.454919   0.000000
     4  N    3.045989   2.269127   1.458784   0.000000
     5  O    3.962809   3.318342   2.148165   1.170729   0.000000
 Stoichiometry    HNO3
 Framework group  C1[X(HNO3)]
 Deg. of freedom     9
 Full point group                 C1      NOp   1
 Largest Abelian subgroup         C1      NOp   1
 Largest concise Abelian subgroup C1      NOp   1
                         Standard orientation:                         
 ---------------------------------------------------------------------
 Center     Atomic      Atomic             Coordinates (Angstroms)
 Number     Number       Type             X           Y           Z
 ---------------------------------------------------------------------
      1          1           0        2.248631    0.434251   -0.019291
      2          8           0        1.598347   -0.284098   -0.014944
      3          8           0        0.400483    0.541071    0.016826
      4          7           0       -0.663853   -0.456504    0.025911
      5          8           0       -1.699038    0.088186   -0.022142
 ---------------------------------------------------------------------
 Rotational constants (GHZ):          54.8226415           5.0124475           4.5946945
 Leave Link  202 at Tue Feb  8 13:24:00 2022, MaxMem= 16106127360 cpu:               0.3 elap:               0.0
 (Enter /sw/contrib/gaussian/g16/B01/g16/l301.exe)
 Standard basis: Aug-CC-pVTZ (5D, 7F)
 Ernie: Thresh=  0.10000D-02 Tol=  0.10000D-05 Strict=F.
 Ernie:  12 primitive shells out of 131 were deleted.
 There are   245 symmetry adapted cartesian basis functions of A   symmetry.
 There are   207 symmetry adapted basis functions of A   symmetry.
   207 basis functions,   315 primitive gaussians,   245 cartesian basis functions
    16 alpha electrons       16 beta electrons
       nuclear repulsion energy       116.8754650686 Hartrees.
 IExCor=    0 DFT=F Ex=HF Corr=None ExCW=0 ScaHFX=  1.000000
 ScaDFX=  1.000000  1.000000  1.000000  1.000000 ScalE2=  1.000000  1.000000
 IRadAn=      5 IRanWt=     -1 IRanGd=            0 ICorTp=0 IEmpDi=  4
 NAtoms=    5 NActive=    5 NUniq=    5 SFac= 1.00D+00 NAtFMM=   60 NAOKFM=F Big=F
 Integral buffers will be    131072 words long.
 Raffenetti 1 integral format.
 Two-electron integral symmetry is turned on.
 Leave Link  301 at Tue Feb  8 13:24:00 2022, MaxMem= 16106127360 cpu:               1.9 elap:               0.1
 (Enter /sw/contrib/gaussian/g16/B01/g16/l302.exe)
 NPDir=0 NMtPBC=     1 NCelOv=     1 NCel=       1 NClECP=     1 NCelD=      1
         NCelK=      1 NCelE2=     1 NClLst=     1 CellRange=     0.0.
 One-electron integrals computed using PRISM.
 One-electron integral symmetry used in STVInt
 NBasis=   207 RedAO= T EigKep=  1.82D-04  NBF=   207
 NBsUse=   207 1.00D-06 EigRej= -1.00D+00 NBFU=   207
 Leave Link  302 at Tue Feb  8 13:24:00 2022, MaxMem= 16106127360 cpu:               4.8 elap:               0.2
 (Enter /sw/contrib/gaussian/g16/B01/g16/l303.exe)
 DipDrv:  MaxL=1.
 Leave Link  303 at Tue Feb  8 13:24:00 2022, MaxMem= 16106127360 cpu:               1.6 elap:               0.1
 (Enter /sw/contrib/gaussian/g16/B01/g16/l401.exe)
 ExpMin= 2.53D-02 ExpMax= 1.53D+04 ExpMxC= 5.22D+02 IAcc=3 IRadAn=         5 AccDes= 0.00D+00
 Harris functional with IExCor=  205 and IRadAn=       5 diagonalized for initial guess.
 HarFok:  IExCor=  205 AccDes= 0.00D+00 IRadAn=         5 IDoV= 1 UseB2=F ITyADJ=14
 ICtDFT=  3500011 ScaDFX=  1.000000  1.000000  1.000000  1.000000
 FoFCou: FMM=F IPFlag=           0 FMFlag=      100000 FMFlg1=           0
         NFxFlg=           0 DoJE=T BraDBF=F KetDBF=T FulRan=T
         wScrn=  0.000000 ICntrl=       500 IOpCl=  0 I1Cent=   200000004 NGrid=           0
         NMat0=    1 NMatS0=      1 NMatT0=    0 NMatD0=    1 NMtDS0=    0 NMtDT0=    0
 Petite list used in FoFCou.
 Harris En= -279.628611365768    
 JPrj=0 DoOrth=F DoCkMO=F.
 Leave Link  401 at Tue Feb  8 13:24:01 2022, MaxMem= 16106127360 cpu:               7.1 elap:               0.3
 (Enter /sw/contrib/gaussian/g16/B01/g16/l502.exe)
 Keep R1 ints in memory in canonical form, NReq=245616893.
 FoFCou: FMM=F IPFlag=           0 FMFlag=           0 FMFlg1=           0
         NFxFlg=           0 DoJE=F BraDBF=F KetDBF=F FulRan=T
         wScrn=  0.000000 ICntrl=       600 IOpCl=  0 I1Cent=           0 NGrid=           0
         NMat0=    1 NMatS0=  21528 NMatT0=    0 NMatD0=    1 NMtDS0=    0 NMtDT0=    0
 Symmetry not used in FoFCou.
 Two-electron integral symmetry not used.
 Closed shell SCF:
 Using DIIS extrapolation, IDIIS=  1040.
 NGot= 16106127360 LenX= 15874260251 LenY= 15874199785
 Requested convergence on RMS density matrix=1.00D-08 within 128 cycles.
 Requested convergence on MAX density matrix=1.00D-06.
 Requested convergence on             energy=1.00D-06.
 No special actions if energy rises.

 Cycle   1  Pass 1  IDiag  1:
 E= -279.370469311839    
 DIIS: error= 2.54D-02 at cycle   1 NSaved=   1.
 NSaved= 1 IEnMin= 1 EnMin= -279.370469311839     IErMin= 1 ErrMin= 2.54D-02
 ErrMax= 2.54D-02  0.00D+00 EMaxC= 1.00D-01 BMatC= 4.38D-01 BMatP= 4.38D-01
 IDIUse=3 WtCom= 7.46D-01 WtEn= 2.54D-01
 Coeff-Com:  0.100D+01
 Coeff-En:   0.100D+01
 Coeff:      0.100D+01
 Gap=     0.519 Goal=   None    Shift=    0.000
 GapD=    0.519 DampG=2.000 DampE=0.500 DampFc=1.0000 IDamp=-1.
 RMSDP=1.62D-03 MaxDP=9.92D-02              OVMax= 1.13D-01

 Cycle   2  Pass 1  IDiag  1:
 E= -279.452421739167     Delta-E=       -0.081952427328 Rises=F Damp=F
 DIIS: error= 1.78D-02 at cycle   2 NSaved=   2.
 NSaved= 2 IEnMin= 2 EnMin= -279.452421739167     IErMin= 2 ErrMin= 1.78D-02
 ErrMax= 1.78D-02  0.00D+00 EMaxC= 1.00D-01 BMatC= 7.17D-02 BMatP= 4.38D-01
 IDIUse=3 WtCom= 8.22D-01 WtEn= 1.78D-01
 Coeff-Com:  0.195D+00 0.805D+00
 Coeff-En:   0.000D+00 0.100D+01
 Coeff:      0.160D+00 0.840D+00
 Gap=     0.534 Goal=   None    Shift=    0.000
 RMSDP=9.00D-04 MaxDP=3.73D-02 DE=-8.20D-02 OVMax= 6.91D-02

 Cycle   3  Pass 1  IDiag  1:
 E= -279.481511450394     Delta-E=       -0.029089711227 Rises=F Damp=F
 DIIS: error= 1.03D-02 at cycle   3 NSaved=   3.
 NSaved= 3 IEnMin= 3 EnMin= -279.481511450394     IErMin= 3 ErrMin= 1.03D-02
 ErrMax= 1.03D-02  0.00D+00 EMaxC= 1.00D-01 BMatC= 2.87D-02 BMatP= 7.17D-02
 IDIUse=3 WtCom= 8.97D-01 WtEn= 1.03D-01
 Coeff-Com: -0.330D-01 0.378D+00 0.655D+00
 Coeff-En:   0.000D+00 0.241D+00 0.759D+00
 Coeff:     -0.296D-01 0.364D+00 0.666D+00
 Gap=     0.510 Goal=   None    Shift=    0.000
 RMSDP=3.76D-04 MaxDP=1.54D-02 DE=-2.91D-02 OVMax= 3.81D-02

 Cycle   4  Pass 1  IDiag  1:
 E= -279.500553354135     Delta-E=       -0.019041903741 Rises=F Damp=F
 DIIS: error= 1.29D-03 at cycle   4 NSaved=   4.
 NSaved= 4 IEnMin= 4 EnMin= -279.500553354135     IErMin= 4 ErrMin= 1.29D-03
 ErrMax= 1.29D-03  0.00D+00 EMaxC= 1.00D-01 BMatC= 4.92D-04 BMatP= 2.87D-02
 IDIUse=3 WtCom= 9.87D-01 WtEn= 1.29D-02
 Coeff-Com: -0.117D-01 0.575D-01 0.158D+00 0.796D+00
 Coeff-En:   0.000D+00 0.000D+00 0.000D+00 0.100D+01
 Coeff:     -0.115D-01 0.567D-01 0.156D+00 0.798D+00
 Gap=     0.502 Goal=   None    Shift=    0.000
 RMSDP=9.02D-05 MaxDP=2.17D-03 DE=-1.90D-02 OVMax= 1.12D-02

 Cycle   5  Pass 1  IDiag  1:
 E= -279.501228873237     Delta-E=       -0.000675519102 Rises=F Damp=F
 DIIS: error= 7.36D-04 at cycle   5 NSaved=   5.
 NSaved= 5 IEnMin= 5 EnMin= -279.501228873237     IErMin= 5 ErrMin= 7.36D-04
 ErrMax= 7.36D-04  0.00D+00 EMaxC= 1.00D-01 BMatC= 8.71D-05 BMatP= 4.92D-04
 IDIUse=3 WtCom= 9.93D-01 WtEn= 7.36D-03
 Coeff-Com:  0.613D-02-0.724D-01-0.118D+00 0.201D-01 0.116D+01
 Coeff-En:   0.000D+00 0.000D+00 0.000D+00 0.000D+00 0.100D+01
 Coeff:      0.609D-02-0.719D-01-0.117D+00 0.200D-01 0.116D+01
 Gap=     0.502 Goal=   None    Shift=    0.000
 RMSDP=7.63D-05 MaxDP=2.10D-03 DE=-6.76D-04 OVMax= 1.11D-02

 Cycle   6  Pass 1  IDiag  1:
 E= -279.501544109570     Delta-E=       -0.000315236333 Rises=F Damp=F
 DIIS: error= 2.85D-04 at cycle   6 NSaved=   6.
 NSaved= 6 IEnMin= 6 EnMin= -279.501544109570     IErMin= 6 ErrMin= 2.85D-04
 ErrMax= 2.85D-04  0.00D+00 EMaxC= 1.00D-01 BMatC= 1.67D-05 BMatP= 8.71D-05
 IDIUse=3 WtCom= 9.97D-01 WtEn= 2.85D-03
 Coeff-Com:  0.592D-03 0.165D-02 0.458D-02-0.130D+00-0.231D+00 0.135D+01
 Coeff-En:   0.000D+00 0.000D+00 0.000D+00 0.000D+00 0.000D+00 0.100D+01
 Coeff:      0.590D-03 0.164D-02 0.457D-02-0.129D+00-0.231D+00 0.135D+01
 Gap=     0.502 Goal=   None    Shift=    0.000
 RMSDP=4.53D-05 MaxDP=1.06D-03 DE=-3.15D-04 OVMax= 5.55D-03

 Cycle   7  Pass 1  IDiag  1:
 E= -279.501616857764     Delta-E=       -0.000072748195 Rises=F Damp=F
 DIIS: error= 1.22D-04 at cycle   7 NSaved=   7.
 NSaved= 7 IEnMin= 7 EnMin= -279.501616857764     IErMin= 7 ErrMin= 1.22D-04
 ErrMax= 1.22D-04  0.00D+00 EMaxC= 1.00D-01 BMatC= 4.51D-06 BMatP= 1.67D-05
 IDIUse=3 WtCom= 9.99D-01 WtEn= 1.22D-03
 Coeff-Com: -0.938D-03 0.135D-01 0.265D-01-0.242D-01-0.287D+00 0.390D+00
 Coeff-Com:  0.882D+00
 Coeff-En:   0.000D+00 0.000D+00 0.000D+00 0.000D+00 0.000D+00 0.000D+00
 Coeff-En:   0.100D+01
 Coeff:     -0.937D-03 0.135D-01 0.264D-01-0.241D-01-0.287D+00 0.389D+00
 Coeff:      0.882D+00
 Gap=     0.502 Goal=   None    Shift=    0.000
 RMSDP=1.33D-05 MaxDP=3.78D-04 DE=-7.27D-05 OVMax= 1.55D-03

 Cycle   8  Pass 1  IDiag  1:
 E= -279.501625748385     Delta-E=       -0.000008890620 Rises=F Damp=F
 DIIS: error= 5.66D-05 at cycle   8 NSaved=   8.
 NSaved= 8 IEnMin= 8 EnMin= -279.501625748385     IErMin= 8 ErrMin= 5.66D-05
 ErrMax= 5.66D-05  0.00D+00 EMaxC= 1.00D-01 BMatC= 6.07D-07 BMatP= 4.51D-06
 IDIUse=1 WtCom= 1.00D+00 WtEn= 0.00D+00
 Coeff-Com: -0.449D-03 0.345D-02 0.761D-02 0.274D-01-0.409D-01-0.198D+00
 Coeff-Com:  0.172D+00 0.103D+01
 Coeff:     -0.449D-03 0.345D-02 0.761D-02 0.274D-01-0.409D-01-0.198D+00
 Coeff:      0.172D+00 0.103D+01
 Gap=     0.502 Goal=   None    Shift=    0.000
 RMSDP=6.90D-06 MaxDP=2.02D-04 DE=-8.89D-06 OVMax= 7.46D-04

 Cycle   9  Pass 1  IDiag  1:
 E= -279.501627525258     Delta-E=       -0.000001776873 Rises=F Damp=F
 DIIS: error= 1.58D-05 at cycle   9 NSaved=   9.
 NSaved= 9 IEnMin= 9 EnMin= -279.501627525258     IErMin= 9 ErrMin= 1.58D-05
 ErrMax= 1.58D-05  0.00D+00 EMaxC= 1.00D-01 BMatC= 6.94D-08 BMatP= 6.07D-07
 IDIUse=1 WtCom= 1.00D+00 WtEn= 0.00D+00
 Coeff-Com:  0.123D-03-0.173D-02-0.308D-02-0.208D-02 0.343D-01 0.816D-04
 Coeff-Com: -0.167D+00-0.103D+00 0.124D+01
 Coeff:      0.123D-03-0.173D-02-0.308D-02-0.208D-02 0.343D-01 0.816D-04
 Coeff:     -0.167D+00-0.103D+00 0.124D+01
 Gap=     0.502 Goal=   None    Shift=    0.000
 RMSDP=1.95D-06 MaxDP=5.17D-05 DE=-1.78D-06 OVMax= 1.75D-04

 Cycle  10  Pass 1  IDiag  1:
 E= -279.501627686621     Delta-E=       -0.000000161364 Rises=F Damp=F
 DIIS: error= 4.05D-06 at cycle  10 NSaved=  10.
 NSaved=10 IEnMin=10 EnMin= -279.501627686621     IErMin=10 ErrMin= 4.05D-06
 ErrMax= 4.05D-06  0.00D+00 EMaxC= 1.00D-01 BMatC= 5.60D-09 BMatP= 6.94D-08
 IDIUse=1 WtCom= 1.00D+00 WtEn= 0.00D+00
 Coeff-Com:  0.310D-04-0.242D-03-0.322D-03-0.270D-02 0.160D-02 0.197D-01
 Coeff-Com: -0.129D-01-0.744D-01-0.816D-01 0.115D+01
 Coeff:      0.310D-04-0.242D-03-0.322D-03-0.270D-02 0.160D-02 0.197D-01
 Coeff:     -0.129D-01-0.744D-01-0.816D-01 0.115D+01
 Gap=     0.502 Goal=   None    Shift=    0.000
 RMSDP=5.10D-07 MaxDP=2.11D-05 DE=-1.61D-07 OVMax= 4.18D-05

 Cycle  11  Pass 1  IDiag  1:
 E= -279.501627699443     Delta-E=       -0.000000012822 Rises=F Damp=F
 DIIS: error= 2.01D-06 at cycle  11 NSaved=  11.
 NSaved=11 IEnMin=11 EnMin= -279.501627699443     IErMin=11 ErrMin= 2.01D-06
 ErrMax= 2.01D-06  0.00D+00 EMaxC= 1.00D-01 BMatC= 6.79D-10 BMatP= 5.60D-09
 IDIUse=1 WtCom= 1.00D+00 WtEn= 0.00D+00
 Coeff-Com: -0.216D-04 0.247D-03 0.492D-03 0.545D-03-0.433D-02-0.365D-02
 Coeff-Com:  0.214D-01 0.314D-01-0.140D+00-0.183D+00 0.128D+01
 Coeff:     -0.216D-04 0.247D-03 0.492D-03 0.545D-03-0.433D-02-0.365D-02
 Coeff:      0.214D-01 0.314D-01-0.140D+00-0.183D+00 0.128D+01
 Gap=     0.502 Goal=   None    Shift=    0.000
 RMSDP=1.85D-07 MaxDP=6.52D-06 DE=-1.28D-08 OVMax= 1.76D-05

 Cycle  12  Pass 1  IDiag  1:
 E= -279.501627701355     Delta-E=       -0.000000001912 Rises=F Damp=F
 DIIS: error= 5.71D-07 at cycle  12 NSaved=  12.
 NSaved=12 IEnMin=12 EnMin= -279.501627701355     IErMin=12 ErrMin= 5.71D-07
 ErrMax= 5.71D-07  0.00D+00 EMaxC= 1.00D-01 BMatC= 7.67D-11 BMatP= 6.79D-10
 IDIUse=1 WtCom= 1.00D+00 WtEn= 0.00D+00
 Coeff-Com:  0.140D-05-0.312D-04-0.677D-04 0.184D-03 0.113D-02-0.233D-02
 Coeff-Com: -0.431D-02 0.537D-02 0.435D-01-0.115D+00-0.289D+00 0.136D+01
 Coeff:      0.140D-05-0.312D-04-0.677D-04 0.184D-03 0.113D-02-0.233D-02
 Coeff:     -0.431D-02 0.537D-02 0.435D-01-0.115D+00-0.289D+00 0.136D+01
 Gap=     0.502 Goal=   None    Shift=    0.000
 RMSDP=7.81D-08 MaxDP=2.82D-06 DE=-1.91D-09 OVMax= 6.79D-06

 Cycle  13  Pass 1  IDiag  1:
 E= -279.501627701618     Delta-E=       -0.000000000263 Rises=F Damp=F
 DIIS: error= 1.63D-07 at cycle  13 NSaved=  13.
 NSaved=13 IEnMin=13 EnMin= -279.501627701618     IErMin=13 ErrMin= 1.63D-07
 ErrMax= 1.63D-07  0.00D+00 EMaxC= 1.00D-01 BMatC= 5.35D-12 BMatP= 7.67D-11
 IDIUse=1 WtCom= 1.00D+00 WtEn= 0.00D+00
 Coeff-Com:  0.137D-05-0.146D-04-0.237D-04-0.980D-04 0.116D-03 0.855D-03
 Coeff-Com: -0.850D-03-0.363D-02 0.158D-03 0.456D-01-0.350D-01-0.359D+00
 Coeff-Com:  0.135D+01
 Coeff:      0.137D-05-0.146D-04-0.237D-04-0.980D-04 0.116D-03 0.855D-03
 Coeff:     -0.850D-03-0.363D-02 0.158D-03 0.456D-01-0.350D-01-0.359D+00
 Coeff:      0.135D+01
 Gap=     0.502 Goal=   None    Shift=    0.000
 RMSDP=2.42D-08 MaxDP=5.71D-07 DE=-2.63D-10 OVMax= 2.42D-06

 Cycle  14  Pass 1  IDiag  1:
 E= -279.501627701640     Delta-E=       -0.000000000022 Rises=F Damp=F
 DIIS: error= 7.59D-08 at cycle  14 NSaved=  14.
 NSaved=14 IEnMin=14 EnMin= -279.501627701640     IErMin=14 ErrMin= 7.59D-08
 ErrMax= 7.59D-08  0.00D+00 EMaxC= 1.00D-01 BMatC= 6.64D-13 BMatP= 5.35D-12
 IDIUse=1 WtCom= 1.00D+00 WtEn= 0.00D+00
 Coeff-Com: -0.374D-06 0.549D-05 0.942D-05 0.143D-04-0.119D-03-0.138D-04
 Coeff-Com:  0.463D-03 0.567D-03-0.319D-02-0.217D-02 0.260D-01-0.274D-02
 Coeff-Com: -0.370D+00 0.135D+01
 Coeff:     -0.374D-06 0.549D-05 0.942D-05 0.143D-04-0.119D-03-0.138D-04
 Coeff:      0.463D-03 0.567D-03-0.319D-02-0.217D-02 0.260D-01-0.274D-02
 Coeff:     -0.370D+00 0.135D+01
 Gap=     0.502 Goal=   None    Shift=    0.000
 RMSDP=8.75D-09 MaxDP=1.87D-07 DE=-2.15D-11 OVMax= 1.19D-06

 SCF Done:  E(RHF) =  -279.501627702     A.U. after   14 cycles
            NFock= 14  Conv=0.88D-08     -V/T= 2.0024
 KE= 2.788455993548D+02 PE=-8.950780145710D+02 EE= 2.198553224460D+02
 Leave Link  502 at Tue Feb  8 13:24:07 2022, MaxMem= 16106127360 cpu:              39.2 elap:               6.7
 (Enter /sw/contrib/gaussian/g16/B01/g16/l801.exe)
 ExpMin= 2.53D-02 ExpMax= 1.53D+04 ExpMxC= 5.22D+02 IAcc=3 IRadAn=         5 AccDes= 0.00D+00
 HarFok:  IExCor=  205 AccDes= 0.00D+00 IRadAn=         5 IDoV=-2 UseB2=F ITyADJ=14
 ICtDFT= 12500011 ScaDFX=  1.000000  1.000000  1.000000  1.000000
 Largest valence mixing into a core orbital is  2.08D-04
 Largest core mixing into a valence orbital is  3.63D-05
 Range of M.O.s used for correlation:     5   207
 NBasis=   207 NAE=    16 NBE=    16 NFC=     4 NFV=     0
 NROrb=    203 NOA=    12 NOB=    12 NVA=   191 NVB=   191

 **** Warning!!: The largest alpha MO coefficient is  0.17663337D+02

 Leave Link  801 at Tue Feb  8 13:24:08 2022, MaxMem= 16106127360 cpu:               2.1 elap:               0.1
 (Enter /sw/contrib/gaussian/g16/B01/g16/l906.exe)
 Frozen-core derivative calculation, NFC=   4 NFV=   0.
 FulOut=F Deriv=T AODrv=F NAtomX=     5
   MMem=          76  MDisk=          12 MDiskD=          12
  W3Min=      811440 MinDsk=     1524655 NBas6D=         245
 NBas2D=       30762    NTT=       30135    LW2=     3500000
    MDV= 16105643539 MDiskM=      328645 NBas2p=       30466
 Fully in-core method, ICMem=   960157634.
 IMap=   1   2   3   4   5   6   7   8   9  10  11  12  13  14  15  16
 JobTyp=1 Pass  1 fully in-core, NPsUse= 28.
 Compute canonical integrals.
 FoFCou: FMM=F IPFlag=           0 FMFlag=           0 FMFlg1=           0
         NFxFlg=           0 DoJE=F BraDBF=F KetDBF=F FulRan=T
         wScrn=  0.000000 ICntrl=       600 IOpCl=  1 I1Cent=           0 NGrid=           0
         NMat0=    1 NMatS0=  30762 NMatT0=    0 NMatD0=    1 NMtDS0=    0 NMtDT0=    0
 Symmetry not used in FoFCou.
 Spin components of T(2) and E(2):
     alpha-alpha T2 =       0.3402133064D-01 E2=     -0.1223988779D+00
     alpha-beta  T2 =       0.1868381795D+00 E2=     -0.7002182726D+00
     beta-beta   T2 =       0.3402133064D-01 E2=     -0.1223988779D+00
 The integrals were generated   1 times.
 ANorm=    0.1120214640D+01
 E2 =    -0.9450160284D+00 EUMP2 =    -0.28044664373001D+03
 Leave Link  906 at Tue Feb  8 13:24:17 2022, MaxMem= 16106127360 cpu:             251.7 elap:               9.0
 (Enter /sw/contrib/gaussian/g16/B01/g16/l1002.exe)
 Minotr:  Closed shell wavefunction.
          Computing MP2/KS-MP2 derivatives.
          Using Z-Vector for PSCF gradient.
          Skipping F1 and S1 gradient terms here.
          Frozen-core window.
          Direct CPHF calculation.
          Differentiating once with respect to electric field.
                with respect to dipole field.
          Electric field/nuclear overlap derivatives assumed to be zero.
          Requested convergence is 1.0D-10 RMS, and 1.0D-09 maximum.
          NewPWx=F KeepS1=T KeepF1=T KeepIn=T MapXYZ=F SortEE=F KeepMc=T.
 Keep R1 ints in memory in canonical form, NReq=245621348.
 FoFCou: FMM=F IPFlag=           0 FMFlag=           0 FMFlg1=           0
         NFxFlg=           0 DoJE=F BraDBF=F KetDBF=F FulRan=T
         wScrn=  0.000000 ICntrl=       600 IOpCl=  0 I1Cent=           0 NGrid=           0
         NMat0=    1 NMatS0=  21528 NMatT0=    0 NMatD0=    1 NMtDS0=    0 NMtDT0=    0
 Symmetry not used in FoFCou.
 Two-electron integral symmetry not used.
          MDV=   16106127360 using IRadAn=       5.
          Solving linear equations separately, MaxMat=       0.
          There are     1 degrees of freedom in the 1st order CPHF.  IDoFFX=0 NUNeed=     1.
 LinEq1:  Iter=  0 NonCon=     1 RMS=5.95D-03 Max=1.32D-01 NDo=     1
 AX will form     1 AO Fock derivatives at one time.
 LinEq1:  Iter=  1 NonCon=     1 RMS=1.90D-03 Max=3.82D-02 NDo=     1
 LinEq1:  Iter=  2 NonCon=     1 RMS=8.68D-04 Max=1.39D-02 NDo=     1
 LinEq1:  Iter=  3 NonCon=     1 RMS=3.86D-04 Max=7.80D-03 NDo=     1
 LinEq1:  Iter=  4 NonCon=     1 RMS=1.19D-04 Max=1.88D-03 NDo=     1
 LinEq1:  Iter=  5 NonCon=     1 RMS=4.55D-05 Max=7.21D-04 NDo=     1
 LinEq1:  Iter=  6 NonCon=     1 RMS=2.03D-05 Max=2.15D-04 NDo=     1
 LinEq1:  Iter=  7 NonCon=     1 RMS=8.17D-06 Max=1.43D-04 NDo=     1
 LinEq1:  Iter=  8 NonCon=     1 RMS=3.50D-06 Max=3.38D-05 NDo=     1
 LinEq1:  Iter=  9 NonCon=     1 RMS=9.60D-07 Max=1.28D-05 NDo=     1
 LinEq1:  Iter= 10 NonCon=     1 RMS=1.98D-07 Max=2.63D-06 NDo=     1
 LinEq1:  Iter= 11 NonCon=     1 RMS=4.58D-08 Max=1.15D-06 NDo=     1
 LinEq1:  Iter= 12 NonCon=     1 RMS=1.53D-08 Max=4.09D-07 NDo=     1
 LinEq1:  Iter= 13 NonCon=     1 RMS=3.55D-09 Max=6.91D-08 NDo=     1
 LinEq1:  Iter= 14 NonCon=     1 RMS=6.81D-10 Max=1.02D-08 NDo=     1
 LinEq1:  Iter= 15 NonCon=     1 RMS=1.58D-10 Max=2.69D-09 NDo=     1
 LinEq1:  Iter= 16 NonCon=     0 RMS=4.16D-11 Max=6.86D-10 NDo=     1
 Linear equations converged to 1.000D-10 1.000D-09 after    16 iterations.
 End of Minotr F.D. properties file   721 does not exist.
 End of Minotr F.D. properties file   722 does not exist.
 End of Minotr F.D. properties file   788 does not exist.
 Leave Link 1002 at Tue Feb  8 13:24:26 2022, MaxMem= 16106127360 cpu:              40.4 elap:               9.1
 (Enter /sw/contrib/gaussian/g16/B01/g16/l601.exe)
 Copying SCF densities to generalized density rwf, IOpCl= 0 IROHF=0.

 **********************************************************************

            Population analysis using the MP2 Density.

 **********************************************************************

 Orbital symmetries:
       Occupied  (A) (A) (A) (A) (A) (A) (A) (A) (A) (A) (A) (A)
                 (A) (A) (A) (A)
       Virtual   (A) (A) (A) (A) (A) (A) (A) (A) (A) (A) (A) (A)
                 (A) (A) (A) (A) (A) (A) (A) (A) (A) (A) (A) (A)
                 (A) (A) (A) (A) (A) (A) (A) (A) (A) (A) (A) (A)
                 (A) (A) (A) (A) (A) (A) (A) (A) (A) (A) (A) (A)
                 (A) (A) (A) (A) (A) (A) (A) (A) (A) (A) (A) (A)
                 (A) (A) (A) (A) (A) (A) (A) (A) (A) (A) (A) (A)
                 (A) (A) (A) (A) (A) (A) (A) (A) (A) (A) (A) (A)
                 (A) (A) (A) (A) (A) (A) (A) (A) (A) (A) (A) (A)
                 (A) (A) (A) (A) (A) (A) (A) (A) (A) (A) (A) (A)
                 (A) (A) (A) (A) (A) (A) (A) (A) (A) (A) (A) (A)
                 (A) (A) (A) (A) (A) (A) (A) (A) (A) (A) (A) (A)
                 (A) (A) (A) (A) (A) (A) (A) (A) (A) (A) (A) (A)
                 (A) (A) (A) (A) (A) (A) (A) (A) (A) (A) (A) (A)
                 (A) (A) (A) (A) (A) (A) (A) (A) (A) (A) (A) (A)
                 (A) (A) (A) (A) (A) (A) (A) (A) (A) (A) (A) (A)
                 (A) (A) (A) (A) (A) (A) (A) (A) (A) (A) (A)
 The electronic state is 1-A.
 Alpha  occ. eigenvalues --  -20.69081 -20.68435 -20.65999 -15.81280  -1.62404
 Alpha  occ. eigenvalues --   -1.49573  -1.25440  -0.94806  -0.77277  -0.75917
 Alpha  occ. eigenvalues --   -0.71194  -0.67921  -0.62051  -0.58939  -0.48522
 Alpha  occ. eigenvalues --   -0.47249
 Alpha virt. eigenvalues --    0.02963   0.07161   0.08598   0.10172   0.13279
 Alpha virt. eigenvalues --    0.13506   0.14409   0.15454   0.17816   0.19414
 Alpha virt. eigenvalues --    0.19966   0.20650   0.22086   0.23484   0.23807
 Alpha virt. eigenvalues --    0.26578   0.29343   0.30351   0.31105   0.34342
 Alpha virt. eigenvalues --    0.34981   0.38721   0.42165   0.43117   0.52618
 Alpha virt. eigenvalues --    0.53048   0.55842   0.58146   0.62599   0.63838
 Alpha virt. eigenvalues --    0.67314   0.68592   0.70643   0.71125   0.72460
 Alpha virt. eigenvalues --    0.72959   0.74471   0.79035   0.79348   0.80869
 Alpha virt. eigenvalues --    0.81443   0.83037   0.86816   0.90808   0.92193
 Alpha virt. eigenvalues --    0.92633   0.95637   0.97678   0.98505   1.01630
 Alpha virt. eigenvalues --    1.05072   1.05512   1.08380   1.11729   1.14053
 Alpha virt. eigenvalues --    1.19000   1.22123   1.23240   1.33858   1.35081
 Alpha virt. eigenvalues --    1.38707   1.45263   1.48765   1.50877   1.53806
 Alpha virt. eigenvalues --    1.56608   1.58072   1.61324   1.66372   1.66930
 Alpha virt. eigenvalues --    1.70361   1.79232   1.82968   1.83642   1.87910
 Alpha virt. eigenvalues --    1.91051   1.95610   1.99153   2.00676   2.07761
 Alpha virt. eigenvalues --    2.12046   2.13135   2.15061   2.22496   2.26414
 Alpha virt. eigenvalues --    2.26531   2.28978   2.31417   2.34454   2.38630
 Alpha virt. eigenvalues --    2.42106   2.43140   2.45405   2.46277   2.47709
 Alpha virt. eigenvalues --    2.50193   2.58995   2.59655   2.61977   2.62460
 Alpha virt. eigenvalues --    2.63505   2.66714   2.75633   2.82300   2.85454
 Alpha virt. eigenvalues --    2.88499   2.89759   2.92317   2.95989   3.02594
 Alpha virt. eigenvalues --    3.06858   3.12176   3.20488   3.22621   3.31598
 Alpha virt. eigenvalues --    3.34189   3.51614   3.64196   3.83760   3.84572
 Alpha virt. eigenvalues --    4.14881   4.16252   4.18392   4.25717   4.35172
 Alpha virt. eigenvalues --    4.39338   4.46378   4.51920   4.66029   4.71021
 Alpha virt. eigenvalues --    4.80545   4.82452   4.82809   4.89721   5.02300
 Alpha virt. eigenvalues --    5.07629   5.10401   5.14530   5.17907   5.24304
 Alpha virt. eigenvalues --    5.27249   5.30706   5.32945   5.35517   5.60622
 Alpha virt. eigenvalues --    5.67389   5.76917   5.82892   5.95768   6.16878
 Alpha virt. eigenvalues --    6.30919   6.33784   6.39429   6.49354   6.50540
 Alpha virt. eigenvalues --    6.61410   6.66769   6.69916   6.75728   6.76367
 Alpha virt. eigenvalues --    6.83254   6.89821   7.01395   7.05502   7.05799
 Alpha virt. eigenvalues --    7.09017   7.12470   7.15084   7.18155   7.22519
 Alpha virt. eigenvalues --    7.24184   7.30754   7.32563   7.34777   7.39936
 Alpha virt. eigenvalues --    7.43172   7.48407   7.59833   7.62476   7.62780
 Alpha virt. eigenvalues --    7.66717   7.78953   7.88662   8.09249   8.31397
 Alpha virt. eigenvalues --    8.40897   8.54390  13.39201  14.39203  15.16240
 Alpha virt. eigenvalues --   16.15118
          Condensed to atoms (all electrons):
               1          2          3          4          5
     1  H    0.589533   0.128401   0.019980   0.012419  -0.000645
     2  O    0.128401   8.321572  -0.173407  -0.090453   0.015456
     3  O    0.019980  -0.173407   8.469845  -0.130256  -0.038792
     4  N    0.012419  -0.090453  -0.130256   6.972338  -0.055735
     5  O   -0.000645   0.015456  -0.038792  -0.055735   8.272777
 Mulliken charges:
               1
     1  H    0.250312
     2  O   -0.201568
     3  O   -0.147370
     4  N    0.291687
     5  O   -0.193061
 Sum of Mulliken charges =  -0.00000
 Mulliken charges with hydrogens summed into heavy atoms:
               1
     2  O    0.048743
     3  O   -0.147370
     4  N    0.291687
     5  O   -0.193061
 Electronic spatial extent (au):  <R**2>=            252.8388
 Charge=             -0.0000 electrons
 Dipole moment (field-independent basis, Debye):
    X=              1.2168    Y=              0.7910    Z=             -0.0070  Tot=              1.4513
 Quadrupole moment (field-independent basis, Debye-Ang):
   XX=            -17.9880   YY=            -23.0931   ZZ=            -22.0129
   XY=              2.7903   XZ=             -0.1039   YZ=              0.0405
 Traceless Quadrupole moment (field-independent basis, Debye-Ang):
   XX=              3.0434   YY=             -2.0618   ZZ=             -0.9816
   XY=              2.7903   XZ=             -0.1039   YZ=              0.0405
 Octapole moment (field-independent basis, Debye-Ang**2):
  XXX=             18.1943  YYY=              1.7560  ZZZ=             -0.0572  XYY=              1.0880
  XXY=              6.2022  XXZ=             -0.1282  XZZ=             -1.7734  YZZ=              0.2538
  YYZ=             -0.0760  XYZ=             -0.0916
 Hexadecapole moment (field-independent basis, Debye-Ang**3):
 XXXX=           -190.0157 YYYY=            -41.0744 ZZZZ=            -18.3009 XXXY=             12.1334
 XXXZ=             -0.5659 YYYX=              1.0048 YYYZ=              0.1304 ZZZX=              0.0875
 ZZZY=              0.0278 XXYY=            -42.4403 XXZZ=            -41.6475 YYZZ=             -9.8901
 XXYZ=              0.0009 YYXZ=             -0.0320 ZZXY=              0.4759
 N-N= 1.168754650686D+02 E-N=-8.958616965071D+02  KE= 2.801975989021D+02
 No NMR shielding tensors so no spin-rotation constants.
 Leave Link  601 at Tue Feb  8 13:24:26 2022, MaxMem= 16106127360 cpu:               4.8 elap:               0.2
 (Enter /sw/contrib/gaussian/g16/B01/g16/l9999.exe)
 1\1\GINC-N2177\SP\RMP2-FC\Aug-CC-pVTZ\H1N1O3\CGAVINH\08-Feb-2022\0\\#p
  SP mp2/aug-cc-pvtz density=current\\title\\0,1\H\O,1,0.96897556\O,2,1
 .45491931,1,97.59494903\N,3,1.45878406,2,102.29752444,1,180.,0\O,4,1.1
 7072885,3,109.06955123,2,183.81541862,0\\Version=ES64L-G16RevB.01\Stat
 e=1-A\HF=-279.5016277\MP2=-280.4466437\RMSD=8.751e-09\Dipole=-0.146030
 1,-0.0028457,-0.5519825\Quadrupole=-1.5078635,-0.7332461,2.2411096,-0.
 08478,2.0944436,0.0287118\PG=C01 [X(H1N1O3)]\\@


 ABSOLUTISM, OBSOLETISM -- IF IT WORKS, IT'S OUT OF DATE

                          -- STAFFORD BEER
 Job cpu time:       0 days  0 hours  6 minutes  4.7 seconds.
 Elapsed time:       0 days  0 hours  0 minutes 26.4 seconds.
 File lengths (MBytes):  RWF=     21 Int=      0 D2E=      0 Chk=      8 Scr=      1
 Normal termination of Gaussian 16 at Tue Feb  8 13:24:26 2022.
