 Entering Gaussian System, Link 0=g16
 Input=hono_r1_pert.gjf
 Output=hono_r1_pert.log
 Initial command:
 /sw/contrib/gaussian/g16/B01/g16/l1.exe "/scr/Gau-1037.inp" -scrdir="/scr/"
 Entering Link 1 = /sw/contrib/gaussian/g16/B01/g16/l1.exe PID=      1038.
  
 Copyright (c) 1988-2017, Gaussian, Inc.  All Rights Reserved.
  
 This is part of the Gaussian(R) 16 program.  It is based on
 the Gaussian(R) 09 system (copyright 2009, Gaussian, Inc.),
 the Gaussian(R) 03 system (copyright 2003, Gaussian, Inc.),
 the Gaussian(R) 98 system (copyright 1998, Gaussian, Inc.),
 the Gaussian(R) 94 system (copyright 1995, Gaussian, Inc.),
 the Gaussian 92(TM) system (copyright 1992, Gaussian, Inc.),
 the Gaussian 90(TM) system (copyright 1990, Gaussian, Inc.),
 the Gaussian 88(TM) system (copyright 1988, Gaussian, Inc.),
 the Gaussian 86(TM) system (copyright 1986, Carnegie Mellon
 University), and the Gaussian 82(TM) system (copyright 1983,
 Carnegie Mellon University). Gaussian is a federally registered
 trademark of Gaussian, Inc.
  
 This software contains proprietary and confidential information,
 including trade secrets, belonging to Gaussian, Inc.
  
 This software is provided under written license and may be
 used, copied, transmitted, or stored only in accord with that
 written license.
  
 The following legend is applicable only to US Government
 contracts under FAR:
  
                    RESTRICTED RIGHTS LEGEND
  
 Use, reproduction and disclosure by the US Government is
 subject to restrictions as set forth in subparagraphs (a)
 and (c) of the Commercial Computer Software - Restricted
 Rights clause in FAR 52.227-19.
  
 Gaussian, Inc.
 340 Quinnipiac St., Bldg. 40, Wallingford CT 06492
  
  
 ---------------------------------------------------------------
 Warning -- This program may not be used in any manner that
 competes with the business of Gaussian, Inc. or will provide
 assistance to any competitor of Gaussian, Inc.  The licensee
 of this program is prohibited from giving any competitor of
 Gaussian, Inc. access to this program.  By using this program,
 the user acknowledges that Gaussian, Inc. is engaged in the
 business of creating and licensing software in the field of
 computational chemistry and represents and warrants to the
 licensee that it is not a competitor of Gaussian, Inc. and that
 it will not use this program in any manner prohibited above.
 ---------------------------------------------------------------
  

 Cite this work as:
 Gaussian 16, Revision B.01,
 M. J. Frisch, G. W. Trucks, H. B. Schlegel, G. E. Scuseria, 
 M. A. Robb, J. R. Cheeseman, G. Scalmani, V. Barone, 
 G. A. Petersson, H. Nakatsuji, X. Li, M. Caricato, A. V. Marenich, 
 J. Bloino, B. G. Janesko, R. Gomperts, B. Mennucci, H. P. Hratchian, 
 J. V. Ortiz, A. F. Izmaylov, J. L. Sonnenberg, D. Williams-Young, 
 F. Ding, F. Lipparini, F. Egidi, J. Goings, B. Peng, A. Petrone, 
 T. Henderson, D. Ranasinghe, V. G. Zakrzewski, J. Gao, N. Rega, 
 G. Zheng, W. Liang, M. Hada, M. Ehara, K. Toyota, R. Fukuda, 
 J. Hasegawa, M. Ishida, T. Nakajima, Y. Honda, O. Kitao, H. Nakai, 
 T. Vreven, K. Throssell, J. A. Montgomery, Jr., J. E. Peralta, 
 F. Ogliaro, M. J. Bearpark, J. J. Heyd, E. N. Brothers, K. N. Kudin, 
 V. N. Staroverov, T. A. Keith, R. Kobayashi, J. Normand, 
 K. Raghavachari, A. P. Rendell, J. C. Burant, S. S. Iyengar, 
 J. Tomasi, M. Cossi, J. M. Millam, M. Klene, C. Adamo, R. Cammi, 
 J. W. Ochterski, R. L. Martin, K. Morokuma, O. Farkas, 
 J. B. Foresman, and D. J. Fox, Gaussian, Inc., Wallingford CT, 2016.
 
 ******************************************
 Gaussian 16:  ES64L-G16RevB.01 20-Dec-2017
                18-Jan-2022 
 ******************************************
 %nproc=28
 Will use up to   28 processors via shared memory.
 %mem=120GB
 %chk=/gscratch/ilahie/mccoygrp/coire_hoono/hono/hono_r1_pert.chk
 ------------------------------------------------------
 #p freq opt=(z-matrix) mp2/aug-cc-pvtz density=current
 ------------------------------------------------------
 1/10=7,18=40,38=1/1,3;
 2/12=2,17=6,18=5,29=3,40=1/2;
 3/5=16,6=1,7=10,11=9,25=1,30=1,71=1/1,2,3;
 4//1;
 5/5=2,38=5/2;
 8/6=4,10=1/1;
 9/15=2,16=-3/6;
 10/5=1/2;
 6/7=2,8=2,9=2,10=2,22=-1/1;
 7/12=2,29=1/1,2,3,16;
 1/10=7,18=40/3(2);
 2/29=3/2;
 99//99;
 2/29=3/2;
 3/5=16,6=1,7=10,11=9,25=1,30=1,71=1/1,2,3;
 4/5=5,16=3,69=1/1;
 5/5=2,38=5/2;
 8/6=4,10=1/1;
 9/15=2,16=-3/6;
 10/5=1/2;
 7/12=2/1,2,3,16;
 1/18=40/3(-8);
 2/29=3/2;
 6/7=2,8=2,9=2,10=2,22=-1/1;
 99/9=10/99;
 Leave Link    1 at Tue Jan 18 14:05:05 2022, MaxMem= 16106127360 cpu:               3.0 elap:               0.1
 (Enter /sw/contrib/gaussian/g16/B01/g16/l101.exe)
 -----
 title
 -----
 Symbolic Z-matrix:
 Charge =  0 Multiplicity = 1
 H
 O                    1    r1
 N                    2    r2       1    a1
 O                    3    r3       2    a2       1    d1       0
       Variables:
  r1                    0.92026Scan 2     0.05   
  r2                    1.42776 -1        0.     
  r3                    1.1768  -1        0.     
  a1                  101.62779 -1        0.     
  a2                  110.70859 -1        0.     
  d1                  180.      -1        0.     
 
 ITRead=  0  0  0  0
 MicOpt= -1 -1 -1 -1
 NAtoms=      4 NQM=        4 NQMF=       0 NMMI=      0 NMMIF=      0
                NMic=       0 NMicF=      0.
                    Isotopes and Nuclear Properties:
 (Nuclear quadrupole moments (NQMom) in fm**2, nuclear magnetic moments (NMagM)
  in nuclear magnetons)

  Atom         1           2           3           4
 IAtWgt=           1          16          14          16
 AtmWgt=   1.0078250  15.9949146  14.0030740  15.9949146
 NucSpn=           1           0           2           0
 AtZEff=  -0.0000000  -0.0000000  -0.0000000  -0.0000000
 NQMom=    0.0000000   0.0000000   2.0440000   0.0000000
 NMagM=    2.7928460   0.0000000   0.4037610   0.0000000
 AtZNuc=   1.0000000   8.0000000   7.0000000   8.0000000
 Leave Link  101 at Tue Jan 18 14:05:06 2022, MaxMem= 16106127360 cpu:               4.3 elap:               0.2
 (Enter /sw/contrib/gaussian/g16/B01/g16/l103.exe)

 GradGradGradGradGradGradGradGradGradGradGradGradGradGradGradGradGradGrad
 Berny optimization.
 Initialization pass.
                       ----------------------------
                       !    Initial Parameters    !
                       ! (Angstroms and Degrees)  !
 ----------------------                            ----------------------
 !      Name          Value   Derivative information (Atomic Units)     !
 ------------------------------------------------------------------------
 !       r1          0.9203   Scan                                      !
 !       r2          1.4278   Frozen                                    !
 !       r3          1.1768   Frozen                                    !
 !       a1        101.6278   Frozen                                    !
 !       a2        110.7086   Frozen                                    !
 !       d1        180.0      Frozen                                    !
 ------------------------------------------------------------------------
 Trust Radius=3.00D-01 FncErr=1.00D-07 GrdErr=1.00D-07 EigMax=2.50D+02 EigMin=1.00D-04
 Number of optimizations in scan=   3
 Number of steps in this run=     20 maximum allowed number of steps=    100.
 GradGradGradGradGradGradGradGradGradGradGradGradGradGradGradGradGradGrad

 Leave Link  103 at Tue Jan 18 14:05:06 2022, MaxMem= 16106127360 cpu:               1.6 elap:               0.1
 (Enter /sw/contrib/gaussian/g16/B01/g16/l202.exe)
 ---------------------------------------------------------------------------------------------------
                            Z-MATRIX (ANGSTROMS AND DEGREES)
   CD    Cent   Atom    N1       Length/X        N2       Alpha/Y        N3        Beta/Z          J
 ---------------------------------------------------------------------------------------------------
      1      1  H 
      2      2  O        1   0.920263(     1)
      3      3  N        2   1.427764(     2)      1  101.628(     4)
      4      4  O        3   1.176802(     3)      2  110.709(     5)      1  180.000(     6)      0
 ---------------------------------------------------------------------------------------------------
                         Z-Matrix orientation:                         
 ---------------------------------------------------------------------
 Center     Atomic      Atomic             Coordinates (Angstroms)
 Number     Number       Type             X           Y           Z
 ---------------------------------------------------------------------
      1          1           0        0.000000    0.000000    0.000000
      2          8           0        0.000000    0.000000    0.920263
      3          7           0        1.398463    0.000000    1.208033
      4          8           0        1.584195    0.000000    2.370086
 ---------------------------------------------------------------------
                    Distance matrix (angstroms):
                    1          2          3          4
     1  H    0.000000
     2  O    0.920263   0.000000
     3  N    1.847983   1.427764   0.000000
     4  O    2.850786   2.147478   1.176802   0.000000
 Stoichiometry    HNO2
 Framework group  CS[SG(HNO2)]
 Deg. of freedom     5
 Full point group                 CS      NOp   2
 Largest Abelian subgroup         CS      NOp   2
 Largest concise Abelian subgroup C1      NOp   1
                         Standard orientation:                         
 ---------------------------------------------------------------------
 Center     Atomic      Atomic             Coordinates (Angstroms)
 Number     Number       Type             X           Y           Z
 ---------------------------------------------------------------------
      1          1           0       -1.717652   -0.160120   -0.000000
      2          8           0       -0.901603   -0.585500   -0.000000
      3          7           0       -0.000000    0.521579    0.000000
      4          8           0        1.116310    0.149133    0.000000
 ---------------------------------------------------------------------
 Rotational constants (GHZ):          93.2576394          12.6028638          11.1024725
 Leave Link  202 at Tue Jan 18 14:05:06 2022, MaxMem= 16106127360 cpu:               3.0 elap:               0.2
 (Enter /sw/contrib/gaussian/g16/B01/g16/l301.exe)
 Standard basis: Aug-CC-pVTZ (5D, 7F)
 Ernie: Thresh=  0.10000D-02 Tol=  0.10000D-05 Strict=F.
 Ernie:  9 primitive shells out of 101 were deleted.
 There are   129 symmetry adapted cartesian basis functions of A'  symmetry.
 There are    61 symmetry adapted cartesian basis functions of A"  symmetry.
 There are   106 symmetry adapted basis functions of A'  symmetry.
 There are    55 symmetry adapted basis functions of A"  symmetry.
   161 basis functions,   243 primitive gaussians,   190 cartesian basis functions
    12 alpha electrons       12 beta electrons
       nuclear repulsion energy        69.7976695489 Hartrees.
 IExCor=    0 DFT=F Ex=HF Corr=None ExCW=0 ScaHFX=  1.000000
 ScaDFX=  1.000000  1.000000  1.000000  1.000000 ScalE2=  1.000000  1.000000
 IRadAn=      5 IRanWt=     -1 IRanGd=            0 ICorTp=0 IEmpDi=  4
 NAtoms=    4 NActive=    4 NUniq=    4 SFac= 1.00D+00 NAtFMM=   60 NAOKFM=F Big=F
 Integral buffers will be    131072 words long.
 Raffenetti 1 integral format.
 Two-electron integral symmetry is turned on.
 Leave Link  301 at Tue Jan 18 14:05:06 2022, MaxMem= 16106127360 cpu:               2.4 elap:               0.1
 (Enter /sw/contrib/gaussian/g16/B01/g16/l302.exe)
 NPDir=0 NMtPBC=     1 NCelOv=     1 NCel=       1 NClECP=     1 NCelD=      1
         NCelK=      1 NCelE2=     1 NClLst=     1 CellRange=     0.0.
 One-electron integrals computed using PRISM.
 One-electron integral symmetry used in STVInt
 NBasis=   161 RedAO= T EigKep=  1.95D-04  NBF=   106    55
 NBsUse=   161 1.00D-06 EigRej= -1.00D+00 NBFU=   106    55
 Leave Link  302 at Tue Jan 18 14:05:07 2022, MaxMem= 16106127360 cpu:               6.7 elap:               0.3
 (Enter /sw/contrib/gaussian/g16/B01/g16/l303.exe)
 DipDrv:  MaxL=1.
 Leave Link  303 at Tue Jan 18 14:05:07 2022, MaxMem= 16106127360 cpu:               1.1 elap:               0.1
 (Enter /sw/contrib/gaussian/g16/B01/g16/l401.exe)
 ExpMin= 2.53D-02 ExpMax= 1.53D+04 ExpMxC= 5.22D+02 IAcc=3 IRadAn=         5 AccDes= 0.00D+00
 Harris functional with IExCor=  205 and IRadAn=       5 diagonalized for initial guess.
 HarFok:  IExCor=  205 AccDes= 0.00D+00 IRadAn=         5 IDoV= 1 UseB2=F ITyADJ=14
 ICtDFT=  3500011 ScaDFX=  1.000000  1.000000  1.000000  1.000000
 FoFCou: FMM=F IPFlag=           0 FMFlag=      100000 FMFlg1=           0
         NFxFlg=           0 DoJE=T BraDBF=F KetDBF=T FulRan=T
         wScrn=  0.000000 ICntrl=       500 IOpCl=  0 I1Cent=   200000004 NGrid=           0
         NMat0=    1 NMatS0=      1 NMatT0=    0 NMatD0=    1 NMtDS0=    0 NMtDT0=    0
 Petite list used in FoFCou.
 Harris En= -204.817468302277    
 JPrj=0 DoOrth=F DoCkMO=F.
 Initial guess orbital symmetries:
       Occupied  (A') (A') (A') (A') (A') (A') (A') (A') (A") (A')
                 (A") (A')
       Virtual   (A") (A') (A') (A') (A') (A") (A') (A') (A') (A")
                 (A') (A") (A') (A') (A") (A') (A') (A') (A') (A')
                 (A") (A') (A") (A') (A') (A') (A") (A") (A') (A')
                 (A") (A') (A') (A") (A") (A') (A') (A') (A") (A')
                 (A') (A") (A') (A') (A") (A') (A') (A") (A') (A')
                 (A") (A') (A') (A") (A') (A") (A') (A") (A') (A")
                 (A') (A') (A") (A') (A') (A") (A') (A') (A") (A")
                 (A') (A') (A') (A") (A') (A") (A') (A') (A") (A")
                 (A') (A') (A') (A") (A') (A') (A") (A") (A') (A')
                 (A') (A') (A") (A') (A') (A") (A') (A") (A") (A')
                 (A") (A') (A') (A') (A') (A") (A') (A") (A") (A')
                 (A') (A') (A") (A') (A') (A") (A') (A") (A') (A')
                 (A') (A') (A") (A') (A") (A") (A') (A') (A") (A")
                 (A') (A") (A') (A') (A") (A") (A") (A') (A") (A')
                 (A') (A') (A') (A') (A') (A') (A') (A') (A')
 The electronic state of the initial guess is 1-A'.
 Leave Link  401 at Tue Jan 18 14:05:07 2022, MaxMem= 16106127360 cpu:               8.1 elap:               0.4
 (Enter /sw/contrib/gaussian/g16/B01/g16/l502.exe)
 Keep R1 ints in memory in symmetry-blocked form, NReq=128070121.
 FoFCou: FMM=F IPFlag=           0 FMFlag=           0 FMFlg1=           0
         NFxFlg=           0 DoJE=F BraDBF=F KetDBF=F FulRan=T
         wScrn=  0.000000 ICntrl=       600 IOpCl=  0 I1Cent=           0 NGrid=           0
         NMat0=    1 NMatS0=  13041 NMatT0=    0 NMatD0=    1 NMtDS0=    0 NMtDT0=    0
 Petite list used in FoFCou.
 Closed shell SCF:
 Using DIIS extrapolation, IDIIS=  1040.
 NGot= 16106127360 LenX= 16063019402 LenY= 16062982861
 Requested convergence on RMS density matrix=1.00D-08 within 128 cycles.
 Requested convergence on MAX density matrix=1.00D-06.
 Requested convergence on             energy=1.00D-06.
 No special actions if energy rises.

 Cycle   1  Pass 1  IDiag  1:
 E= -204.609610490779    
 DIIS: error= 2.73D-02 at cycle   1 NSaved=   1.
 NSaved= 1 IEnMin= 1 EnMin= -204.609610490779     IErMin= 1 ErrMin= 2.73D-02
 ErrMax= 2.73D-02  0.00D+00 EMaxC= 1.00D-01 BMatC= 3.63D-01 BMatP= 3.63D-01
 IDIUse=3 WtCom= 7.27D-01 WtEn= 2.73D-01
 Coeff-Com:  0.100D+01
 Coeff-En:   0.100D+01
 Coeff:      0.100D+01
 Gap=     0.508 Goal=   None    Shift=    0.000
 GapD=    0.508 DampG=2.000 DampE=0.500 DampFc=1.0000 IDamp=-1.
 RMSDP=2.09D-03 MaxDP=1.24D-01              OVMax= 1.05D-01

 Cycle   2  Pass 1  IDiag  1:
 E= -204.676061851122     Delta-E=       -0.066451360344 Rises=F Damp=F
 DIIS: error= 2.21D-02 at cycle   2 NSaved=   2.
 NSaved= 2 IEnMin= 2 EnMin= -204.676061851122     IErMin= 2 ErrMin= 2.21D-02
 ErrMax= 2.21D-02  0.00D+00 EMaxC= 1.00D-01 BMatC= 7.22D-02 BMatP= 3.63D-01
 IDIUse=3 WtCom= 7.79D-01 WtEn= 2.21D-01
 Coeff-Com:  0.241D+00 0.759D+00
 Coeff-En:   0.126D+00 0.874D+00
 Coeff:      0.216D+00 0.784D+00
 Gap=     0.512 Goal=   None    Shift=    0.000
 RMSDP=1.02D-03 MaxDP=3.77D-02 DE=-6.65D-02 OVMax= 8.85D-02

 Cycle   3  Pass 1  IDiag  1:
 E= -204.712899724626     Delta-E=       -0.036837873503 Rises=F Damp=F
 DIIS: error= 6.92D-03 at cycle   3 NSaved=   3.
 NSaved= 3 IEnMin= 3 EnMin= -204.712899724626     IErMin= 3 ErrMin= 6.92D-03
 ErrMax= 6.92D-03  0.00D+00 EMaxC= 1.00D-01 BMatC= 1.49D-02 BMatP= 7.22D-02
 IDIUse=3 WtCom= 9.31D-01 WtEn= 6.92D-02
 Coeff-Com: -0.359D-01 0.292D+00 0.744D+00
 Coeff-En:   0.000D+00 0.612D-01 0.939D+00
 Coeff:     -0.334D-01 0.276D+00 0.758D+00
 Gap=     0.496 Goal=   None    Shift=    0.000
 RMSDP=4.06D-04 MaxDP=2.25D-02 DE=-3.68D-02 OVMax= 2.61D-02

 Cycle   4  Pass 1  IDiag  1:
 E= -204.722755646973     Delta-E=       -0.009855922347 Rises=F Damp=F
 DIIS: error= 1.54D-03 at cycle   4 NSaved=   4.
 NSaved= 4 IEnMin= 4 EnMin= -204.722755646973     IErMin= 4 ErrMin= 1.54D-03
 ErrMax= 1.54D-03  0.00D+00 EMaxC= 1.00D-01 BMatC= 2.56D-04 BMatP= 1.49D-02
 IDIUse=3 WtCom= 9.85D-01 WtEn= 1.54D-02
 Coeff-Com: -0.851D-02 0.308D-01 0.143D+00 0.835D+00
 Coeff-En:   0.000D+00 0.000D+00 0.000D+00 0.100D+01
 Coeff:     -0.838D-02 0.303D-01 0.141D+00 0.837D+00
 Gap=     0.491 Goal=   None    Shift=    0.000
 RMSDP=8.09D-05 MaxDP=1.84D-03 DE=-9.86D-03 OVMax= 8.10D-03

 Cycle   5  Pass 1  IDiag  1:
 E= -204.723117504483     Delta-E=       -0.000361857510 Rises=F Damp=F
 DIIS: error= 1.06D-03 at cycle   5 NSaved=   5.
 NSaved= 5 IEnMin= 5 EnMin= -204.723117504483     IErMin= 5 ErrMin= 1.06D-03
 ErrMax= 1.06D-03  0.00D+00 EMaxC= 1.00D-01 BMatC= 6.24D-05 BMatP= 2.56D-04
 IDIUse=3 WtCom= 9.89D-01 WtEn= 1.06D-02
 Coeff-Com:  0.688D-02-0.689D-01-0.156D+00 0.201D+00 0.102D+01
 Coeff-En:   0.000D+00 0.000D+00 0.000D+00 0.000D+00 0.100D+01
 Coeff:      0.680D-02-0.681D-01-0.155D+00 0.198D+00 0.102D+01
 Gap=     0.491 Goal=   None    Shift=    0.000
 RMSDP=6.84D-05 MaxDP=1.65D-03 DE=-3.62D-04 OVMax= 8.84D-03

 Cycle   6  Pass 1  IDiag  1:
 E= -204.723292496172     Delta-E=       -0.000174991689 Rises=F Damp=F
 DIIS: error= 2.35D-04 at cycle   6 NSaved=   6.
 NSaved= 6 IEnMin= 6 EnMin= -204.723292496172     IErMin= 6 ErrMin= 2.35D-04
 ErrMax= 2.35D-04  0.00D+00 EMaxC= 1.00D-01 BMatC= 1.10D-05 BMatP= 6.24D-05
 IDIUse=3 WtCom= 9.98D-01 WtEn= 2.35D-03
 Coeff-Com:  0.669D-03 0.762D-04-0.457D-02-0.196D+00-0.221D-01 0.122D+01
 Coeff-En:   0.000D+00 0.000D+00 0.000D+00 0.000D+00 0.000D+00 0.100D+01
 Coeff:      0.667D-03 0.760D-04-0.456D-02-0.195D+00-0.221D-01 0.122D+01
 Gap=     0.492 Goal=   None    Shift=    0.000
 RMSDP=3.83D-05 MaxDP=7.05D-04 DE=-1.75D-04 OVMax= 4.06D-03

 Cycle   7  Pass 1  IDiag  1:
 E= -204.723331149975     Delta-E=       -0.000038653803 Rises=F Damp=F
 DIIS: error= 1.14D-04 at cycle   7 NSaved=   7.
 NSaved= 7 IEnMin= 7 EnMin= -204.723331149975     IErMin= 7 ErrMin= 1.14D-04
 ErrMax= 1.14D-04  0.00D+00 EMaxC= 1.00D-01 BMatC= 1.72D-06 BMatP= 1.10D-05
 IDIUse=3 WtCom= 9.99D-01 WtEn= 1.14D-03
 Coeff-Com: -0.120D-02 0.118D-01 0.315D-01-0.440D-01-0.133D+00-0.100D+00
 Coeff-Com:  0.124D+01
 Coeff-En:   0.000D+00 0.000D+00 0.000D+00 0.000D+00 0.000D+00 0.000D+00
 Coeff-En:   0.100D+01
 Coeff:     -0.120D-02 0.118D-01 0.314D-01-0.440D-01-0.133D+00-0.100D+00
 Coeff:      0.124D+01
 Gap=     0.492 Goal=   None    Shift=    0.000
 RMSDP=1.51D-05 MaxDP=3.28D-04 DE=-3.87D-05 OVMax= 1.76D-03

 Cycle   8  Pass 1  IDiag  1:
 E= -204.723336571853     Delta-E=       -0.000005421879 Rises=F Damp=F
 DIIS: error= 4.40D-05 at cycle   8 NSaved=   8.
 NSaved= 8 IEnMin= 8 EnMin= -204.723336571853     IErMin= 8 ErrMin= 4.40D-05
 ErrMax= 4.40D-05  0.00D+00 EMaxC= 1.00D-01 BMatC= 1.79D-07 BMatP= 1.72D-06
 IDIUse=1 WtCom= 1.00D+00 WtEn= 0.00D+00
 Coeff-Com: -0.390D-04-0.691D-03-0.642D-03 0.176D-01 0.281D-01-0.146D+00
 Coeff-Com: -0.133D+00 0.123D+01
 Coeff:     -0.390D-04-0.691D-03-0.642D-03 0.176D-01 0.281D-01-0.146D+00
 Coeff:     -0.133D+00 0.123D+01
 Gap=     0.492 Goal=   None    Shift=    0.000
 RMSDP=4.74D-06 MaxDP=9.41D-05 DE=-5.42D-06 OVMax= 4.55D-04

 Cycle   9  Pass 1  IDiag  1:
 E= -204.723337077865     Delta-E=       -0.000000506012 Rises=F Damp=F
 DIIS: error= 1.16D-05 at cycle   9 NSaved=   9.
 NSaved= 9 IEnMin= 9 EnMin= -204.723337077865     IErMin= 9 ErrMin= 1.16D-05
 ErrMax= 1.16D-05  0.00D+00 EMaxC= 1.00D-01 BMatC= 1.51D-08 BMatP= 1.79D-07
 IDIUse=1 WtCom= 1.00D+00 WtEn= 0.00D+00
 Coeff-Com:  0.106D-03-0.962D-03-0.246D-02-0.119D-02 0.112D-01 0.390D-01
 Coeff-Com: -0.899D-01-0.273D+00 0.132D+01
 Coeff:      0.106D-03-0.962D-03-0.246D-02-0.119D-02 0.112D-01 0.390D-01
 Coeff:     -0.899D-01-0.273D+00 0.132D+01
 Gap=     0.492 Goal=   None    Shift=    0.000
 RMSDP=1.26D-06 MaxDP=3.43D-05 DE=-5.06D-07 OVMax= 9.57D-05

 Cycle  10  Pass 1  IDiag  1:
 E= -204.723337118635     Delta-E=       -0.000000040770 Rises=F Damp=F
 DIIS: error= 2.71D-06 at cycle  10 NSaved=  10.
 NSaved=10 IEnMin=10 EnMin= -204.723337118635     IErMin=10 ErrMin= 2.71D-06
 ErrMax= 2.71D-06  0.00D+00 EMaxC= 1.00D-01 BMatC= 1.30D-09 BMatP= 1.51D-08
 IDIUse=1 WtCom= 1.00D+00 WtEn= 0.00D+00
 Coeff-Com: -0.268D-04 0.313D-03 0.830D-03-0.194D-02-0.468D-02 0.154D-02
 Coeff-Com:  0.401D-01-0.560D-01-0.286D+00 0.131D+01
 Coeff:     -0.268D-04 0.313D-03 0.830D-03-0.194D-02-0.468D-02 0.154D-02
 Coeff:      0.401D-01-0.560D-01-0.286D+00 0.131D+01
 Gap=     0.492 Goal=   None    Shift=    0.000
 RMSDP=3.42D-07 MaxDP=1.21D-05 DE=-4.08D-08 OVMax= 3.08D-05

 Cycle  11  Pass 1  IDiag  1:
 E= -204.723337122167     Delta-E=       -0.000000003532 Rises=F Damp=F
 DIIS: error= 1.14D-06 at cycle  11 NSaved=  11.
 NSaved=11 IEnMin=11 EnMin= -204.723337122167     IErMin=11 ErrMin= 1.14D-06
 ErrMax= 1.14D-06  0.00D+00 EMaxC= 1.00D-01 BMatC= 1.22D-10 BMatP= 1.30D-09
 IDIUse=1 WtCom= 1.00D+00 WtEn= 0.00D+00
 Coeff-Com: -0.235D-06-0.182D-04-0.550D-04 0.459D-03 0.124D-02-0.445D-02
 Coeff-Com: -0.600D-02 0.451D-01-0.142D-01-0.490D+00 0.147D+01
 Coeff:     -0.235D-06-0.182D-04-0.550D-04 0.459D-03 0.124D-02-0.445D-02
 Coeff:     -0.600D-02 0.451D-01-0.142D-01-0.490D+00 0.147D+01
 Gap=     0.492 Goal=   None    Shift=    0.000
 RMSDP=1.13D-07 MaxDP=4.30D-06 DE=-3.53D-09 OVMax= 1.09D-05

 Cycle  12  Pass 1  IDiag  1:
 E= -204.723337122543     Delta-E=       -0.000000000376 Rises=F Damp=F
 DIIS: error= 1.88D-07 at cycle  12 NSaved=  12.
 NSaved=12 IEnMin=12 EnMin= -204.723337122543     IErMin=12 ErrMin= 1.88D-07
 ErrMax= 1.88D-07  0.00D+00 EMaxC= 1.00D-01 BMatC= 6.35D-12 BMatP= 1.22D-10
 IDIUse=1 WtCom= 1.00D+00 WtEn= 0.00D+00
 Coeff-Com:  0.213D-05-0.201D-04-0.493D-04-0.474D-04 0.540D-04 0.164D-02
 Coeff-Com: -0.193D-02-0.120D-01 0.359D-01 0.464D-01-0.477D+00 0.141D+01
 Coeff:      0.213D-05-0.201D-04-0.493D-04-0.474D-04 0.540D-04 0.164D-02
 Coeff:     -0.193D-02-0.120D-01 0.359D-01 0.464D-01-0.477D+00 0.141D+01
 Gap=     0.492 Goal=   None    Shift=    0.000
 RMSDP=3.06D-08 MaxDP=7.00D-07 DE=-3.76D-10 OVMax= 2.51D-06

 Cycle  13  Pass 1  IDiag  1:
 E= -204.723337122563     Delta-E=       -0.000000000020 Rises=F Damp=F
 DIIS: error= 4.14D-08 at cycle  13 NSaved=  13.
 NSaved=13 IEnMin=13 EnMin= -204.723337122563     IErMin=13 ErrMin= 4.14D-08
 ErrMax= 4.14D-08  0.00D+00 EMaxC= 1.00D-01 BMatC= 1.89D-13 BMatP= 6.35D-12
 IDIUse=1 WtCom= 1.00D+00 WtEn= 0.00D+00
 Coeff-Com: -0.407D-06 0.511D-05 0.129D-04-0.192D-04-0.748D-04-0.854D-04
 Coeff-Com:  0.734D-03-0.176D-03-0.507D-02 0.105D-01 0.293D-01-0.298D+00
 Coeff-Com:  0.126D+01
 Coeff:     -0.407D-06 0.511D-05 0.129D-04-0.192D-04-0.748D-04-0.854D-04
 Coeff:      0.734D-03-0.176D-03-0.507D-02 0.105D-01 0.293D-01-0.298D+00
 Coeff:      0.126D+01
 Gap=     0.492 Goal=   None    Shift=    0.000
 RMSDP=5.24D-09 MaxDP=8.71D-08 DE=-2.00D-11 OVMax= 3.96D-07

 SCF Done:  E(RHF) =  -204.723337123     A.U. after   13 cycles
            NFock= 13  Conv=0.52D-08     -V/T= 2.0019
 KE= 2.043436167244D+02 PE=-6.235652160061D+02 EE= 1.447005926102D+02
 Leave Link  502 at Tue Jan 18 14:05:09 2022, MaxMem= 16106127360 cpu:              34.8 elap:               1.7
 (Enter /sw/contrib/gaussian/g16/B01/g16/l801.exe)
 ExpMin= 2.53D-02 ExpMax= 1.53D+04 ExpMxC= 5.22D+02 IAcc=3 IRadAn=         5 AccDes= 0.00D+00
 HarFok:  IExCor=  205 AccDes= 0.00D+00 IRadAn=         5 IDoV=-2 UseB2=F ITyADJ=14
 ICtDFT= 12500011 ScaDFX=  1.000000  1.000000  1.000000  1.000000
 Largest valence mixing into a core orbital is  2.06D-04
 Largest core mixing into a valence orbital is  3.21D-05
 Range of M.O.s used for correlation:     4   161
 NBasis=   161 NAE=    12 NBE=    12 NFC=     3 NFV=     0
 NROrb=    158 NOA=     9 NOB=     9 NVA=   149 NVB=   149

 **** Warning!!: The largest alpha MO coefficient is  0.19685346D+02

 Leave Link  801 at Tue Jan 18 14:05:10 2022, MaxMem= 16106127360 cpu:               7.8 elap:               0.4
 (Enter /sw/contrib/gaussian/g16/B01/g16/l906.exe)
 Frozen-core derivative calculation, NFC=   3 NFV=   0.
 FulOut=F Deriv=T AODrv=T NAtomX=     4
   MMem=         161  MDisk=           9 MDiskD=           9
  W3Min=      367080 MinDsk=      792425 NBas6D=         190
 NBas2D=       18625    NTT=       18145    LW2=     3500000
    MDV= 16105787416 MDiskM=      423783 NBas2p=       18624
 Fully direct method using O(ONN) memory.
 IMap=   1   2   3   4   5   6   7   8   9  10  11  12
 JobTyp=1 Pass  1:  I=   4 to  12 NPSUse= 28 ParTrn=T ParDer=T DoDerP=T.
 Spin components of T(2) and E(2):
     alpha-alpha T2 =       0.2505353987D-01 E2=     -0.9031680100D-01
     alpha-beta  T2 =       0.1360100476D+00 E2=     -0.5148423968D+00
     beta-beta   T2 =       0.2505353987D-01 E2=     -0.9031680100D-01
 The integrals were generated   1 times.
 ANorm=    0.1089090046D+01
 E2 =    -0.6954759988D+00 EUMP2 =    -0.20541881312139D+03
 Leave Link  906 at Tue Jan 18 14:05:18 2022, MaxMem= 16106127360 cpu:             223.5 elap:               8.1
 (Enter /sw/contrib/gaussian/g16/B01/g16/l1002.exe)
 Minotr:  Closed shell wavefunction.
          Computing MP2/KS-MP2 derivatives.
          Using Z-Vector for PSCF gradient.
          Skipping F1 and S1 gradient terms here.
          IDoAtm=1111
          Frozen-core window.
          Direct CPHF calculation.
          Differentiating once with respect to electric field.
                with respect to dipole field.
          Differentiating once with respect to nuclear coordinates.
          Using symmetry in CPHF.
          Requested convergence is 1.0D-10 RMS, and 1.0D-09 maximum.
          NewPWx=F KeepS1=T KeepF1=T KeepIn=T MapXYZ=F SortEE=F KeepMc=T.
 Keep R1 ints in memory in symmetry-blocked form, NReq=128071145.
 FoFCou: FMM=F IPFlag=           0 FMFlag=           0 FMFlg1=           0
         NFxFlg=           0 DoJE=F BraDBF=F KetDBF=F FulRan=T
         wScrn=  0.000000 ICntrl=       600 IOpCl=  0 I1Cent=           0 NGrid=           0
         NMat0=    1 NMatS0=  13041 NMatT0=    0 NMatD0=    1 NMtDS0=    0 NMtDT0=    0
 Petite list used in FoFCou.
          MDV=   16106127360 using IRadAn=       5.
          Solving linear equations separately, MaxMat=       0.
          There are     1 degrees of freedom in the 1st order CPHF.  IDoFFX=0 NUNeed=     1.
 LinEq1:  Iter=  0 NonCon=     1 RMS=6.56D-03 Max=1.31D-01 NDo=     1
 AX will form     1 AO Fock derivatives at one time.
 LinEq1:  Iter=  1 NonCon=     1 RMS=2.24D-03 Max=4.03D-02 NDo=     1
 LinEq1:  Iter=  2 NonCon=     1 RMS=9.04D-04 Max=1.19D-02 NDo=     1
 LinEq1:  Iter=  3 NonCon=     1 RMS=4.37D-04 Max=8.65D-03 NDo=     1
 LinEq1:  Iter=  4 NonCon=     1 RMS=1.35D-04 Max=1.56D-03 NDo=     1
 LinEq1:  Iter=  5 NonCon=     1 RMS=6.12D-05 Max=9.93D-04 NDo=     1
 LinEq1:  Iter=  6 NonCon=     1 RMS=2.24D-05 Max=2.61D-04 NDo=     1
 LinEq1:  Iter=  7 NonCon=     1 RMS=5.66D-06 Max=5.79D-05 NDo=     1
 LinEq1:  Iter=  8 NonCon=     1 RMS=1.37D-06 Max=1.57D-05 NDo=     1
 LinEq1:  Iter=  9 NonCon=     1 RMS=2.52D-07 Max=1.86D-06 NDo=     1
 LinEq1:  Iter= 10 NonCon=     1 RMS=4.64D-08 Max=3.81D-07 NDo=     1
 LinEq1:  Iter= 11 NonCon=     1 RMS=7.59D-09 Max=8.16D-08 NDo=     1
 LinEq1:  Iter= 12 NonCon=     1 RMS=1.02D-09 Max=6.07D-09 NDo=     1
 LinEq1:  Iter= 13 NonCon=     1 RMS=2.15D-10 Max=2.24D-09 NDo=     1
 LinEq1:  Iter= 14 NonCon=     0 RMS=4.11D-11 Max=3.17D-10 NDo=     1
 Linear equations converged to 1.000D-10 1.000D-09 after    14 iterations.
 End of Minotr F.D. properties file   721 does not exist.
 End of Minotr F.D. properties file   722 does not exist.
 End of Minotr F.D. properties file   788 does not exist.
 Leave Link 1002 at Tue Jan 18 14:05:20 2022, MaxMem= 16106127360 cpu:              36.4 elap:               1.9
 (Enter /sw/contrib/gaussian/g16/B01/g16/l601.exe)
 Copying SCF densities to generalized density rwf, IOpCl= 0 IROHF=0.

 **********************************************************************

            Population analysis using the MP2 Density.

 **********************************************************************

 Orbital symmetries:
       Occupied  (A') (A') (A') (A') (A') (A') (A') (A') (A") (A')
                 (A") (A')
       Virtual   (A') (A") (A') (A') (A") (A') (A') (A') (A") (A')
                 (A") (A') (A') (A") (A') (A') (A') (A') (A') (A")
                 (A') (A') (A") (A') (A') (A') (A") (A") (A') (A')
                 (A') (A") (A") (A') (A") (A') (A') (A") (A') (A')
                 (A') (A') (A') (A") (A") (A') (A') (A") (A') (A')
                 (A") (A') (A") (A') (A') (A") (A') (A") (A') (A")
                 (A') (A') (A") (A') (A') (A") (A') (A') (A") (A")
                 (A') (A') (A') (A") (A') (A") (A') (A') (A") (A')
                 (A") (A') (A') (A") (A') (A") (A') (A") (A') (A')
                 (A') (A') (A") (A') (A') (A') (A") (A") (A") (A')
                 (A') (A") (A') (A') (A') (A") (A") (A') (A") (A')
                 (A') (A') (A") (A') (A') (A") (A') (A") (A') (A')
                 (A') (A') (A") (A') (A") (A") (A') (A') (A") (A')
                 (A") (A") (A') (A') (A") (A") (A') (A") (A") (A')
                 (A') (A') (A') (A') (A') (A') (A') (A') (A')
 The electronic state is 1-A'.
 Alpha  occ. eigenvalues --  -20.66644 -20.63808 -15.79998  -1.60476  -1.41463
 Alpha  occ. eigenvalues --   -0.95405  -0.79242  -0.73128  -0.68287  -0.63195
 Alpha  occ. eigenvalues --   -0.53055  -0.46319
 Alpha virt. eigenvalues --    0.02886   0.07952   0.09370   0.09729   0.12849
 Alpha virt. eigenvalues --    0.14644   0.15650   0.17229   0.18636   0.19619
 Alpha virt. eigenvalues --    0.20543   0.23378   0.26103   0.29844   0.30694
 Alpha virt. eigenvalues --    0.32960   0.36379   0.38464   0.43689   0.52457
 Alpha virt. eigenvalues --    0.52612   0.54820   0.57316   0.61167   0.63070
 Alpha virt. eigenvalues --    0.65283   0.67992   0.71571   0.71928   0.74894
 Alpha virt. eigenvalues --    0.77551   0.78100   0.81082   0.81098   0.86148
 Alpha virt. eigenvalues --    0.88010   0.93298   0.94096   0.94707   1.00227
 Alpha virt. eigenvalues --    1.05324   1.07162   1.08809   1.10968   1.16394
 Alpha virt. eigenvalues --    1.19523   1.25169   1.26937   1.36732   1.44068
 Alpha virt. eigenvalues --    1.50412   1.52103   1.52499   1.54488   1.56589
 Alpha virt. eigenvalues --    1.61339   1.65775   1.73197   1.75104   1.82202
 Alpha virt. eigenvalues --    1.85654   1.96951   1.97758   2.00549   2.08315
 Alpha virt. eigenvalues --    2.13161   2.14287   2.19643   2.27554   2.31841
 Alpha virt. eigenvalues --    2.32948   2.38439   2.45421   2.46426   2.49281
 Alpha virt. eigenvalues --    2.50136   2.52221   2.55889   2.57614   2.60341
 Alpha virt. eigenvalues --    2.60954   2.67279   2.76191   2.78086   2.81949
 Alpha virt. eigenvalues --    2.94009   2.94635   3.11945   3.15293   3.17899
 Alpha virt. eigenvalues --    3.25467   3.47094   3.85844   3.88942   4.04656
 Alpha virt. eigenvalues --    4.19126   4.21633   4.23131   4.39277   4.41154
 Alpha virt. eigenvalues --    4.59171   4.63748   4.79781   4.82727   4.88462
 Alpha virt. eigenvalues --    4.89032   5.00561   5.01030   5.08248   5.11906
 Alpha virt. eigenvalues --    5.21844   5.26347   5.26982   5.38739   5.45139
 Alpha virt. eigenvalues --    5.47515   5.60094   5.66676   5.82048   5.99829
 Alpha virt. eigenvalues --    6.12058   6.44327   6.50766   6.51244   6.67448
 Alpha virt. eigenvalues --    6.72472   6.74616   6.85847   6.91515   7.10285
 Alpha virt. eigenvalues --    7.11615   7.22059   7.24580   7.30669   7.32970
 Alpha virt. eigenvalues --    7.33558   7.41043   7.43874   7.47829   7.62160
 Alpha virt. eigenvalues --    7.66298   7.75372   7.80416   8.03335   8.08889
 Alpha virt. eigenvalues --    8.50399  14.32767  15.68962  16.16314
          Condensed to atoms (all electrons):
               1          2          3          4
     1  H    0.644863   0.163363  -0.049929   0.013904
     2  O    0.163363   8.259757  -0.135414  -0.058731
     3  N   -0.049929  -0.135414   7.045051  -0.041546
     4  O    0.013904  -0.058731  -0.041546   8.267035
 Mulliken charges:
               1
     1  H    0.227799
     2  O   -0.228975
     3  N    0.181838
     4  O   -0.180662
 Sum of Mulliken charges =  -0.00000
 Mulliken charges with hydrogens summed into heavy atoms:
               1
     2  O   -0.001176
     3  N    0.181838
     4  O   -0.180662
 Electronic spatial extent (au):  <R**2>=            123.0056
 Charge=             -0.0000 electrons
 Dipole moment (field-independent basis, Debye):
    X=             -1.6856    Y=              0.6519    Z=             -0.0000  Tot=              1.8072
 Quadrupole moment (field-independent basis, Debye-Ang):
   XX=            -13.8215   YY=            -18.6456   ZZ=            -16.3916
   XY=             -0.5504   XZ=             -0.0000   YZ=             -0.0000
 Traceless Quadrupole moment (field-independent basis, Debye-Ang):
   XX=              2.4647   YY=             -2.3593   ZZ=             -0.1053
   XY=             -0.5504   XZ=             -0.0000   YZ=             -0.0000
 Octapole moment (field-independent basis, Debye-Ang**2):
  XXX=             -9.6551  YYY=             -1.0505  ZZZ=              0.0000  XYY=              0.9136
  XXY=             -0.4232  XXZ=             -0.0000  XZZ=              0.9340  YZZ=              0.1904
  YYZ=              0.0000  XYZ=              0.0000
 Hexadecapole moment (field-independent basis, Debye-Ang**3):
 XXXX=            -72.2380 YYYY=            -39.2210 ZZZZ=            -13.8129 XXXY=            -11.8645
 XXXZ=             -0.0000 YYYX=            -11.7576 YYYZ=             -0.0000 ZZZX=             -0.0000
 ZZZY=             -0.0000 XXYY=            -21.9654 XXZZ=            -17.2559 YYZZ=             -8.6680
 XXYZ=             -0.0000 YYXZ=             -0.0000 ZZXY=             -4.1529
 N-N= 6.979766954889D+01 E-N=-6.241597230819D+02  KE= 2.053342488104D+02
 Symmetry A'   KE= 1.965050213671D+02
 Symmetry A"   KE= 8.829227443340D+00
 No NMR shielding tensors so no spin-rotation constants.
 Leave Link  601 at Tue Jan 18 14:05:20 2022, MaxMem= 16106127360 cpu:               4.9 elap:               0.2
 (Enter /sw/contrib/gaussian/g16/B01/g16/l701.exe)
 ... and contract with generalized density number  2.
 Compute integral first derivatives.
 Leave Link  701 at Tue Jan 18 14:05:21 2022, MaxMem= 16106127360 cpu:               9.8 elap:               0.4
 (Enter /sw/contrib/gaussian/g16/B01/g16/l702.exe)
 L702 exits ... SP integral derivatives will be done elsewhere.
 Leave Link  702 at Tue Jan 18 14:05:21 2022, MaxMem= 16106127360 cpu:               1.6 elap:               0.1
 (Enter /sw/contrib/gaussian/g16/B01/g16/l703.exe)
 Integral derivatives from FoFJK, PRISM(SPDF).
 Compute integral first derivatives, UseDBF=F ICtDFT=           0.
 Calling FoFJK, ICntrl=  10002127 FMM=F ISym2X=1 I1Cent= 0 IOpClX= 0 NMat=1 NMatS=1 NMatT=0.
 FoFJK:  IHMeth= 1 ICntrl=10002127 DoSepK=F KAlg= 0 I1Cent=           0 FoldK=F
 IRaf=         0 NMat=       1 IRICut=       1 DoRegI=T DoRafI=F ISym2E= 1 IDoP0=0 IntGTp=1.
 FoFCou: FMM=F IPFlag=           0 FMFlag=      100000 FMFlg1=         800
         NFxFlg=           0 DoJE=F BraDBF=F KetDBF=F FulRan=T
         wScrn=  0.000000 ICntrl=  10002127 IOpCl=  0 I1Cent=           0 NGrid=           0
         NMat0=    1 NMatS0=      1 NMatT0=    0 NMatD0=    1 NMtDS0=    0 NMtDT0=    0
 Petite list used in FoFCou.
 Leave Link  703 at Tue Jan 18 14:05:22 2022, MaxMem= 16106127360 cpu:              31.4 elap:               1.2
 (Enter /sw/contrib/gaussian/g16/B01/g16/l716.exe)
 Dipole        =-6.63148748D-01 2.56469637D-01-4.44604935D-32
 ***** Axes restored to original set *****
 -------------------------------------------------------------------
 Center     Atomic                   Forces (Hartrees/Bohr)
 Number     Number              X              Y              Z
 -------------------------------------------------------------------
      1        1          -0.000627364   -0.000000000   -0.057004148
      2        8           0.000884457    0.000000000    0.056089722
      3        7          -0.000885251    0.000000000    0.001159490
      4        8           0.000628158    0.000000000   -0.000245064
 -------------------------------------------------------------------
 Cartesian Forces:  Max     0.057004148 RMS     0.023092727
 -----------------------------------------------------------------------------------------------
                       Internal Coordinate Forces (Hartree/Bohr or radian)
  Cent   Atom   N1       Length/X         N2         Alpha/Y        N3         Beta/Z          J
 -----------------------------------------------------------------------------------------------
      1  H 
      2  O        1   0.057004(     1)
      3  N        2  -0.000068(     2)      1   0.001091(     4)
      4  O        3  -0.000143(     3)      2   0.001465(     5)      1  -0.000000(     6)     0
 -----------------------------------------------------------------------------------------------
 Internal  Forces:  Max     0.057004148 RMS     0.023283884
 Force constants in Cartesian coordinates: 
                1             2             3             4             5 
      1  0.529052D-01
      2  0.000000D+00  0.319684D-02
      3  0.000000D+00  0.000000D+00  0.649797D+00
      4 -0.597782D-01  0.000000D+00  0.000000D+00  0.465279D+00
      5  0.000000D+00 -0.284917D-02  0.000000D+00  0.000000D+00  0.253931D-02
      6  0.334001D-01  0.000000D+00 -0.649797D+00  0.370382D-01  0.000000D+00
      7  0.687295D-02  0.000000D+00  0.000000D+00 -0.413793D+00  0.000000D+00
      8  0.000000D+00 -0.296543D-02  0.000000D+00  0.000000D+00  0.264293D-02
      9 -0.334001D-01  0.000000D+00  0.000000D+00 -0.357128D-01  0.000000D+00
     10  0.000000D+00  0.000000D+00  0.000000D+00  0.829266D-02  0.000000D+00
     11  0.000000D+00  0.261776D-02  0.000000D+00  0.000000D+00 -0.233307D-02
     12  0.000000D+00  0.000000D+00  0.000000D+00 -0.132542D-02  0.000000D+00
                6             7             8             9            10 
      6  0.720613D+00
      7 -0.301389D-01  0.493749D+00
      8  0.000000D+00  0.000000D+00  0.275077D-02
      9 -0.772570D-01  0.203902D+00  0.000000D+00  0.122971D+01
     10 -0.402995D-01 -0.868288D-01  0.000000D+00 -0.134789D+00  0.785361D-01
     11  0.000000D+00  0.000000D+00 -0.242827D-02  0.000000D+00  0.000000D+00
     12  0.644108D-02 -0.173763D+00  0.000000D+00 -0.115246D+01  0.175088D+00
               11            12 
     11  0.214358D-02
     12  0.000000D+00  0.114602D+01
 Force constants in internal coordinates: 
                1             2             3             4             5 
      1  0.649797D+00
      2  0.000000D+00  0.413122D+00
      3  0.000000D+00  0.000000D+00  0.117400D+01
      4  0.000000D+00  0.000000D+00  0.000000D+00  0.160000D+00
      5  0.000000D+00  0.000000D+00  0.000000D+00  0.000000D+00  0.250000D+00
      6  0.000000D+00  0.000000D+00  0.000000D+00  0.000000D+00  0.000000D+00
                6 
      6  0.927536D-02
 Leave Link  716 at Tue Jan 18 14:05:23 2022, MaxMem= 16106127360 cpu:               2.9 elap:               0.1
 (Enter /sw/contrib/gaussian/g16/B01/g16/l103.exe)

 GradGradGradGradGradGradGradGradGradGradGradGradGradGradGradGradGradGrad
 Berny optimization.
 Search for a local minimum.
 Step number   1 out of a maximum of   20 on scan point     1 out of     3
 All quantities printed in internal units (Hartrees-Bohrs-Radians)
 Second derivative matrix not updated -- first step.
 The second derivative matrix:
                          r1        r2        r3        a1        a2
           r1           0.64980
           r2          -0.00000   0.41312
           r3           0.00000   0.00000   1.17400
           a1          -0.00000  -0.00000   0.00000   0.16000
           a2           0.00000  -0.00000  -0.00000   0.00000   0.25000
           d1          -0.00000  -0.00000  -0.00000  -0.00000  -0.00000
                          d1
           d1           0.00928
 ITU=  0
     Eigenvalues --- 1000.000001000.000001000.000001000.000001000.00000
     Eigenvalues --- 1000.00000
 RFO step:  Lambda= 0.00000000D+00 EMin= 1.00000000D+03
 Linear search not attempted -- first point.
 Variable       Old X    -DE/DX   Delta X   Delta X   Delta X     New X
                                 (Linear)    (Quad)   (Total)
    r1        1.73904   0.05700   0.00000   0.00000   0.00000   1.73904
    r2        2.69808  -0.00007   0.00000   0.00000   0.00000   2.69808
    r3        2.22383  -0.00014   0.00000   0.00000   0.00000   2.22383
    a1        1.77374   0.00109   0.00000   0.00000   0.00000   1.77374
    a2        1.93223   0.00147   0.00000   0.00000   0.00000   1.93223
    d1        3.14159  -0.00000   0.00000   0.00000   0.00000   3.14159
         Item               Value     Threshold  Converged?
 Maximum Force            0.000000     0.000450     YES
 RMS     Force            0.000000     0.000300     YES
 Maximum Displacement     0.000000     0.001800     YES
 RMS     Displacement     0.000000     0.001200     YES
 Predicted change in Energy=-0.000000D+00
 Optimization completed.
    -- Stationary point found.
                       ----------------------------
                       !   Optimized Parameters   !
                       ! (Angstroms and Degrees)  !
 ----------------------                            ----------------------
 !      Name          Value   Derivative information (Atomic Units)     !
 ------------------------------------------------------------------------
 !       r1          0.9203   -DE/DX =    0.057                         !
 !       r2          1.4278   -DE/DX =   -0.0001                        !
 !       r3          1.1768   -DE/DX =   -0.0001                        !
 !       a1        101.6278   -DE/DX =    0.0011                        !
 !       a2        110.7086   -DE/DX =    0.0015                        !
 !       d1        180.0      -DE/DX =    0.0                           !
 ------------------------------------------------------------------------
 Lowest energy point so far.  Saving SCF results.
 GradGradGradGradGradGradGradGradGradGradGradGradGradGradGradGradGradGrad

 Leave Link  103 at Tue Jan 18 14:05:23 2022, MaxMem= 16106127360 cpu:               2.5 elap:               0.1
 (Enter /sw/contrib/gaussian/g16/B01/g16/l202.exe)
 ---------------------------------------------------------------------------------------------------
                            Z-MATRIX (ANGSTROMS AND DEGREES)
   CD    Cent   Atom    N1       Length/X        N2       Alpha/Y        N3        Beta/Z          J
 ---------------------------------------------------------------------------------------------------
      1      1  H 
      2      2  O        1   0.970263(     1)
      3      3  N        2   1.427764(     2)      1  101.628(     4)
      4      4  O        3   1.176802(     3)      2  110.709(     5)      1  180.000(     6)      0
 ---------------------------------------------------------------------------------------------------
                         Z-Matrix orientation:                         
 ---------------------------------------------------------------------
 Center     Atomic      Atomic             Coordinates (Angstroms)
 Number     Number       Type             X           Y           Z
 ---------------------------------------------------------------------
      1          1           0        0.000000    0.000000    0.000000
      2          8           0        0.000000    0.000000    0.970263
      3          7           0        1.398463    0.000000    1.258033
      4          8           0        1.584195    0.000000    2.420086
 ---------------------------------------------------------------------
                    Distance matrix (angstroms):
                    1          2          3          4
     1  H    0.000000
     2  O    0.970263   0.000000
     3  N    1.881049   1.427764   0.000000
     4  O    2.892488   2.147478   1.176802   0.000000
 Stoichiometry    HNO2
 Framework group  CS[SG(HNO2)]
 Deg. of freedom     5
 Full point group                 CS      NOp   2
 RotChk:  IX=2 Diff= 5.02D-03
 Largest Abelian subgroup         CS      NOp   2
 Largest concise Abelian subgroup C1      NOp   1
                         Standard orientation:                         
 ---------------------------------------------------------------------
 Center     Atomic      Atomic             Coordinates (Angstroms)
 Number     Number       Type             X           Y           Z
 ---------------------------------------------------------------------
      1          1           0       -1.759642   -0.144216    0.000000
      2          8           0       -0.897669   -0.589652    0.000000
      3          7           0        0.000000    0.520619   -0.000000
      4          8           0        1.117625    0.152137   -0.000000
 ---------------------------------------------------------------------
 Rotational constants (GHZ):          92.6468220          12.5665556          11.0656218
 Leave Link  202 at Tue Jan 18 14:05:23 2022, MaxMem= 16106127360 cpu:               0.4 elap:               0.0
 (Enter /sw/contrib/gaussian/g16/B01/g16/l301.exe)
 Standard basis: Aug-CC-pVTZ (5D, 7F)
 Ernie: Thresh=  0.10000D-02 Tol=  0.10000D-05 Strict=F.
 Ernie:  9 primitive shells out of 101 were deleted.
 There are   129 symmetry adapted cartesian basis functions of A'  symmetry.
 There are    61 symmetry adapted cartesian basis functions of A"  symmetry.
 There are   106 symmetry adapted basis functions of A'  symmetry.
 There are    55 symmetry adapted basis functions of A"  symmetry.
   161 basis functions,   243 primitive gaussians,   190 cartesian basis functions
    12 alpha electrons       12 beta electrons
       nuclear repulsion energy        69.5039632405 Hartrees.
 IExCor=    0 DFT=F Ex=HF Corr=None ExCW=0 ScaHFX=  1.000000
 ScaDFX=  1.000000  1.000000  1.000000  1.000000 ScalE2=  1.000000  1.000000
 IRadAn=      5 IRanWt=     -1 IRanGd=            0 ICorTp=0 IEmpDi=  4
 NAtoms=    4 NActive=    4 NUniq=    4 SFac= 1.00D+00 NAtFMM=   60 NAOKFM=F Big=F
 Integral buffers will be    131072 words long.
 Raffenetti 1 integral format.
 Two-electron integral symmetry is turned on.
 Leave Link  301 at Tue Jan 18 14:05:23 2022, MaxMem= 16106127360 cpu:               2.0 elap:               0.1
 (Enter /sw/contrib/gaussian/g16/B01/g16/l302.exe)
 NPDir=0 NMtPBC=     1 NCelOv=     1 NCel=       1 NClECP=     1 NCelD=      1
         NCelK=      1 NCelE2=     1 NClLst=     1 CellRange=     0.0.
 One-electron integrals computed using PRISM.
 One-electron integral symmetry used in STVInt
 NBasis=   161 RedAO= T EigKep=  1.97D-04  NBF=   106    55
 NBsUse=   161 1.00D-06 EigRej= -1.00D+00 NBFU=   106    55
 Leave Link  302 at Tue Jan 18 14:05:23 2022, MaxMem= 16106127360 cpu:               4.0 elap:               0.2
 (Enter /sw/contrib/gaussian/g16/B01/g16/l303.exe)
 DipDrv:  MaxL=1.
 Leave Link  303 at Tue Jan 18 14:05:23 2022, MaxMem= 16106127360 cpu:               4.0 elap:               0.2
 (Enter /sw/contrib/gaussian/g16/B01/g16/l401.exe)
 Initial guess from the checkpoint file:  "/gscratch/ilahie/mccoygrp/coire_hoono/hono/hono_r1_pert.chk"
 B after Tr=     0.000000   -0.000000    0.000000
         Rot=    1.000000    0.000000   -0.000000   -0.000813 Ang=  -0.09 deg.
 Guess basis will be translated and rotated to current coordinates.
 JPrj=2 DoOrth=T DoCkMO=T.
 Initial guess orbital symmetries:
       Occupied  (A') (A') (A') (A') (A') (A') (A') (A') (A") (A')
                 (A") (A')
       Virtual   (A') (A") (A') (A') (A") (A') (A') (A') (A") (A')
                 (A") (A') (A') (A") (A') (A') (A') (A') (A') (A")
                 (A') (A') (A") (A') (A') (A') (A") (A") (A') (A')
                 (A') (A") (A") (A') (A") (A') (A') (A") (A') (A')
                 (A') (A') (A') (A") (A") (A') (A') (A") (A') (A')
                 (A") (A') (A") (A') (A') (A") (A') (A") (A') (A")
                 (A') (A') (A") (A') (A') (A") (A') (A') (A") (A")
                 (A') (A') (A') (A") (A') (A") (A') (A') (A") (A')
                 (A") (A') (A') (A") (A') (A") (A') (A") (A') (A')
                 (A') (A') (A") (A') (A') (A') (A") (A") (A") (A')
                 (A') (A") (A') (A') (A') (A") (A") (A') (A") (A')
                 (A') (A') (A") (A') (A') (A") (A') (A") (A') (A')
                 (A') (A') (A") (A') (A") (A") (A') (A') (A") (A')
                 (A") (A") (A') (A') (A") (A") (A') (A") (A") (A')
                 (A') (A') (A') (A') (A') (A') (A') (A') (A')
 The electronic state of the initial guess is 1-A'.
 Generating alternative initial guess.
 ExpMin= 2.53D-02 ExpMax= 1.53D+04 ExpMxC= 5.22D+02 IAcc=3 IRadAn=         5 AccDes= 0.00D+00
 Harris functional with IExCor=  205 and IRadAn=       5 diagonalized for initial guess.
 HarFok:  IExCor=  205 AccDes= 0.00D+00 IRadAn=         5 IDoV= 1 UseB2=F ITyADJ=14
 ICtDFT=  3500011 ScaDFX=  1.000000  1.000000  1.000000  1.000000
 FoFCou: FMM=F IPFlag=           0 FMFlag=      100000 FMFlg1=           0
         NFxFlg=           0 DoJE=T BraDBF=F KetDBF=T FulRan=T
         wScrn=  0.000000 ICntrl=       500 IOpCl=  0 I1Cent=   200000004 NGrid=           0
         NMat0=    1 NMatS0=      1 NMatT0=    0 NMatD0=    1 NMtDS0=    0 NMtDT0=    0
 Petite list used in FoFCou.
 Harris En= -204.818464713457    
 Leave Link  401 at Tue Jan 18 14:05:24 2022, MaxMem= 16106127360 cpu:               9.5 elap:               0.4
 (Enter /sw/contrib/gaussian/g16/B01/g16/l502.exe)
 Keep R1 ints in memory in symmetry-blocked form, NReq=128070121.
 FoFCou: FMM=F IPFlag=           0 FMFlag=           0 FMFlg1=           0
         NFxFlg=           0 DoJE=F BraDBF=F KetDBF=F FulRan=T
         wScrn=  0.000000 ICntrl=       600 IOpCl=  0 I1Cent=           0 NGrid=           0
         NMat0=    1 NMatS0=  13041 NMatT0=    0 NMatD0=    1 NMtDS0=    0 NMtDT0=    0
 Petite list used in FoFCou.
 Closed shell SCF:
 Using DIIS extrapolation, IDIIS=  1040.
 NGot= 16106127360 LenX= 16063019402 LenY= 16062982861
 Requested convergence on RMS density matrix=1.00D-08 within 128 cycles.
 Requested convergence on MAX density matrix=1.00D-06.
 Requested convergence on             energy=1.00D-06.
 No special actions if energy rises.

 Cycle   1  Pass 1  IDiag  1:
 E= -204.722546588120    
 DIIS: error= 3.66D-03 at cycle   1 NSaved=   1.
 NSaved= 1 IEnMin= 1 EnMin= -204.722546588120     IErMin= 1 ErrMin= 3.66D-03
 ErrMax= 3.66D-03  0.00D+00 EMaxC= 1.00D-01 BMatC= 1.26D-03 BMatP= 1.26D-03
 IDIUse=3 WtCom= 9.63D-01 WtEn= 3.66D-02
 Coeff-Com:  0.100D+01
 Coeff-En:   0.100D+01
 Coeff:      0.100D+01
 Gap=     0.510 Goal=   None    Shift=    0.000
 GapD=    0.510 DampG=2.000 DampE=1.000 DampFc=2.0000 IDamp=-1.
 RMSDP=2.84D-04 MaxDP=1.39D-02              OVMax= 6.94D-03

 Cycle   2  Pass 1  IDiag  1:
 E= -204.723345635294     Delta-E=       -0.000799047173 Rises=F Damp=F
 DIIS: error= 5.55D-04 at cycle   2 NSaved=   2.
 NSaved= 2 IEnMin= 2 EnMin= -204.723345635294     IErMin= 2 ErrMin= 5.55D-04
 ErrMax= 5.55D-04  0.00D+00 EMaxC= 1.00D-01 BMatC= 5.81D-05 BMatP= 1.26D-03
 IDIUse=3 WtCom= 9.94D-01 WtEn= 5.55D-03
 Coeff-Com: -0.135D-01 0.101D+01
 Coeff-En:   0.000D+00 0.100D+01
 Coeff:     -0.134D-01 0.101D+01
 Gap=     0.489 Goal=   None    Shift=    0.000
 RMSDP=4.35D-05 MaxDP=1.83D-03 DE=-7.99D-04 OVMax= 2.37D-03

 Cycle   3  Pass 1  IDiag  1:
 E= -204.723382679671     Delta-E=       -0.000037044377 Rises=F Damp=F
 DIIS: error= 3.28D-04 at cycle   3 NSaved=   3.
 NSaved= 3 IEnMin= 3 EnMin= -204.723382679671     IErMin= 3 ErrMin= 3.28D-04
 ErrMax= 3.28D-04  0.00D+00 EMaxC= 1.00D-01 BMatC= 1.98D-05 BMatP= 5.81D-05
 IDIUse=3 WtCom= 9.97D-01 WtEn= 3.28D-03
 Coeff-Com: -0.461D-01 0.352D+00 0.694D+00
 Coeff-En:   0.000D+00 0.000D+00 0.100D+01
 Coeff:     -0.460D-01 0.351D+00 0.695D+00
 Gap=     0.490 Goal=   None    Shift=    0.000
 RMSDP=1.61D-05 MaxDP=5.34D-04 DE=-3.70D-05 OVMax= 1.03D-03

 Cycle   4  Pass 1  IDiag  1:
 E= -204.723396665380     Delta-E=       -0.000013985709 Rises=F Damp=F
 DIIS: error= 7.90D-05 at cycle   4 NSaved=   4.
 NSaved= 4 IEnMin= 4 EnMin= -204.723396665380     IErMin= 4 ErrMin= 7.90D-05
 ErrMax= 7.90D-05  0.00D+00 EMaxC= 1.00D-01 BMatC= 9.49D-07 BMatP= 1.98D-05
 IDIUse=1 WtCom= 1.00D+00 WtEn= 0.00D+00
 Coeff-Com: -0.431D-02-0.467D-01 0.103D+00 0.948D+00
 Coeff:     -0.431D-02-0.467D-01 0.103D+00 0.948D+00
 Gap=     0.490 Goal=   None    Shift=    0.000
 RMSDP=5.19D-06 MaxDP=1.41D-04 DE=-1.40D-05 OVMax= 3.93D-04

 Cycle   5  Pass 1  IDiag  1:
 E= -204.723397823157     Delta-E=       -0.000001157777 Rises=F Damp=F
 DIIS: error= 2.62D-05 at cycle   5 NSaved=   5.
 NSaved= 5 IEnMin= 5 EnMin= -204.723397823157     IErMin= 5 ErrMin= 2.62D-05
 ErrMax= 2.62D-05  0.00D+00 EMaxC= 1.00D-01 BMatC= 6.62D-08 BMatP= 9.49D-07
 IDIUse=1 WtCom= 1.00D+00 WtEn= 0.00D+00
 Coeff-Com:  0.287D-02-0.293D-01-0.476D-01 0.310D-01 0.104D+01
 Coeff:      0.287D-02-0.293D-01-0.476D-01 0.310D-01 0.104D+01
 Gap=     0.490 Goal=   None    Shift=    0.000
 RMSDP=2.17D-06 MaxDP=6.62D-05 DE=-1.16D-06 OVMax= 1.60D-04

 Cycle   6  Pass 1  IDiag  1:
 E= -204.723397942934     Delta-E=       -0.000000119776 Rises=F Damp=F
 DIIS: error= 9.65D-06 at cycle   6 NSaved=   6.
 NSaved= 6 IEnMin= 6 EnMin= -204.723397942934     IErMin= 6 ErrMin= 9.65D-06
 ErrMax= 9.65D-06  0.00D+00 EMaxC= 1.00D-01 BMatC= 2.09D-08 BMatP= 6.62D-08
 IDIUse=1 WtCom= 1.00D+00 WtEn= 0.00D+00
 Coeff-Com:  0.154D-02-0.666D-02-0.312D-01-0.939D-01 0.428D+00 0.702D+00
 Coeff:      0.154D-02-0.666D-02-0.312D-01-0.939D-01 0.428D+00 0.702D+00
 Gap=     0.490 Goal=   None    Shift=    0.000
 RMSDP=7.20D-07 MaxDP=2.46D-05 DE=-1.20D-07 OVMax= 5.37D-05

 Cycle   7  Pass 1  IDiag  1:
 E= -204.723397962763     Delta-E=       -0.000000019829 Rises=F Damp=F
 DIIS: error= 3.11D-06 at cycle   7 NSaved=   7.
 NSaved= 7 IEnMin= 7 EnMin= -204.723397962763     IErMin= 7 ErrMin= 3.11D-06
 ErrMax= 3.11D-06  0.00D+00 EMaxC= 1.00D-01 BMatC= 8.69D-10 BMatP= 2.09D-08
 IDIUse=1 WtCom= 1.00D+00 WtEn= 0.00D+00
 Coeff-Com: -0.464D-03 0.411D-02 0.737D-02 0.145D-02-0.151D+00-0.842D-01
 Coeff-Com:  0.122D+01
 Coeff:     -0.464D-03 0.411D-02 0.737D-02 0.145D-02-0.151D+00-0.842D-01
 Coeff:      0.122D+01
 Gap=     0.490 Goal=   None    Shift=    0.000
 RMSDP=3.44D-07 MaxDP=7.93D-06 DE=-1.98D-08 OVMax= 1.94D-05

 Cycle   8  Pass 1  IDiag  1:
 E= -204.723397965306     Delta-E=       -0.000000002543 Rises=F Damp=F
 DIIS: error= 7.65D-07 at cycle   8 NSaved=   8.
 NSaved= 8 IEnMin= 8 EnMin= -204.723397965306     IErMin= 8 ErrMin= 7.65D-07
 ErrMax= 7.65D-07  0.00D+00 EMaxC= 1.00D-01 BMatC= 1.20D-10 BMatP= 8.69D-10
 IDIUse=1 WtCom= 1.00D+00 WtEn= 0.00D+00
 Coeff-Com: -0.105D-03 0.478D-03 0.202D-02 0.535D-02-0.166D-01-0.733D-01
 Coeff-Com: -0.223D-01 0.110D+01
 Coeff:     -0.105D-03 0.478D-03 0.202D-02 0.535D-02-0.166D-01-0.733D-01
 Coeff:     -0.223D-01 0.110D+01
 Gap=     0.490 Goal=   None    Shift=    0.000
 RMSDP=9.22D-08 MaxDP=1.91D-06 DE=-2.54D-09 OVMax= 7.16D-06

 Cycle   9  Pass 1  IDiag  1:
 E= -204.723397965604     Delta-E=       -0.000000000298 Rises=F Damp=F
 DIIS: error= 4.32D-07 at cycle   9 NSaved=   9.
 NSaved= 9 IEnMin= 9 EnMin= -204.723397965604     IErMin= 9 ErrMin= 4.32D-07
 ErrMax= 4.32D-07  0.00D+00 EMaxC= 1.00D-01 BMatC= 2.38D-11 BMatP= 1.20D-10
 IDIUse=1 WtCom= 1.00D+00 WtEn= 0.00D+00
 Coeff-Com:  0.829D-04-0.648D-03-0.136D-02-0.187D-02 0.286D-01 0.538D-02
 Coeff-Com: -0.150D+00-0.178D+00 0.130D+01
 Coeff:      0.829D-04-0.648D-03-0.136D-02-0.187D-02 0.286D-01 0.538D-02
 Coeff:     -0.150D+00-0.178D+00 0.130D+01
 Gap=     0.490 Goal=   None    Shift=    0.000
 RMSDP=4.80D-08 MaxDP=1.32D-06 DE=-2.98D-10 OVMax= 4.88D-06

 Cycle  10  Pass 1  IDiag  1:
 E= -204.723397965677     Delta-E=       -0.000000000073 Rises=F Damp=F
 DIIS: error= 1.89D-07 at cycle  10 NSaved=  10.
 NSaved=10 IEnMin=10 EnMin= -204.723397965677     IErMin=10 ErrMin= 1.89D-07
 ErrMax= 1.89D-07  0.00D+00 EMaxC= 1.00D-01 BMatC= 3.18D-12 BMatP= 2.38D-11
 IDIUse=1 WtCom= 1.00D+00 WtEn= 0.00D+00
 Coeff-Com: -0.942D-05 0.112D-03 0.187D-03-0.225D-03-0.531D-02 0.236D-02
 Coeff-Com:  0.593D-01-0.128D+00-0.356D+00 0.143D+01
 Coeff:     -0.942D-05 0.112D-03 0.187D-03-0.225D-03-0.531D-02 0.236D-02
 Coeff:      0.593D-01-0.128D+00-0.356D+00 0.143D+01
 Gap=     0.490 Goal=   None    Shift=    0.000
 RMSDP=2.13D-08 MaxDP=6.05D-07 DE=-7.34D-11 OVMax= 2.52D-06

 Cycle  11  Pass 1  IDiag  1:
 E= -204.723397965689     Delta-E=       -0.000000000012 Rises=F Damp=F
 DIIS: error= 5.22D-08 at cycle  11 NSaved=  11.
 NSaved=11 IEnMin=11 EnMin= -204.723397965689     IErMin=11 ErrMin= 5.22D-08
 ErrMax= 5.22D-08  0.00D+00 EMaxC= 1.00D-01 BMatC= 2.64D-13 BMatP= 3.18D-12
 IDIUse=1 WtCom= 1.00D+00 WtEn= 0.00D+00
 Coeff-Com: -0.758D-05 0.483D-04 0.149D-03 0.333D-03-0.244D-02-0.298D-02
 Coeff-Com:  0.114D-01 0.427D-01-0.925D-01-0.280D+00 0.132D+01
 Coeff:     -0.758D-05 0.483D-04 0.149D-03 0.333D-03-0.244D-02-0.298D-02
 Coeff:      0.114D-01 0.427D-01-0.925D-01-0.280D+00 0.132D+01
 Gap=     0.490 Goal=   None    Shift=    0.000
 RMSDP=6.73D-09 MaxDP=1.63D-07 DE=-1.17D-11 OVMax= 7.77D-07

 SCF Done:  E(RHF) =  -204.723397966     A.U. after   11 cycles
            NFock= 11  Conv=0.67D-08     -V/T= 2.0024
 KE= 2.042400443077D+02 PE=-6.229514393887D+02 EE= 1.444840338748D+02
 Leave Link  502 at Tue Jan 18 14:05:25 2022, MaxMem= 16106127360 cpu:              33.7 elap:               1.8
 (Enter /sw/contrib/gaussian/g16/B01/g16/l801.exe)
 ExpMin= 2.53D-02 ExpMax= 1.53D+04 ExpMxC= 5.22D+02 IAcc=3 IRadAn=         5 AccDes= 0.00D+00
 HarFok:  IExCor=  205 AccDes= 0.00D+00 IRadAn=         5 IDoV=-2 UseB2=F ITyADJ=14
 ICtDFT= 12500011 ScaDFX=  1.000000  1.000000  1.000000  1.000000
 Largest valence mixing into a core orbital is  2.06D-04
 Largest core mixing into a valence orbital is  3.30D-05
 Range of M.O.s used for correlation:     4   161
 NBasis=   161 NAE=    12 NBE=    12 NFC=     3 NFV=     0
 NROrb=    158 NOA=     9 NOB=     9 NVA=   149 NVB=   149

 **** Warning!!: The largest alpha MO coefficient is  0.19498442D+02

 Leave Link  801 at Tue Jan 18 14:05:26 2022, MaxMem= 16106127360 cpu:               2.1 elap:               0.1
 (Enter /sw/contrib/gaussian/g16/B01/g16/l906.exe)
 Frozen-core derivative calculation, NFC=   3 NFV=   0.
 FulOut=F Deriv=T AODrv=T NAtomX=     4
   MMem=         161  MDisk=           9 MDiskD=           9
  W3Min=      367080 MinDsk=      792425 NBas6D=         190
 NBas2D=       18625    NTT=       18145    LW2=     3500000
    MDV= 16105787472 MDiskM=      423783 NBas2p=       18624
 Fully direct method using O(ONN) memory.
 IMap=   1   2   3   4   5   6   7   8   9  10  11  12
 JobTyp=1 Pass  1:  I=   4 to  12 NPSUse= 28 ParTrn=T ParDer=T DoDerP=T.
 Spin components of T(2) and E(2):
     alpha-alpha T2 =       0.2531777676D-01 E2=     -0.9065773393D-01
     alpha-beta  T2 =       0.1374832160D+00 E2=     -0.5166411925D+00
     beta-beta   T2 =       0.2531777676D-01 E2=     -0.9065773393D-01
 The integrals were generated   1 times.
 ANorm=    0.1090008610D+01
 E2 =    -0.6979566604D+00 EUMP2 =    -0.20542135462607D+03
 Leave Link  906 at Tue Jan 18 14:05:33 2022, MaxMem= 16106127360 cpu:             218.1 elap:               7.9
 (Enter /sw/contrib/gaussian/g16/B01/g16/l1002.exe)
 Minotr:  Closed shell wavefunction.
          Computing MP2/KS-MP2 derivatives.
          Using Z-Vector for PSCF gradient.
          Skipping F1 and S1 gradient terms here.
          IDoAtm=1111
          Frozen-core window.
          Direct CPHF calculation.
          Differentiating once with respect to electric field.
                with respect to dipole field.
          Differentiating once with respect to nuclear coordinates.
          Using symmetry in CPHF.
          Requested convergence is 1.0D-10 RMS, and 1.0D-09 maximum.
          NewPWx=F KeepS1=T KeepF1=T KeepIn=T MapXYZ=F SortEE=F KeepMc=T.
 Keep R1 ints in memory in symmetry-blocked form, NReq=128071145.
 FoFCou: FMM=F IPFlag=           0 FMFlag=           0 FMFlg1=           0
         NFxFlg=           0 DoJE=F BraDBF=F KetDBF=F FulRan=T
         wScrn=  0.000000 ICntrl=       600 IOpCl=  0 I1Cent=           0 NGrid=           0
         NMat0=    1 NMatS0=  13041 NMatT0=    0 NMatD0=    1 NMtDS0=    0 NMtDT0=    0
 Petite list used in FoFCou.
          MDV=   16106127360 using IRadAn=       5.
          Solving linear equations separately, MaxMat=       0.
          There are     1 degrees of freedom in the 1st order CPHF.  IDoFFX=0 NUNeed=     1.
 LinEq1:  Iter=  0 NonCon=     1 RMS=6.63D-03 Max=1.32D-01 NDo=     1
 AX will form     1 AO Fock derivatives at one time.
 LinEq1:  Iter=  1 NonCon=     1 RMS=2.26D-03 Max=4.07D-02 NDo=     1
 LinEq1:  Iter=  2 NonCon=     1 RMS=9.17D-04 Max=1.19D-02 NDo=     1
 LinEq1:  Iter=  3 NonCon=     1 RMS=4.41D-04 Max=8.66D-03 NDo=     1
 LinEq1:  Iter=  4 NonCon=     1 RMS=1.37D-04 Max=1.53D-03 NDo=     1
 LinEq1:  Iter=  5 NonCon=     1 RMS=6.13D-05 Max=9.91D-04 NDo=     1
 LinEq1:  Iter=  6 NonCon=     1 RMS=2.33D-05 Max=2.69D-04 NDo=     1
 LinEq1:  Iter=  7 NonCon=     1 RMS=5.92D-06 Max=6.12D-05 NDo=     1
 LinEq1:  Iter=  8 NonCon=     1 RMS=1.44D-06 Max=1.67D-05 NDo=     1
 LinEq1:  Iter=  9 NonCon=     1 RMS=2.66D-07 Max=1.98D-06 NDo=     1
 LinEq1:  Iter= 10 NonCon=     1 RMS=4.91D-08 Max=3.97D-07 NDo=     1
 LinEq1:  Iter= 11 NonCon=     1 RMS=7.99D-09 Max=8.19D-08 NDo=     1
 LinEq1:  Iter= 12 NonCon=     1 RMS=1.07D-09 Max=7.33D-09 NDo=     1
 LinEq1:  Iter= 13 NonCon=     1 RMS=2.24D-10 Max=2.29D-09 NDo=     1
 LinEq1:  Iter= 14 NonCon=     0 RMS=4.29D-11 Max=3.75D-10 NDo=     1
 Linear equations converged to 1.000D-10 1.000D-09 after    14 iterations.
 End of Minotr F.D. properties file   721 does not exist.
 End of Minotr F.D. properties file   722 does not exist.
 End of Minotr F.D. properties file   788 does not exist.
 Leave Link 1002 at Tue Jan 18 14:05:36 2022, MaxMem= 16106127360 cpu:              36.3 elap:               2.1
 (Enter /sw/contrib/gaussian/g16/B01/g16/l701.exe)
 ... and contract with generalized density number  2.
 Compute integral first derivatives.
 Leave Link  701 at Tue Jan 18 14:05:36 2022, MaxMem= 16106127360 cpu:               5.0 elap:               0.2
 (Enter /sw/contrib/gaussian/g16/B01/g16/l702.exe)
 L702 exits ... SP integral derivatives will be done elsewhere.
 Leave Link  702 at Tue Jan 18 14:05:36 2022, MaxMem= 16106127360 cpu:               2.1 elap:               0.1
 (Enter /sw/contrib/gaussian/g16/B01/g16/l703.exe)
 Integral derivatives from FoFJK, PRISM(SPDF).
 Compute integral first derivatives, UseDBF=F ICtDFT=           0.
 Calling FoFJK, ICntrl=  10002127 FMM=F ISym2X=1 I1Cent= 0 IOpClX= 0 NMat=1 NMatS=1 NMatT=0.
 FoFJK:  IHMeth= 1 ICntrl=10002127 DoSepK=F KAlg= 0 I1Cent=           0 FoldK=F
 IRaf=         0 NMat=       1 IRICut=       1 DoRegI=T DoRafI=F ISym2E= 1 IDoP0=0 IntGTp=1.
 FoFCou: FMM=F IPFlag=           0 FMFlag=      100000 FMFlg1=         800
         NFxFlg=           0 DoJE=F BraDBF=F KetDBF=F FulRan=T
         wScrn=  0.000000 ICntrl=  10002127 IOpCl=  0 I1Cent=           0 NGrid=           0
         NMat0=    1 NMatS0=      1 NMatT0=    0 NMatD0=    1 NMtDS0=    0 NMtDT0=    0
 Petite list used in FoFCou.
 Leave Link  703 at Tue Jan 18 14:05:37 2022, MaxMem= 16106127360 cpu:              30.7 elap:               1.1
 (Enter /sw/contrib/gaussian/g16/B01/g16/l716.exe)
 Dipole        =-6.90925880D-01 2.57927862D-01 9.71680565D-32
 ***** Axes restored to original set *****
 -------------------------------------------------------------------
 Center     Atomic                   Forces (Hartrees/Bohr)
 Number     Number              X              Y              Z
 -------------------------------------------------------------------
      1        1          -0.000008344    0.000000000   -0.000003416
      2        8          -0.000000182   -0.000000000   -0.000003994
      3        7          -0.000043875   -0.000000000   -0.000321446
      4        8           0.000052400    0.000000000    0.000328856
 -------------------------------------------------------------------
 Cartesian Forces:  Max     0.000328856 RMS     0.000134239
 -----------------------------------------------------------------------------------------------
                       Internal Coordinate Forces (Hartree/Bohr or radian)
  Cent   Atom   N1       Length/X         N2         Alpha/Y        N3         Beta/Z          J
 -----------------------------------------------------------------------------------------------
      1  H 
      2  O        1   0.000003(     1)
      3  N        2   0.000010(     2)      1   0.000015(     4)
      4  O        3   0.000333(     3)      2  -0.000000(     5)      1  -0.000000(     6)     0
 -----------------------------------------------------------------------------------------------
 Internal  Forces:  Max     0.000333004 RMS     0.000136158
 Leave Link  716 at Tue Jan 18 14:05:37 2022, MaxMem= 16106127360 cpu:               0.8 elap:               0.1
 (Enter /sw/contrib/gaussian/g16/B01/g16/l103.exe)

 GradGradGradGradGradGradGradGradGradGradGradGradGradGradGradGradGradGrad
 Berny optimization.
 Search for a local minimum.
 Step number   1 out of a maximum of   20 on scan point     2 out of     3
 All quantities printed in internal units (Hartrees-Bohrs-Radians)
 Second derivative matrix not updated -- first step.
 The second derivative matrix:
                          r1        r2        r3        a1        a2
           r1           0.64980
           r2          -0.00000   0.41312
           r3           0.00000   0.00000   1.17400
           a1          -0.00000  -0.00000   0.00000   0.16000
           a2           0.00000  -0.00000  -0.00000   0.00000   0.25000
           d1          -0.00000  -0.00000  -0.00000  -0.00000  -0.00000
                          d1
           d1           0.00928
 ITU=  0
     Eigenvalues --- 1000.000001000.000001000.000001000.000001000.00000
     Eigenvalues --- 1000.00000
 RFO step:  Lambda= 0.00000000D+00 EMin= 1.00000000D+03
 Linear search not attempted -- first point.
 Variable       Old X    -DE/DX   Delta X   Delta X   Delta X     New X
                                 (Linear)    (Quad)   (Total)
    r1        1.83353   0.00000   0.00000   0.00000   0.00000   1.83353
    r2        2.69808   0.00001   0.00000   0.00000   0.00000   2.69808
    r3        2.22383   0.00033   0.00000   0.00000   0.00000   2.22383
    a1        1.77374   0.00002   0.00000   0.00000   0.00000   1.77374
    a2        1.93223  -0.00000   0.00000   0.00000   0.00000   1.93223
    d1        3.14159  -0.00000   0.00000   0.00000   0.00000   3.14159
         Item               Value     Threshold  Converged?
 Maximum Force            0.000000     0.000450     YES
 RMS     Force            0.000000     0.000300     YES
 Maximum Displacement     0.000000     0.001800     YES
 RMS     Displacement     0.000000     0.001200     YES
 Predicted change in Energy=-0.000000D+00
 Optimization completed.
    -- Stationary point found.
                       ----------------------------
                       !   Optimized Parameters   !
                       ! (Angstroms and Degrees)  !
 ----------------------                            ----------------------
 !      Name          Value   Derivative information (Atomic Units)     !
 ------------------------------------------------------------------------
 !       r1          0.9703   -DE/DX =    0.0                           !
 !       r2          1.4278   -DE/DX =    0.0                           !
 !       r3          1.1768   -DE/DX =    0.0003                        !
 !       a1        101.6278   -DE/DX =    0.0                           !
 !       a2        110.7086   -DE/DX =    0.0                           !
 !       d1        180.0      -DE/DX =    0.0                           !
 ------------------------------------------------------------------------
 Lowest energy point so far.  Saving SCF results.
 GradGradGradGradGradGradGradGradGradGradGradGradGradGradGradGradGradGrad

 Leave Link  103 at Tue Jan 18 14:05:37 2022, MaxMem= 16106127360 cpu:               1.7 elap:               0.1
 (Enter /sw/contrib/gaussian/g16/B01/g16/l202.exe)
 ---------------------------------------------------------------------------------------------------
                            Z-MATRIX (ANGSTROMS AND DEGREES)
   CD    Cent   Atom    N1       Length/X        N2       Alpha/Y        N3        Beta/Z          J
 ---------------------------------------------------------------------------------------------------
      1      1  H 
      2      2  O        1   1.020263(     1)
      3      3  N        2   1.427764(     2)      1  101.628(     4)
      4      4  O        3   1.176802(     3)      2  110.709(     5)      1  180.000(     6)      0
 ---------------------------------------------------------------------------------------------------
                         Z-Matrix orientation:                         
 ---------------------------------------------------------------------
 Center     Atomic      Atomic             Coordinates (Angstroms)
 Number     Number       Type             X           Y           Z
 ---------------------------------------------------------------------
      1          1           0        0.000000    0.000000    0.000000
      2          8           0        0.000000    0.000000    1.020263
      3          7           0        1.398463    0.000000    1.308033
      4          8           0        1.584195    0.000000    2.470086
 ---------------------------------------------------------------------
                    Distance matrix (angstroms):
                    1          2          3          4
     1  H    0.000000
     2  O    1.020263   0.000000
     3  N    1.914850   1.427764   0.000000
     4  O    2.934450   2.147478   1.176802   0.000000
 Stoichiometry    HNO2
 Framework group  CS[SG(HNO2)]
 Deg. of freedom     5
 Full point group                 CS      NOp   2
 RotChk:  IX=2 Diff= 5.04D-03
 Largest Abelian subgroup         CS      NOp   2
 Largest concise Abelian subgroup C1      NOp   1
                         Standard orientation:                         
 ---------------------------------------------------------------------
 Center     Atomic      Atomic             Coordinates (Angstroms)
 Number     Number       Type             X           Y           Z
 ---------------------------------------------------------------------
      1          1           0       -1.801764   -0.128636    0.000000
      2          8           0       -0.893709   -0.593795    0.000000
      3          7           0        0.000000    0.519666    0.000000
      4          8           0        1.118930    0.155167   -0.000000
 ---------------------------------------------------------------------
 Rotational constants (GHZ):          92.0048676          12.5296487          11.0278281
 Leave Link  202 at Tue Jan 18 14:05:37 2022, MaxMem= 16106127360 cpu:               2.4 elap:               0.1
 (Enter /sw/contrib/gaussian/g16/B01/g16/l301.exe)
 Standard basis: Aug-CC-pVTZ (5D, 7F)
 Ernie: Thresh=  0.10000D-02 Tol=  0.10000D-05 Strict=F.
 Ernie:  9 primitive shells out of 101 were deleted.
 There are   129 symmetry adapted cartesian basis functions of A'  symmetry.
 There are    61 symmetry adapted cartesian basis functions of A"  symmetry.
 There are   106 symmetry adapted basis functions of A'  symmetry.
 There are    55 symmetry adapted basis functions of A"  symmetry.
   161 basis functions,   243 primitive gaussians,   190 cartesian basis functions
    12 alpha electrons       12 beta electrons
       nuclear repulsion energy        69.2344480977 Hartrees.
 IExCor=    0 DFT=F Ex=HF Corr=None ExCW=0 ScaHFX=  1.000000
 ScaDFX=  1.000000  1.000000  1.000000  1.000000 ScalE2=  1.000000  1.000000
 IRadAn=      5 IRanWt=     -1 IRanGd=            0 ICorTp=0 IEmpDi=  4
 NAtoms=    4 NActive=    4 NUniq=    4 SFac= 1.00D+00 NAtFMM=   60 NAOKFM=F Big=F
 Integral buffers will be    131072 words long.
 Raffenetti 1 integral format.
 Two-electron integral symmetry is turned on.
 Leave Link  301 at Tue Jan 18 14:05:38 2022, MaxMem= 16106127360 cpu:               1.9 elap:               0.1
 (Enter /sw/contrib/gaussian/g16/B01/g16/l302.exe)
 NPDir=0 NMtPBC=     1 NCelOv=     1 NCel=       1 NClECP=     1 NCelD=      1
         NCelK=      1 NCelE2=     1 NClLst=     1 CellRange=     0.0.
 One-electron integrals computed using PRISM.
 One-electron integral symmetry used in STVInt
 NBasis=   161 RedAO= T EigKep=  1.99D-04  NBF=   106    55
 NBsUse=   161 1.00D-06 EigRej= -1.00D+00 NBFU=   106    55
 Leave Link  302 at Tue Jan 18 14:05:38 2022, MaxMem= 16106127360 cpu:               7.5 elap:               0.3
 (Enter /sw/contrib/gaussian/g16/B01/g16/l303.exe)
 DipDrv:  MaxL=1.
 Leave Link  303 at Tue Jan 18 14:05:38 2022, MaxMem= 16106127360 cpu:               1.0 elap:               0.1
 (Enter /sw/contrib/gaussian/g16/B01/g16/l401.exe)
 Initial guess from the checkpoint file:  "/gscratch/ilahie/mccoygrp/coire_hoono/hono/hono_r1_pert.chk"
 B after Tr=    -0.000000    0.000000   -0.000000
         Rot=    1.000000    0.000000   -0.000000   -0.000826 Ang=  -0.09 deg.
 Guess basis will be translated and rotated to current coordinates.
 JPrj=2 DoOrth=T DoCkMO=T.
 Initial guess orbital symmetries:
       Occupied  (A') (A') (A') (A') (A') (A') (A') (A') (A") (A')
                 (A") (A')
       Virtual   (A') (A") (A') (A') (A") (A') (A') (A') (A") (A')
                 (A") (A') (A') (A") (A') (A') (A') (A') (A') (A")
                 (A') (A') (A") (A') (A') (A') (A") (A") (A') (A')
                 (A') (A") (A") (A') (A") (A') (A') (A") (A') (A')
                 (A') (A') (A') (A") (A") (A') (A') (A") (A') (A')
                 (A") (A') (A") (A') (A') (A") (A') (A") (A') (A")
                 (A') (A') (A") (A') (A') (A') (A") (A') (A") (A")
                 (A') (A') (A') (A") (A') (A") (A') (A') (A") (A')
                 (A") (A') (A') (A") (A') (A") (A') (A") (A') (A')
                 (A') (A') (A') (A") (A') (A") (A') (A") (A') (A")
                 (A') (A") (A') (A') (A') (A") (A') (A") (A") (A')
                 (A') (A") (A') (A') (A") (A') (A') (A") (A') (A')
                 (A') (A') (A") (A') (A") (A") (A') (A') (A") (A')
                 (A") (A") (A') (A") (A') (A") (A') (A") (A") (A')
                 (A') (A') (A') (A') (A') (A') (A') (A') (A')
 The electronic state of the initial guess is 1-A'.
 Generating alternative initial guess.
 ExpMin= 2.53D-02 ExpMax= 1.53D+04 ExpMxC= 5.22D+02 IAcc=3 IRadAn=         5 AccDes= 0.00D+00
 Harris functional with IExCor=  205 and IRadAn=       5 diagonalized for initial guess.
 HarFok:  IExCor=  205 AccDes= 0.00D+00 IRadAn=         5 IDoV= 1 UseB2=F ITyADJ=14
 ICtDFT=  3500011 ScaDFX=  1.000000  1.000000  1.000000  1.000000
 FoFCou: FMM=F IPFlag=           0 FMFlag=      100000 FMFlg1=           0
         NFxFlg=           0 DoJE=T BraDBF=F KetDBF=T FulRan=T
         wScrn=  0.000000 ICntrl=       500 IOpCl=  0 I1Cent=   200000004 NGrid=           0
         NMat0=    1 NMatS0=      1 NMatT0=    0 NMatD0=    1 NMtDS0=    0 NMtDT0=    0
 Petite list used in FoFCou.
 Harris En= -204.815808571725    
 Leave Link  401 at Tue Jan 18 14:05:38 2022, MaxMem= 16106127360 cpu:               8.3 elap:               0.3
 (Enter /sw/contrib/gaussian/g16/B01/g16/l502.exe)
 Keep R1 ints in memory in symmetry-blocked form, NReq=128070121.
 FoFCou: FMM=F IPFlag=           0 FMFlag=           0 FMFlg1=           0
         NFxFlg=           0 DoJE=F BraDBF=F KetDBF=F FulRan=T
         wScrn=  0.000000 ICntrl=       600 IOpCl=  0 I1Cent=           0 NGrid=           0
         NMat0=    1 NMatS0=  13041 NMatT0=    0 NMatD0=    1 NMtDS0=    0 NMtDT0=    0
 Petite list used in FoFCou.
 Closed shell SCF:
 Using DIIS extrapolation, IDIIS=  1040.
 NGot= 16106127360 LenX= 16063019402 LenY= 16062982861
 Requested convergence on RMS density matrix=1.00D-08 within 128 cycles.
 Requested convergence on MAX density matrix=1.00D-06.
 Requested convergence on             energy=1.00D-06.
 No special actions if energy rises.

 Cycle   1  Pass 1  IDiag  1:
 E= -204.718133116090    
 DIIS: error= 3.69D-03 at cycle   1 NSaved=   1.
 NSaved= 1 IEnMin= 1 EnMin= -204.718133116090     IErMin= 1 ErrMin= 3.69D-03
 ErrMax= 3.69D-03  0.00D+00 EMaxC= 1.00D-01 BMatC= 9.91D-04 BMatP= 9.91D-04
 IDIUse=3 WtCom= 9.63D-01 WtEn= 3.69D-02
 Coeff-Com:  0.100D+01
 Coeff-En:   0.100D+01
 Coeff:      0.100D+01
 Gap=     0.508 Goal=   None    Shift=    0.000
 GapD=    0.508 DampG=2.000 DampE=1.000 DampFc=2.0000 IDamp=-1.
 RMSDP=2.43D-04 MaxDP=1.06D-02              OVMax= 7.02D-03

 Cycle   2  Pass 1  IDiag  1:
 E= -204.718798031460     Delta-E=       -0.000664915371 Rises=F Damp=F
 DIIS: error= 6.10D-04 at cycle   2 NSaved=   2.
 NSaved= 2 IEnMin= 2 EnMin= -204.718798031460     IErMin= 2 ErrMin= 6.10D-04
 ErrMax= 6.10D-04  0.00D+00 EMaxC= 1.00D-01 BMatC= 5.72D-05 BMatP= 9.91D-04
 IDIUse=3 WtCom= 9.94D-01 WtEn= 6.10D-03
 Coeff-Com:  0.167D-02 0.998D+00
 Coeff-En:   0.000D+00 0.100D+01
 Coeff:      0.166D-02 0.998D+00
 Gap=     0.487 Goal=   None    Shift=    0.000
 RMSDP=4.12D-05 MaxDP=1.54D-03 DE=-6.65D-04 OVMax= 2.40D-03

 Cycle   3  Pass 1  IDiag  1:
 E= -204.718834517938     Delta-E=       -0.000036486478 Rises=F Damp=F
 DIIS: error= 3.29D-04 at cycle   3 NSaved=   3.
 NSaved= 3 IEnMin= 3 EnMin= -204.718834517938     IErMin= 3 ErrMin= 3.29D-04
 ErrMax= 3.29D-04  0.00D+00 EMaxC= 1.00D-01 BMatC= 2.10D-05 BMatP= 5.72D-05
 IDIUse=3 WtCom= 9.97D-01 WtEn= 3.29D-03
 Coeff-Com: -0.525D-01 0.363D+00 0.689D+00
 Coeff-En:   0.000D+00 0.000D+00 0.100D+01
 Coeff:     -0.523D-01 0.362D+00 0.690D+00
 Gap=     0.487 Goal=   None    Shift=    0.000
 RMSDP=1.67D-05 MaxDP=5.74D-04 DE=-3.65D-05 OVMax= 1.13D-03

 Cycle   4  Pass 1  IDiag  1:
 E= -204.718849913431     Delta-E=       -0.000015395493 Rises=F Damp=F
 DIIS: error= 7.52D-05 at cycle   4 NSaved=   4.
 NSaved= 4 IEnMin= 4 EnMin= -204.718849913431     IErMin= 4 ErrMin= 7.52D-05
 ErrMax= 7.52D-05  0.00D+00 EMaxC= 1.00D-01 BMatC= 8.81D-07 BMatP= 2.10D-05
 IDIUse=1 WtCom= 1.00D+00 WtEn= 0.00D+00
 Coeff-Com: -0.443D-02-0.549D-01 0.763D-01 0.983D+00
 Coeff:     -0.443D-02-0.549D-01 0.763D-01 0.983D+00
 Gap=     0.487 Goal=   None    Shift=    0.000
 RMSDP=5.60D-06 MaxDP=1.66D-04 DE=-1.54D-05 OVMax= 4.50D-04

 Cycle   5  Pass 1  IDiag  1:
 E= -204.718851152039     Delta-E=       -0.000001238608 Rises=F Damp=F
 DIIS: error= 2.62D-05 at cycle   5 NSaved=   5.
 NSaved= 5 IEnMin= 5 EnMin= -204.718851152039     IErMin= 5 ErrMin= 2.62D-05
 ErrMax= 2.62D-05  0.00D+00 EMaxC= 1.00D-01 BMatC= 7.30D-08 BMatP= 8.81D-07
 IDIUse=1 WtCom= 1.00D+00 WtEn= 0.00D+00
 Coeff-Com:  0.348D-02-0.328D-01-0.512D-01 0.310D-01 0.105D+01
[...]
 Petite list used in FoFCou.
 Leave Link  703 at Tue Jan 18 14:07:25 2022, MaxMem= 16106127360 cpu:             174.1 elap:               6.3
 (Enter /sw/contrib/gaussian/g16/B01/g16/l716.exe)
 Dipole        =-7.17778133D-01 2.59792980D-01 1.29540635D-31
 Polarizability= 3.00035269D+01 3.50868991D+00 1.92004627D+01
                -3.83749177D-31 2.67453411D-29 1.47618462D+01
 Full mass-weighted force constant matrix:
 Low frequencies ---  -12.7034   -0.0023   -0.0016   -0.0015   89.3147  140.2084
 Low frequencies ---  621.3517  818.9859  934.1608
 Diagonal vibrational polarizability:
       18.5257493       5.8187280       3.1104128
 Harmonic frequencies (cm**-1), IR intensities (KM/Mole), Raman scattering
 activities (A**4/AMU), depolarization ratios for plane and unpolarized
 incident light, reduced masses (AMU), force constants (mDyne/A),
 and normal coordinates:
                      1                      2                      3
                     A'                     A'                     A"
 Frequencies --    620.9260               818.6820               912.1860
 Red. masses --     13.2185                 7.3556                 1.1721
 Frc consts  --      3.0027                 2.9047                 0.5746
 IR Inten    --    204.6015               155.6267                96.1727
  Atom  AN      X      Y      Z        X      Y      Z        X      Y      Z
     1   1     0.34  -0.22   0.00    -0.20  -0.70  -0.00    -0.00  -0.00   0.99
     2   8     0.62   0.35  -0.00     0.06  -0.21   0.00     0.00  -0.00  -0.06
     3   7    -0.38  -0.06  -0.00     0.19   0.54   0.00     0.00   0.00  -0.07
     4   8    -0.31  -0.28   0.00    -0.21  -0.22  -0.00    -0.00  -0.00   0.06
                      4                      5                      6
                     A'                     A'                     A'
 Frequencies --   1405.4401              1666.9251              3152.3466
 Red. masses --      1.2612                 7.5733                 1.0663
 Frc consts  --      1.4678                12.3984                 6.2431
 IR Inten    --    198.9451                90.6924                83.4117
  Atom  AN      X      Y      Z        X      Y      Z        X      Y      Z
     1   1     0.50   0.86  -0.00    -0.32  -0.65   0.00     0.89  -0.45   0.00
     2   8     0.03  -0.07   0.00     0.02   0.12  -0.00    -0.06   0.03  -0.00
     3   7     0.04   0.01   0.00     0.45  -0.27  -0.00    -0.00   0.00  -0.00
     4   8    -0.09   0.01  -0.00    -0.39   0.16   0.00     0.00  -0.00   0.00

 -------------------
 - Thermochemistry -
 -------------------
 Temperature   298.150 Kelvin.  Pressure   1.00000 Atm.
 Atom     1 has atomic number  1 and mass   1.00783
 Atom     2 has atomic number  8 and mass  15.99491
 Atom     3 has atomic number  7 and mass  14.00307
 Atom     4 has atomic number  8 and mass  15.99491
 Molecular mass:    47.00073 amu.
 Principal axes and moments of inertia in atomic units:
                           1         2         3
     Eigenvalues --    19.61571 144.03765 163.65337
           X            0.93581  -0.35252   0.00000
           Y            0.35252   0.93581   0.00000
           Z            0.00000  -0.00000   1.00000
 This molecule is an asymmetric top.
 Rotational symmetry number  1.
 Rotational temperatures (Kelvin)      4.41554     0.60133     0.52925
 Rotational constants (GHZ):          92.00487    12.52965    11.02783
 Zero-point vibrational energy      51298.9 (Joules/Mol)
                                   12.26073 (Kcal/Mol)
 Vibrational temperatures:    893.37  1177.90  1312.43  2022.11  2398.33
          (Kelvin)           4535.52
 
 Zero-point correction=                           0.019539 (Hartree/Particle)
 Thermal correction to Energy=                    0.022655
 Thermal correction to Enthalpy=                  0.023599
 Thermal correction to Gibbs Free Energy=        -0.004432
 Sum of electronic and zero-point Energies=           -205.399795
 Sum of electronic and thermal Energies=              -205.396679
 Sum of electronic and thermal Enthalpies=            -205.395735
 Sum of electronic and thermal Free Energies=         -205.423765
 
                     E (Thermal)             CV                S
                      KCal/Mol        Cal/Mol-Kelvin    Cal/Mol-Kelvin
 Total                   14.216              8.199             58.995
 Electronic               0.000              0.000              0.000
 Translational            0.889              2.981             37.467
 Rotational               0.889              2.981             20.764
 Vibrational             12.438              2.237              0.764
                       Q            Log10(Q)             Ln(Q)
 Total Bot       0.109261D+03          2.038467          4.693743
 Total V=0       0.106083D+12         11.025645         25.387486
 Vib (Bot)       0.112075D-08         -8.950492        -20.609270
 Vib (V=0)       0.108814D+01          0.036686          0.084473
 Electronic      0.100000D+01          0.000000          0.000000
 Translational   0.126652D+08          7.102611         16.354366
 Rotational      0.769747D+04          3.886348          8.948647
 
                                                                title
                                                             IR Spectrum
 
     3                                                           1          1                                                        
     1                                                           6          4                   9   8      6                         
     5                                                           6          0                   1   1      2                         
     2                                                           7          5                   2   9      1                         
 
     X                                                           X          X                   X   X      X                         
     X                                                           X          X                   X   X      X                         
     X                                                           X          X                   X   X      X                         
     X                                                           X          X                   X   X      X                         
     X                                                           X          X                   X   X      X                         
     X                                                           X          X                   X   X      X                         
     X                                                           X          X                   X   X      X                         
     X                                                           X          X                   X   X      X                         
                                                                 X          X                   X   X      X                         
                                                                            X                       X      X                         
                                                                            X                       X      X                         
                                                                            X                       X      X                         
                                                                            X                       X      X                         
                                                                            X                       X      X                         
                                                                            X                       X      X                         
                                                                            X                              X                         
                                                                            X                              X                         
                                                                            X                              X                         
                                                                            X                              X                         
                                                                                                           X                         
 
 ***** Axes restored to original set *****
 -------------------------------------------------------------------
 Center     Atomic                   Forces (Hartrees/Bohr)
 Number     Number              X              Y              Z
 -------------------------------------------------------------------
      1        1           0.000569560    0.000000000    0.040436413
      2        8          -0.000790303   -0.000000000   -0.039501837
      3        7           0.000758042   -0.000000000   -0.001823106
      4        8          -0.000537299    0.000000000    0.000888530
 -------------------------------------------------------------------
 Cartesian Forces:  Max     0.040436413 RMS     0.016333565
 -----------------------------------------------------------------------------------------------
                       Internal Coordinate Forces (Hartree/Bohr or radian)
  Cent   Atom   N1       Length/X         N2         Alpha/Y        N3         Beta/Z          J
 -----------------------------------------------------------------------------------------------
      1  H 
      2  O        1  -0.040436(     1)
      3  N        2   0.000028(     2)      1  -0.001098(     4)
      4  O        3   0.000793(     3)      2  -0.001492(     5)      1  -0.000000(     6)     0
 -----------------------------------------------------------------------------------------------
 Internal  Forces:  Max     0.040436413 RMS     0.016528579
 Force constants in Cartesian coordinates: 
                1             2             3             4             5 
      1  0.697206D-01
      2  0.000000D+00  0.310598D-01
      3  0.585571D-02  0.000000D+00  0.357180D+00
      4 -0.617204D-01  0.000000D+00 -0.783901D-02  0.209483D+00
      5  0.000000D+00 -0.296208D-01  0.000000D+00  0.000000D+00  0.282105D-01
      6  0.442159D-01  0.000000D+00 -0.347088D+00 -0.143564D-02  0.000000D+00
      7  0.886701D-02  0.000000D+00  0.828319D-02 -0.139585D+00  0.000000D+00
      8  0.000000D+00 -0.106514D-01  0.000000D+00  0.000000D+00  0.977775D-02
      9 -0.413768D-01  0.000000D+00 -0.159496D-01  0.132713D+00  0.000000D+00
     10 -0.168673D-01  0.000000D+00 -0.629989D-02 -0.817708D-02  0.000000D+00
     11  0.000000D+00  0.921236D-02  0.000000D+00  0.000000D+00 -0.836738D-02
     12 -0.869476D-02  0.000000D+00  0.585733D-02 -0.123439D+00  0.000000D+00
                6             7             8             9            10 
      6  0.467263D+00
      7  0.618569D-01  0.240676D+00
      8  0.000000D+00  0.000000D+00  0.961137D-02
      9 -0.634325D-01 -0.589268D-01  0.000000D+00  0.796248D+00
     10 -0.104637D+00 -0.109958D+00  0.000000D+00 -0.324097D-01  0.135002D+00
     11  0.000000D+00  0.000000D+00 -0.873775D-02  0.000000D+00  0.000000D+00
     12 -0.567420D-01 -0.112133D-01  0.000000D+00 -0.716866D+00  0.143347D+00
               11            12 
     11  0.789277D-02
     12  0.000000D+00  0.767750D+00
 Force constants in internal coordinates: 
                1             2             3             4             5 
      1  0.357180D+00
      2  0.915402D-04  0.170835D+00
      3 -0.478962D-02  0.145328D+00  0.796670D+00
      4  0.118594D-01  0.345657D-01  0.216861D-01  0.181208D+00
      5  0.158901D-01  0.539445D-01  0.842691D-01  0.655285D-01  0.526386D+00
      6  0.000000D+00  0.000000D+00  0.000000D+00  0.000000D+00  0.000000D+00
                6 
      6  0.361880D-01
 Leave Link  716 at Tue Jan 18 14:07:25 2022, MaxMem= 16106127360 cpu:               1.2 elap:               0.1
 (Enter /sw/contrib/gaussian/g16/B01/g16/l103.exe)

 GradGradGradGradGradGradGradGradGradGradGradGradGradGradGradGradGradGrad
 Berny optimization.
 Search for a local minimum.
 Step number   1 out of a maximum of    2 on scan point     1 out of     3
 All quantities printed in internal units (Hartrees-Bohrs-Radians)
 Second derivative matrix not updated -- analytic derivatives used.
 The second derivative matrix:
                          r1        r2        r3        a1        a2
           r1           0.35718
           r2           0.00009   0.17083
           r3          -0.00479   0.14533   0.79667
           a1           0.01186   0.03457   0.02169   0.18121
           a2           0.01589   0.05394   0.08427   0.06553   0.52639
           d1           0.00000  -0.00000  -0.00000   0.00000   0.00000
                          d1
           d1           0.03619
 ITU=  0
     Eigenvalues --- 1000.000001000.000001000.000001000.000001000.00000
     Eigenvalues --- 1000.00000
 Angle between quadratic step and forces=  90.00 degrees.
 Linear search not attempted -- first point.
 Variable       Old X    -DE/DX   Delta X   Delta X   Delta X     New X
                                 (Linear)    (Quad)   (Total)
    r1        1.92802  -0.04044   0.00000   0.00000   0.00000   1.92802
    r2        2.69808   0.00003   0.00000   0.00000   0.00000   2.69808
    r3        2.22383   0.00079   0.00000   0.00000   0.00000   2.22383
    a1        1.77374  -0.00110   0.00000   0.00000   0.00000   1.77374
    a2        1.93223  -0.00149   0.00000   0.00000   0.00000   1.93223
    d1        3.14159  -0.00000   0.00000   0.00000   0.00000   3.14159
         Item               Value     Threshold  Converged?
 Maximum Force            0.000000     0.000450     YES
 RMS     Force            0.000000     0.000300     YES
 Maximum Displacement     0.000000     0.001800     YES
 RMS     Displacement     0.000000     0.001200     YES
 Predicted change in Energy=-0.000000D+00
 Optimization completed.
    -- Stationary point found.
                       ----------------------------
                       !   Optimized Parameters   !
                       ! (Angstroms and Degrees)  !
 ----------------------                            ----------------------
 !      Name          Value   Derivative information (Atomic Units)     !
 ------------------------------------------------------------------------
 !       r1          1.0203   -DE/DX =   -0.0404                        !
 !       r2          1.4278   -DE/DX =    0.0                           !
 !       r3          1.1768   -DE/DX =    0.0008                        !
 !       a1        101.6278   -DE/DX =   -0.0011                        !
 !       a2        110.7086   -DE/DX =   -0.0015                        !
 !       d1        180.0      -DE/DX =    0.0                           !
 ------------------------------------------------------------------------
 GradGradGradGradGradGradGradGradGradGradGradGradGradGradGradGradGradGrad

 Leave Link  103 at Tue Jan 18 14:07:25 2022, MaxMem= 16106127360 cpu:               0.6 elap:               0.0
 (Enter /sw/contrib/gaussian/g16/B01/g16/l9999.exe)

 ----------------------------------------------------------------------

 Electric dipole moment (input orientation):
 (Debye = 10**-18 statcoulomb cm , SI units = C m)
                  (au)            (Debye)         (10**-30 SI)
   Tot        0.763346D+00      0.194023D+01      0.647192D+01
   x         -0.960286D-01     -0.244080D+00     -0.814165D+00
   y          0.000000D+00      0.000000D+00      0.000000D+00
   z         -0.757282D+00     -0.192482D+01     -0.642051D+01

 Dipole polarizability, Alpha (input orientation).
 (esu units = cm**3 , SI units = C**2 m**2 J**-1)
 Alpha(0;0):
               (au)            (10**-24 esu)      (10**-40 SI)
   iso        0.213219D+02      0.315959D+01      0.351551D+01
   aniso      0.148758D+02      0.220437D+01      0.245270D+01
   xx         0.242935D+02      0.359993D+01      0.400546D+01
   yx         0.000000D+00      0.000000D+00      0.000000D+00
   yy         0.147618D+02      0.218748D+01      0.243390D+01
   zx         0.643368D+01      0.953374D+00      0.106077D+01
   zy         0.000000D+00      0.000000D+00      0.000000D+00
   zz         0.249105D+02      0.369135D+01      0.410718D+01

 ----------------------------------------------------------------------

 Dipole orientation:
     1          0.00000000          0.00000000          0.00000000
     8         -0.24254371          0.00000000         -1.91270037
     7          2.31076360          0.00000000         -2.78463894
     8          2.38270589          0.00000000         -5.00730875

 Electric dipole moment (dipole orientation):
 (Debye = 10**-18 statcoulomb cm , SI units = C m)
                  (au)            (Debye)         (10**-30 SI)
   Tot        0.763346D+00      0.194023D+01      0.647192D+01
   x          0.000000D+00      0.000000D+00      0.000000D+00
   y          0.000000D+00      0.000000D+00      0.000000D+00
   z          0.763346D+00      0.194023D+01      0.647192D+01

 Dipole polarizability, Alpha (dipole orientation).
 (esu units = cm**3 , SI units = C**2 m**2 J**-1)
 Alpha(0;0):
               (au)            (10**-24 esu)      (10**-40 SI)
   iso        0.213219D+02      0.315959D+01      0.351551D+01
   aniso      0.148758D+02      0.220437D+01      0.245270D+01
   xx         0.226974D+02      0.336341D+01      0.374230D+01
   yx         0.000000D+00      0.000000D+00      0.000000D+00
   yy         0.147618D+02      0.218748D+01      0.243390D+01
   zx        -0.615306D+01     -0.911789D+00     -0.101450D+01
   zy         0.000000D+00      0.000000D+00      0.000000D+00
   zz         0.265065D+02      0.392787D+01      0.437034D+01

 ----------------------------------------------------------------------
 1\1\GINC-N2096\Freq\RMP2-FC\Aug-CC-pVTZ\H1N1O2\CGAVINH\18-Jan-2022\1\\
 #P Geom=AllCheck Guess=TCheck SCRF=Check GenChk RMP2(FC)/Aug-CC-pVTZ F
 req\\title\\0,1\H\O,1,r1\N,2,r2,1,a1\O,3,r3,2,a2,1,d1,0\\r1=1.02026274
 \r2=1.42776435\r3=1.17680217\a1=101.62778538\a2=110.70859147\d1=180.\\
 Version=ES64L-G16RevB.01\State=1-A'\HF=-204.7188513\MP2=-205.4193335\R
 MSD=7.421e-10\RMSF=1.633e-02\ZeroPoint=0.0195387\Thermal=0.0226545\Dip
 ole=-0.0960286,0.,-0.7572822\DipoleDeriv=0.247463,0.,0.0499081,0.,0.32
 95447,0.,0.0792672,0.,0.2616713,-1.4250165,0.,-0.876779,0.,-0.2995958,
 0.,-0.302093,0.,-0.4200309,1.4538634,0.,0.8806399,0.,0.0181522,0.,1.00
 6628,0.,0.953755,-0.27631,0.,-0.0537691,0.,-0.048101,0.,-0.7838022,0.,
 -0.7953953\Polar=24.2935273,0.,14.7618462,6.4336849,0.,24.9104623\Quad
 rupole=-1.4136219,-0.2035405,1.6171624,0.,1.3245514,0.\PG=CS [SG(H1N1O
 2)]\NImag=0\\0.06972064,0.,0.03105983,0.00585571,0.,0.35718047,-0.0617
 2039,0.,-0.00783901,0.20948251,0.,-0.02962082,0.,0.,0.02821046,0.04421
 589,0.,-0.34708817,-0.00143564,0.,0.46726264,0.00886701,0.,0.00828319,
 -0.13958504,0.,0.06185687,0.24067561,0.,-0.01065138,0.,0.,0.00977775,0
 .,0.,0.00961137,-0.04137684,0.,-0.01594962,0.13271329,0.,-0.06343246,-
 0.05892680,0.,0.79624770,-0.01686726,0.,-0.00629989,-0.00817708,0.,-0.
 10463712,-0.10995758,0.,-0.03240965,0.13500191,0.,0.00921236,0.,0.,-0.
 00836738,0.,0.,-0.00873775,0.,0.,0.00789277,-0.00869476,0.,0.00585733,
 -0.12343864,0.,-0.05674201,-0.01121326,0.,-0.71686562,0.14334666,0.,0.
 76775030\\-0.00056956,0.,-0.04043641,0.00079030,0.,0.03950184,-0.00075
 804,0.,0.00182311,0.00053730,0.,-0.00088853\\\@


 GROWING OLD ISN'T SO BAD -- WHEN YOU CONSIDER THE ALTERNATIVE.

                     -- MAURICE CHEVALIER
 Job cpu time:       0 days  0 hours 42 minutes 21.6 seconds.
 Elapsed time:       0 days  0 hours  1 minutes 32.4 seconds.
 File lengths (MBytes):  RWF=   2790 Int=      0 D2E=      0 Chk=      8 Scr=      1
 Normal termination of Gaussian 16 at Tue Jan 18 14:07:26 2022.
