 Entering Gaussian System, Link 0=g16
 Input=hoono_r1_0p956752.gjf
 Output=hoono_r1_0p956752.log
 Initial command:
 /sw/contrib/gaussian/g16/B01/g16/l1.exe "/scr/Gau-14163.inp" -scrdir="/scr/"
 Entering Link 1 = /sw/contrib/gaussian/g16/B01/g16/l1.exe PID=     14165.
  
 Copyright (c) 1988-2017, Gaussian, Inc.  All Rights Reserved.
  
 This is part of the Gaussian(R) 16 program.  It is based on
 the Gaussian(R) 09 system (copyright 2009, Gaussian, Inc.),
 the Gaussian(R) 03 system (copyright 2003, Gaussian, Inc.),
 the Gaussian(R) 98 system (copyright 1998, Gaussian, Inc.),
 the Gaussian(R) 94 system (copyright 1995, Gaussian, Inc.),
 the Gaussian 92(TM) system (copyright 1992, Gaussian, Inc.),
 the Gaussian 90(TM) system (copyright 1990, Gaussian, Inc.),
 the Gaussian 88(TM) system (copyright 1988, Gaussian, Inc.),
 the Gaussian 86(TM) system (copyright 1986, Carnegie Mellon
 University), and the Gaussian 82(TM) system (copyright 1983,
 Carnegie Mellon University). Gaussian is a federally registered
 trademark of Gaussian, Inc.
  
 This software contains proprietary and confidential information,
 including trade secrets, belonging to Gaussian, Inc.
  
 This software is provided under written license and may be
 used, copied, transmitted, or stored only in accord with that
 written license.
  
 The following legend is applicable only to US Government
 contracts under FAR:
  
                    RESTRICTED RIGHTS LEGEND
  
 Use, reproduction and disclosure by the US Government is
 subject to restrictions as set forth in subparagraphs (a)
 and (c) of the Commercial Computer Software - Restricted
 Rights clause in FAR 52.227-19.
  
 Gaussian, Inc.
 340 Quinnipiac St., Bldg. 40, Wallingford CT 06492
  
  
 ---------------------------------------------------------------
 Warning -- This program may not be used in any manner that
 competes with the business of Gaussian, Inc. or will provide
 assistance to any competitor of Gaussian, Inc.  The licensee
 of this program is prohibited from giving any competitor of
 Gaussian, Inc. access to this program.  By using this program,
 the user acknowledges that Gaussian, Inc. is engaged in the
 business of creating and licensing software in the field of
 computational chemistry and represents and warrants to the
 licensee that it is not a competitor of Gaussian, Inc. and that
 it will not use this program in any manner prohibited above.
 ---------------------------------------------------------------
  

 Cite this work as:
 Gaussian 16, Revision B.01,
 M. J. Frisch, G. W. Trucks, H. B. Schlegel, G. E. Scuseria, 
 M. A. Robb, J. R. Cheeseman, G. Scalmani, V. Barone, 
 G. A. Petersson, H. Nakatsuji, X. Li, M. Caricato, A. V. Marenich, 
 J. Bloino, B. G. Janesko, R. Gomperts, B. Mennucci, H. P. Hratchian, 
 J. V. Ortiz, A. F. Izmaylov, J. L. Sonnenberg, D. Williams-Young, 
 F. Ding, F. Lipparini, F. Egidi, J. Goings, B. Peng, A. Petrone, 
 T. Henderson, D. Ranasinghe, V. G. Zakrzewski, J. Gao, N. Rega, 
 G. Zheng, W. Liang, M. Hada, M. Ehara, K. Toyota, R. Fukuda, 
 J. Hasegawa, M. Ishida, T. Nakajima, Y. Honda, O. Kitao, H. Nakai, 
 T. Vreven, K. Throssell, J. A. Montgomery, Jr., J. E. Peralta, 
 F. Ogliaro, M. J. Bearpark, J. J. Heyd, E. N. Brothers, K. N. Kudin, 
 V. N. Staroverov, T. A. Keith, R. Kobayashi, J. Normand, 
 K. Raghavachari, A. P. Rendell, J. C. Burant, S. S. Iyengar, 
 J. Tomasi, M. Cossi, J. M. Millam, M. Klene, C. Adamo, R. Cammi, 
 J. W. Ochterski, R. L. Martin, K. Morokuma, O. Farkas, 
 J. B. Foresman, and D. J. Fox, Gaussian, Inc., Wallingford CT, 2016.
 
 ******************************************
 Gaussian 16:  ES64L-G16RevB.01 20-Dec-2017
                14-Feb-2022 
 ******************************************
 %nproc=28
 Will use up to   28 processors via shared memory.
 %mem=120GB
 %chk=hoono_r1_0p956752.chk
 -------------------------------------
 #p SP mp2/aug-cc-pvtz density=current
 -------------------------------------
 1/30=1,38=1,172=1/1;
 2/12=2,17=6,18=5,40=1/2;
 3/5=16,6=1,7=10,11=9,25=1,30=1,71=1/1,2,3;
 4//1;
 5/5=2,38=5/2;
 8/6=4,10=1/1;
 9/15=1,16=-3/6;
 10/5=1,13=10/2;
 6/7=2,8=2,9=2,10=2,22=-1/1;
 99/5=1,9=1/99;
 Leave Link    1 at Mon Feb 14 13:09:21 2022, MaxMem= 16106127360 cpu:               3.5 elap:               0.1
 (Enter /sw/contrib/gaussian/g16/B01/g16/l101.exe)
 -----
 title
 -----
 Symbolic Z-matrix:
 Charge =  0 Multiplicity = 1
 H
 O                    1    r1
 O                    2    r2       1    a1
 N                    3    r3       2    a2       1    d1       0
 O                    4    r4       3    a3       2    d2       0
       Variables:
  r1                    0.95675                  
  r2                    1.45492                  
  r3                    1.45878                  
  r4                    1.17073                  
  a1                   97.59495                  
  a2                  102.29752                  
  a3                  109.06955                  
  d1                  180.                       
  d2                  180.                       
 
 ITRead=  0  0  0  0  0
 MicOpt= -1 -1 -1 -1 -1
 NAtoms=      5 NQM=        5 NQMF=       0 NMMI=      0 NMMIF=      0
                NMic=       0 NMicF=      0.
                    Isotopes and Nuclear Properties:
 (Nuclear quadrupole moments (NQMom) in fm**2, nuclear magnetic moments (NMagM)
  in nuclear magnetons)

  Atom         1           2           3           4           5
 IAtWgt=           1          16          16          14          16
 AtmWgt=   1.0078250  15.9949146  15.9949146  14.0030740  15.9949146
 NucSpn=           1           0           0           2           0
 AtZEff=  -0.0000000  -0.0000000  -0.0000000  -0.0000000  -0.0000000
 NQMom=    0.0000000   0.0000000   0.0000000   2.0440000   0.0000000
 NMagM=    2.7928460   0.0000000   0.0000000   0.4037610   0.0000000
 AtZNuc=   1.0000000   8.0000000   8.0000000   7.0000000   8.0000000
 Leave Link  101 at Mon Feb 14 13:09:22 2022, MaxMem= 16106127360 cpu:               2.1 elap:               0.1
 (Enter /sw/contrib/gaussian/g16/B01/g16/l202.exe)
                          Input orientation:                          
 ---------------------------------------------------------------------
 Center     Atomic      Atomic             Coordinates (Angstroms)
 Number     Number       Type             X           Y           Z
 ---------------------------------------------------------------------
      1          1           0        0.000000    0.000000    0.000000
      2          8           0        0.000000    0.000000    0.956752
      3          8           0        1.442156    0.000000    1.149047
      4          7           0        1.561752    0.000000    2.602921
      5          8           0        2.695867    0.000000    2.893415
 ---------------------------------------------------------------------
                    Distance matrix (angstroms):
                    1          2          3          4          5
     1  H    0.000000
     2  O    0.956752   0.000000
     3  O    1.843942   1.454919   0.000000
     4  N    3.035501   2.269127   1.458784   0.000000
     5  O    3.954688   3.319392   2.148165   1.170729   0.000000
 Stoichiometry    HNO3
 Framework group  CS[SG(HNO3)]
 Deg. of freedom     7
 Full point group                 CS      NOp   2
 Largest Abelian subgroup         CS      NOp   2
 Largest concise Abelian subgroup C1      NOp   1
                         Standard orientation:                         
 ---------------------------------------------------------------------
 Center     Atomic      Atomic             Coordinates (Angstroms)
 Number     Number       Type             X           Y           Z
 ---------------------------------------------------------------------
      1          1           0        1.547857    1.675517    0.000000
      2          8           0        1.454060    0.723374    0.000000
      3          8           0        0.000000    0.673389   -0.000000
      4          7           0       -0.261552   -0.761756    0.000000
      5          8           0       -1.418684   -0.939667   -0.000000
 ---------------------------------------------------------------------
 Rotational constants (GHZ):          55.0059920           5.0129762           4.5942764
 Leave Link  202 at Mon Feb 14 13:09:22 2022, MaxMem= 16106127360 cpu:               2.8 elap:               0.1
 (Enter /sw/contrib/gaussian/g16/B01/g16/l301.exe)
 Standard basis: Aug-CC-pVTZ (5D, 7F)
 Ernie: Thresh=  0.10000D-02 Tol=  0.10000D-05 Strict=F.
 Ernie:  12 primitive shells out of 131 were deleted.
 There are   166 symmetry adapted cartesian basis functions of A'  symmetry.
 There are    79 symmetry adapted cartesian basis functions of A"  symmetry.
 There are   136 symmetry adapted basis functions of A'  symmetry.
 There are    71 symmetry adapted basis functions of A"  symmetry.
   207 basis functions,   315 primitive gaussians,   245 cartesian basis functions
    16 alpha electrons       16 beta electrons
       nuclear repulsion energy       116.9439244358 Hartrees.
 IExCor=    0 DFT=F Ex=HF Corr=None ExCW=0 ScaHFX=  1.000000
 ScaDFX=  1.000000  1.000000  1.000000  1.000000 ScalE2=  1.000000  1.000000
 IRadAn=      5 IRanWt=     -1 IRanGd=            0 ICorTp=0 IEmpDi=  4
 NAtoms=    5 NActive=    5 NUniq=    5 SFac= 1.00D+00 NAtFMM=   60 NAOKFM=F Big=F
 Integral buffers will be    131072 words long.
 Raffenetti 1 integral format.
 Two-electron integral symmetry is turned on.
 Leave Link  301 at Mon Feb 14 13:09:22 2022, MaxMem= 16106127360 cpu:               1.9 elap:               0.1
 (Enter /sw/contrib/gaussian/g16/B01/g16/l302.exe)
 NPDir=0 NMtPBC=     1 NCelOv=     1 NCel=       1 NClECP=     1 NCelD=      1
         NCelK=      1 NCelE2=     1 NClLst=     1 CellRange=     0.0.
 One-electron integrals computed using PRISM.
 One-electron integral symmetry used in STVInt
 NBasis=   207 RedAO= T EigKep=  1.80D-04  NBF=   136    71
 NBsUse=   207 1.00D-06 EigRej= -1.00D+00 NBFU=   136    71
 Leave Link  302 at Mon Feb 14 13:09:22 2022, MaxMem= 16106127360 cpu:               4.9 elap:               0.2
 (Enter /sw/contrib/gaussian/g16/B01/g16/l303.exe)
 DipDrv:  MaxL=1.
 Leave Link  303 at Mon Feb 14 13:09:22 2022, MaxMem= 16106127360 cpu:               0.7 elap:               0.1
 (Enter /sw/contrib/gaussian/g16/B01/g16/l401.exe)
 ExpMin= 2.53D-02 ExpMax= 1.53D+04 ExpMxC= 5.22D+02 IAcc=3 IRadAn=         5 AccDes= 0.00D+00
 Harris functional with IExCor=  205 and IRadAn=       5 diagonalized for initial guess.
 HarFok:  IExCor=  205 AccDes= 0.00D+00 IRadAn=         5 IDoV= 1 UseB2=F ITyADJ=14
 ICtDFT=  3500011 ScaDFX=  1.000000  1.000000  1.000000  1.000000
 FoFCou: FMM=F IPFlag=           0 FMFlag=      100000 FMFlg1=           0
         NFxFlg=           0 DoJE=T BraDBF=F KetDBF=T FulRan=T
         wScrn=  0.000000 ICntrl=       500 IOpCl=  0 I1Cent=   200000004 NGrid=           0
         NMat0=    1 NMatS0=      1 NMatT0=    0 NMatD0=    1 NMtDS0=    0 NMtDT0=    0
 Petite list used in FoFCou.
 Harris En= -279.628730130260    
 JPrj=0 DoOrth=F DoCkMO=F.
 Initial guess orbital symmetries:
       Occupied  (A') (A') (A') (A') (A') (A') (A') (A') (A') (A')
                 (A") (A') (A') (A") (A") (A')
       Virtual   (A") (A') (A') (A') (A') (A') (A") (A') (A') (A')
                 (A") (A') (A") (A') (A') (A") (A') (A") (A') (A')
                 (A') (A') (A') (A') (A') (A") (A') (A") (A') (A')
                 (A") (A') (A") (A') (A') (A") (A') (A") (A') (A')
                 (A") (A') (A") (A') (A") (A') (A') (A') (A") (A")
                 (A') (A') (A') (A') (A") (A') (A") (A') (A") (A')
                 (A') (A') (A") (A') (A') (A") (A') (A") (A') (A')
                 (A") (A') (A') (A") (A") (A') (A') (A") (A') (A')
                 (A') (A") (A') (A") (A') (A") (A') (A") (A') (A')
                 (A') (A") (A') (A") (A') (A") (A") (A') (A') (A")
                 (A') (A') (A") (A') (A') (A') (A') (A") (A") (A')
                 (A") (A') (A') (A') (A") (A') (A') (A') (A") (A')
                 (A") (A') (A') (A") (A") (A') (A") (A') (A") (A')
                 (A') (A') (A') (A") (A") (A') (A") (A') (A') (A')
                 (A') (A") (A") (A') (A') (A") (A') (A') (A') (A')
                 (A") (A') (A') (A") (A') (A") (A') (A") (A') (A")
                 (A') (A") (A') (A") (A') (A") (A") (A") (A') (A')
                 (A") (A') (A") (A') (A") (A') (A") (A") (A') (A')
                 (A') (A') (A') (A') (A') (A') (A') (A') (A') (A')
                 (A')
 The electronic state of the initial guess is 1-A'.
 Leave Link  401 at Mon Feb 14 13:09:22 2022, MaxMem= 16106127360 cpu:               5.8 elap:               0.2
 (Enter /sw/contrib/gaussian/g16/B01/g16/l502.exe)
 Keep R1 ints in memory in symmetry-blocked form, NReq=348887737.
 FoFCou: FMM=F IPFlag=           0 FMFlag=           0 FMFlg1=           0
         NFxFlg=           0 DoJE=F BraDBF=F KetDBF=F FulRan=T
         wScrn=  0.000000 ICntrl=       600 IOpCl=  0 I1Cent=           0 NGrid=           0
         NMat0=    1 NMatS0=  21528 NMatT0=    0 NMatD0=    1 NMtDS0=    0 NMtDT0=    0
 Petite list used in FoFCou.
 Closed shell SCF:
 Using DIIS extrapolation, IDIIS=  1040.
 NGot= 16106127360 LenX= 15988850015 LenY= 15988789549
 Requested convergence on RMS density matrix=1.00D-08 within 128 cycles.
 Requested convergence on MAX density matrix=1.00D-06.
 Requested convergence on             energy=1.00D-06.
 No special actions if energy rises.

 Cycle   1  Pass 1  IDiag  1:
 E= -279.370107611104    
 DIIS: error= 2.56D-02 at cycle   1 NSaved=   1.
 NSaved= 1 IEnMin= 1 EnMin= -279.370107611104     IErMin= 1 ErrMin= 2.56D-02
 ErrMax= 2.56D-02  0.00D+00 EMaxC= 1.00D-01 BMatC= 4.40D-01 BMatP= 4.40D-01
 IDIUse=3 WtCom= 7.44D-01 WtEn= 2.56D-01
 Coeff-Com:  0.100D+01
 Coeff-En:   0.100D+01
 Coeff:      0.100D+01
 Gap=     0.513 Goal=   None    Shift=    0.000
 GapD=    0.513 DampG=2.000 DampE=0.500 DampFc=1.0000 IDamp=-1.
 RMSDP=1.63D-03 MaxDP=9.91D-02              OVMax= 1.14D-01

 Cycle   2  Pass 1  IDiag  1:
 E= -279.452248677153     Delta-E=       -0.082141066049 Rises=F Damp=F
 DIIS: error= 1.81D-02 at cycle   2 NSaved=   2.
 NSaved= 2 IEnMin= 2 EnMin= -279.452248677153     IErMin= 2 ErrMin= 1.81D-02
 ErrMax= 1.81D-02  0.00D+00 EMaxC= 1.00D-01 BMatC= 7.28D-02 BMatP= 4.40D-01
 IDIUse=3 WtCom= 8.19D-01 WtEn= 1.81D-01
 Coeff-Com:  0.197D+00 0.803D+00
 Coeff-En:   0.000D+00 0.100D+01
 Coeff:      0.161D+00 0.839D+00
 Gap=     0.530 Goal=   None    Shift=    0.000
 RMSDP=9.06D-04 MaxDP=3.73D-02 DE=-8.21D-02 OVMax= 6.92D-02

 Cycle   3  Pass 1  IDiag  1:
 E= -279.481842821186     Delta-E=       -0.029594144032 Rises=F Damp=F
 DIIS: error= 1.05D-02 at cycle   3 NSaved=   3.
 NSaved= 3 IEnMin= 3 EnMin= -279.481842821186     IErMin= 3 ErrMin= 1.05D-02
 ErrMax= 1.05D-02  0.00D+00 EMaxC= 1.00D-01 BMatC= 2.89D-02 BMatP= 7.28D-02
 IDIUse=3 WtCom= 8.95D-01 WtEn= 1.05D-01
 Coeff-Com: -0.329D-01 0.377D+00 0.656D+00
 Coeff-En:   0.000D+00 0.239D+00 0.761D+00
 Coeff:     -0.294D-01 0.363D+00 0.667D+00
 Gap=     0.511 Goal=   None    Shift=    0.000
 RMSDP=3.78D-04 MaxDP=1.54D-02 DE=-2.96D-02 OVMax= 3.84D-02

 Cycle   4  Pass 1  IDiag  1:
 E= -279.501049559865     Delta-E=       -0.019206738679 Rises=F Damp=F
 DIIS: error= 1.32D-03 at cycle   4 NSaved=   4.
 NSaved= 4 IEnMin= 4 EnMin= -279.501049559865     IErMin= 4 ErrMin= 1.32D-03
 ErrMax= 1.32D-03  0.00D+00 EMaxC= 1.00D-01 BMatC= 5.03D-04 BMatP= 2.89D-02
 IDIUse=3 WtCom= 9.87D-01 WtEn= 1.32D-02
 Coeff-Com: -0.118D-01 0.585D-01 0.161D+00 0.792D+00
 Coeff-En:   0.000D+00 0.000D+00 0.000D+00 0.100D+01
 Coeff:     -0.117D-01 0.577D-01 0.159D+00 0.795D+00
 Gap=     0.503 Goal=   None    Shift=    0.000
 RMSDP=9.03D-05 MaxDP=2.78D-03 DE=-1.92D-02 OVMax= 1.12D-02

 Cycle   5  Pass 1  IDiag  1:
 E= -279.501730236610     Delta-E=       -0.000680676745 Rises=F Damp=F
 DIIS: error= 7.34D-04 at cycle   5 NSaved=   5.
 NSaved= 5 IEnMin= 5 EnMin= -279.501730236610     IErMin= 5 ErrMin= 7.34D-04
 ErrMax= 7.34D-04  0.00D+00 EMaxC= 1.00D-01 BMatC= 8.70D-05 BMatP= 5.03D-04
 IDIUse=3 WtCom= 9.93D-01 WtEn= 7.34D-03
 Coeff-Com:  0.613D-02-0.720D-01-0.118D+00 0.139D-01 0.117D+01
 Coeff-En:   0.000D+00 0.000D+00 0.000D+00 0.000D+00 0.100D+01
 Coeff:      0.609D-02-0.715D-01-0.117D+00 0.138D-01 0.117D+01
 Gap=     0.503 Goal=   None    Shift=    0.000
 RMSDP=7.66D-05 MaxDP=2.11D-03 DE=-6.81D-04 OVMax= 1.11D-02

 Cycle   6  Pass 1  IDiag  1:
 E= -279.502046716468     Delta-E=       -0.000316479858 Rises=F Damp=F
 DIIS: error= 2.87D-04 at cycle   6 NSaved=   6.
 NSaved= 6 IEnMin= 6 EnMin= -279.502046716468     IErMin= 6 ErrMin= 2.87D-04
 ErrMax= 2.87D-04  0.00D+00 EMaxC= 1.00D-01 BMatC= 1.66D-05 BMatP= 8.70D-05
 IDIUse=3 WtCom= 9.97D-01 WtEn= 2.87D-03
 Coeff-Com:  0.566D-03 0.194D-02 0.510D-02-0.127D+00-0.241D+00 0.136D+01
 Coeff-En:   0.000D+00 0.000D+00 0.000D+00 0.000D+00 0.000D+00 0.100D+01
 Coeff:      0.564D-03 0.194D-02 0.509D-02-0.127D+00-0.240D+00 0.136D+01
 Gap=     0.503 Goal=   None    Shift=    0.000
 RMSDP=4.54D-05 MaxDP=1.25D-03 DE=-3.16D-04 OVMax= 5.55D-03

 Cycle   7  Pass 1  IDiag  1:
 E= -279.502119482617     Delta-E=       -0.000072766148 Rises=F Damp=F
 DIIS: error= 1.20D-04 at cycle   7 NSaved=   7.
 NSaved= 7 IEnMin= 7 EnMin= -279.502119482617     IErMin= 7 ErrMin= 1.20D-04
 ErrMax= 1.20D-04  0.00D+00 EMaxC= 1.00D-01 BMatC= 4.44D-06 BMatP= 1.66D-05
 IDIUse=3 WtCom= 9.99D-01 WtEn= 1.20D-03
 Coeff-Com: -0.943D-03 0.135D-01 0.265D-01-0.220D-01-0.288D+00 0.386D+00
 Coeff-Com:  0.885D+00
 Coeff-En:   0.000D+00 0.000D+00 0.000D+00 0.000D+00 0.000D+00 0.000D+00
 Coeff-En:   0.100D+01
 Coeff:     -0.942D-03 0.135D-01 0.265D-01-0.220D-01-0.288D+00 0.385D+00
 Coeff:      0.885D+00
 Gap=     0.503 Goal=   None    Shift=    0.000
 RMSDP=1.32D-05 MaxDP=3.79D-04 DE=-7.28D-05 OVMax= 1.54D-03

 Cycle   8  Pass 1  IDiag  1:
 E= -279.502128267947     Delta-E=       -0.000008785330 Rises=F Damp=F
 DIIS: error= 5.81D-05 at cycle   8 NSaved=   8.
 NSaved= 8 IEnMin= 8 EnMin= -279.502128267947     IErMin= 8 ErrMin= 5.81D-05
 ErrMax= 5.81D-05  0.00D+00 EMaxC= 1.00D-01 BMatC= 6.02D-07 BMatP= 4.44D-06
 IDIUse=1 WtCom= 1.00D+00 WtEn= 0.00D+00
 Coeff-Com: -0.446D-03 0.341D-02 0.755D-02 0.270D-01-0.399D-01-0.198D+00
 Coeff-Com:  0.177D+00 0.102D+01
 Coeff:     -0.446D-03 0.341D-02 0.755D-02 0.270D-01-0.399D-01-0.198D+00
 Coeff:      0.177D+00 0.102D+01
 Gap=     0.503 Goal=   None    Shift=    0.000
 RMSDP=6.84D-06 MaxDP=2.02D-04 DE=-8.79D-06 OVMax= 7.41D-04

 Cycle   9  Pass 1  IDiag  1:
 E= -279.502130018216     Delta-E=       -0.000001750270 Rises=F Damp=F
 DIIS: error= 1.59D-05 at cycle   9 NSaved=   9.
 NSaved= 9 IEnMin= 9 EnMin= -279.502130018216     IErMin= 9 ErrMin= 1.59D-05
 ErrMax= 1.59D-05  0.00D+00 EMaxC= 1.00D-01 BMatC= 6.95D-08 BMatP= 6.02D-07
 IDIUse=1 WtCom= 1.00D+00 WtEn= 0.00D+00
 Coeff-Com:  0.124D-03-0.172D-02-0.309D-02-0.219D-02 0.344D-01 0.138D-03
 Coeff-Com: -0.170D+00-0.100D+00 0.124D+01
 Coeff:      0.124D-03-0.172D-02-0.309D-02-0.219D-02 0.344D-01 0.138D-03
 Coeff:     -0.170D+00-0.100D+00 0.124D+01
 Gap=     0.503 Goal=   None    Shift=    0.000
 RMSDP=1.94D-06 MaxDP=6.65D-05 DE=-1.75D-06 OVMax= 1.75D-04

 Cycle  10  Pass 1  IDiag  1:
 E= -279.502130177883     Delta-E=       -0.000000159667 Rises=F Damp=F
 DIIS: error= 4.11D-06 at cycle  10 NSaved=  10.
 NSaved=10 IEnMin=10 EnMin= -279.502130177883     IErMin=10 ErrMin= 4.11D-06
 ErrMax= 4.11D-06  0.00D+00 EMaxC= 1.00D-01 BMatC= 5.48D-09 BMatP= 6.95D-08
 IDIUse=1 WtCom= 1.00D+00 WtEn= 0.00D+00
 Coeff-Com:  0.301D-04-0.231D-03-0.306D-03-0.264D-02 0.138D-02 0.196D-01
 Coeff-Com: -0.128D-01-0.726D-01-0.850D-01 0.115D+01
 Coeff:      0.301D-04-0.231D-03-0.306D-03-0.264D-02 0.138D-02 0.196D-01
 Coeff:     -0.128D-01-0.726D-01-0.850D-01 0.115D+01
 Gap=     0.503 Goal=   None    Shift=    0.000
 RMSDP=5.03D-07 MaxDP=2.10D-05 DE=-1.60D-07 OVMax= 4.18D-05

 Cycle  11  Pass 1  IDiag  1:
 E= -279.502130190318     Delta-E=       -0.000000012436 Rises=F Damp=F
 DIIS: error= 2.03D-06 at cycle  11 NSaved=  11.
 NSaved=11 IEnMin=11 EnMin= -279.502130190318     IErMin=11 ErrMin= 2.03D-06
 ErrMax= 2.03D-06  0.00D+00 EMaxC= 1.00D-01 BMatC= 6.55D-10 BMatP= 5.48D-09
 IDIUse=1 WtCom= 1.00D+00 WtEn= 0.00D+00
 Coeff-Com: -0.212D-04 0.242D-03 0.486D-03 0.534D-03-0.427D-02-0.354D-02
 Coeff-Com:  0.214D-01 0.304D-01-0.139D+00-0.177D+00 0.127D+01
 Coeff:     -0.212D-04 0.242D-03 0.486D-03 0.534D-03-0.427D-02-0.354D-02
 Coeff:      0.214D-01 0.304D-01-0.139D+00-0.177D+00 0.127D+01
 Gap=     0.503 Goal=   None    Shift=    0.000
 RMSDP=1.77D-07 MaxDP=6.50D-06 DE=-1.24D-08 OVMax= 1.72D-05

 Cycle  12  Pass 1  IDiag  1:
 E= -279.502130192113     Delta-E=       -0.000000001795 Rises=F Damp=F
 DIIS: error= 5.86D-07 at cycle  12 NSaved=  12.
 NSaved=12 IEnMin=12 EnMin= -279.502130192113     IErMin=12 ErrMin= 5.86D-07
 ErrMax= 5.86D-07  0.00D+00 EMaxC= 1.00D-01 BMatC= 7.15D-11 BMatP= 6.55D-10
 IDIUse=1 WtCom= 1.00D+00 WtEn= 0.00D+00
 Coeff-Com:  0.127D-05-0.293D-04-0.638D-04 0.175D-03 0.110D-02-0.232D-02
 Coeff-Com: -0.415D-02 0.554D-02 0.419D-01-0.116D+00-0.277D+00 0.135D+01
 Coeff:      0.127D-05-0.293D-04-0.638D-04 0.175D-03 0.110D-02-0.232D-02
 Coeff:     -0.415D-02 0.554D-02 0.419D-01-0.116D+00-0.277D+00 0.135D+01
 Gap=     0.503 Goal=   None    Shift=    0.000
 RMSDP=7.19D-08 MaxDP=2.83D-06 DE=-1.79D-09 OVMax= 6.66D-06

 Cycle  13  Pass 1  IDiag  1:
 E= -279.502130192344     Delta-E=       -0.000000000231 Rises=F Damp=F
 DIIS: error= 1.69D-07 at cycle  13 NSaved=  13.
 NSaved=13 IEnMin=13 EnMin= -279.502130192344     IErMin=13 ErrMin= 1.69D-07
 ErrMax= 1.69D-07  0.00D+00 EMaxC= 1.00D-01 BMatC= 4.01D-12 BMatP= 7.15D-11
 IDIUse=1 WtCom= 1.00D+00 WtEn= 0.00D+00
 Coeff-Com:  0.127D-05-0.138D-04-0.223D-04-0.882D-04 0.117D-03 0.763D-03
 Coeff-Com: -0.864D-03-0.323D-02 0.530D-03 0.415D-01-0.367D-01-0.325D+00
 Coeff-Com:  0.132D+01
 Coeff:      0.127D-05-0.138D-04-0.223D-04-0.882D-04 0.117D-03 0.763D-03
 Coeff:     -0.864D-03-0.323D-02 0.530D-03 0.415D-01-0.367D-01-0.325D+00
 Coeff:      0.132D+01
 Gap=     0.503 Goal=   None    Shift=    0.000
 RMSDP=1.92D-08 MaxDP=5.59D-07 DE=-2.31D-10 OVMax= 1.57D-06

 Cycle  14  Pass 1  IDiag  1:
 E= -279.502130192356     Delta-E=       -0.000000000011 Rises=F Damp=F
 DIIS: error= 2.43D-08 at cycle  14 NSaved=  14.
 NSaved=14 IEnMin=14 EnMin= -279.502130192356     IErMin=14 ErrMin= 2.43D-08
 ErrMax= 2.43D-08  0.00D+00 EMaxC= 1.00D-01 BMatC= 1.95D-13 BMatP= 4.01D-12
 IDIUse=1 WtCom= 1.00D+00 WtEn= 0.00D+00
 Coeff-Com: -0.189D-06 0.309D-05 0.556D-05 0.468D-05-0.825D-04 0.459D-04
 Coeff-Com:  0.284D-03 0.218D-03-0.244D-02 0.149D-02 0.169D-01-0.255D-01
 Coeff-Com: -0.200D+00 0.121D+01
 Coeff:     -0.189D-06 0.309D-05 0.556D-05 0.468D-05-0.825D-04 0.459D-04
 Coeff:      0.284D-03 0.218D-03-0.244D-02 0.149D-02 0.169D-01-0.255D-01
 Coeff:     -0.200D+00 0.121D+01
 Gap=     0.503 Goal=   None    Shift=    0.000
 RMSDP=3.79D-09 MaxDP=9.14D-08 DE=-1.15D-11 OVMax= 3.41D-07

 SCF Done:  E(RHF) =  -279.502130192     A.U. after   14 cycles
            NFock= 14  Conv=0.38D-08     -V/T= 2.0023
 KE= 2.788687815699D+02 PE=-8.952183752481D+02 EE= 2.199035390500D+02
 Leave Link  502 at Mon Feb 14 13:09:26 2022, MaxMem= 16106127360 cpu:              51.6 elap:               3.4
 (Enter /sw/contrib/gaussian/g16/B01/g16/l801.exe)
 ExpMin= 2.53D-02 ExpMax= 1.53D+04 ExpMxC= 5.22D+02 IAcc=3 IRadAn=         5 AccDes= 0.00D+00
 HarFok:  IExCor=  205 AccDes= 0.00D+00 IRadAn=         5 IDoV=-2 UseB2=F ITyADJ=14
 ICtDFT= 12500011 ScaDFX=  1.000000  1.000000  1.000000  1.000000
 Largest valence mixing into a core orbital is  2.08D-04
 Largest core mixing into a valence orbital is  3.63D-05
 Range of M.O.s used for correlation:     5   207
 NBasis=   207 NAE=    16 NBE=    16 NFC=     4 NFV=     0
 NROrb=    203 NOA=    12 NOB=    12 NVA=   191 NVB=   191

 **** Warning!!: The largest alpha MO coefficient is  0.17899573D+02

 Leave Link  801 at Mon Feb 14 13:09:26 2022, MaxMem= 16106127360 cpu:               2.4 elap:               0.1
 (Enter /sw/contrib/gaussian/g16/B01/g16/l906.exe)
 Frozen-core derivative calculation, NFC=   4 NFV=   0.
 FulOut=F Deriv=T AODrv=F NAtomX=     5
   MMem=          76  MDisk=          12 MDiskD=          12
  W3Min=      811440 MinDsk=     1524655 NBas6D=         245
 NBas2D=       30762    NTT=       30135    LW2=     3500000
    MDV= 16105579899 MDiskM=      328644 NBas2p=       30466
 Fully in-core method, ICMem=   960157634.
 IMap=   1   2   3   4   5   6   7   8   9  10  11  12  13  14  15  16
 JobTyp=1 Pass  1 fully in-core, NPsUse= 28.
 Compute canonical integrals.
 FoFCou: FMM=F IPFlag=           0 FMFlag=           0 FMFlg1=           0
         NFxFlg=           0 DoJE=F BraDBF=F KetDBF=F FulRan=T
         wScrn=  0.000000 ICntrl=       600 IOpCl=  1 I1Cent=           0 NGrid=           0
         NMat0=    1 NMatS0=  30762 NMatT0=    0 NMatD0=    1 NMtDS0=    0 NMtDT0=    0
 Symmetry not used in FoFCou.
 Spin components of T(2) and E(2):
     alpha-alpha T2 =       0.3396608080D-01 E2=     -0.1223281046D+00
     alpha-beta  T2 =       0.1864956869D+00 E2=     -0.6998078231D+00
     beta-beta   T2 =       0.3396608080D-01 E2=     -0.1223281046D+00
 The integrals were generated   1 times.
 ANorm=    0.1120012432D+01
 E2 =    -0.9444640323D+00 EUMP2 =    -0.28044659422464D+03
 Leave Link  906 at Mon Feb 14 13:09:35 2022, MaxMem= 16106127360 cpu:             245.7 elap:               8.8
 (Enter /sw/contrib/gaussian/g16/B01/g16/l1002.exe)
 Minotr:  Closed shell wavefunction.
          Computing MP2/KS-MP2 derivatives.
          Using Z-Vector for PSCF gradient.
          Skipping F1 and S1 gradient terms here.
          Frozen-core window.
          Direct CPHF calculation.
          Differentiating once with respect to electric field.
                with respect to dipole field.
          Electric field/nuclear overlap derivatives assumed to be zero.
          Using symmetry in CPHF.
          Requested convergence is 1.0D-10 RMS, and 1.0D-09 maximum.
          NewPWx=F KeepS1=T KeepF1=T KeepIn=T MapXYZ=F SortEE=F KeepMc=T.
 Keep R1 ints in memory in symmetry-blocked form, NReq=348888868.
 FoFCou: FMM=F IPFlag=           0 FMFlag=           0 FMFlg1=           0
         NFxFlg=           0 DoJE=F BraDBF=F KetDBF=F FulRan=T
         wScrn=  0.000000 ICntrl=       600 IOpCl=  0 I1Cent=           0 NGrid=           0
         NMat0=    1 NMatS0=  21528 NMatT0=    0 NMatD0=    1 NMtDS0=    0 NMtDT0=    0
 Petite list used in FoFCou.
          MDV=   16106127360 using IRadAn=       5.
          Solving linear equations separately, MaxMat=       0.
          There are     1 degrees of freedom in the 1st order CPHF.  IDoFFX=0 NUNeed=     1.
 LinEq1:  Iter=  0 NonCon=     1 RMS=5.95D-03 Max=1.32D-01 NDo=     1
 AX will form     1 AO Fock derivatives at one time.
 LinEq1:  Iter=  1 NonCon=     1 RMS=1.90D-03 Max=3.83D-02 NDo=     1
 LinEq1:  Iter=  2 NonCon=     1 RMS=8.67D-04 Max=1.42D-02 NDo=     1
 LinEq1:  Iter=  3 NonCon=     1 RMS=3.87D-04 Max=7.82D-03 NDo=     1
 LinEq1:  Iter=  4 NonCon=     1 RMS=1.19D-04 Max=1.90D-03 NDo=     1
 LinEq1:  Iter=  5 NonCon=     1 RMS=4.57D-05 Max=7.27D-04 NDo=     1
 LinEq1:  Iter=  6 NonCon=     1 RMS=2.04D-05 Max=2.31D-04 NDo=     1
 LinEq1:  Iter=  7 NonCon=     1 RMS=8.16D-06 Max=1.60D-04 NDo=     1
 LinEq1:  Iter=  8 NonCon=     1 RMS=3.45D-06 Max=3.42D-05 NDo=     1
 LinEq1:  Iter=  9 NonCon=     1 RMS=9.37D-07 Max=1.30D-05 NDo=     1
 LinEq1:  Iter= 10 NonCon=     1 RMS=1.84D-07 Max=2.00D-06 NDo=     1
 LinEq1:  Iter= 11 NonCon=     1 RMS=3.41D-08 Max=3.54D-07 NDo=     1
 LinEq1:  Iter= 12 NonCon=     1 RMS=8.24D-09 Max=1.27D-07 NDo=     1
 LinEq1:  Iter= 13 NonCon=     1 RMS=1.49D-09 Max=2.55D-08 NDo=     1
 LinEq1:  Iter= 14 NonCon=     1 RMS=2.70D-10 Max=3.80D-09 NDo=     1
 LinEq1:  Iter= 15 NonCon=     0 RMS=4.87D-11 Max=5.48D-10 NDo=     1
 Linear equations converged to 1.000D-10 1.000D-09 after    15 iterations.
 End of Minotr F.D. properties file   721 does not exist.
 End of Minotr F.D. properties file   722 does not exist.
 End of Minotr F.D. properties file   788 does not exist.
 Leave Link 1002 at Mon Feb 14 13:09:39 2022, MaxMem= 16106127360 cpu:              52.9 elap:               3.9
 (Enter /sw/contrib/gaussian/g16/B01/g16/l601.exe)
 Copying SCF densities to generalized density rwf, IOpCl= 0 IROHF=0.

 **********************************************************************

            Population analysis using the MP2 Density.

 **********************************************************************

 Orbital symmetries:
       Occupied  (A') (A') (A') (A') (A') (A') (A') (A') (A') (A')
                 (A") (A') (A") (A') (A") (A')
       Virtual   (A') (A") (A') (A') (A") (A') (A') (A') (A") (A')
                 (A") (A') (A') (A') (A") (A') (A') (A") (A') (A')
                 (A') (A') (A') (A') (A") (A') (A') (A") (A') (A')
                 (A") (A') (A") (A') (A') (A") (A') (A') (A") (A')
                 (A") (A') (A") (A') (A') (A") (A') (A') (A") (A')
                 (A") (A') (A') (A') (A") (A') (A") (A') (A") (A')
                 (A') (A') (A") (A') (A') (A") (A') (A") (A') (A')
                 (A") (A') (A') (A") (A") (A') (A') (A") (A') (A')
                 (A') (A") (A') (A") (A') (A") (A') (A") (A') (A')
                 (A") (A') (A') (A") (A') (A") (A') (A") (A') (A')
                 (A") (A') (A") (A') (A') (A") (A') (A') (A") (A')
                 (A") (A') (A') (A') (A") (A') (A') (A') (A") (A')
                 (A") (A') (A") (A') (A') (A") (A") (A') (A") (A')
                 (A') (A') (A') (A") (A") (A") (A') (A') (A') (A')
                 (A") (A') (A') (A") (A') (A") (A') (A') (A') (A')
                 (A") (A') (A') (A") (A') (A") (A') (A") (A') (A")
                 (A') (A") (A') (A") (A') (A") (A") (A') (A") (A')
                 (A") (A') (A") (A') (A") (A') (A") (A") (A') (A')
                 (A') (A') (A') (A') (A') (A') (A') (A') (A') (A')
                 (A')
 The electronic state is 1-A'.
 Alpha  occ. eigenvalues --  -20.69121 -20.68453 -20.65901 -15.81309  -1.62432
 Alpha  occ. eigenvalues --   -1.49729  -1.25683  -0.94835  -0.77384  -0.76015
 Alpha  occ. eigenvalues --   -0.71208  -0.68122  -0.62083  -0.59002  -0.48565
 Alpha  occ. eigenvalues --   -0.47284
 Alpha virt. eigenvalues --    0.02986   0.07148   0.08589   0.10168   0.13387
 Alpha virt. eigenvalues --    0.13393   0.14457   0.15500   0.17808   0.19414
 Alpha virt. eigenvalues --    0.19977   0.20637   0.22077   0.23508   0.23726
 Alpha virt. eigenvalues --    0.26634   0.29365   0.30445   0.31093   0.34333
 Alpha virt. eigenvalues --    0.34907   0.38737   0.42339   0.43341   0.52724
 Alpha virt. eigenvalues --    0.52908   0.55846   0.58145   0.62581   0.63827
 Alpha virt. eigenvalues --    0.67430   0.68558   0.70634   0.71160   0.72513
 Alpha virt. eigenvalues --    0.72947   0.74492   0.79122   0.79222   0.81050
 Alpha virt. eigenvalues --    0.81258   0.83076   0.86805   0.90803   0.92256
 Alpha virt. eigenvalues --    0.92650   0.95760   0.97605   0.98628   1.01902
 Alpha virt. eigenvalues --    1.05142   1.05487   1.08347   1.11956   1.14264
 Alpha virt. eigenvalues --    1.18907   1.22152   1.23503   1.33848   1.34981
 Alpha virt. eigenvalues --    1.38604   1.45691   1.49117   1.51106   1.53769
 Alpha virt. eigenvalues --    1.56698   1.57897   1.61471   1.66305   1.66904
 Alpha virt. eigenvalues --    1.70339   1.79349   1.83168   1.83443   1.87789
 Alpha virt. eigenvalues --    1.91132   1.96249   1.99260   2.00819   2.07783
 Alpha virt. eigenvalues --    2.12240   2.13186   2.14985   2.22509   2.26326
 Alpha virt. eigenvalues --    2.26545   2.28960   2.31559   2.34470   2.38859
 Alpha virt. eigenvalues --    2.42452   2.42985   2.45409   2.46303   2.47733
 Alpha virt. eigenvalues --    2.50216   2.58486   2.59707   2.62040   2.62623
 Alpha virt. eigenvalues --    2.63420   2.66578   2.75749   2.82093   2.85617
 Alpha virt. eigenvalues --    2.88485   2.89364   2.92532   2.95772   3.02716
 Alpha virt. eigenvalues --    3.06895   3.12001   3.20432   3.22764   3.31838
 Alpha virt. eigenvalues --    3.34289   3.51654   3.64812   3.83859   3.85796
 Alpha virt. eigenvalues --    4.15974   4.16723   4.18663   4.25882   4.36226
 Alpha virt. eigenvalues --    4.39583   4.46737   4.52371   4.66309   4.71533
 Alpha virt. eigenvalues --    4.80643   4.82421   4.84956   4.89598   5.02320
 Alpha virt. eigenvalues --    5.07754   5.11390   5.15189   5.18589   5.26079
 Alpha virt. eigenvalues --    5.27550   5.31109   5.35849   5.35978   5.61292
 Alpha virt. eigenvalues --    5.67362   5.77290   5.83578   5.95878   6.16600
 Alpha virt. eigenvalues --    6.30903   6.33645   6.39754   6.49359   6.50541
 Alpha virt. eigenvalues --    6.61572   6.66683   6.69974   6.75712   6.76311
 Alpha virt. eigenvalues --    6.83299   6.89822   7.02062   7.05751   7.05880
 Alpha virt. eigenvalues --    7.09134   7.12681   7.15238   7.18161   7.22816
 Alpha virt. eigenvalues --    7.26368   7.31940   7.32573   7.35163   7.39884
 Alpha virt. eigenvalues --    7.43367   7.48444   7.60885   7.62051   7.62936
 Alpha virt. eigenvalues --    7.66983   7.80382   7.88730   8.09810   8.31816
 Alpha virt. eigenvalues --    8.42490   8.54869  13.39433  14.40496  15.34455
 Alpha virt. eigenvalues --   16.15238
          Condensed to atoms (all electrons):
               1          2          3          4          5
     1  H    0.603149   0.123604   0.021460   0.012727  -0.000690
     2  O    0.123604   8.318345  -0.175097  -0.091387   0.015640
     3  O    0.021460  -0.175097   8.470498  -0.130247  -0.038668
     4  N    0.012727  -0.091387  -0.130247   6.972081  -0.055744
     5  O   -0.000690   0.015640  -0.038668  -0.055744   8.272729
 Mulliken charges:
               1
     1  H    0.239750
     2  O   -0.191105
     3  O   -0.147946
     4  N    0.292570
     5  O   -0.193268
 Sum of Mulliken charges =  -0.00000
 Mulliken charges with hydrogens summed into heavy atoms:
               1
     2  O    0.048645
     3  O   -0.147946
     4  N    0.292570
     5  O   -0.193268
 Electronic spatial extent (au):  <R**2>=            252.7555
 Charge=             -0.0000 electrons
 Dipole moment (field-independent basis, Debye):
    X=              0.5017    Y=              1.3451    Z=              0.0000  Tot=              1.4356
 Quadrupole moment (field-independent basis, Debye-Ang):
   XX=            -22.4636   YY=            -18.6630   ZZ=            -21.9949
   XY=              3.2318   XZ=             -0.0000   YZ=             -0.0000
 Traceless Quadrupole moment (field-independent basis, Debye-Ang):
   XX=             -1.4231   YY=              2.3775   ZZ=             -0.9544
   XY=              3.2318   XZ=             -0.0000   YZ=             -0.0000
 Octapole moment (field-independent basis, Debye-Ang**2):
  XXX=              2.8843  YYY=             11.1556  ZZZ=             -0.0000  XYY=              7.8238
  XXY=              6.5485  XXZ=             -0.0000  XZZ=             -1.5576  YZZ=             -0.8378
  YYZ=              0.0000  XYZ=              0.0000
 Hexadecapole moment (field-independent basis, Debye-Ang**3):
 XXXX=           -158.2926 YYYY=            -89.9027 ZZZZ=            -18.2155 XXXY=            -36.6479
 XXXZ=             -0.0000 YYYX=            -30.9172 YYYZ=             -0.0000 ZZZX=             -0.0000
 ZZZY=             -0.0000 XXYY=            -34.0447 XXZZ=            -30.8255 YYZZ=            -20.6164
 XXYZ=             -0.0000 YYXZ=             -0.0000 ZZXY=            -15.0188
 N-N= 1.169439244358D+02 E-N=-8.960015306553D+02  KE= 2.802189375697D+02
 Symmetry A'   KE= 2.662465933857D+02
 Symmetry A"   KE= 1.397234418405D+01
 No NMR shielding tensors so no spin-rotation constants.
 Leave Link  601 at Mon Feb 14 13:09:39 2022, MaxMem= 16106127360 cpu:               4.4 elap:               0.2
 (Enter /sw/contrib/gaussian/g16/B01/g16/l9999.exe)
 1\1\GINC-N2228\SP\RMP2-FC\Aug-CC-pVTZ\H1N1O3\CGAVINH\14-Feb-2022\0\\#p
  SP mp2/aug-cc-pvtz density=current\\title\\0,1\H\O,1,0.9567520442\O,2
 ,1.45491931,1,97.59494903\N,3,1.45878406,2,102.29752444,1,180.,0\O,4,1
 .17072885,3,109.06955123,2,180.,0\\Version=ES64L-G16RevB.01\State=1-A'
 \HF=-279.5021302\MP2=-280.4465942\RMSD=3.788e-09\Dipole=-0.1445636,0.,
 -0.5460143\Quadrupole=-1.49972,-0.7095694,2.2092895,0.,2.0808798,0.\PG
 =CS [SG(H1N1O3)]\\@


 REFRAIN FROM ILLUSIONS, INSIST ON WORK AND NOT WORDS,
 PATIENTLY SEEK DIVINE AND SCIENTIFIC TRUTH.
 LAST WORDS OF MARIA MENDELEEVA TO HER SON DMITRI, C. 1850
 Job cpu time:       0 days  0 hours  6 minutes 21.1 seconds.
 Elapsed time:       0 days  0 hours  0 minutes 17.5 seconds.
 File lengths (MBytes):  RWF=     22 Int=      0 D2E=      0 Chk=      8 Scr=      1
 Normal termination of Gaussian 16 at Mon Feb 14 13:09:39 2022.
