title                                                                   
SP        RMP2-FC                                                     Aug-CC-pVTZ         
Number of atoms                            I                5
Info1-9                                    I   N=           9
          33          24           0           0           0         110
           1           2           1
Full Title                                 C   N=           1
title       
Route                                      C   N=           4
#p SP mp2/aug-cc-pvtz density=current           
Charge                                     I                0
Multiplicity                               I                1
Number of electrons                        I               32
Number of alpha electrons                  I               16
Number of beta electrons                   I               16
Number of basis functions                  I              207
Number of independent functions            I              207
Number of point charges in /Mol/           I                0
Number of translation vectors              I                0
Atomic numbers                             I   N=           5
           1           8           8           7           8
Nuclear charges                            R   N=           5
  1.00000000E+00  8.00000000E+00  8.00000000E+00  7.00000000E+00  8.00000000E+00
Current cartesian coordinates              R   N=          15
  2.92055004E+00  3.19949811E+00 -2.17953405E-32  2.74742777E+00  1.37660202E+00
  2.15019512E-33 -5.93109476E-17  1.27250755E+00  1.49190862E-32 -4.84747855E-01
 -1.44124029E+00  1.03962520E-32 -2.68834215E+00 -1.78796158E+00 -3.62769189E-32
Number of symbols in /Mol/                 I                0
Force Field                                I                0
Atom Types                                 C   N=           5
                                                            
Int Atom Types                             I   N=           5
           0           0           0           0           0
MM charges                                 R   N=           5
  0.00000000E+00  0.00000000E+00  0.00000000E+00  0.00000000E+00  0.00000000E+00
Integer atomic weights                     I   N=           5
           1          16          16          14          16
Real atomic weights                        R   N=           5
  1.00782504E+00  1.59949146E+01  1.59949146E+01  1.40030740E+01  1.59949146E+01
Atom fragment info                         I   N=           5
           0           0           0           0           0
Atom residue num                           I   N=           5
           0           0           0           0           0
Nuclear spins                              I   N=           5
           1           0           0           2           0
Nuclear ZEff                               R   N=           5
 -1.00000000E+00 -5.60000000E+00 -5.60000000E+00 -4.55000000E+00 -5.60000000E+00
Nuclear ZNuc                               R   N=           5
  1.00000000E+00  8.00000000E+00  8.00000000E+00  7.00000000E+00  8.00000000E+00
Nuclear QMom                               R   N=           5
  0.00000000E+00  0.00000000E+00  0.00000000E+00  2.04400000E+00  0.00000000E+00
Nuclear GFac                               R   N=           5
  2.79284600E+00  0.00000000E+00  0.00000000E+00  4.03761000E-01  0.00000000E+00
MicOpt                                     I   N=           5
          -1          -1          -1          -1          -1
Number of residues                         I                0
Number of secondary structures             I                0
SymInf integers                            I   N=          26
           1           2           1           1           1           1
           1          -1           0           0           0           0
           0           0           0           0           0           0
           0           0           0           0           0           0
           0           0
RotTr to input orientation                 R   N=          12
 -9.95520534E-01 -9.82820353E-17 -9.45455819E-02  9.45455819E-02 -7.30632559E-17
 -9.95520534E-01  9.09339762E-17 -1.00000000E+00  8.20281037E-17  2.60496912E+00
  0.00000000E+00  3.46129117E+00
Number of contracted shells                I               65
Number of primitive shells                 I              119
Pure/Cartesian d shells                    I                0
Pure/Cartesian f shells                    I                0
Highest angular momentum                   I                3
Largest degree of contraction              I                7
Shell types                                I   N=          65
           0           0           0           0           1           1
           1          -2          -2           0           0           0
           0           0           1           1           1           1
          -2          -2          -2          -3          -3           0
           0           0           0           0           1           1
           1           1          -2          -2          -2          -3
          -3           0           0           0           0           0
           1           1           1           1          -2          -2
          -2          -3          -3           0           0           0
           0           0           1           1           1           1
          -2          -2          -2          -3          -3
Number of primitives per shell             I   N=          65
           3           1           1           1           1           1
           1           1           1           7           6           1
           1           1           3           1           1           1
           1           1           1           1           1           7
           6           1           1           1           3           1
           1           1           1           1           1           1
           1           7           6           1           1           1
           3           1           1           1           1           1
           1           1           1           7           6           1
           1           1           3           1           1           1
           1           1           1           1           1
Shell to atom map                          I   N=          65
           1           1           1           1           1           1
           1           1           1           2           2           2
           2           2           2           2           2           2
           2           2           2           2           2           3
           3           3           3           3           3           3
           3           3           3           3           3           3
           3           4           4           4           4           4
           4           4           4           4           4           4
           4           4           4           5           5           5
           5           5           5           5           5           5
           5           5           5           5           5
Primitive exponents                        R   N=         119
  3.38700000E+01  5.09500000E+00  1.15900000E+00  3.25800000E-01  1.02700000E-01
  2.52600000E-02  1.40700000E+00  3.88000000E-01  1.02000000E-01  1.05700000E+00
  2.47000000E-01  1.53300000E+04  2.29900000E+03  5.22400000E+02  1.47300000E+02
  4.75500000E+01  1.67600000E+01  6.20700000E+00  5.22400000E+02  1.47300000E+02
  4.75500000E+01  1.67600000E+01  6.20700000E+00  6.88200000E-01  1.75200000E+00
  2.38400000E-01  7.37600000E-02  3.44600000E+01  7.74900000E+00  2.28000000E+00
  7.15600000E-01  2.14000000E-01  5.97400000E-02  2.31400000E+00  6.45000000E-01
  2.14000000E-01  1.42800000E+00  5.00000000E-01  1.53300000E+04  2.29900000E+03
  5.22400000E+02  1.47300000E+02  4.75500000E+01  1.67600000E+01  6.20700000E+00
  5.22400000E+02  1.47300000E+02  4.75500000E+01  1.67600000E+01  6.20700000E+00
  6.88200000E-01  1.75200000E+00  2.38400000E-01  7.37600000E-02  3.44600000E+01
  7.74900000E+00  2.28000000E+00  7.15600000E-01  2.14000000E-01  5.97400000E-02
  2.31400000E+00  6.45000000E-01  2.14000000E-01  1.42800000E+00  5.00000000E-01
  1.14200000E+04  1.71200000E+03  3.89300000E+02  1.10000000E+02  3.55700000E+01
  1.25400000E+01  4.64400000E+00  3.89300000E+02  1.10000000E+02  3.55700000E+01
  1.25400000E+01  4.64400000E+00  5.11800000E-01  1.29300000E+00  1.78700000E-01
  5.76000000E-02  2.66300000E+01  5.94800000E+00  1.74200000E+00  5.55000000E-01
  1.72500000E-01  4.91000000E-02  1.65400000E+00  4.69000000E-01  1.51000000E-01
  1.09300000E+00  3.64000000E-01  1.53300000E+04  2.29900000E+03  5.22400000E+02
  1.47300000E+02  4.75500000E+01  1.67600000E+01  6.20700000E+00  5.22400000E+02
  1.47300000E+02  4.75500000E+01  1.67600000E+01  6.20700000E+00  6.88200000E-01
  1.75200000E+00  2.38400000E-01  7.37600000E-02  3.44600000E+01  7.74900000E+00
  2.28000000E+00  7.15600000E-01  2.14000000E-01  5.97400000E-02  2.31400000E+00
  6.45000000E-01  2.14000000E-01  1.42800000E+00  5.00000000E-01
Contraction coefficients                   R   N=         119
  2.54948632E-02  1.90362766E-01  8.52162022E-01  1.00000000E+00  1.00000000E+00
  1.00000000E+00  1.00000000E+00  1.00000000E+00  1.00000000E+00  1.00000000E+00
  1.00000000E+00  5.19808943E-04  4.02025621E-03  2.07128267E-02  8.10105536E-02
  2.35962985E-01  4.42653446E-01  3.57064423E-01 -4.42115008E-05 -1.22591041E-03
 -1.05517725E-02 -6.74452633E-02 -1.71198607E-01  1.07329856E+00  1.00000000E+00
  1.00000000E+00  1.00000000E+00  4.11634896E-02  2.57762836E-01  8.02419274E-01
  1.00000000E+00  1.00000000E+00  1.00000000E+00  1.00000000E+00  1.00000000E+00
  1.00000000E+00  1.00000000E+00  1.00000000E+00  5.19808943E-04  4.02025621E-03
  2.07128267E-02  8.10105536E-02  2.35962985E-01  4.42653446E-01  3.57064423E-01
 -4.42115008E-05 -1.22591041E-03 -1.05517725E-02 -6.74452633E-02 -1.71198607E-01
  1.07329856E+00  1.00000000E+00  1.00000000E+00  1.00000000E+00  4.11634896E-02
  2.57762836E-01  8.02419274E-01  1.00000000E+00  1.00000000E+00  1.00000000E+00
  1.00000000E+00  1.00000000E+00  1.00000000E+00  1.00000000E+00  1.00000000E+00
  5.34563860E-04  4.13435660E-03  2.12335358E-02  8.25006224E-02  2.38138871E-01
  4.42551547E-01  3.53757422E-01 -4.89867350E-05 -1.19527323E-03 -1.03490714E-02
 -6.48680190E-02 -1.71552477E-01  1.07289568E+00  1.00000000E+00  1.00000000E+00
  1.00000000E+00  3.98072123E-02  2.49002660E-01  8.10479727E-01  1.00000000E+00
  1.00000000E+00  1.00000000E+00  1.00000000E+00  1.00000000E+00  1.00000000E+00
  1.00000000E+00  1.00000000E+00  5.19808943E-04  4.02025621E-03  2.07128267E-02
  8.10105536E-02  2.35962985E-01  4.42653446E-01  3.57064423E-01 -4.42115008E-05
 -1.22591041E-03 -1.05517725E-02 -6.74452633E-02 -1.71198607E-01  1.07329856E+00
  1.00000000E+00  1.00000000E+00  1.00000000E+00  4.11634896E-02  2.57762836E-01
  8.02419274E-01  1.00000000E+00  1.00000000E+00  1.00000000E+00  1.00000000E+00
  1.00000000E+00  1.00000000E+00  1.00000000E+00  1.00000000E+00
Coordinates of each shell                  R   N=         195
  2.92055004E+00  3.19949811E+00 -2.13318538E-32  2.92055004E+00  3.19949811E+00
 -2.13318538E-32  2.92055004E+00  3.19949811E+00 -2.13318538E-32  2.92055004E+00
  3.19949811E+00 -2.13318538E-32  2.92055004E+00  3.19949811E+00 -2.13318538E-32
  2.92055004E+00  3.19949811E+00 -2.13318538E-32  2.92055004E+00  3.19949811E+00
 -2.13318538E-32  2.92055004E+00  3.19949811E+00 -2.13318538E-32  2.92055004E+00
  3.19949811E+00 -2.13318538E-32  2.74742777E+00  1.37660202E+00 -1.00468384E-32
  2.74742777E+00  1.37660202E+00 -1.00468384E-32  2.74742777E+00  1.37660202E+00
 -1.00468384E-32  2.74742777E+00  1.37660202E+00 -1.00468384E-32  2.74742777E+00
  1.37660202E+00 -1.00468384E-32  2.74742777E+00  1.37660202E+00 -1.00468384E-32
  2.74742777E+00  1.37660202E+00 -1.00468384E-32  2.74742777E+00  1.37660202E+00
 -1.00468384E-32  2.74742777E+00  1.37660202E+00 -1.00468384E-32  2.74742777E+00
  1.37660202E+00 -1.00468384E-32  2.74742777E+00  1.37660202E+00 -1.00468384E-32
  2.74742777E+00  1.37660202E+00 -1.00468384E-32  2.74742777E+00  1.37660202E+00
 -1.00468384E-32  2.74742777E+00  1.37660202E+00 -1.00468384E-32  9.66617964E-18
  1.27250755E+00 -7.80730335E-33  9.66617964E-18  1.27250755E+00 -7.80730335E-33
  9.66617964E-18  1.27250755E+00 -7.80730335E-33  9.66617964E-18  1.27250755E+00
 -7.80730335E-33  9.66617964E-18  1.27250755E+00 -7.80730335E-33  9.66617964E-18
  1.27250755E+00 -7.80730335E-33  9.66617964E-18  1.27250755E+00 -7.80730335E-33
  9.66617964E-18  1.27250755E+00 -7.80730335E-33  9.66617964E-18  1.27250755E+00
 -7.80730335E-33  9.66617964E-18  1.27250755E+00 -7.80730335E-33  9.66617964E-18
  1.27250755E+00 -7.80730335E-33  9.66617964E-18  1.27250755E+00 -7.80730335E-33
  9.66617964E-18  1.27250755E+00 -7.80730335E-33  9.66617964E-18  1.27250755E+00
 -7.80730335E-33 -4.84747855E-01 -1.44124029E+00  9.12499490E-33 -4.84747855E-01
 -1.44124029E+00  9.12499490E-33 -4.84747855E-01 -1.44124029E+00  9.12499490E-33
 -4.84747855E-01 -1.44124029E+00  9.12499490E-33 -4.84747855E-01 -1.44124029E+00
  9.12499490E-33 -4.84747855E-01 -1.44124029E+00  9.12499490E-33 -4.84747855E-01
 -1.44124029E+00  9.12499490E-33 -4.84747855E-01 -1.44124029E+00  9.12499490E-33
 -4.84747855E-01 -1.44124029E+00  9.12499490E-33 -4.84747855E-01 -1.44124029E+00
  9.12499490E-33 -4.84747855E-01 -1.44124029E+00  9.12499490E-33 -4.84747855E-01
 -1.44124029E+00  9.12499490E-33 -4.84747855E-01 -1.44124029E+00  9.12499490E-33
 -4.84747855E-01 -1.44124029E+00  9.12499490E-33 -2.68834215E+00 -1.78796158E+00
  1.25362530E-32 -2.68834215E+00 -1.78796158E+00  1.25362530E-32 -2.68834215E+00
 -1.78796158E+00  1.25362530E-32 -2.68834215E+00 -1.78796158E+00  1.25362530E-32
 -2.68834215E+00 -1.78796158E+00  1.25362530E-32 -2.68834215E+00 -1.78796158E+00
  1.25362530E-32 -2.68834215E+00 -1.78796158E+00  1.25362530E-32 -2.68834215E+00
 -1.78796158E+00  1.25362530E-32 -2.68834215E+00 -1.78796158E+00  1.25362530E-32
 -2.68834215E+00 -1.78796158E+00  1.25362530E-32 -2.68834215E+00 -1.78796158E+00
  1.25362530E-32 -2.68834215E+00 -1.78796158E+00  1.25362530E-32 -2.68834215E+00
 -1.78796158E+00  1.25362530E-32 -2.68834215E+00 -1.78796158E+00  1.25362530E-32
Num ILSW                                   I              100
ILSW                                       I   N=         100
           0           0           0           0           2           0
           0           0           0           0           0          -1
           5           0           0           0           0           0
           0           0           0           0           0           0
           1           0           0           0           0           0
           0           0      100000           0          -1           0
           0           0           0           0           0           0
           0           0           0           1           0           0
           0 -2000000000           1           0           0           0
           0           0           4          52           0           0
           0           0           0           0           0           0
           0           0           0           5           0           1
           0           0           0           0           0           0
           0           0           0           0           0           0
           0           0           0           0           0           0
           0           0           0           0           0           0
           0           0           0           0
Num RLSW                                   I               52
RLSW                                       R   N=          52
  1.00000000E+00  1.00000000E+00  1.00000000E+00  1.00000000E+00  1.00000000E+00
  0.00000000E+00  0.00000000E+00  1.00000000E+00  0.00000000E+00  0.00000000E+00
  0.00000000E+00  0.00000000E+00  1.00000000E+00  0.00000000E+00  0.00000000E+00
  0.00000000E+00  0.00000000E+00  1.00000000E+00  0.00000000E+00  0.00000000E+00
  0.00000000E+00  0.00000000E+00  1.00000000E+00  0.00000000E+00  0.00000000E+00
  0.00000000E+00  0.00000000E+00  1.00000000E+00  0.00000000E+00  0.00000000E+00
  0.00000000E+00  0.00000000E+00  1.00000000E+00  0.00000000E+00  0.00000000E+00
  0.00000000E+00  0.00000000E+00  0.00000000E+00  1.00000000E+00  1.00000000E+00
  0.00000000E+00  1.00000000E+00  0.00000000E+00  0.00000000E+00  0.00000000E+00
  0.00000000E+00  0.00000000E+00  0.00000000E+00  0.00000000E+00  0.00000000E+00
  0.00000000E+00  0.00000000E+00
MxBond                                     I                2
NBond                                      I   N=           5
           1           2           2           2           1
IBond                                      I   N=          10
           2           0           1           3           2           4
           3           5           4           0
RBond                                      R   N=          10
  1.00000000E+00  0.00000000E+00  1.00000000E+00  1.00000000E+00  1.00000000E+00
  1.00000000E+00  1.00000000E+00  2.00000000E+00  2.00000000E+00  0.00000000E+00
Virial Ratio                               R      2.002514381483857E+00
SCF Energy                                 R     -2.794998905955853E+02
MP2 Energy                                 R     -2.804466085531898E+02
Total Energy                               R     -2.804466085531898E+02
Post-SCF wavefunction norm                 R      1.120909772169366E+00
RMS Density                                R      4.056619275673951E-09
Job Status                                 I                1
Nuclear derivative order                   I                0
External E-field                           R   N=          35
  0.00000000E+00  0.00000000E+00  0.00000000E+00  0.00000000E+00  0.00000000E+00
  0.00000000E+00  0.00000000E+00  0.00000000E+00  0.00000000E+00  0.00000000E+00
  0.00000000E+00  0.00000000E+00  0.00000000E+00  0.00000000E+00  0.00000000E+00
  0.00000000E+00  0.00000000E+00  0.00000000E+00  0.00000000E+00  0.00000000E+00
  0.00000000E+00  0.00000000E+00  0.00000000E+00  0.00000000E+00  0.00000000E+00
  0.00000000E+00  0.00000000E+00  0.00000000E+00  0.00000000E+00  0.00000000E+00
  0.00000000E+00  0.00000000E+00  0.00000000E+00  0.00000000E+00  0.00000000E+00
IOpCl                                      I                0
IROHF                                      I                0
Alpha Orbital Energies                     R   N=         207
 -2.06931319E+01 -2.06839015E+01 -2.06612098E+01 -1.58142431E+01 -1.61636250E+00
 -1.49548723E+00 -1.25537634E+00 -9.49405302E-01 -7.71734762E-01 -7.56646242E-01
 -7.09971609E-01 -6.78151515E-01 -6.18406976E-01 -5.90035759E-01 -4.86006135E-01
 -4.74375951E-01  2.93658972E-02  6.86856274E-02  8.60977086E-02  1.01720804E-01
  1.33816129E-01  1.34137886E-01  1.43876035E-01  1.54294978E-01  1.78092659E-01
  1.94280471E-01  1.99459526E-01  2.06345843E-01  2.20483023E-01  2.34626003E-01
  2.37315098E-01  2.65938503E-01  2.92451993E-01  3.03503007E-01  3.10010159E-01
  3.43531381E-01  3.49404488E-01  3.86843154E-01  4.21535772E-01  4.31510414E-01
  5.27522250E-01  5.27679586E-01  5.57845936E-01  5.81417908E-01  6.20610550E-01
  6.38756815E-01  6.77452321E-01  6.83835023E-01  7.06306994E-01  7.10911991E-01
  7.23778180E-01  7.28831197E-01  7.44693754E-01  7.91025307E-01  7.91438476E-01
  8.10671791E-01  8.11818464E-01  8.28082551E-01  8.67405304E-01  9.07383157E-01
  9.21051223E-01  9.25409166E-01  9.56082581E-01  9.75421624E-01  9.83799937E-01
  1.01598944E+00  1.05136845E+00  1.05415968E+00  1.08051980E+00  1.11633097E+00
  1.14026107E+00  1.18891147E+00  1.21938663E+00  1.23123237E+00  1.33811237E+00
  1.34981875E+00  1.38467332E+00  1.45293132E+00  1.48729091E+00  1.50777750E+00
  1.53772945E+00  1.56691827E+00  1.57994322E+00  1.61252097E+00  1.66182405E+00
  1.66922960E+00  1.70359166E+00  1.79265089E+00  1.83208959E+00  1.83432459E+00
  1.87569217E+00  1.91000435E+00  1.95871252E+00  1.98964752E+00  2.00623661E+00
  2.07734327E+00  2.12067015E+00  2.13105225E+00  2.14886745E+00  2.22391601E+00
  2.26349462E+00  2.26408582E+00  2.28864302E+00  2.31316214E+00  2.34095670E+00
  2.38524446E+00  2.42223104E+00  2.42648187E+00  2.45396007E+00  2.46152581E+00
  2.47520107E+00  2.49932500E+00  2.58809967E+00  2.59471786E+00  2.61892822E+00
  2.62081346E+00  2.63328503E+00  2.66466049E+00  2.75367948E+00  2.82041593E+00
  2.85099836E+00  2.87967029E+00  2.89186091E+00  2.92063618E+00  2.95562618E+00
  3.02290381E+00  3.06960258E+00  3.11849129E+00  3.20374139E+00  3.22399431E+00
  3.31474761E+00  3.34025315E+00  3.51275302E+00  3.64247510E+00  3.83691217E+00
  3.84125933E+00  4.14746705E+00  4.16147485E+00  4.18216332E+00  4.23454824E+00
  4.35047385E+00  4.39167808E+00  4.46057510E+00  4.51719029E+00  4.64996934E+00
  4.70872844E+00  4.79975757E+00  4.82276521E+00  4.82672048E+00  4.89634543E+00
  5.02467770E+00  5.07661025E+00  5.09952809E+00  5.14851960E+00  5.17567822E+00
  5.23864206E+00  5.27122040E+00  5.30831340E+00  5.32789981E+00  5.34765556E+00
  5.60388441E+00  5.65772284E+00  5.76046688E+00  5.82490710E+00  5.96138047E+00
  6.16599399E+00  6.30683542E+00  6.33730064E+00  6.39296580E+00  6.49360798E+00
  6.50526086E+00  6.61230004E+00  6.66665445E+00  6.69555148E+00  6.75610808E+00
  6.76161191E+00  6.82668295E+00  6.89456085E+00  7.01024768E+00  7.05338760E+00
  7.05519772E+00  7.08858949E+00  7.11963802E+00  7.14706451E+00  7.18012074E+00
  7.21790326E+00  7.23941999E+00  7.30173063E+00  7.30444314E+00  7.34127302E+00
  7.39235903E+00  7.42971980E+00  7.48316190E+00  7.60060928E+00  7.60580753E+00
  7.61676208E+00  7.66314837E+00  7.78066732E+00  7.87092712E+00  8.08877465E+00
  8.31077339E+00  8.40797004E+00  8.54194776E+00  1.33704946E+01  1.43137588E+01
  1.51569567E+01  1.58662665E+01
Alpha MO coefficients                      R   N=       42849
  9.15707593E-05 -6.49881113E-04 -7.25690341E-04 -5.22628929E-06 -2.12942026E-05
 -2.66382637E-05  0.00000000E+00 -4.39737061E-05  6.20275498E-05  0.00000000E+00
  8.56394665E-05  3.52708577E-05  0.00000000E+00  3.17615348E-05  0.00000000E+00
  0.00000000E+00 -4.96377797E-05  2.09289487E-05 -6.09769813E-06  0.00000000E+00
  0.00000000E+00 -1.39130170E-04  1.17644645E-04  4.43767297E-03 -2.80888791E-04
  8.13101705E-06  1.56638581E-03  1.82259476E-03  1.06289122E-04  7.61723927E-06
  0.00000000E+00 -6.17019869E-04 -3.76323099E-05  0.00000000E+00 -1.10416167E-03
  8.00403535E-04  0.00000000E+00 -4.02399713E-04  6.39819877E-05  0.00000000E+00
  2.88325533E-05  0.00000000E+00  0.00000000E+00 -5.40214666E-05  5.29281103E-06
 -3.78533294E-04  0.00000000E+00  0.00000000E+00  7.39301218E-04 -2.61308117E-05
 -4.46889748E-04  0.00000000E+00  0.00000000E+00  2.40555745E-04 -1.71828018E-05
  0.00000000E+00  7.99822027E-05  1.30132117E-05  0.00000000E+00  0.00000000E+00
 -1.09430677E-04 -4.58478953E-06  0.00000000E+00  2.54404052E-04 -2.72262778E-05
  0.00000000E+00  0.00000000E+00 -3.54076959E-04  4.59715864E-05  9.76916631E-01
 -9.21398341E-03  4.33143467E-02  2.01047019E-03 -9.29913985E-04  1.49759692E-03
 -1.36424649E-03  0.00000000E+00 -1.43805845E-03  1.39323129E-03  0.00000000E+00
  8.13616941E-05 -1.16063285E-03  0.00000000E+00 -1.36662080E-04 -1.21808022E-05
  0.00000000E+00  4.64889714E-05  0.00000000E+00  0.00000000E+00 -3.47464371E-05
  2.05861269E-05  7.49309322E-04  0.00000000E+00  0.00000000E+00 -2.24708220E-04
 -3.91780876E-04 -3.59574547E-04  0.00000000E+00  0.00000000E+00 -3.12663460E-04
 -3.78687400E-04  0.00000000E+00  4.74589747E-05 -4.93699423E-05  0.00000000E+00
  0.00000000E+00 -3.89629657E-05 -1.65012000E-05  0.00000000E+00  2.35666928E-05
  2.24380822E-05  0.00000000E+00  0.00000000E+00 -3.03469553E-04 -1.43865481E-04
  4.04005981E-05  5.34831263E-05 -2.64681828E-04 -6.72370444E-04 -1.23806331E-04
 -2.72621006E-05 -9.86156078E-05  0.00000000E+00  2.62252188E-04  7.14279083E-04
  0.00000000E+00 -8.26134139E-04 -4.54797695E-04  0.00000000E+00 -1.24003207E-04
 -2.33790491E-05  0.00000000E+00 -1.82019543E-05  0.00000000E+00  0.00000000E+00
 -2.89737609E-05  1.48001733E-05 -3.31564502E-04  0.00000000E+00  0.00000000E+00
 -8.33169316E-04  1.24263261E-04 -3.93532608E-05  0.00000000E+00  0.00000000E+00
  9.15724995E-05 -1.16292936E-04  0.00000000E+00 -2.06176330E-05 -1.20623835E-04
  0.00000000E+00  0.00000000E+00 -6.17549793E-05 -1.39823178E-04  0.00000000E+00
  2.46781136E-06 -1.54660370E-04  0.00000000E+00  0.00000000E+00  4.57111150E-05
 -4.18829568E-04 -1.80703708E-03  1.13752013E-04 -9.00881588E-05 -2.47087978E-04
  1.20570421E-04 -5.98521373E-06 -2.77875433E-05  0.00000000E+00  6.54181213E-05
  1.63457527E-04  0.00000000E+00  2.17840984E-04  1.90971576E-04  0.00000000E+00
  1.22861043E-04  2.13892556E-05  0.00000000E+00 -3.69139127E-06  0.00000000E+00
  0.00000000E+00 -1.71857822E-05  8.33835255E-07  5.68165569E-07  0.00000000E+00
  0.00000000E+00  7.56215022E-05  9.01871433E-05 -9.69269013E-05  0.00000000E+00
  0.00000000E+00  1.62299245E-04  1.57257133E-04  0.00000000E+00  1.59204939E-05
 -4.01914344E-06  0.00000000E+00  0.00000000E+00 -5.30997770E-06 -1.16386394E-05
  0.00000000E+00 -3.32024385E-05  4.51262279E-05  0.00000000E+00  0.00000000E+00
  8.23553227E-05  9.11228709E-05  3.80083873E-05 -9.99773343E-04 -5.02104989E-04
 -1.29579306E-05 -2.24321598E-05  1.67335368E-05  0.00000000E+00 -2.35873938E-06
  2.78989014E-04  0.00000000E+00 -4.45493509E-05  1.37554143E-04  0.00000000E+00
  2.60924869E-05  0.00000000E+00  0.00000000E+00  1.29818633E-05  1.15791588E-05
 -2.72983483E-05  0.00000000E+00  0.00000000E+00  1.05135457E-05  3.62945311E-05
  1.14216311E-04  8.37841159E-05 -2.76668224E-05  7.51623291E-04  6.64219745E-04
  9.52987235E-06  2.77524377E-06  0.00000000E+00 -6.85214869E-05  1.56129774E-05
  0.00000000E+00  3.44963962E-04  9.01972088E-04  0.00000000E+00  6.71345457E-06
  8.68569612E-05  0.00000000E+00 -2.16807841E-06  0.00000000E+00  0.00000000E+00
  2.91386265E-07 -6.56856110E-06 -3.57406386E-05  0.00000000E+00  0.00000000E+00
 -2.60357482E-05  8.73746002E-05 -2.09274881E-05  0.00000000E+00  0.00000000E+00
 -2.70750753E-04 -1.57305119E-04  0.00000000E+00  9.22075393E-06  6.25394858E-06
  0.00000000E+00  0.00000000E+00  3.56412673E-06 -1.92656493E-05  0.00000000E+00
 -4.20369165E-05 -3.91892398E-05  0.00000000E+00  0.00000000E+00 -7.66475020E-05
  1.75724267E-05  1.84600131E-03  4.78345763E-05  5.57097255E-05 -6.47528319E-05
 -4.77789005E-04  7.00541952E-06  1.67500740E-05  0.00000000E+00 -6.47514394E-05
 -5.88061791E-05  0.00000000E+00  2.27604534E-04 -1.61576806E-04  0.00000000E+00
 -1.94549817E-04 -6.50427520E-05  0.00000000E+00 -8.74317181E-06  0.00000000E+00
  0.00000000E+00  2.11208321E-05  1.78829424E-05  2.55904045E-06  0.00000000E+00
  0.00000000E+00 -1.10345236E-04 -3.43466421E-05 -2.76471190E-06  0.00000000E+00
  0.00000000E+00 -2.13338926E-04 -1.86880109E-04  0.00000000E+00  3.63246593E-06
 -5.21704214E-08  0.00000000E+00  0.00000000E+00  2.01542782E-06 -1.57061710E-05
  0.00000000E+00 -4.66984968E-05  2.70751810E-07  0.00000000E+00  0.00000000E+00
 -6.73873178E-05  1.88818367E-04  2.56158703E-04  1.44763995E-03 -1.19625519E-04
 -1.34251961E-03  4.50149011E-04 -1.20152931E-04  4.07475270E-06  0.00000000E+00
 -2.11676835E-03 -4.23006515E-04  0.00000000E+00  9.39527753E-04  7.60100470E-04
  0.00000000E+00 -1.79905676E-04  5.46945961E-05  0.00000000E+00 -1.25539934E-04
  0.00000000E+00  0.00000000E+00  2.44543997E-04  9.50790473E-05 -4.68858722E-04
  0.00000000E+00  0.00000000E+00  9.48787091E-04 -2.82949229E-05 -1.86163458E-06
  0.00000000E+00  0.00000000E+00 -3.10423867E-04 -1.13596215E-04  0.00000000E+00
  1.40613674E-05  1.83610790E-05  0.00000000E+00  0.00000000E+00  4.99023451E-07
  3.14893187E-06  0.00000000E+00  1.69142256E-04 -7.17986607E-05  0.00000000E+00
  0.00000000E+00 -2.63545690E-04  4.31646279E-05  9.76667353E-01 -9.85855891E-03
  4.35411445E-02  4.32190576E-03 -5.09974847E-04  2.13690116E-03  4.86130907E-04
  0.00000000E+00 -2.42337779E-03 -6.15660349E-04  0.00000000E+00  1.09919022E-03
 -1.16480128E-05  0.00000000E+00 -2.14959146E-06 -4.50565762E-05  0.00000000E+00
 -2.25674748E-04  0.00000000E+00  0.00000000E+00  9.12078965E-05  2.85987004E-05
  3.96728470E-04  0.00000000E+00  0.00000000E+00 -8.47248307E-04 -4.28086921E-04
 -1.62129833E-04  0.00000000E+00  0.00000000E+00  2.67501046E-04  1.86014757E-05
  0.00000000E+00  5.77019849E-05  1.84904750E-05  0.00000000E+00  0.00000000E+00
 -2.86761375E-05 -1.64159015E-05  0.00000000E+00  1.32212615E-04  8.78082842E-06
  0.00000000E+00  0.00000000E+00 -1.85868269E-04 -1.40369486E-04  4.74763198E-04
  2.05873919E-03  1.13122635E-04  1.54032203E-05 -4.03900498E-05 -2.46901526E-04
  0.00000000E+00  1.16153183E-04 -1.27414840E-03  0.00000000E+00  3.13786413E-04
 -3.36156103E-04  0.00000000E+00 -2.67910022E-06  0.00000000E+00  0.00000000E+00
  7.58595558E-05  1.60866593E-05 -1.60048977E-04  0.00000000E+00  0.00000000E+00
 -5.37318727E-04 -2.77184655E-05  9.76831097E-01 -9.16314183E-03  4.34493770E-02
  1.62379182E-04 -1.14055716E-03 -1.56875443E-03  1.43726321E-03  0.00000000E+00
  1.58004292E-03 -1.27974330E-03  0.00000000E+00 -5.65515811E-04 -8.65356508E-04
  0.00000000E+00  5.49998951E-05 -3.38770201E-05  0.00000000E+00  2.96900153E-05
  0.00000000E+00  0.00000000E+00 -1.18242333E-04 -3.84347584E-06  7.57758801E-04
  0.00000000E+00  0.00000000E+00 -2.01422677E-04 -2.36724198E-04 -2.66563718E-04
  0.00000000E+00  0.00000000E+00  1.67638031E-04  1.28487613E-04  0.00000000E+00
 -6.42079350E-05  1.08942172E-06  0.00000000E+00  0.00000000E+00  1.88241548E-05
  1.00425327E-05  0.00000000E+00 -1.58993824E-06  1.22667115E-04  0.00000000E+00
  0.00000000E+00  2.56084247E-04  9.41490873E-05 -4.52998319E-03 -2.12698939E-04