title                                                                   
SP        RMP2-FC                                                     Aug-CC-pVTZ         
Number of atoms                            I                5
Info1-9                                    I   N=           9
          33          24           0           0           0         110
           1           2           1
Full Title                                 C   N=           1
title       
Route                                      C   N=           4
#p SP mp2/aug-cc-pvtz density=current           
Charge                                     I                0
Multiplicity                               I                1
Number of electrons                        I               32
Number of alpha electrons                  I               16
Number of beta electrons                   I               16
Number of basis functions                  I              207
Number of independent functions            I              207
Number of point charges in /Mol/           I                0
Number of translation vectors              I                0
Atomic numbers                             I   N=           5
           1           8           8           7           8
Nuclear charges                            R   N=           5
  1.00000000E+00  8.00000000E+00  8.00000000E+00  7.00000000E+00  8.00000000E+00
Current cartesian coordinates              R   N=          15
  2.98868826E+00  3.11556505E+00  2.02344464E-31  2.74939594E+00  1.30016960E+00
  1.72433419E-31  2.76743902E-17  1.29604653E+00  6.25713709E-32 -4.99055504E-01
 -1.41510663E+00 -3.90317371E-32 -2.68630840E+00 -1.74744346E+00 -1.62714803E-31
Number of symbols in /Mol/                 I                0
Force Field                                I                0
Atom Types                                 C   N=           5
                                                            
Int Atom Types                             I   N=           5
           0           0           0           0           0
MM charges                                 R   N=           5
  0.00000000E+00  0.00000000E+00  0.00000000E+00  0.00000000E+00  0.00000000E+00
Integer atomic weights                     I   N=           5
           1          16          16          14          16
Real atomic weights                        R   N=           5
  1.00782504E+00  1.59949146E+01  1.59949146E+01  1.40030740E+01  1.59949146E+01
Atom fragment info                         I   N=           5
           0           0           0           0           0
Atom residue num                           I   N=           5
           0           0           0           0           0
Nuclear spins                              I   N=           5
           1           0           0           2           0
Nuclear ZEff                               R   N=           5
 -1.00000000E+00 -5.60000000E+00 -5.60000000E+00 -4.55000000E+00 -5.60000000E+00
Nuclear ZNuc                               R   N=           5
  1.00000000E+00  8.00000000E+00  8.00000000E+00  7.00000000E+00  8.00000000E+00
Nuclear QMom                               R   N=           5
  0.00000000E+00  0.00000000E+00  0.00000000E+00  2.04400000E+00  0.00000000E+00
Nuclear GFac                               R   N=           5
  2.79284600E+00  0.00000000E+00  0.00000000E+00  4.03761000E-01  0.00000000E+00
MicOpt                                     I   N=           5
          -1          -1          -1          -1          -1
Number of residues                         I                0
Number of secondary structures             I                0
SymInf integers                            I   N=          26
           1           2           1           1           1           1
           1          -1           0           0           0           0
           0           0           0           0           0           0
           0           0           0           0           0           0
           0           0
RotTr to input orientation                 R   N=          12
 -9.91424285E-01 -9.93807381E-17 -1.30682392E-01  1.30682392E-01 -7.15616289E-17
 -9.91424285E-01  8.91766324E-17 -1.00000000E+00  8.39352493E-17  2.55590863E+00
  0.00000000E+00  3.47941578E+00
Number of contracted shells                I               65
Number of primitive shells                 I              119
Pure/Cartesian d shells                    I                0
Pure/Cartesian f shells                    I                0
Highest angular momentum                   I                3
Largest degree of contraction              I                7
Shell types                                I   N=          65
           0           0           0           0           1           1
           1          -2          -2           0           0           0
           0           0           1           1           1           1
          -2          -2          -2          -3          -3           0
           0           0           0           0           1           1
           1           1          -2          -2          -2          -3
          -3           0           0           0           0           0
           1           1           1           1          -2          -2
          -2          -3          -3           0           0           0
           0           0           1           1           1           1
          -2          -2          -2          -3          -3
Number of primitives per shell             I   N=          65
           3           1           1           1           1           1
           1           1           1           7           6           1
           1           1           3           1           1           1
           1           1           1           1           1           7
           6           1           1           1           3           1
           1           1           1           1           1           1
           1           7           6           1           1           1
           3           1           1           1           1           1
           1           1           1           7           6           1
           1           1           3           1           1           1
           1           1           1           1           1
Shell to atom map                          I   N=          65
           1           1           1           1           1           1
           1           1           1           2           2           2
           2           2           2           2           2           2
           2           2           2           2           2           3
           3           3           3           3           3           3
           3           3           3           3           3           3
           3           4           4           4           4           4
           4           4           4           4           4           4
           4           4           4           5           5           5
           5           5           5           5           5           5
           5           5           5           5           5
Primitive exponents                        R   N=         119
  3.38700000E+01  5.09500000E+00  1.15900000E+00  3.25800000E-01  1.02700000E-01
  2.52600000E-02  1.40700000E+00  3.88000000E-01  1.02000000E-01  1.05700000E+00
  2.47000000E-01  1.53300000E+04  2.29900000E+03  5.22400000E+02  1.47300000E+02
  4.75500000E+01  1.67600000E+01  6.20700000E+00  5.22400000E+02  1.47300000E+02
  4.75500000E+01  1.67600000E+01  6.20700000E+00  6.88200000E-01  1.75200000E+00
  2.38400000E-01  7.37600000E-02  3.44600000E+01  7.74900000E+00  2.28000000E+00
  7.15600000E-01  2.14000000E-01  5.97400000E-02  2.31400000E+00  6.45000000E-01
  2.14000000E-01  1.42800000E+00  5.00000000E-01  1.53300000E+04  2.29900000E+03
  5.22400000E+02  1.47300000E+02  4.75500000E+01  1.67600000E+01  6.20700000E+00
  5.22400000E+02  1.47300000E+02  4.75500000E+01  1.67600000E+01  6.20700000E+00
  6.88200000E-01  1.75200000E+00  2.38400000E-01  7.37600000E-02  3.44600000E+01
  7.74900000E+00  2.28000000E+00  7.15600000E-01  2.14000000E-01  5.97400000E-02
  2.31400000E+00  6.45000000E-01  2.14000000E-01  1.42800000E+00  5.00000000E-01
  1.14200000E+04  1.71200000E+03  3.89300000E+02  1.10000000E+02  3.55700000E+01
  1.25400000E+01  4.64400000E+00  3.89300000E+02  1.10000000E+02  3.55700000E+01
  1.25400000E+01  4.64400000E+00  5.11800000E-01  1.29300000E+00  1.78700000E-01
  5.76000000E-02  2.66300000E+01  5.94800000E+00  1.74200000E+00  5.55000000E-01
  1.72500000E-01  4.91000000E-02  1.65400000E+00  4.69000000E-01  1.51000000E-01
  1.09300000E+00  3.64000000E-01  1.53300000E+04  2.29900000E+03  5.22400000E+02
  1.47300000E+02  4.75500000E+01  1.67600000E+01  6.20700000E+00  5.22400000E+02
  1.47300000E+02  4.75500000E+01  1.67600000E+01  6.20700000E+00  6.88200000E-01
  1.75200000E+00  2.38400000E-01  7.37600000E-02  3.44600000E+01  7.74900000E+00
  2.28000000E+00  7.15600000E-01  2.14000000E-01  5.97400000E-02  2.31400000E+00
  6.45000000E-01  2.14000000E-01  1.42800000E+00  5.00000000E-01
Contraction coefficients                   R   N=         119
  2.54948632E-02  1.90362766E-01  8.52162022E-01  1.00000000E+00  1.00000000E+00
  1.00000000E+00  1.00000000E+00  1.00000000E+00  1.00000000E+00  1.00000000E+00
  1.00000000E+00  5.19808943E-04  4.02025621E-03  2.07128267E-02  8.10105536E-02
  2.35962985E-01  4.42653446E-01  3.57064423E-01 -4.42115008E-05 -1.22591041E-03
 -1.05517725E-02 -6.74452633E-02 -1.71198607E-01  1.07329856E+00  1.00000000E+00
  1.00000000E+00  1.00000000E+00  4.11634896E-02  2.57762836E-01  8.02419274E-01
  1.00000000E+00  1.00000000E+00  1.00000000E+00  1.00000000E+00  1.00000000E+00
  1.00000000E+00  1.00000000E+00  1.00000000E+00  5.19808943E-04  4.02025621E-03
  2.07128267E-02  8.10105536E-02  2.35962985E-01  4.42653446E-01  3.57064423E-01
 -4.42115008E-05 -1.22591041E-03 -1.05517725E-02 -6.74452633E-02 -1.71198607E-01
  1.07329856E+00  1.00000000E+00  1.00000000E+00  1.00000000E+00  4.11634896E-02
  2.57762836E-01  8.02419274E-01  1.00000000E+00  1.00000000E+00  1.00000000E+00
  1.00000000E+00  1.00000000E+00  1.00000000E+00  1.00000000E+00  1.00000000E+00
  5.34563860E-04  4.13435660E-03  2.12335358E-02  8.25006224E-02  2.38138871E-01
  4.42551547E-01  3.53757422E-01 -4.89867350E-05 -1.19527323E-03 -1.03490714E-02
 -6.48680190E-02 -1.71552477E-01  1.07289568E+00  1.00000000E+00  1.00000000E+00
  1.00000000E+00  3.98072123E-02  2.49002660E-01  8.10479727E-01  1.00000000E+00
  1.00000000E+00  1.00000000E+00  1.00000000E+00  1.00000000E+00  1.00000000E+00
  1.00000000E+00  1.00000000E+00  5.19808943E-04  4.02025621E-03  2.07128267E-02
  8.10105536E-02  2.35962985E-01  4.42653446E-01  3.57064423E-01 -4.42115008E-05
 -1.22591041E-03 -1.05517725E-02 -6.74452633E-02 -1.71198607E-01  1.07329856E+00
  1.00000000E+00  1.00000000E+00  1.00000000E+00  4.11634896E-02  2.57762836E-01
  8.02419274E-01  1.00000000E+00  1.00000000E+00  1.00000000E+00  1.00000000E+00
  1.00000000E+00  1.00000000E+00  1.00000000E+00  1.00000000E+00
Coordinates of each shell                  R   N=         195
  2.98868826E+00  3.11556505E+00  1.44056204E-31  2.98868826E+00  3.11556505E+00
  1.44056204E-31  2.98868826E+00  3.11556505E+00  1.44056204E-31  2.98868826E+00
  3.11556505E+00  1.44056204E-31  2.98868826E+00  3.11556505E+00  1.44056204E-31
  2.98868826E+00  3.11556505E+00  1.44056204E-31  2.98868826E+00  3.11556505E+00
  1.44056204E-31  2.98868826E+00  3.11556505E+00  1.44056204E-31  2.98868826E+00
  3.11556505E+00  1.44056204E-31  2.74939594E+00  1.30016960E+00  8.46816212E-32
  2.74939594E+00  1.30016960E+00  8.46816212E-32  2.74939594E+00  1.30016960E+00
  8.46816212E-32  2.74939594E+00  1.30016960E+00  8.46816212E-32  2.74939594E+00
  1.30016960E+00  8.46816212E-32  2.74939594E+00  1.30016960E+00  8.46816212E-32
  2.74939594E+00  1.30016960E+00  8.46816212E-32  2.74939594E+00  1.30016960E+00
  8.46816212E-32  2.74939594E+00  1.30016960E+00  8.46816212E-32  2.74939594E+00
  1.30016960E+00  8.46816212E-32  2.74939594E+00  1.30016960E+00  8.46816212E-32
  2.74939594E+00  1.30016960E+00  8.46816212E-32  2.74939594E+00  1.30016960E+00
  8.46816212E-32  2.74939594E+00  1.30016960E+00  8.46816212E-32  1.80496106E-17
  1.29604653E+00  3.95950244E-32  1.80496106E-17  1.29604653E+00  3.95950244E-32
  1.80496106E-17  1.29604653E+00  3.95950244E-32  1.80496106E-17  1.29604653E+00
  3.95950244E-32  1.80496106E-17  1.29604653E+00  3.95950244E-32  1.80496106E-17
  1.29604653E+00  3.95950244E-32  1.80496106E-17  1.29604653E+00  3.95950244E-32
  1.80496106E-17  1.29604653E+00  3.95950244E-32  1.80496106E-17  1.29604653E+00
  3.95950244E-32  1.80496106E-17  1.29604653E+00  3.95950244E-32  1.80496106E-17
  1.29604653E+00  3.95950244E-32  1.80496106E-17  1.29604653E+00  3.95950244E-32
  1.80496106E-17  1.29604653E+00  3.95950244E-32  1.80496106E-17  1.29604653E+00
  3.95950244E-32 -4.99055504E-01 -1.41510663E+00 -5.13933957E-32 -4.99055504E-01
 -1.41510663E+00 -5.13933957E-32 -4.99055504E-01 -1.41510663E+00 -5.13933957E-32
 -4.99055504E-01 -1.41510663E+00 -5.13933957E-32 -4.99055504E-01 -1.41510663E+00
 -5.13933957E-32 -4.99055504E-01 -1.41510663E+00 -5.13933957E-32 -4.99055504E-01
 -1.41510663E+00 -5.13933957E-32 -4.99055504E-01 -1.41510663E+00 -5.13933957E-32
 -4.99055504E-01 -1.41510663E+00 -5.13933957E-32 -4.99055504E-01 -1.41510663E+00
 -5.13933957E-32 -4.99055504E-01 -1.41510663E+00 -5.13933957E-32 -4.99055504E-01
 -1.41510663E+00 -5.13933957E-32 -4.99055504E-01 -1.41510663E+00 -5.13933957E-32
 -4.99055504E-01 -1.41510663E+00 -5.13933957E-32 -2.68630840E+00 -1.74744346E+00
 -9.73144499E-32 -2.68630840E+00 -1.74744346E+00 -9.73144499E-32 -2.68630840E+00
 -1.74744346E+00 -9.73144499E-32 -2.68630840E+00 -1.74744346E+00 -9.73144499E-32
 -2.68630840E+00 -1.74744346E+00 -9.73144499E-32 -2.68630840E+00 -1.74744346E+00
 -9.73144499E-32 -2.68630840E+00 -1.74744346E+00 -9.73144499E-32 -2.68630840E+00
 -1.74744346E+00 -9.73144499E-32 -2.68630840E+00 -1.74744346E+00 -9.73144499E-32
 -2.68630840E+00 -1.74744346E+00 -9.73144499E-32 -2.68630840E+00 -1.74744346E+00
 -9.73144499E-32 -2.68630840E+00 -1.74744346E+00 -9.73144499E-32 -2.68630840E+00
 -1.74744346E+00 -9.73144499E-32 -2.68630840E+00 -1.74744346E+00 -9.73144499E-32
Num ILSW                                   I              100
ILSW                                       I   N=         100
           0           0           0           0           2           0
           0           0           0           0           0          -1
           5           0           0           0           0           0
           0           0           0           0           0           0
           1           0           0           0           0           0
           0           0      100000           0          -1           0
           0           0           0           0           0           0
           0           0           0           1           0           0
           0 -2000000000           1           0           0           0
           0           0           4          52           0           0
           0           0           0           0           0           0
           0           0           0           5           0           1
           0           0           0           0           0           0
           0           0           0           0           0           0
           0           0           0           0           0           0
           0           0           0           0           0           0
           0           0           0           0
Num RLSW                                   I               52
RLSW                                       R   N=          52
  1.00000000E+00  1.00000000E+00  1.00000000E+00  1.00000000E+00  1.00000000E+00
  0.00000000E+00  0.00000000E+00  1.00000000E+00  0.00000000E+00  0.00000000E+00
  0.00000000E+00  0.00000000E+00  1.00000000E+00  0.00000000E+00  0.00000000E+00
  0.00000000E+00  0.00000000E+00  1.00000000E+00  0.00000000E+00  0.00000000E+00
  0.00000000E+00  0.00000000E+00  1.00000000E+00  0.00000000E+00  0.00000000E+00
  0.00000000E+00  0.00000000E+00  1.00000000E+00  0.00000000E+00  0.00000000E+00
  0.00000000E+00  0.00000000E+00  1.00000000E+00  0.00000000E+00  0.00000000E+00
  0.00000000E+00  0.00000000E+00  0.00000000E+00  1.00000000E+00  1.00000000E+00
  0.00000000E+00  1.00000000E+00  0.00000000E+00  0.00000000E+00  0.00000000E+00
  0.00000000E+00  0.00000000E+00  0.00000000E+00  0.00000000E+00  0.00000000E+00
  0.00000000E+00  0.00000000E+00
MxBond                                     I                2
NBond                                      I   N=           5
           1           2           2           2           1
IBond                                      I   N=          10
           2           0           1           3           2           4
           3           5           4           0
RBond                                      R   N=          10
  1.00000000E+00  0.00000000E+00  1.00000000E+00  1.00000000E+00  1.00000000E+00
  1.00000000E+00  1.00000000E+00  2.00000000E+00  2.00000000E+00  0.00000000E+00
Virial Ratio                               R      2.002312965632111E+00
SCF Energy                                 R     -2.795013718723569E+02
MP2 Energy                                 R     -2.804465957950383E+02
Total Energy                               R     -2.804465957950383E+02
Post-SCF wavefunction norm                 R      1.120228018147478E+00
RMS Density                                R      3.777191667322325E-09
Job Status                                 I                1
Nuclear derivative order                   I                0
External E-field                           R   N=          35
  0.00000000E+00  0.00000000E+00  0.00000000E+00  0.00000000E+00  0.00000000E+00
  0.00000000E+00  0.00000000E+00  0.00000000E+00  0.00000000E+00  0.00000000E+00
  0.00000000E+00  0.00000000E+00  0.00000000E+00  0.00000000E+00  0.00000000E+00
  0.00000000E+00  0.00000000E+00  0.00000000E+00  0.00000000E+00  0.00000000E+00
  0.00000000E+00  0.00000000E+00  0.00000000E+00  0.00000000E+00  0.00000000E+00
  0.00000000E+00  0.00000000E+00  0.00000000E+00  0.00000000E+00  0.00000000E+00
  0.00000000E+00  0.00000000E+00  0.00000000E+00  0.00000000E+00  0.00000000E+00
IOpCl                                      I                0
IROHF                                      I                0
Alpha Orbital Energies                     R   N=         207
 -2.06913100E+01 -2.06838976E+01 -2.06593763E+01 -1.58122886E+01 -1.62410236E+00
 -1.49626103E+00 -1.25352218E+00 -9.48444067E-01 -7.74207619E-01 -7.58430670E-01
 -7.12059721E-01 -6.76536439E-01 -6.19956222E-01 -5.90735001E-01 -4.85361051E-01
 -4.72865918E-01  2.96187094E-02  7.18906698E-02  8.59111335E-02  1.01238501E-01
  1.34109792E-01  1.34155803E-01  1.44295026E-01  1.55080092E-01  1.78177597E-01
  1.93949626E-01  1.99635844E-01  2.06388041E-01  2.21095025E-01  2.35538523E-01
  2.37534945E-01  2.64828551E-01  2.93120020E-01  3.04895351E-01  3.10150729E-01
  3.43036826E-01  3.50312779E-01  3.88040285E-01  4.21325640E-01  4.30515979E-01
  5.27063381E-01  5.30584186E-01  5.60939671E-01  5.84392214E-01  6.26242866E-01
  6.36786860E-01  6.74140971E-01  6.84317914E-01  7.05338173E-01  7.12420478E-01
  7.23714852E-01  7.30431562E-01  7.44739487E-01  7.89571240E-01  7.91890405E-01
  8.09442755E-01  8.12962342E-01  8.32313332E-01  8.68255684E-01  9.07305169E-01
  9.22901504E-01  9.25779006E-01  9.59416375E-01  9.83893160E-01  9.86194772E-01
  1.01654692E+00  1.05326339E+00  1.05346976E+00  1.08735791E+00  1.12201298E+00
  1.14446343E+00  1.18758568E+00  1.22244056E+00  1.23096747E+00  1.33737906E+00
  1.34907129E+00  1.38831195E+00  1.45236028E+00  1.48748597E+00  1.50883447E+00
  1.54024583E+00  1.56856186E+00  1.58096257E+00  1.61606818E+00  1.66525280E+00
  1.66994815E+00  1.70323176E+00  1.79239963E+00  1.82728457E+00  1.83251252E+00
  1.87987989E+00  1.91302592E+00  1.95923405E+00  1.99377806E+00  2.00621809E+00
  2.07663053E+00  2.11691933E+00  2.13076170E+00  2.15050964E+00  2.22507460E+00
  2.26365072E+00  2.26544302E+00  2.28774301E+00  2.31775690E+00  2.35411069E+00
  2.38839179E+00  2.42748365E+00  2.42862267E+00  2.45329442E+00  2.46458567E+00
  2.47716819E+00  2.50808639E+00  2.59005711E+00  2.59460866E+00  2.61836797E+00
  2.62751891E+00  2.63066006E+00  2.67099490E+00  2.76259264E+00  2.83206039E+00
  2.86903241E+00  2.89235345E+00  2.89727765E+00  2.92214617E+00  2.95583216E+00
  3.03581344E+00  3.07298730E+00  3.12635554E+00  3.20719243E+00  3.23280493E+00
  3.31475261E+00  3.33242742E+00  3.50388953E+00  3.65410438E+00  3.84042617E+00
  3.84464194E+00  4.15101689E+00  4.16201069E+00  4.18581521E+00  4.26228807E+00
  4.34643388E+00  4.39693563E+00  4.46406080E+00  4.51759189E+00  4.67295538E+00
  4.71176454E+00  4.81022636E+00  4.82311769E+00  4.83045169E+00  4.89741314E+00
  5.02150197E+00  5.07700512E+00  5.10059276E+00  5.13917120E+00  5.18548450E+00
  5.24764129E+00  5.27107046E+00  5.30836523E+00  5.33479095E+00  5.36561747E+00
  5.62071856E+00  5.67400532E+00  5.77291147E+00  5.82896170E+00  5.95746676E+00
  6.17506936E+00  6.30871083E+00  6.33629769E+00  6.39283289E+00  6.49283387E+00
  6.50393681E+00  6.61720537E+00  6.66464936E+00  6.69741141E+00  6.76359862E+00
  6.76366860E+00  6.83448720E+00  6.89586322E+00  7.00900976E+00  7.05091858E+00
  7.05800639E+00  7.09040136E+00  7.12657971E+00  7.15282999E+00  7.18307476E+00
  7.22224822E+00  7.24428455E+00  7.31073609E+00  7.32454239E+00  7.35761289E+00
  7.40335574E+00  7.42877783E+00  7.48764171E+00  7.60222759E+00  7.61760434E+00
  7.63621074E+00  7.67098649E+00  7.79558386E+00  7.89624426E+00  8.08661371E+00
  8.31601206E+00  8.40936342E+00  8.54341258E+00  1.34060785E+01  1.43576822E+01
  1.51837866E+01  1.61564697E+01
Alpha MO coefficients                      R   N=       42849
  9.07585769E-05 -6.08393483E-04 -7.09474958E-04 -2.60315671E-06 -2.01613530E-05
 -2.67047298E-05  0.00000000E+00 -4.77015749E-05  5.18514020E-05  0.00000000E+00
  8.07209402E-05  3.03904308E-05  0.00000000E+00  3.11317489E-05  0.00000000E+00
  0.00000000E+00 -4.85378385E-05  2.43608618E-05 -5.79066610E-06  0.00000000E+00
  0.00000000E+00 -1.27478475E-04  1.25638746E-04  4.43737440E-03 -2.83159656E-04
  1.06392132E-05  1.47655158E-03  1.80388261E-03  1.04771352E-04  4.13416622E-06
  0.00000000E+00 -6.05906974E-04 -1.65879021E-05  0.00000000E+00 -1.04317260E-03
  7.99312467E-04  0.00000000E+00 -3.95294263E-04  7.53608239E-05  0.00000000E+00
  2.89284992E-05  0.00000000E+00  0.00000000E+00 -5.34608913E-05  9.21124070E-06
 -3.74875067E-04  0.00000000E+00  0.00000000E+00  7.32420881E-04 -8.14192963E-05
 -4.42594356E-04  0.00000000E+00  0.00000000E+00  2.32270576E-04 -2.50741091E-05
  0.00000000E+00  7.97529356E-05  9.96698248E-06  0.00000000E+00  0.00000000E+00
 -1.10061981E-04  7.10998507E-06  0.00000000E+00  2.55732222E-04 -3.41288051E-05
  0.00000000E+00  0.00000000E+00 -3.40203398E-04  8.42844465E-05  9.76912946E-01
 -9.22754546E-03  4.33130696E-02  2.10644662E-03 -9.12677714E-04  1.46895665E-03
 -1.38250927E-03  0.00000000E+00 -1.41990843E-03  1.42076039E-03  0.00000000E+00
  1.00979905E-04 -1.15671598E-03  0.00000000E+00 -1.28881032E-04 -1.03206587E-05
  0.00000000E+00  4.88326901E-05  0.00000000E+00  0.00000000E+00 -3.57979638E-05
  1.80320923E-05  7.40459662E-04  0.00000000E+00  0.00000000E+00 -2.38380917E-04
 -3.43132892E-04 -3.61562414E-04  0.00000000E+00  0.00000000E+00 -3.18124144E-04
 -3.73289609E-04  0.00000000E+00  4.74460020E-05 -5.04768129E-05  0.00000000E+00
  0.00000000E+00 -3.92701294E-05 -1.27661015E-05  0.00000000E+00  2.17994780E-05
  2.09740703E-05  0.00000000E+00  0.00000000E+00 -3.01675629E-04 -1.15983067E-04
  3.79083649E-05  4.00695190E-05 -2.61608880E-04 -7.31308677E-04 -1.47230680E-04
 -2.64864543E-05 -9.61792479E-05  0.00000000E+00  2.56056346E-04  6.90220926E-04
  0.00000000E+00 -8.07932921E-04 -4.75693473E-04  0.00000000E+00 -1.29593688E-04
 -2.84060757E-05  0.00000000E+00 -1.75218984E-05  0.00000000E+00  0.00000000E+00
 -2.83088229E-05  1.50185903E-05 -3.27432639E-04  0.00000000E+00  0.00000000E+00
 -8.22039381E-04  1.27418393E-04 -3.68903708E-05  0.00000000E+00  0.00000000E+00
  9.15355999E-05 -1.10554111E-04  0.00000000E+00 -2.00028170E-05 -1.19521108E-04
  0.00000000E+00  0.00000000E+00 -6.55435208E-05 -1.37899436E-04  0.00000000E+00
 -3.69043148E-06 -1.58449148E-04  0.00000000E+00  0.00000000E+00  4.37669782E-05
 -4.06775044E-04 -2.31765599E-03  1.19316708E-04 -1.10334911E-04 -2.22395136E-04
  1.41154269E-04 -7.33545523E-06 -2.64876703E-05  0.00000000E+00  6.76348437E-05
  1.55264853E-04  0.00000000E+00  2.32169467E-04  2.08973954E-04  0.00000000E+00
  1.27962946E-04  2.90342205E-05  0.00000000E+00 -3.10770554E-06  0.00000000E+00
  0.00000000E+00 -1.77603668E-05  1.28557474E-06  1.42556770E-06  0.00000000E+00
  0.00000000E+00  7.79356726E-05  8.41782723E-05 -9.89062673E-05  0.00000000E+00
  0.00000000E+00  1.59001281E-04  1.65186268E-04  0.00000000E+00  1.60298448E-05
 -3.30057331E-06  0.00000000E+00  0.00000000E+00 -4.09011230E-06 -1.22539105E-05
  0.00000000E+00 -3.31273501E-05  4.47762186E-05  0.00000000E+00  0.00000000E+00
  7.99282348E-05  8.94816148E-05  4.19713593E-05 -9.98109037E-04 -4.68295066E-04
 -1.26993820E-05 -2.18528582E-05  1.52738234E-05  0.00000000E+00  6.50224629E-06
  2.69924830E-04  0.00000000E+00 -4.98636647E-05  1.27656279E-04  0.00000000E+00
  2.66193927E-05  0.00000000E+00  0.00000000E+00  1.10127896E-05  9.80823395E-06
 -3.28031505E-05  0.00000000E+00  0.00000000E+00  1.57192850E-05  3.90738349E-05
  1.11856998E-04  9.63813617E-05 -2.83728806E-05  7.09160731E-04  5.82446927E-04
  1.03062243E-05  2.21570177E-06  0.00000000E+00 -7.78899659E-05  1.30645568E-05
  0.00000000E+00  4.06481154E-04  9.51150623E-04  0.00000000E+00  2.70701684E-05
  9.19513888E-05  0.00000000E+00 -2.95361543E-06  0.00000000E+00  0.00000000E+00
 -2.10519529E-07 -3.87351684E-06 -3.27647194E-05  0.00000000E+00  0.00000000E+00
 -1.24248172E-05  7.27299925E-05 -1.68401498E-05  0.00000000E+00  0.00000000E+00
 -2.83644097E-04 -1.77690861E-04  0.00000000E+00  9.13437459E-06  6.07508109E-06
  0.00000000E+00  0.00000000E+00  2.40914347E-06 -1.80974977E-05  0.00000000E+00
 -4.27159198E-05 -4.00979550E-05  0.00000000E+00  0.00000000E+00 -8.07859581E-05
  3.77673903E-05  2.35609623E-03  4.00779896E-05  8.03403211E-05 -7.14353432E-05
 -4.48014858E-04  7.22262049E-06  1.56542343E-05  0.00000000E+00 -6.25948694E-05
 -5.18967537E-05  0.00000000E+00  2.37186306E-04 -2.23927934E-04  0.00000000E+00
 -1.70257100E-04 -5.91273792E-05  0.00000000E+00 -8.74568321E-06  0.00000000E+00
  0.00000000E+00  2.22750555E-05  2.05620806E-05  4.97858133E-06  0.00000000E+00
  0.00000000E+00 -1.16973921E-04 -4.98076464E-05 -7.17800551E-06  0.00000000E+00
  0.00000000E+00 -2.24073573E-04 -2.28473082E-04  0.00000000E+00  3.19087592E-06
 -1.42152017E-06  0.00000000E+00  0.00000000E+00  1.65234953E-06 -1.25113944E-05
  0.00000000E+00 -4.58954561E-05  7.21959305E-06  0.00000000E+00  0.00000000E+00
 -7.44927124E-05  1.79027588E-04  2.58611447E-04  1.46411329E-03 -7.79198797E-05
 -1.51638355E-03  4.34545901E-04 -1.44187425E-04  6.10808273E-07  0.00000000E+00
 -2.10123225E-03 -4.05458224E-04  0.00000000E+00  1.09676155E-03  7.95212680E-04
  0.00000000E+00 -1.71431050E-04  6.16047617E-05  0.00000000E+00 -1.23109390E-04
  0.00000000E+00  0.00000000E+00  2.43460188E-04  9.23995839E-05 -4.44819839E-04
  0.00000000E+00  0.00000000E+00  8.99506684E-04 -6.26700595E-05  8.24835903E-06
  0.00000000E+00  0.00000000E+00 -3.46852901E-04 -1.11542959E-04  0.00000000E+00
 -1.29796251E-07  1.58915655E-05  0.00000000E+00  0.00000000E+00  1.75303583E-05
  1.12508903E-05  0.00000000E+00  1.57053287E-04 -7.51060367E-05  0.00000000E+00
  0.00000000E+00 -2.38569482E-04  5.15391424E-05  9.76649549E-01 -9.84493857E-03
  4.35707963E-02  4.52513437E-03 -4.55096174E-04  2.14734847E-03  4.73619937E-04
  0.00000000E+00 -2.38454050E-03 -5.98460978E-04  0.00000000E+00  1.13008508E-03
 -8.86493073E-06  0.00000000E+00  1.48280502E-06 -3.94376383E-05  0.00000000E+00
 -2.33041405E-04  0.00000000E+00  0.00000000E+00  1.02505408E-04  3.22341843E-05
  3.90994811E-04  0.00000000E+00  0.00000000E+00 -8.38823048E-04 -4.16335310E-04
 -1.48139219E-04  0.00000000E+00  0.00000000E+00  2.49567029E-04  1.10038122E-05
  0.00000000E+00  5.22752800E-05  1.73301463E-05  0.00000000E+00  0.00000000E+00
 -2.26827982E-05 -1.28591245E-05  0.00000000E+00  1.39695140E-04  9.83513231E-06
  0.00000000E+00  0.00000000E+00 -1.91506865E-04 -1.40113704E-04  4.79337426E-04
  2.16831261E-03  1.52677215E-04  1.49301855E-05 -4.75446818E-05 -2.49365012E-04
  0.00000000E+00  6.21401571E-05 -1.31028304E-03  0.00000000E+00  2.67133532E-04
 -3.63302811E-04  0.00000000E+00 -4.02951836E-06  0.00000000E+00  0.00000000E+00
  7.48461672E-05  8.65441302E-06 -1.58402647E-04  0.00000000E+00  0.00000000E+00
 -5.38670168E-04  1.45816103E-05  9.76828800E-01 -9.16730998E-03  4.34540610E-02
  8.00189476E-05 -1.06613628E-03 -1.50512927E-03  1.49870813E-03  0.00000000E+00
  1.52112205E-03 -1.34439316E-03  0.00000000E+00 -6.10028705E-04 -9.82400679E-04
  0.00000000E+00  5.36251932E-05 -1.54372475E-06  0.00000000E+00  2.83833104E-05
  0.00000000E+00  0.00000000E+00 -1.19375160E-04  7.47307017E-06  7.63523422E-04
  0.00000000E+00  0.00000000E+00 -2.03648792E-04 -2.25846468E-04 -2.64117967E-04
  0.00000000E+00  0.00000000E+00  1.82351416E-04  1.53704764E-04  0.00000000E+00
 -6.34326019E-05  1.98202410E-06  0.00000000E+00  0.00000000E+00  1.77665187E-05
  8.41456958E-06  0.00000000E+00  3.53404847E-06  1.32246659E-04  0.00000000E+00
  0.00000000E+00  2.74324348E-04  6.88331294E-05 -4.53057429E-03 -2.12893656E-04