title                                                                   
SP        RMP2-FC                                                     Aug-CC-pVTZ         
Number of atoms                            I                5
Info1-9                                    I   N=           9
          33          24           0           0           0         110
           1           2           1
Full Title                                 C   N=           1
title       
Route                                      C   N=           4
#p SP mp2/aug-cc-pvtz density=current           
Charge                                     I                0
Multiplicity                               I                1
Number of electrons                        I               32
Number of alpha electrons                  I               16
Number of beta electrons                   I               16
Number of basis functions                  I              207
Number of independent functions            I              207
Number of point charges in /Mol/           I                0
Number of translation vectors              I                0
Atomic numbers                             I   N=           5
           1           8           8           7           8
Nuclear charges                            R   N=           5
  1.00000000E+00  8.00000000E+00  8.00000000E+00  7.00000000E+00  8.00000000E+00
Current cartesian coordinates              R   N=          15
  2.93421430E+00  3.17723345E+00 -1.25070968E-32  2.74810009E+00  1.35561797E+00
  3.46922095E-32 -1.20888984E-16  1.27111394E+00 -3.61390783E-32 -5.04083215E-01
 -1.43910892E+00 -3.50934654E-32 -2.67380406E+00 -1.76466579E+00 -2.49577931E-33
Number of symbols in /Mol/                 I                0
Force Field                                I                0
Atom Types                                 C   N=           5
                                                            
Int Atom Types                             I   N=           5
           0           0           0           0           0
MM charges                                 R   N=           5
  0.00000000E+00  0.00000000E+00  0.00000000E+00  0.00000000E+00  0.00000000E+00
Integer atomic weights                     I   N=           5
           1          16          16          14          16
Real atomic weights                        R   N=           5
  1.00782504E+00  1.59949146E+01  1.59949146E+01  1.40030740E+01  1.59949146E+01
Atom fragment info                         I   N=           5
           0           0           0           0           0
Atom residue num                           I   N=           5
           0           0           0           0           0
Nuclear spins                              I   N=           5
           1           0           0           2           0
Nuclear ZEff                               R   N=           5
 -1.00000000E+00 -5.60000000E+00 -5.60000000E+00 -4.55000000E+00 -5.60000000E+00
Nuclear ZNuc                               R   N=           5
  1.00000000E+00  8.00000000E+00  8.00000000E+00  7.00000000E+00  8.00000000E+00
Nuclear QMom                               R   N=           5
  0.00000000E+00  0.00000000E+00  0.00000000E+00  2.04400000E+00  0.00000000E+00
Nuclear GFac                               R   N=           5
  2.79284600E+00  0.00000000E+00  0.00000000E+00  4.03761000E-01  0.00000000E+00
MicOpt                                     I   N=           5
          -1          -1          -1          -1          -1
Number of residues                         I                0
Number of secondary structures             I                0
SymInf integers                            I   N=          26
           1           2           1           1           1           1
           1          -1           0           0           0           0
           0           0           0           0           0           0
           0           0           0           0           0           0
           0           0
RotTr to input orientation                 R   N=          12
 -9.94821169E-01 -9.85975067E-17 -1.01640748E-01  1.01640748E-01 -7.26369707E-17
 -9.94821169E-01  9.07040108E-17 -1.00000000E+00  8.22823204E-17  2.59608212E+00
  0.00000000E+00  3.45901483E+00
Number of contracted shells                I               65
Number of primitive shells                 I              119
Pure/Cartesian d shells                    I                0
Pure/Cartesian f shells                    I                0
Highest angular momentum                   I                3
Largest degree of contraction              I                7
Shell types                                I   N=          65
           0           0           0           0           1           1
           1          -2          -2           0           0           0
           0           0           1           1           1           1
          -2          -2          -2          -3          -3           0
           0           0           0           0           1           1
           1           1          -2          -2          -2          -3
          -3           0           0           0           0           0
           1           1           1           1          -2          -2
          -2          -3          -3           0           0           0
           0           0           1           1           1           1
          -2          -2          -2          -3          -3
Number of primitives per shell             I   N=          65
           3           1           1           1           1           1
           1           1           1           7           6           1
           1           1           3           1           1           1
           1           1           1           1           1           7
           6           1           1           1           3           1
           1           1           1           1           1           1
           1           7           6           1           1           1
           3           1           1           1           1           1
           1           1           1           7           6           1
           1           1           3           1           1           1
           1           1           1           1           1
Shell to atom map                          I   N=          65
           1           1           1           1           1           1
           1           1           1           2           2           2
           2           2           2           2           2           2
           2           2           2           2           2           3
           3           3           3           3           3           3
           3           3           3           3           3           3
           3           4           4           4           4           4
           4           4           4           4           4           4
           4           4           4           5           5           5
           5           5           5           5           5           5
           5           5           5           5           5
Primitive exponents                        R   N=         119
  3.38700000E+01  5.09500000E+00  1.15900000E+00  3.25800000E-01  1.02700000E-01
  2.52600000E-02  1.40700000E+00  3.88000000E-01  1.02000000E-01  1.05700000E+00
  2.47000000E-01  1.53300000E+04  2.29900000E+03  5.22400000E+02  1.47300000E+02
  4.75500000E+01  1.67600000E+01  6.20700000E+00  5.22400000E+02  1.47300000E+02
  4.75500000E+01  1.67600000E+01  6.20700000E+00  6.88200000E-01  1.75200000E+00
  2.38400000E-01  7.37600000E-02  3.44600000E+01  7.74900000E+00  2.28000000E+00
  7.15600000E-01  2.14000000E-01  5.97400000E-02  2.31400000E+00  6.45000000E-01
  2.14000000E-01  1.42800000E+00  5.00000000E-01  1.53300000E+04  2.29900000E+03
  5.22400000E+02  1.47300000E+02  4.75500000E+01  1.67600000E+01  6.20700000E+00
  5.22400000E+02  1.47300000E+02  4.75500000E+01  1.67600000E+01  6.20700000E+00
  6.88200000E-01  1.75200000E+00  2.38400000E-01  7.37600000E-02  3.44600000E+01
  7.74900000E+00  2.28000000E+00  7.15600000E-01  2.14000000E-01  5.97400000E-02
  2.31400000E+00  6.45000000E-01  2.14000000E-01  1.42800000E+00  5.00000000E-01
  1.14200000E+04  1.71200000E+03  3.89300000E+02  1.10000000E+02  3.55700000E+01
  1.25400000E+01  4.64400000E+00  3.89300000E+02  1.10000000E+02  3.55700000E+01
  1.25400000E+01  4.64400000E+00  5.11800000E-01  1.29300000E+00  1.78700000E-01
  5.76000000E-02  2.66300000E+01  5.94800000E+00  1.74200000E+00  5.55000000E-01
  1.72500000E-01  4.91000000E-02  1.65400000E+00  4.69000000E-01  1.51000000E-01
  1.09300000E+00  3.64000000E-01  1.53300000E+04  2.29900000E+03  5.22400000E+02
  1.47300000E+02  4.75500000E+01  1.67600000E+01  6.20700000E+00  5.22400000E+02
  1.47300000E+02  4.75500000E+01  1.67600000E+01  6.20700000E+00  6.88200000E-01
  1.75200000E+00  2.38400000E-01  7.37600000E-02  3.44600000E+01  7.74900000E+00
  2.28000000E+00  7.15600000E-01  2.14000000E-01  5.97400000E-02  2.31400000E+00
  6.45000000E-01  2.14000000E-01  1.42800000E+00  5.00000000E-01
Contraction coefficients                   R   N=         119
  2.54948632E-02  1.90362766E-01  8.52162022E-01  1.00000000E+00  1.00000000E+00
  1.00000000E+00  1.00000000E+00  1.00000000E+00  1.00000000E+00  1.00000000E+00
  1.00000000E+00  5.19808943E-04  4.02025621E-03  2.07128267E-02  8.10105536E-02
  2.35962985E-01  4.42653446E-01  3.57064423E-01 -4.42115008E-05 -1.22591041E-03
 -1.05517725E-02 -6.74452633E-02 -1.71198607E-01  1.07329856E+00  1.00000000E+00
  1.00000000E+00  1.00000000E+00  4.11634896E-02  2.57762836E-01  8.02419274E-01
  1.00000000E+00  1.00000000E+00  1.00000000E+00  1.00000000E+00  1.00000000E+00
  1.00000000E+00  1.00000000E+00  1.00000000E+00  5.19808943E-04  4.02025621E-03
  2.07128267E-02  8.10105536E-02  2.35962985E-01  4.42653446E-01  3.57064423E-01
 -4.42115008E-05 -1.22591041E-03 -1.05517725E-02 -6.74452633E-02 -1.71198607E-01
  1.07329856E+00  1.00000000E+00  1.00000000E+00  1.00000000E+00  4.11634896E-02
  2.57762836E-01  8.02419274E-01  1.00000000E+00  1.00000000E+00  1.00000000E+00
  1.00000000E+00  1.00000000E+00  1.00000000E+00  1.00000000E+00  1.00000000E+00
  5.34563860E-04  4.13435660E-03  2.12335358E-02  8.25006224E-02  2.38138871E-01
  4.42551547E-01  3.53757422E-01 -4.89867350E-05 -1.19527323E-03 -1.03490714E-02
 -6.48680190E-02 -1.71552477E-01  1.07289568E+00  1.00000000E+00  1.00000000E+00
  1.00000000E+00  3.98072123E-02  2.49002660E-01  8.10479727E-01  1.00000000E+00
  1.00000000E+00  1.00000000E+00  1.00000000E+00  1.00000000E+00  1.00000000E+00
  1.00000000E+00  1.00000000E+00  5.19808943E-04  4.02025621E-03  2.07128267E-02
  8.10105536E-02  2.35962985E-01  4.42653446E-01  3.57064423E-01 -4.42115008E-05
 -1.22591041E-03 -1.05517725E-02 -6.74452633E-02 -1.71198607E-01  1.07329856E+00
  1.00000000E+00  1.00000000E+00  1.00000000E+00  4.11634896E-02  2.57762836E-01
  8.02419274E-01  1.00000000E+00  1.00000000E+00  1.00000000E+00  1.00000000E+00
  1.00000000E+00  1.00000000E+00  1.00000000E+00  1.00000000E+00
Coordinates of each shell                  R   N=         195
  2.93421430E+00  3.17723345E+00 -2.13178248E-32  2.93421430E+00  3.17723345E+00
 -2.13178248E-32  2.93421430E+00  3.17723345E+00 -2.13178248E-32  2.93421430E+00
  3.17723345E+00 -2.13178248E-32  2.93421430E+00  3.17723345E+00 -2.13178248E-32
  2.93421430E+00  3.17723345E+00 -2.13178248E-32  2.93421430E+00  3.17723345E+00
 -2.13178248E-32  2.93421430E+00  3.17723345E+00 -2.13178248E-32  2.93421430E+00
  3.17723345E+00 -2.13178248E-32  2.74810009E+00  1.35561797E+00 -1.00328094E-32
  2.74810009E+00  1.35561797E+00 -1.00328094E-32  2.74810009E+00  1.35561797E+00
 -1.00328094E-32  2.74810009E+00  1.35561797E+00 -1.00328094E-32  2.74810009E+00
  1.35561797E+00 -1.00328094E-32  2.74810009E+00  1.35561797E+00 -1.00328094E-32
  2.74810009E+00  1.35561797E+00 -1.00328094E-32  2.74810009E+00  1.35561797E+00
 -1.00328094E-32  2.74810009E+00  1.35561797E+00 -1.00328094E-32  2.74810009E+00
  1.35561797E+00 -1.00328094E-32  2.74810009E+00  1.35561797E+00 -1.00328094E-32
  2.74810009E+00  1.35561797E+00 -1.00328094E-32  2.74810009E+00  1.35561797E+00
 -1.00328094E-32  2.74810009E+00  1.35561797E+00 -1.00328094E-32 -1.85169986E-17
  1.27111394E+00 -7.79327435E-33 -1.85169986E-17  1.27111394E+00 -7.79327435E-33
 -1.85169986E-17  1.27111394E+00 -7.79327435E-33 -1.85169986E-17  1.27111394E+00
 -7.79327435E-33 -1.85169986E-17  1.27111394E+00 -7.79327435E-33 -1.85169986E-17
  1.27111394E+00 -7.79327435E-33 -1.85169986E-17  1.27111394E+00 -7.79327435E-33
 -1.85169986E-17  1.27111394E+00 -7.79327435E-33 -1.85169986E-17  1.27111394E+00
 -7.79327435E-33 -1.85169986E-17  1.27111394E+00 -7.79327435E-33 -1.85169986E-17
  1.27111394E+00 -7.79327435E-33 -1.85169986E-17  1.27111394E+00 -7.79327435E-33
 -1.85169986E-17  1.27111394E+00 -7.79327435E-33 -1.85169986E-17  1.27111394E+00
 -7.79327435E-33 -5.04083215E-01 -1.43910892E+00  9.13902390E-33 -5.04083215E-01
 -1.43910892E+00  9.13902390E-33 -5.04083215E-01 -1.43910892E+00  9.13902390E-33
 -5.04083215E-01 -1.43910892E+00  9.13902390E-33 -5.04083215E-01 -1.43910892E+00
  9.13902390E-33 -5.04083215E-01 -1.43910892E+00  9.13902390E-33 -5.04083215E-01
 -1.43910892E+00  9.13902390E-33 -5.04083215E-01 -1.43910892E+00  9.13902390E-33
 -5.04083215E-01 -1.43910892E+00  9.13902390E-33 -5.04083215E-01 -1.43910892E+00
  9.13902390E-33 -5.04083215E-01 -1.43910892E+00  9.13902390E-33 -5.04083215E-01
 -1.43910892E+00  9.13902390E-33 -5.04083215E-01 -1.43910892E+00  9.13902390E-33
 -5.04083215E-01 -1.43910892E+00  9.13902390E-33 -2.67380406E+00 -1.76466579E+00
  1.24941660E-32 -2.67380406E+00 -1.76466579E+00  1.24941660E-32 -2.67380406E+00
 -1.76466579E+00  1.24941660E-32 -2.67380406E+00 -1.76466579E+00  1.24941660E-32
 -2.67380406E+00 -1.76466579E+00  1.24941660E-32 -2.67380406E+00 -1.76466579E+00
  1.24941660E-32 -2.67380406E+00 -1.76466579E+00  1.24941660E-32 -2.67380406E+00
 -1.76466579E+00  1.24941660E-32 -2.67380406E+00 -1.76466579E+00  1.24941660E-32
 -2.67380406E+00 -1.76466579E+00  1.24941660E-32 -2.67380406E+00 -1.76466579E+00
  1.24941660E-32 -2.67380406E+00 -1.76466579E+00  1.24941660E-32 -2.67380406E+00
 -1.76466579E+00  1.24941660E-32 -2.67380406E+00 -1.76466579E+00  1.24941660E-32
Num ILSW                                   I              100
ILSW                                       I   N=         100
           0           0           0           0           2           0
           0           0           0           0           0          -1
           5           0           0           0           0           0
           0           0           0           0           0           0
           1           0           0           0           0           0
           0           0      100000           0          -1           0
           0           0           0           0           0           0
           0           0           0           1           0           0
           0 -2000000000           1           0           0           0
           0           0           4          52           0           0
           0           0           0           0           0           0
           0           0           0           5           0           1
           0           0           0           0           0           0
           0           0           0           0           0           0
           0           0           0           0           0           0
           0           0           0           0           0           0
           0           0           0           0
Num RLSW                                   I               52
RLSW                                       R   N=          52
  1.00000000E+00  1.00000000E+00  1.00000000E+00  1.00000000E+00  1.00000000E+00
  0.00000000E+00  0.00000000E+00  1.00000000E+00  0.00000000E+00  0.00000000E+00
  0.00000000E+00  0.00000000E+00  1.00000000E+00  0.00000000E+00  0.00000000E+00
  0.00000000E+00  0.00000000E+00  1.00000000E+00  0.00000000E+00  0.00000000E+00
  0.00000000E+00  0.00000000E+00  1.00000000E+00  0.00000000E+00  0.00000000E+00
  0.00000000E+00  0.00000000E+00  1.00000000E+00  0.00000000E+00  0.00000000E+00
  0.00000000E+00  0.00000000E+00  1.00000000E+00  0.00000000E+00  0.00000000E+00
  0.00000000E+00  0.00000000E+00  0.00000000E+00  1.00000000E+00  1.00000000E+00
  0.00000000E+00  1.00000000E+00  0.00000000E+00  0.00000000E+00  0.00000000E+00
  0.00000000E+00  0.00000000E+00  0.00000000E+00  0.00000000E+00  0.00000000E+00
  0.00000000E+00  0.00000000E+00
MxBond                                     I                2
NBond                                      I   N=           5
           1           2           2           2           1
IBond                                      I   N=          10
           2           0           1           3           2           4
           3           5           4           0
RBond                                      R   N=          10
  1.00000000E+00  0.00000000E+00  1.00000000E+00  1.00000000E+00  1.00000000E+00
  1.00000000E+00  1.00000000E+00  2.00000000E+00  2.00000000E+00  0.00000000E+00
Virial Ratio                               R      2.002185057760197E+00
SCF Energy                                 R     -2.795031909050870E+02
MP2 Energy                                 R     -2.804465874669184E+02
Total Energy                               R     -2.804465874669184E+02
Post-SCF wavefunction norm                 R      1.119548879517630E+00
RMS Density                                R      3.535450640773822E-09
Job Status                                 I                1
Nuclear derivative order                   I                0
External E-field                           R   N=          35
  0.00000000E+00  0.00000000E+00  0.00000000E+00  0.00000000E+00  0.00000000E+00
  0.00000000E+00  0.00000000E+00  0.00000000E+00  0.00000000E+00  0.00000000E+00
  0.00000000E+00  0.00000000E+00  0.00000000E+00  0.00000000E+00  0.00000000E+00
  0.00000000E+00  0.00000000E+00  0.00000000E+00  0.00000000E+00  0.00000000E+00
  0.00000000E+00  0.00000000E+00  0.00000000E+00  0.00000000E+00  0.00000000E+00
  0.00000000E+00  0.00000000E+00  0.00000000E+00  0.00000000E+00  0.00000000E+00
  0.00000000E+00  0.00000000E+00  0.00000000E+00  0.00000000E+00  0.00000000E+00
IOpCl                                      I                0
IROHF                                      I                0
Alpha Orbital Energies                     R   N=         207
 -2.06885871E+01 -2.06847071E+01 -2.06587297E+01 -1.58114160E+01 -1.63206682E+00
 -1.49579455E+00 -1.25342290E+00 -9.46752530E-01 -7.73988945E-01 -7.61769700E-01
 -7.13908791E-01 -6.80488576E-01 -6.22341015E-01 -5.88775776E-01 -4.84387943E-01
 -4.70588178E-01  2.98928730E-02  7.46719492E-02  8.57768015E-02  1.01716902E-01
  1.33771919E-01  1.34083881E-01  1.44288307E-01  1.54769739E-01  1.78437238E-01
  1.94059635E-01  2.00174315E-01  2.06374194E-01  2.21130458E-01  2.36259823E-01
  2.37450574E-01  2.66160899E-01  2.94424427E-01  3.04271863E-01  3.10918856E-01
  3.43324706E-01  3.50071989E-01  3.87599524E-01  4.22463202E-01  4.31783790E-01
  5.27138897E-01  5.30511422E-01  5.59022159E-01  5.81861065E-01  6.31085421E-01
  6.37980117E-01  6.71455387E-01  6.85240409E-01  7.06496177E-01  7.11411028E-01
  7.24450936E-01  7.29990962E-01  7.44659532E-01  7.92080658E-01  7.92665641E-01
  8.10001370E-01  8.13606718E-01  8.33192957E-01  8.69050921E-01  9.09203975E-01
  9.22853941E-01  9.27221457E-01  9.57140806E-01  9.79618161E-01  9.85477373E-01
  1.01694773E+00  1.05264410E+00  1.05573420E+00  1.08446410E+00  1.11902692E+00
  1.14213737E+00  1.19010933E+00  1.22216688E+00  1.23413011E+00  1.33958367E+00
  1.35109763E+00  1.38781855E+00  1.45401730E+00  1.48828924E+00  1.51021786E+00
  1.53829276E+00  1.56690099E+00  1.57951992E+00  1.61399680E+00  1.66640045E+00
  1.67022197E+00  1.70294951E+00  1.79365235E+00  1.83042192E+00  1.83504467E+00
  1.88095021E+00  1.90980151E+00  1.95359503E+00  1.99472452E+00  2.00576064E+00
  2.07827105E+00  2.12129355E+00  2.13301700E+00  2.15098541E+00  2.22496723E+00
  2.26526346E+00  2.26571650E+00  2.29049104E+00  2.31552575E+00  2.34718581E+00
  2.38702859E+00  2.42667301E+00  2.43118801E+00  2.45447088E+00  2.46412894E+00
  2.47828806E+00  2.50315809E+00  2.59088424E+00  2.59868802E+00  2.62279640E+00
  2.62863046E+00  2.63597172E+00  2.67067326E+00  2.76134569E+00  2.82920213E+00
  2.85945550E+00  2.88897269E+00  2.89682830E+00  2.92793964E+00  2.96055155E+00
  3.02737544E+00  3.06661428E+00  3.12497639E+00  3.20557432E+00  3.22933970E+00
  3.31860845E+00  3.34324760E+00  3.52128266E+00  3.64426371E+00  3.83970730E+00
  3.84743220E+00  4.14994858E+00  4.16453720E+00  4.18540955E+00  4.28094437E+00
  4.35288088E+00  4.39482265E+00  4.46597449E+00  4.52134947E+00  4.67398862E+00
  4.71247596E+00  4.80985886E+00  4.82683307E+00  4.83169842E+00  4.89529969E+00
  5.02173880E+00  5.07842764E+00  5.10733189E+00  5.13946518E+00  5.18204110E+00
  5.24614717E+00  5.27302129E+00  5.30702951E+00  5.33126902E+00  5.36534658E+00
  5.60824711E+00  5.68998792E+00  5.77918563E+00  5.83343734E+00  5.95485087E+00
  6.17124497E+00  6.31065736E+00  6.33935060E+00  6.39588444E+00  6.49362951E+00
  6.50557796E+00  6.61521821E+00  6.66932165E+00  6.70359705E+00  6.75939821E+00
  6.76520606E+00  6.83869222E+00  6.90193589E+00  7.01682746E+00  7.05878595E+00
  7.05940114E+00  7.09162129E+00  7.12939421E+00  7.15240254E+00  7.18301901E+00
  7.23227674E+00  7.24389334E+00  7.31206261E+00  7.34333388E+00  7.35475223E+00
  7.40997523E+00  7.43324048E+00  7.48583836E+00  7.61015648E+00  7.63236590E+00
  7.64097920E+00  7.66891898E+00  7.79767559E+00  7.90307847E+00  8.09740673E+00
  8.31876007E+00  8.41044346E+00  8.54671402E+00  1.34088049E+01  1.44711945E+01
  1.51663782E+01  1.64559314E+01
Alpha MO coefficients                      R   N=       42849
  9.23353385E-05 -6.28532032E-04 -7.28627261E-04 -3.79908124E-06 -2.14157491E-05
 -2.73232297E-05  0.00000000E+00 -4.31313808E-05  5.84701032E-05  0.00000000E+00
  8.88566172E-05  3.71249260E-05  0.00000000E+00  3.19337793E-05  0.00000000E+00
  0.00000000E+00 -4.98343630E-05  2.10817372E-05 -4.10979235E-06  0.00000000E+00
  0.00000000E+00 -1.38597485E-04  1.17893713E-04  4.74267790E-03 -2.83182069E-04
  2.15994344E-05  1.54586196E-03  1.82570006E-03  1.06186455E-04  7.38633146E-06
  0.00000000E+00 -6.17196272E-04 -3.41261837E-05  0.00000000E+00 -1.10107129E-03
  7.84399027E-04  0.00000000E+00 -4.04397309E-04  6.24839021E-05  0.00000000E+00
  2.88674478E-05  0.00000000E+00  0.00000000E+00 -5.42767465E-05  6.31601772E-06
 -3.78173873E-04  0.00000000E+00  0.00000000E+00  7.41438385E-04 -3.81875565E-05
 -4.46837730E-04  0.00000000E+00  0.00000000E+00  2.45236279E-04 -1.29309926E-05
  0.00000000E+00  8.01598969E-05  1.24216051E-05  0.00000000E+00  0.00000000E+00
 -1.09751011E-04 -2.10812197E-06  0.00000000E+00  2.55481034E-04 -2.80714288E-05
  0.00000000E+00  0.00000000E+00 -3.52618338E-04  5.41021399E-05  9.76900584E-01
 -9.21824485E-03  4.33223952E-02  2.06816247E-03 -9.06769597E-04  1.49093514E-03
 -1.34534623E-03  0.00000000E+00 -1.43433336E-03  1.37379524E-03  0.00000000E+00
  8.17811961E-05 -1.16216212E-03  0.00000000E+00 -1.33415382E-04 -1.22624770E-05
  0.00000000E+00  4.60181196E-05  0.00000000E+00  0.00000000E+00 -3.57720589E-05
  2.21635568E-05  7.45100865E-04  0.00000000E+00  0.00000000E+00 -2.40635286E-04
 -3.87294465E-04 -3.59750400E-04  0.00000000E+00  0.00000000E+00 -3.12499637E-04
 -3.69636652E-04  0.00000000E+00  4.74526375E-05 -4.85216190E-05  0.00000000E+00
  0.00000000E+00 -3.90048115E-05 -1.49975819E-05  0.00000000E+00  2.33181103E-05
  2.14864543E-05  0.00000000E+00  0.00000000E+00 -3.06844607E-04 -1.35505659E-04
  3.74121315E-05  3.64150359E-05 -2.64163245E-04 -7.30723440E-04 -1.63341166E-04
 -2.64699484E-05 -9.62810650E-05  0.00000000E+00  2.79329319E-04  7.04809055E-04
  0.00000000E+00 -8.48996236E-04 -5.03783296E-04  0.00000000E+00 -1.26785796E-04
 -3.17049954E-05  0.00000000E+00 -1.79363636E-05  0.00000000E+00  0.00000000E+00
 -3.05406547E-05  1.52644065E-05 -3.25229849E-04  0.00000000E+00  0.00000000E+00
 -8.23917238E-04  1.30804243E-04 -3.31959650E-05  0.00000000E+00  0.00000000E+00
  1.02543735E-04 -1.17505411E-04  0.00000000E+00 -2.06272431E-05 -1.19512947E-04
  0.00000000E+00  0.00000000E+00 -6.35327515E-05 -1.35724407E-04  0.00000000E+00
  3.30910798E-06 -1.50500455E-04  0.00000000E+00  0.00000000E+00  4.27542816E-05
 -4.17153972E-04 -4.44378085E-03  1.41107295E-04 -2.05797244E-04 -2.48796627E-04
  1.50899066E-04 -1.23895393E-05 -2.82150472E-05  0.00000000E+00  7.55038307E-05
  1.64235318E-04  0.00000000E+00  2.47327199E-04  2.09285097E-04  0.00000000E+00
  1.30767888E-04  2.65159979E-05  0.00000000E+00 -2.71482159E-06  0.00000000E+00
  0.00000000E+00 -1.87207575E-05  1.57845043E-06  4.24332239E-07  0.00000000E+00
  0.00000000E+00  8.58893041E-05  8.53156054E-05 -1.03263811E-04  0.00000000E+00
  0.00000000E+00  1.70421196E-04  1.66019784E-04  0.00000000E+00  1.57376638E-05
 -3.04152640E-06  0.00000000E+00  0.00000000E+00 -3.27832710E-06 -1.22918306E-05
  0.00000000E+00 -3.41226232E-05  4.56127926E-05  0.00000000E+00  0.00000000E+00
  8.49900439E-05  8.89019625E-05  4.02553288E-05 -9.81606525E-04 -4.73655208E-04
 -8.56260922E-06 -2.18110295E-05  1.53811641E-05  0.00000000E+00  3.48039331E-06
  2.71123822E-04  0.00000000E+00 -3.86516744E-05  1.30002703E-04  0.00000000E+00
  2.59437960E-05  0.00000000E+00  0.00000000E+00  1.19885153E-05  1.03157140E-05
 -2.77296176E-05  0.00000000E+00  0.00000000E+00  1.19368074E-05  3.31789033E-05
  1.16653495E-04  8.39390711E-05 -2.83332452E-05  7.55411360E-04  6.45023340E-04
  1.10461791E-05  2.16300226E-06  0.00000000E+00 -7.77704016E-05  1.69625165E-05
  0.00000000E+00  3.20873340E-04  9.03234065E-04  0.00000000E+00 -7.98020414E-07
  7.57970551E-05  0.00000000E+00 -2.34478920E-06  0.00000000E+00  0.00000000E+00
 -5.89788993E-07 -5.54436487E-06 -3.64917473E-05  0.00000000E+00  0.00000000E+00
 -1.33246039E-05  7.94402698E-05 -2.62534167E-05  0.00000000E+00  0.00000000E+00
 -2.65312348E-04 -1.67690725E-04  0.00000000E+00  9.19857870E-06  5.74201247E-06
  0.00000000E+00  0.00000000E+00  1.62457249E-06 -1.81653287E-05  0.00000000E+00
 -3.81782020E-05 -3.71323923E-05  0.00000000E+00  0.00000000E+00 -7.68023270E-05
  2.19704618E-05  4.48298725E-03  2.03326227E-05  1.75542089E-04 -7.13993354E-05
 -4.61309318E-04  9.23221140E-06  1.32982916E-05  0.00000000E+00 -6.11618289E-05
 -5.04063837E-05  0.00000000E+00  2.43554336E-04 -2.15736243E-04  0.00000000E+00
 -1.81546114E-04 -6.33651654E-05  0.00000000E+00 -8.62789169E-06  0.00000000E+00
  0.00000000E+00  2.36116338E-05  2.16884825E-05  7.19012634E-06  0.00000000E+00
  0.00000000E+00 -1.24738424E-04 -5.92521887E-05 -6.12925687E-06  0.00000000E+00
  0.00000000E+00 -2.30901805E-04 -2.26857772E-04  0.00000000E+00  2.96385134E-06
 -1.08242817E-06  0.00000000E+00  0.00000000E+00  1.40882295E-06 -1.14421405E-05
  0.00000000E+00 -4.62478679E-05  6.73670693E-06  0.00000000E+00  0.00000000E+00
 -8.58186241E-05  1.86877567E-04  2.60673681E-04  1.47700838E-03 -3.44975737E-05
 -1.75856636E-03  3.38251485E-04 -1.69458839E-04 -3.88521298E-06  0.00000000E+00
 -2.05141708E-03 -3.81872033E-04  0.00000000E+00  1.14738722E-03  7.65215467E-04
  0.00000000E+00 -1.60661305E-04  5.63593592E-05  0.00000000E+00 -1.20206089E-04
  0.00000000E+00  0.00000000E+00  2.40064653E-04  9.25700695E-05 -4.13571939E-04
  0.00000000E+00  0.00000000E+00  8.42837515E-04 -1.04783784E-04  2.66854705E-05
  0.00000000E+00  0.00000000E+00 -3.68990031E-04 -1.33249386E-04  0.00000000E+00
 -1.74171603E-05  1.20025106E-05  0.00000000E+00  0.00000000E+00  3.81968993E-05
  2.35333492E-05  0.00000000E+00  1.59908517E-04 -7.17806634E-05  0.00000000E+00
  0.00000000E+00 -2.16873449E-04  3.97722701E-05  9.76626446E-01 -9.83260074E-03
  4.35956001E-02  4.70449491E-03 -3.73628192E-04  2.15938454E-03  4.75549560E-04
  0.00000000E+00 -2.33692379E-03 -5.90726460E-04  0.00000000E+00  1.18621447E-03
  5.95102319E-06  0.00000000E+00  1.23066489E-05 -3.94637681E-05  0.00000000E+00
 -2.39457909E-04  0.00000000E+00  0.00000000E+00  1.15087240E-04  3.51700364E-05
  3.83370802E-04  0.00000000E+00  0.00000000E+00 -8.18449966E-04 -4.09883670E-04
 -1.45060876E-04  0.00000000E+00  0.00000000E+00  2.44674457E-04  1.56548536E-05
  0.00000000E+00  4.64391507E-05  1.68789390E-05  0.00000000E+00  0.00000000E+00
 -1.49752570E-05 -1.00961553E-05  0.00000000E+00  1.44451728E-04  9.84090078E-06
  0.00000000E+00  0.00000000E+00 -1.93438497E-04 -1.40878108E-04  4.74889264E-04
  2.06405761E-03  1.17834389E-04  1.44900958E-05 -4.19416728E-05 -2.46737021E-04
  0.00000000E+00  1.06474269E-04 -1.27623374E-03  0.00000000E+00  3.07745222E-04
 -3.40682236E-04  0.00000000E+00 -2.65489508E-06  0.00000000E+00  0.00000000E+00
  7.60701111E-05  1.47668124E-05 -1.60219504E-04  0.00000000E+00  0.00000000E+00
 -5.37294389E-04 -1.94755430E-05  9.76829032E-01 -9.16312851E-03  4.34501679E-02
  1.64915197E-04 -1.14015663E-03 -1.55507267E-03  1.44791003E-03  0.00000000E+00
  1.56824222E-03 -1.29074418E-03  0.00000000E+00 -5.73998272E-04 -8.67586918E-04
  0.00000000E+00  5.64181900E-05 -2.92875838E-05  0.00000000E+00  2.93392315E-05
  0.00000000E+00  0.00000000E+00 -1.17871668E-04 -1.88409432E-06  7.57273054E-04
  0.00000000E+00  0.00000000E+00 -2.02937697E-04 -2.33930818E-04 -2.65924278E-04
  0.00000000E+00  0.00000000E+00  1.70269539E-04  1.27190389E-04  0.00000000E+00
 -6.40557224E-05  1.46162977E-06  0.00000000E+00  0.00000000E+00  1.88765902E-05
  9.67984420E-06  0.00000000E+00 -7.34298982E-07  1.23022248E-04  0.00000000E+00
  0.00000000E+00  2.58322330E-04  8.89184078E-05 -4.83508722E-03 -2.09810729E-04