 Entering Gaussian System, Link 0=g16
 Input=hoono_r3_1p433227.gjf
 Output=hoono_r3_1p433227.log
 Initial command:
 /sw/contrib/gaussian/g16/B01/g16/l1.exe "/scr/Gau-10782.inp" -scrdir="/scr/"
 Entering Link 1 = /sw/contrib/gaussian/g16/B01/g16/l1.exe PID=     10783.
  
 Copyright (c) 1988-2017, Gaussian, Inc.  All Rights Reserved.
  
 This is part of the Gaussian(R) 16 program.  It is based on
 the Gaussian(R) 09 system (copyright 2009, Gaussian, Inc.),
 the Gaussian(R) 03 system (copyright 2003, Gaussian, Inc.),
 the Gaussian(R) 98 system (copyright 1998, Gaussian, Inc.),
 the Gaussian(R) 94 system (copyright 1995, Gaussian, Inc.),
 the Gaussian 92(TM) system (copyright 1992, Gaussian, Inc.),
 the Gaussian 90(TM) system (copyright 1990, Gaussian, Inc.),
 the Gaussian 88(TM) system (copyright 1988, Gaussian, Inc.),
 the Gaussian 86(TM) system (copyright 1986, Carnegie Mellon
 University), and the Gaussian 82(TM) system (copyright 1983,
 Carnegie Mellon University). Gaussian is a federally registered
 trademark of Gaussian, Inc.
  
 This software contains proprietary and confidential information,
 including trade secrets, belonging to Gaussian, Inc.
  
 This software is provided under written license and may be
 used, copied, transmitted, or stored only in accord with that
 written license.
  
 The following legend is applicable only to US Government
 contracts under FAR:
  
                    RESTRICTED RIGHTS LEGEND
  
 Use, reproduction and disclosure by the US Government is
 subject to restrictions as set forth in subparagraphs (a)
 and (c) of the Commercial Computer Software - Restricted
 Rights clause in FAR 52.227-19.
  
 Gaussian, Inc.
 340 Quinnipiac St., Bldg. 40, Wallingford CT 06492
  
  
 ---------------------------------------------------------------
 Warning -- This program may not be used in any manner that
 competes with the business of Gaussian, Inc. or will provide
 assistance to any competitor of Gaussian, Inc.  The licensee
 of this program is prohibited from giving any competitor of
 Gaussian, Inc. access to this program.  By using this program,
 the user acknowledges that Gaussian, Inc. is engaged in the
 business of creating and licensing software in the field of
 computational chemistry and represents and warrants to the
 licensee that it is not a competitor of Gaussian, Inc. and that
 it will not use this program in any manner prohibited above.
 ---------------------------------------------------------------
  

 Cite this work as:
 Gaussian 16, Revision B.01,
 M. J. Frisch, G. W. Trucks, H. B. Schlegel, G. E. Scuseria, 
 M. A. Robb, J. R. Cheeseman, G. Scalmani, V. Barone, 
 G. A. Petersson, H. Nakatsuji, X. Li, M. Caricato, A. V. Marenich, 
 J. Bloino, B. G. Janesko, R. Gomperts, B. Mennucci, H. P. Hratchian, 
 J. V. Ortiz, A. F. Izmaylov, J. L. Sonnenberg, D. Williams-Young, 
 F. Ding, F. Lipparini, F. Egidi, J. Goings, B. Peng, A. Petrone, 
 T. Henderson, D. Ranasinghe, V. G. Zakrzewski, J. Gao, N. Rega, 
 G. Zheng, W. Liang, M. Hada, M. Ehara, K. Toyota, R. Fukuda, 
 J. Hasegawa, M. Ishida, T. Nakajima, Y. Honda, O. Kitao, H. Nakai, 
 T. Vreven, K. Throssell, J. A. Montgomery, Jr., J. E. Peralta, 
 F. Ogliaro, M. J. Bearpark, J. J. Heyd, E. N. Brothers, K. N. Kudin, 
 V. N. Staroverov, T. A. Keith, R. Kobayashi, J. Normand, 
 K. Raghavachari, A. P. Rendell, J. C. Burant, S. S. Iyengar, 
 J. Tomasi, M. Cossi, J. M. Millam, M. Klene, C. Adamo, R. Cammi, 
 J. W. Ochterski, R. L. Martin, K. Morokuma, O. Farkas, 
 J. B. Foresman, and D. J. Fox, Gaussian, Inc., Wallingford CT, 2016.
 
 ******************************************
 Gaussian 16:  ES64L-G16RevB.01 20-Dec-2017
                14-Feb-2022 
 ******************************************
 %nproc=28
 Will use up to   28 processors via shared memory.
 %mem=120GB
 %chk=hoono_r3_1p433227.chk
 -------------------------------------
 #p SP mp2/aug-cc-pvtz density=current
 -------------------------------------
 1/30=1,38=1,172=1/1;
 2/12=2,17=6,18=5,40=1/2;
 3/5=16,6=1,7=10,11=9,25=1,30=1,71=1/1,2,3;
 4//1;
 5/5=2,38=5/2;
 8/6=4,10=1/1;
 9/15=1,16=-3/6;
 10/5=1,13=10/2;
 6/7=2,8=2,9=2,10=2,22=-1/1;
 99/5=1,9=1/99;
 Leave Link    1 at Mon Feb 14 13:06:43 2022, MaxMem= 16106127360 cpu:               3.4 elap:               0.1
 (Enter /sw/contrib/gaussian/g16/B01/g16/l101.exe)
 -----
 title
 -----
 Symbolic Z-matrix:
 Charge =  0 Multiplicity = 1
 H
 O                    1    r1
 O                    2    r2       1    a1
 N                    3    r3       2    a2       1    d1       0
 O                    4    r4       3    a3       2    d2       0
       Variables:
  r1                    0.96898                  
  r2                    1.45492                  
  r3                    1.43323                  
  r4                    1.17073                  
  a1                   97.59495                  
  a2                  102.29752                  
  a3                  109.06955                  
  d1                  180.                       
  d2                  180.                       
 
 ITRead=  0  0  0  0  0
 MicOpt= -1 -1 -1 -1 -1
 NAtoms=      5 NQM=        5 NQMF=       0 NMMI=      0 NMMIF=      0
                NMic=       0 NMicF=      0.
                    Isotopes and Nuclear Properties:
 (Nuclear quadrupole moments (NQMom) in fm**2, nuclear magnetic moments (NMagM)
  in nuclear magnetons)

  Atom         1           2           3           4           5
 IAtWgt=           1          16          16          14          16
 AtmWgt=   1.0078250  15.9949146  15.9949146  14.0030740  15.9949146
 NucSpn=           1           0           0           2           0
 AtZEff=  -0.0000000  -0.0000000  -0.0000000  -0.0000000  -0.0000000
 NQMom=    0.0000000   0.0000000   0.0000000   2.0440000   0.0000000
 NMagM=    2.7928460   0.0000000   0.0000000   0.4037610   0.0000000
 AtZNuc=   1.0000000   8.0000000   8.0000000   7.0000000   8.0000000
 Leave Link  101 at Mon Feb 14 13:06:43 2022, MaxMem= 16106127360 cpu:               2.1 elap:               0.1
 (Enter /sw/contrib/gaussian/g16/B01/g16/l202.exe)
                          Input orientation:                          
 ---------------------------------------------------------------------
 Center     Atomic      Atomic             Coordinates (Angstroms)
 Number     Number       Type             X           Y           Z
 ---------------------------------------------------------------------
      1          1           0        0.000000    0.000000    0.000000
      2          8           0        0.000000    0.000000    0.968976
      3          8           0        1.442156    0.000000    1.161271
      4          7           0        1.559656    0.000000    2.589674
      5          8           0        2.693772    0.000000    2.880168
 ---------------------------------------------------------------------
                    Distance matrix (angstroms):
                    1          2          3          4          5
     1  H    0.000000
     2  O    0.968976   0.000000
     3  O    1.851584   1.454919   0.000000
     4  N    3.023067   2.249264   1.433227   0.000000
     5  O    3.943574   3.302888   2.126300   1.170729   0.000000
 Stoichiometry    HNO3
 Framework group  CS[SG(HNO3)]
 Deg. of freedom     7
 Full point group                 CS      NOp   2
 Largest Abelian subgroup         CS      NOp   2
 Largest concise Abelian subgroup C1      NOp   1
                         Standard orientation:                         
 ---------------------------------------------------------------------
 Center     Atomic      Atomic             Coordinates (Angstroms)
 Number     Number       Type             X           Y           Z
 ---------------------------------------------------------------------
      1          1           0        1.552399    1.670395   -0.000000
      2          8           0        1.454218    0.706406   -0.000000
      3          8           0        0.000000    0.661227   -0.000000
      4          7           0       -0.261629   -0.747918    0.000000
      5          8           0       -1.419342   -0.922004    0.000000
 ---------------------------------------------------------------------
 Rotational constants (GHZ):          56.0715687           5.0762603           4.6548484
 Leave Link  202 at Mon Feb 14 13:06:43 2022, MaxMem= 16106127360 cpu:               0.8 elap:               0.1
 (Enter /sw/contrib/gaussian/g16/B01/g16/l301.exe)
 Standard basis: Aug-CC-pVTZ (5D, 7F)
 Ernie: Thresh=  0.10000D-02 Tol=  0.10000D-05 Strict=F.
 Ernie:  12 primitive shells out of 131 were deleted.
 There are   166 symmetry adapted cartesian basis functions of A'  symmetry.
 There are    79 symmetry adapted cartesian basis functions of A"  symmetry.
 There are   136 symmetry adapted basis functions of A'  symmetry.
 There are    71 symmetry adapted basis functions of A"  symmetry.
   207 basis functions,   315 primitive gaussians,   245 cartesian basis functions
    16 alpha electrons       16 beta electrons
       nuclear repulsion energy       117.5773320149 Hartrees.
 IExCor=    0 DFT=F Ex=HF Corr=None ExCW=0 ScaHFX=  1.000000
 ScaDFX=  1.000000  1.000000  1.000000  1.000000 ScalE2=  1.000000  1.000000
 IRadAn=      5 IRanWt=     -1 IRanGd=            0 ICorTp=0 IEmpDi=  4
 NAtoms=    5 NActive=    5 NUniq=    5 SFac= 1.00D+00 NAtFMM=   60 NAOKFM=F Big=F
 Integral buffers will be    131072 words long.
 Raffenetti 1 integral format.
 Two-electron integral symmetry is turned on.
 Leave Link  301 at Mon Feb 14 13:06:43 2022, MaxMem= 16106127360 cpu:               1.1 elap:               0.1
 (Enter /sw/contrib/gaussian/g16/B01/g16/l302.exe)
 NPDir=0 NMtPBC=     1 NCelOv=     1 NCel=       1 NClECP=     1 NCelD=      1
         NCelK=      1 NCelE2=     1 NClLst=     1 CellRange=     0.0.
 One-electron integrals computed using PRISM.
 One-electron integral symmetry used in STVInt
 NBasis=   207 RedAO= T EigKep=  1.79D-04  NBF=   136    71
 NBsUse=   207 1.00D-06 EigRej= -1.00D+00 NBFU=   136    71
 Leave Link  302 at Mon Feb 14 13:06:43 2022, MaxMem= 16106127360 cpu:               4.9 elap:               0.2
 (Enter /sw/contrib/gaussian/g16/B01/g16/l303.exe)
 DipDrv:  MaxL=1.
 Leave Link  303 at Mon Feb 14 13:06:44 2022, MaxMem= 16106127360 cpu:               0.7 elap:               0.0
 (Enter /sw/contrib/gaussian/g16/B01/g16/l401.exe)
 ExpMin= 2.53D-02 ExpMax= 1.53D+04 ExpMxC= 5.22D+02 IAcc=3 IRadAn=         5 AccDes= 0.00D+00
 Harris functional with IExCor=  205 and IRadAn=       5 diagonalized for initial guess.
 HarFok:  IExCor=  205 AccDes= 0.00D+00 IRadAn=         5 IDoV= 1 UseB2=F ITyADJ=14
 ICtDFT=  3500011 ScaDFX=  1.000000  1.000000  1.000000  1.000000
 FoFCou: FMM=F IPFlag=           0 FMFlag=      100000 FMFlg1=           0
         NFxFlg=           0 DoJE=T BraDBF=F KetDBF=T FulRan=T
         wScrn=  0.000000 ICntrl=       500 IOpCl=  0 I1Cent=   200000004 NGrid=           0
         NMat0=    1 NMatS0=      1 NMatT0=    0 NMatD0=    1 NMtDS0=    0 NMtDT0=    0
 Petite list used in FoFCou.
 Harris En= -279.629628632589    
 JPrj=0 DoOrth=F DoCkMO=F.
 Initial guess orbital symmetries:
       Occupied  (A') (A') (A') (A') (A') (A') (A') (A') (A') (A')
                 (A") (A') (A') (A") (A") (A')
       Virtual   (A") (A') (A') (A') (A') (A') (A") (A') (A') (A')
                 (A") (A') (A") (A') (A') (A") (A') (A") (A') (A')
                 (A') (A') (A') (A') (A') (A") (A') (A") (A') (A')
                 (A") (A') (A") (A') (A') (A") (A') (A") (A') (A')
                 (A") (A') (A") (A') (A") (A') (A') (A') (A") (A")
                 (A') (A') (A') (A') (A") (A') (A") (A') (A") (A')
                 (A') (A') (A") (A') (A') (A") (A') (A") (A') (A')
                 (A") (A') (A') (A") (A") (A') (A') (A") (A') (A')
                 (A') (A") (A') (A") (A') (A") (A') (A") (A') (A')
                 (A') (A") (A') (A") (A') (A") (A") (A') (A") (A')
                 (A') (A') (A") (A') (A') (A') (A") (A') (A") (A')
                 (A") (A') (A') (A') (A") (A') (A') (A') (A") (A')
                 (A") (A') (A') (A") (A") (A') (A') (A") (A") (A')
                 (A') (A') (A') (A") (A") (A') (A") (A') (A') (A')
                 (A') (A") (A") (A') (A') (A") (A') (A') (A') (A')
                 (A") (A') (A') (A") (A') (A") (A') (A") (A') (A")
                 (A') (A") (A') (A") (A') (A") (A") (A") (A') (A')
                 (A") (A') (A") (A') (A") (A') (A") (A") (A') (A')
                 (A') (A') (A') (A') (A') (A') (A') (A') (A') (A')
                 (A')
 The electronic state of the initial guess is 1-A'.
 Leave Link  401 at Mon Feb 14 13:06:44 2022, MaxMem= 16106127360 cpu:               6.9 elap:               0.3
 (Enter /sw/contrib/gaussian/g16/B01/g16/l502.exe)
 Keep R1 ints in memory in symmetry-blocked form, NReq=348887737.
 FoFCou: FMM=F IPFlag=           0 FMFlag=           0 FMFlg1=           0
         NFxFlg=           0 DoJE=F BraDBF=F KetDBF=F FulRan=T
         wScrn=  0.000000 ICntrl=       600 IOpCl=  0 I1Cent=           0 NGrid=           0
         NMat0=    1 NMatS0=  21528 NMatT0=    0 NMatD0=    1 NMtDS0=    0 NMtDT0=    0
 Petite list used in FoFCou.
 Closed shell SCF:
 Using DIIS extrapolation, IDIIS=  1040.
 NGot= 16106127360 LenX= 15988850015 LenY= 15988789549
 Requested convergence on RMS density matrix=1.00D-08 within 128 cycles.
 Requested convergence on MAX density matrix=1.00D-06.
 Requested convergence on             energy=1.00D-06.
 No special actions if energy rises.

 Cycle   1  Pass 1  IDiag  1:
 E= -279.369869562042    
 DIIS: error= 2.57D-02 at cycle   1 NSaved=   1.
 NSaved= 1 IEnMin= 1 EnMin= -279.369869562042     IErMin= 1 ErrMin= 2.57D-02
 ErrMax= 2.57D-02  0.00D+00 EMaxC= 1.00D-01 BMatC= 4.42D-01 BMatP= 4.42D-01
 IDIUse=3 WtCom= 7.43D-01 WtEn= 2.57D-01
 Coeff-Com:  0.100D+01
 Coeff-En:   0.100D+01
 Coeff:      0.100D+01
 Gap=     0.521 Goal=   None    Shift=    0.000
 GapD=    0.521 DampG=2.000 DampE=0.500 DampFc=1.0000 IDamp=-1.
 RMSDP=1.64D-03 MaxDP=9.73D-02              OVMax= 1.18D-01

 Cycle   2  Pass 1  IDiag  1:
 E= -279.451498874758     Delta-E=       -0.081629312716 Rises=F Damp=F
 DIIS: error= 1.79D-02 at cycle   2 NSaved=   2.
 NSaved= 2 IEnMin= 2 EnMin= -279.451498874758     IErMin= 2 ErrMin= 1.79D-02
 ErrMax= 1.79D-02  0.00D+00 EMaxC= 1.00D-01 BMatC= 7.71D-02 BMatP= 4.42D-01
 IDIUse=3 WtCom= 8.21D-01 WtEn= 1.79D-01
 Coeff-Com:  0.204D+00 0.796D+00
 Coeff-En:   0.281D-01 0.972D+00
 Coeff:      0.173D+00 0.827D+00
 Gap=     0.534 Goal=   None    Shift=    0.000
 RMSDP=9.20D-04 MaxDP=3.80D-02 DE=-8.16D-02 OVMax= 6.67D-02

 Cycle   3  Pass 1  IDiag  1:
 E= -279.483743581247     Delta-E=       -0.032244706489 Rises=F Damp=F
 DIIS: error= 9.75D-03 at cycle   3 NSaved=   3.
 NSaved= 3 IEnMin= 3 EnMin= -279.483743581247     IErMin= 3 ErrMin= 9.75D-03
 ErrMax= 9.75D-03  0.00D+00 EMaxC= 1.00D-01 BMatC= 2.88D-02 BMatP= 7.71D-02
 IDIUse=3 WtCom= 9.02D-01 WtEn= 9.75D-02
 Coeff-Com: -0.337D-01 0.369D+00 0.664D+00
 Coeff-En:   0.000D+00 0.227D+00 0.773D+00
 Coeff:     -0.304D-01 0.356D+00 0.675D+00
 Gap=     0.510 Goal=   None    Shift=    0.000
 RMSDP=3.78D-04 MaxDP=1.49D-02 DE=-3.22D-02 OVMax= 4.02D-02

 Cycle   4  Pass 1  IDiag  1:
 E= -279.502957639269     Delta-E=       -0.019214058022 Rises=F Damp=F
 DIIS: error= 1.26D-03 at cycle   4 NSaved=   4.
 NSaved= 4 IEnMin= 4 EnMin= -279.502957639269     IErMin= 4 ErrMin= 1.26D-03
 ErrMax= 1.26D-03  0.00D+00 EMaxC= 1.00D-01 BMatC= 4.67D-04 BMatP= 2.88D-02
 IDIUse=3 WtCom= 9.87D-01 WtEn= 1.26D-02
 Coeff-Com: -0.111D-01 0.482D-01 0.147D+00 0.816D+00
 Coeff-En:   0.000D+00 0.000D+00 0.000D+00 0.100D+01
 Coeff:     -0.109D-01 0.476D-01 0.145D+00 0.818D+00
 Gap=     0.502 Goal=   None    Shift=    0.000
 RMSDP=8.99D-05 MaxDP=2.69D-03 DE=-1.92D-02 OVMax= 1.06D-02

 Cycle   5  Pass 1  IDiag  1:
 E= -279.503607596765     Delta-E=       -0.000649957496 Rises=F Damp=F
 DIIS: error= 6.90D-04 at cycle   5 NSaved=   5.
 NSaved= 5 IEnMin= 5 EnMin= -279.503607596765     IErMin= 5 ErrMin= 6.90D-04
 ErrMax= 6.90D-04  0.00D+00 EMaxC= 1.00D-01 BMatC= 8.26D-05 BMatP= 4.67D-04
 IDIUse=3 WtCom= 9.93D-01 WtEn= 6.90D-03
 Coeff-Com:  0.596D-02-0.687D-01-0.114D+00 0.291D-01 0.115D+01
 Coeff-En:   0.000D+00 0.000D+00 0.000D+00 0.000D+00 0.100D+01
 Coeff:      0.592D-02-0.682D-01-0.113D+00 0.289D-01 0.115D+01
 Gap=     0.502 Goal=   None    Shift=    0.000
 RMSDP=7.30D-05 MaxDP=2.04D-03 DE=-6.50D-04 OVMax= 1.07D-02

 Cycle   6  Pass 1  IDiag  1:
 E= -279.503897979461     Delta-E=       -0.000290382696 Rises=F Damp=F
 DIIS: error= 2.85D-04 at cycle   6 NSaved=   6.
 NSaved= 6 IEnMin= 6 EnMin= -279.503897979461     IErMin= 6 ErrMin= 2.85D-04
 ErrMax= 2.85D-04  0.00D+00 EMaxC= 1.00D-01 BMatC= 1.59D-05 BMatP= 8.26D-05
 IDIUse=3 WtCom= 9.97D-01 WtEn= 2.85D-03
 Coeff-Com:  0.520D-03 0.229D-02 0.530D-02-0.136D+00-0.218D+00 0.135D+01
 Coeff-En:   0.000D+00 0.000D+00 0.000D+00 0.000D+00 0.000D+00 0.100D+01
 Coeff:      0.519D-03 0.229D-02 0.528D-02-0.136D+00-0.217D+00 0.134D+01
 Gap=     0.502 Goal=   None    Shift=    0.000
 RMSDP=4.31D-05 MaxDP=1.17D-03 DE=-2.90D-04 OVMax= 5.37D-03

 Cycle   7  Pass 1  IDiag  1:
 E= -279.503964322314     Delta-E=       -0.000066342854 Rises=F Damp=F
 DIIS: error= 1.04D-04 at cycle   7 NSaved=   7.
 NSaved= 7 IEnMin= 7 EnMin= -279.503964322314     IErMin= 7 ErrMin= 1.04D-04
 ErrMax= 1.04D-04  0.00D+00 EMaxC= 1.00D-01 BMatC= 3.91D-06 BMatP= 1.59D-05
 IDIUse=3 WtCom= 9.99D-01 WtEn= 1.04D-03
 Coeff-Com: -0.908D-03 0.125D-01 0.249D-01-0.229D-01-0.267D+00 0.341D+00
 Coeff-Com:  0.912D+00
 Coeff-En:   0.000D+00 0.000D+00 0.000D+00 0.000D+00 0.000D+00 0.000D+00
 Coeff-En:   0.100D+01
 Coeff:     -0.907D-03 0.125D-01 0.248D-01-0.229D-01-0.266D+00 0.340D+00
 Coeff:      0.913D+00
 Gap=     0.502 Goal=   None    Shift=    0.000
 RMSDP=1.26D-05 MaxDP=3.56D-04 DE=-6.63D-05 OVMax= 1.49D-03

 Cycle   8  Pass 1  IDiag  1:
 E= -279.503972211190     Delta-E=       -0.000007888876 Rises=F Damp=F
 DIIS: error= 5.62D-05 at cycle   8 NSaved=   8.
 NSaved= 8 IEnMin= 8 EnMin= -279.503972211190     IErMin= 8 ErrMin= 5.62D-05
 ErrMax= 5.62D-05  0.00D+00 EMaxC= 1.00D-01 BMatC= 5.54D-07 BMatP= 3.91D-06
 IDIUse=1 WtCom= 1.00D+00 WtEn= 0.00D+00
 Coeff-Com: -0.415D-03 0.309D-02 0.699D-02 0.268D-01-0.417D-01-0.191D+00
 Coeff-Com:  0.201D+00 0.996D+00
 Coeff:     -0.415D-03 0.309D-02 0.699D-02 0.268D-01-0.417D-01-0.191D+00
 Coeff:      0.201D+00 0.996D+00
 Gap=     0.502 Goal=   None    Shift=    0.000
 RMSDP=6.19D-06 MaxDP=1.89D-04 DE=-7.89D-06 OVMax= 6.67D-04

 Cycle   9  Pass 1  IDiag  1:
 E= -279.503973739296     Delta-E=       -0.000001528105 Rises=F Damp=F
 DIIS: error= 1.60D-05 at cycle   9 NSaved=   9.
 NSaved= 9 IEnMin= 9 EnMin= -279.503973739296     IErMin= 9 ErrMin= 1.60D-05
 ErrMax= 1.60D-05  0.00D+00 EMaxC= 1.00D-01 BMatC= 6.85D-08 BMatP= 5.54D-07
 IDIUse=1 WtCom= 1.00D+00 WtEn= 0.00D+00
 Coeff-Com:  0.110D-03-0.157D-02-0.281D-02-0.965D-03 0.330D-01-0.539D-02
 Coeff-Com: -0.175D+00-0.608D-01 0.121D+01
 Coeff:      0.110D-03-0.157D-02-0.281D-02-0.965D-03 0.330D-01-0.539D-02
 Coeff:     -0.175D+00-0.608D-01 0.121D+01
 Gap=     0.502 Goal=   None    Shift=    0.000
 RMSDP=1.86D-06 MaxDP=6.39D-05 DE=-1.53D-06 OVMax= 1.73D-04

 Cycle  10  Pass 1  IDiag  1:
 E= -279.503973893123     Delta-E=       -0.000000153828 Rises=F Damp=F
 DIIS: error= 4.23D-06 at cycle  10 NSaved=  10.
 NSaved=10 IEnMin=10 EnMin= -279.503973893123     IErMin=10 ErrMin= 4.23D-06
 ErrMax= 4.23D-06  0.00D+00 EMaxC= 1.00D-01 BMatC= 5.69D-09 BMatP= 6.85D-08
 IDIUse=1 WtCom= 1.00D+00 WtEn= 0.00D+00
 Coeff-Com:  0.336D-04-0.266D-03-0.384D-03-0.289D-02 0.243D-02 0.209D-01
 Coeff-Com: -0.196D-01-0.784D-01-0.687D-01 0.115D+01
 Coeff:      0.336D-04-0.266D-03-0.384D-03-0.289D-02 0.243D-02 0.209D-01
 Coeff:     -0.196D-01-0.784D-01-0.687D-01 0.115D+01
 Gap=     0.502 Goal=   None    Shift=    0.000
 RMSDP=5.17D-07 MaxDP=2.15D-05 DE=-1.54D-07 OVMax= 4.48D-05

 Cycle  11  Pass 1  IDiag  1:
 E= -279.503973906307     Delta-E=       -0.000000013184 Rises=F Damp=F
 DIIS: error= 2.02D-06 at cycle  11 NSaved=  11.
 NSaved=11 IEnMin=11 EnMin= -279.503973906307     IErMin=11 ErrMin= 2.02D-06
 ErrMax= 2.02D-06  0.00D+00 EMaxC= 1.00D-01 BMatC= 6.80D-10 BMatP= 5.69D-09
 IDIUse=1 WtCom= 1.00D+00 WtEn= 0.00D+00
 Coeff-Com: -0.212D-04 0.238D-03 0.482D-03 0.526D-03-0.448D-02-0.352D-02
 Coeff-Com:  0.237D-01 0.297D-01-0.140D+00-0.204D+00 0.130D+01
 Coeff:     -0.212D-04 0.238D-03 0.482D-03 0.526D-03-0.448D-02-0.352D-02
 Coeff:      0.237D-01 0.297D-01-0.140D+00-0.204D+00 0.130D+01
 Gap=     0.502 Goal=   None    Shift=    0.000
 RMSDP=1.86D-07 MaxDP=7.03D-06 DE=-1.32D-08 OVMax= 1.74D-05

 Cycle  12  Pass 1  IDiag  1:
 E= -279.503973908198     Delta-E=       -0.000000001891 Rises=F Damp=F
 DIIS: error= 5.53D-07 at cycle  12 NSaved=  12.
 NSaved=12 IEnMin=12 EnMin= -279.503973908198     IErMin=12 ErrMin= 5.53D-07
 ErrMax= 5.53D-07  0.00D+00 EMaxC= 1.00D-01 BMatC= 6.62D-11 BMatP= 6.80D-10
 IDIUse=1 WtCom= 1.00D+00 WtEn= 0.00D+00
 Coeff-Com:  0.989D-06-0.255D-04-0.560D-04 0.212D-03 0.100D-02-0.235D-02
 Coeff-Com: -0.398D-02 0.616D-02 0.404D-01-0.103D+00-0.285D+00 0.135D+01
 Coeff:      0.989D-06-0.255D-04-0.560D-04 0.212D-03 0.100D-02-0.235D-02
 Coeff:     -0.398D-02 0.616D-02 0.404D-01-0.103D+00-0.285D+00 0.135D+01
 Gap=     0.502 Goal=   None    Shift=    0.000
 RMSDP=7.05D-08 MaxDP=2.79D-06 DE=-1.89D-09 OVMax= 6.21D-06

 Cycle  13  Pass 1  IDiag  1:
 E= -279.503973908409     Delta-E=       -0.000000000211 Rises=F Damp=F
 DIIS: error= 1.57D-07 at cycle  13 NSaved=  13.
 NSaved=13 IEnMin=13 EnMin= -279.503973908409     IErMin=13 ErrMin= 1.57D-07
 ErrMax= 1.57D-07  0.00D+00 EMaxC= 1.00D-01 BMatC= 3.35D-12 BMatP= 6.62D-11
 IDIUse=1 WtCom= 1.00D+00 WtEn= 0.00D+00
 Coeff-Com:  0.122D-05-0.131D-04-0.218D-04-0.854D-04 0.139D-03 0.702D-03
 Coeff-Com: -0.992D-03-0.299D-02 0.716D-03 0.372D-01-0.321D-01-0.300D+00
 Coeff-Com:  0.130D+01
 Coeff:      0.122D-05-0.131D-04-0.218D-04-0.854D-04 0.139D-03 0.702D-03
 Coeff:     -0.992D-03-0.299D-02 0.716D-03 0.372D-01-0.321D-01-0.300D+00
 Coeff:      0.130D+01
 Gap=     0.502 Goal=   None    Shift=    0.000
 RMSDP=1.76D-08 MaxDP=4.79D-07 DE=-2.11D-10 OVMax= 1.43D-06

 Cycle  14  Pass 1  IDiag  1:
 E= -279.503973908419     Delta-E=       -0.000000000011 Rises=F Damp=F
 DIIS: error= 2.11D-08 at cycle  14 NSaved=  14.
 NSaved=14 IEnMin=14 EnMin= -279.503973908419     IErMin=14 ErrMin= 2.11D-08
 ErrMax= 2.11D-08  0.00D+00 EMaxC= 1.00D-01 BMatC= 1.59D-13 BMatP= 3.35D-12
 IDIUse=1 WtCom= 1.00D+00 WtEn= 0.00D+00
 Coeff-Com: -0.162D-06 0.267D-05 0.481D-05 0.289D-05-0.754D-04 0.467D-04
 Coeff-Com:  0.286D-03 0.159D-03-0.225D-02 0.109D-02 0.160D-01-0.261D-01
 Coeff-Com: -0.190D+00 0.120D+01
 Coeff:     -0.162D-06 0.267D-05 0.481D-05 0.289D-05-0.754D-04 0.467D-04
 Coeff:      0.286D-03 0.159D-03-0.225D-02 0.109D-02 0.160D-01-0.261D-01
 Coeff:     -0.190D+00 0.120D+01
 Gap=     0.502 Goal=   None    Shift=    0.000
 RMSDP=3.47D-09 MaxDP=8.71D-08 DE=-1.07D-11 OVMax= 3.12D-07

 SCF Done:  E(RHF) =  -279.503973908     A.U. after   14 cycles
            NFock= 14  Conv=0.35D-08     -V/T= 2.0022
 KE= 2.788886975678D+02 PE=-8.964885276112D+02 EE= 2.205185241201D+02
 Leave Link  502 at Mon Feb 14 13:06:47 2022, MaxMem= 16106127360 cpu:              51.4 elap:               3.4
 (Enter /sw/contrib/gaussian/g16/B01/g16/l801.exe)
 ExpMin= 2.53D-02 ExpMax= 1.53D+04 ExpMxC= 5.22D+02 IAcc=3 IRadAn=         5 AccDes= 0.00D+00
 HarFok:  IExCor=  205 AccDes= 0.00D+00 IRadAn=         5 IDoV=-2 UseB2=F ITyADJ=14
 ICtDFT= 12500011 ScaDFX=  1.000000  1.000000  1.000000  1.000000
 Largest valence mixing into a core orbital is  2.07D-04
 Largest core mixing into a valence orbital is  3.55D-05
 Range of M.O.s used for correlation:     5   207
 NBasis=   207 NAE=    16 NBE=    16 NFC=     4 NFV=     0
 NROrb=    203 NOA=    12 NOB=    12 NVA=   191 NVB=   191

 **** Warning!!: The largest alpha MO coefficient is  0.17976779D+02

 Leave Link  801 at Mon Feb 14 13:06:47 2022, MaxMem= 16106127360 cpu:               2.4 elap:               0.1
 (Enter /sw/contrib/gaussian/g16/B01/g16/l906.exe)
 Frozen-core derivative calculation, NFC=   4 NFV=   0.
 FulOut=F Deriv=T AODrv=F NAtomX=     5
   MMem=          76  MDisk=          12 MDiskD=          12
  W3Min=      811440 MinDsk=     1524655 NBas6D=         245
 NBas2D=       30762    NTT=       30135    LW2=     3500000
    MDV= 16105579815 MDiskM=      328644 NBas2p=       30466
 Fully in-core method, ICMem=   960157634.
 IMap=   1   2   3   4   5   6   7   8   9  10  11  12  13  14  15  16
 JobTyp=1 Pass  1 fully in-core, NPsUse= 28.
 Compute canonical integrals.
 FoFCou: FMM=F IPFlag=           0 FMFlag=           0 FMFlg1=           0
         NFxFlg=           0 DoJE=F BraDBF=F KetDBF=F FulRan=T
         wScrn=  0.000000 ICntrl=       600 IOpCl=  1 I1Cent=           0 NGrid=           0
         NMat0=    1 NMatS0=  30762 NMatT0=    0 NMatD0=    1 NMtDS0=    0 NMtDT0=    0
 Symmetry not used in FoFCou.
 Spin components of T(2) and E(2):
     alpha-alpha T2 =       0.3372238171D-01 E2=     -0.1221225501D+00
     alpha-beta  T2 =       0.1850833197D+00 E2=     -0.6983738917D+00
     beta-beta   T2 =       0.3372238171D-01 E2=     -0.1221225501D+00
 The integrals were generated   1 times.
 ANorm=    0.1119164011D+01
 E2 =    -0.9426189918D+00 EUMP2 =    -0.28044659290022D+03
 Leave Link  906 at Mon Feb 14 13:06:56 2022, MaxMem= 16106127360 cpu:             244.5 elap:               8.8
 (Enter /sw/contrib/gaussian/g16/B01/g16/l1002.exe)
 Minotr:  Closed shell wavefunction.
          Computing MP2/KS-MP2 derivatives.
          Using Z-Vector for PSCF gradient.
          Skipping F1 and S1 gradient terms here.
          Frozen-core window.
          Direct CPHF calculation.
          Differentiating once with respect to electric field.
                with respect to dipole field.
          Electric field/nuclear overlap derivatives assumed to be zero.
          Using symmetry in CPHF.
          Requested convergence is 1.0D-10 RMS, and 1.0D-09 maximum.
          NewPWx=F KeepS1=T KeepF1=T KeepIn=T MapXYZ=F SortEE=F KeepMc=T.
 Keep R1 ints in memory in symmetry-blocked form, NReq=348888868.
 FoFCou: FMM=F IPFlag=           0 FMFlag=           0 FMFlg1=           0
         NFxFlg=           0 DoJE=F BraDBF=F KetDBF=F FulRan=T
         wScrn=  0.000000 ICntrl=       600 IOpCl=  0 I1Cent=           0 NGrid=           0
         NMat0=    1 NMatS0=  21528 NMatT0=    0 NMatD0=    1 NMtDS0=    0 NMtDT0=    0
 Petite list used in FoFCou.
          MDV=   16106127360 using IRadAn=       5.
          Solving linear equations separately, MaxMat=       0.
          There are     1 degrees of freedom in the 1st order CPHF.  IDoFFX=0 NUNeed=     1.
 LinEq1:  Iter=  0 NonCon=     1 RMS=5.86D-03 Max=1.33D-01 NDo=     1
 AX will form     1 AO Fock derivatives at one time.
 LinEq1:  Iter=  1 NonCon=     1 RMS=1.83D-03 Max=3.62D-02 NDo=     1
 LinEq1:  Iter=  2 NonCon=     1 RMS=8.31D-04 Max=1.16D-02 NDo=     1
 LinEq1:  Iter=  3 NonCon=     1 RMS=3.69D-04 Max=7.77D-03 NDo=     1
 LinEq1:  Iter=  4 NonCon=     1 RMS=1.14D-04 Max=1.47D-03 NDo=     1
 LinEq1:  Iter=  5 NonCon=     1 RMS=4.38D-05 Max=6.98D-04 NDo=     1
 LinEq1:  Iter=  6 NonCon=     1 RMS=1.97D-05 Max=2.23D-04 NDo=     1
 LinEq1:  Iter=  7 NonCon=     1 RMS=7.75D-06 Max=1.42D-04 NDo=     1
 LinEq1:  Iter=  8 NonCon=     1 RMS=3.32D-06 Max=3.04D-05 NDo=     1
 LinEq1:  Iter=  9 NonCon=     1 RMS=8.96D-07 Max=1.14D-05 NDo=     1
 LinEq1:  Iter= 10 NonCon=     1 RMS=1.71D-07 Max=1.76D-06 NDo=     1
 LinEq1:  Iter= 11 NonCon=     1 RMS=3.12D-08 Max=3.11D-07 NDo=     1
 LinEq1:  Iter= 12 NonCon=     1 RMS=7.51D-09 Max=1.13D-07 NDo=     1
 LinEq1:  Iter= 13 NonCon=     1 RMS=1.38D-09 Max=2.24D-08 NDo=     1
 LinEq1:  Iter= 14 NonCon=     1 RMS=2.46D-10 Max=3.17D-09 NDo=     1
 LinEq1:  Iter= 15 NonCon=     0 RMS=4.45D-11 Max=4.60D-10 NDo=     1
 Linear equations converged to 1.000D-10 1.000D-09 after    15 iterations.
 End of Minotr F.D. properties file   721 does not exist.
 End of Minotr F.D. properties file   722 does not exist.
 End of Minotr F.D. properties file   788 does not exist.
 Leave Link 1002 at Mon Feb 14 13:07:00 2022, MaxMem= 16106127360 cpu:              64.0 elap:               4.3
 (Enter /sw/contrib/gaussian/g16/B01/g16/l601.exe)
 Copying SCF densities to generalized density rwf, IOpCl= 0 IROHF=0.

 **********************************************************************

            Population analysis using the MP2 Density.

 **********************************************************************

 Orbital symmetries:
       Occupied  (A') (A') (A') (A') (A') (A') (A') (A') (A') (A')
                 (A") (A') (A") (A') (A") (A')
       Virtual   (A') (A") (A') (A') (A') (A") (A') (A') (A") (A')
                 (A") (A') (A') (A') (A") (A') (A') (A") (A') (A')
                 (A') (A') (A') (A') (A") (A') (A') (A") (A') (A')
                 (A") (A') (A") (A') (A') (A") (A') (A") (A') (A")
                 (A') (A') (A") (A') (A') (A") (A') (A') (A") (A')
                 (A") (A') (A') (A') (A") (A') (A") (A') (A") (A')
                 (A') (A') (A") (A') (A') (A") (A') (A") (A') (A')
                 (A") (A') (A') (A") (A") (A') (A') (A") (A') (A')
                 (A') (A") (A') (A") (A") (A') (A') (A") (A') (A')
                 (A") (A') (A') (A") (A') (A") (A') (A") (A') (A')
                 (A") (A') (A") (A') (A') (A') (A") (A') (A") (A')
                 (A") (A') (A') (A') (A") (A') (A') (A') (A") (A')
                 (A") (A') (A") (A') (A') (A") (A") (A') (A") (A')
                 (A') (A') (A') (A") (A") (A") (A') (A') (A') (A')
                 (A") (A') (A") (A') (A') (A") (A') (A') (A') (A')
                 (A") (A') (A') (A") (A') (A") (A') (A") (A') (A")
                 (A') (A") (A') (A") (A') (A") (A") (A') (A") (A')
                 (A") (A') (A") (A') (A") (A') (A") (A") (A') (A')
                 (A') (A') (A') (A') (A') (A') (A') (A') (A') (A')
                 (A')
 The electronic state is 1-A'.
 Alpha  occ. eigenvalues --  -20.69521 -20.67819 -20.66310 -15.80875  -1.62586
 Alpha  occ. eigenvalues --   -1.49917  -1.26215  -0.94626  -0.77489  -0.76233
 Alpha  occ. eigenvalues --   -0.71644  -0.67805  -0.61910  -0.59073  -0.48777
 Alpha  occ. eigenvalues --   -0.47340
 Alpha virt. eigenvalues --    0.02892   0.07498   0.08639   0.10199   0.13373
 Alpha virt. eigenvalues --    0.13406   0.14356   0.15403   0.17770   0.19420
 Alpha virt. eigenvalues --    0.19994   0.20942   0.22002   0.23428   0.23770
 Alpha virt. eigenvalues --    0.26614   0.30175   0.30333   0.31360   0.34534
 Alpha virt. eigenvalues --    0.35095   0.38873   0.42103   0.43081   0.52856
 Alpha virt. eigenvalues --    0.53030   0.56138   0.58302   0.62780   0.63982
 Alpha virt. eigenvalues --    0.67517   0.68436   0.70541   0.71057   0.72383
 Alpha virt. eigenvalues --    0.72768   0.74385   0.79113   0.79321   0.81096
 Alpha virt. eigenvalues --    0.81135   0.83191   0.87012   0.90838   0.92099
 Alpha virt. eigenvalues --    0.92820   0.95418   0.98110   0.98364   1.01439
 Alpha virt. eigenvalues --    1.05320   1.05608   1.08480   1.11961   1.14387
 Alpha virt. eigenvalues --    1.19083   1.22146   1.23337   1.34178   1.35525
 Alpha virt. eigenvalues --    1.38329   1.45738   1.48793   1.50775   1.53969
 Alpha virt. eigenvalues --    1.56989   1.58476   1.61457   1.66586   1.67013
 Alpha virt. eigenvalues --    1.70567   1.79332   1.83269   1.83913   1.87774
 Alpha virt. eigenvalues --    1.91328   1.95636   1.99732   2.00783   2.08605
 Alpha virt. eigenvalues --    2.12371   2.13560   2.14642   2.22944   2.26279
 Alpha virt. eigenvalues --    2.26455   2.29411   2.31507   2.35050   2.38592
 Alpha virt. eigenvalues --    2.42811   2.43464   2.45774   2.46600   2.48079
 Alpha virt. eigenvalues --    2.50524   2.58722   2.59873   2.62673   2.62720
 Alpha virt. eigenvalues --    2.63265   2.67074   2.76183   2.83595   2.86682
 Alpha virt. eigenvalues --    2.89250   2.89367   2.94477   2.95931   3.03508
 Alpha virt. eigenvalues --    3.07782   3.13006   3.20086   3.23309   3.32124
 Alpha virt. eigenvalues --    3.34926   3.52100   3.65309   3.85054   3.85134
 Alpha virt. eigenvalues --    4.14882   4.15791   4.18802   4.26912   4.35146
 Alpha virt. eigenvalues --    4.39434   4.46193   4.52234   4.67107   4.71385
 Alpha virt. eigenvalues --    4.80989   4.82545   4.84536   4.89827   5.03177
 Alpha virt. eigenvalues --    5.08518   5.11238   5.14375   5.18618   5.24935
 Alpha virt. eigenvalues --    5.28103   5.31383   5.33254   5.36595   5.61174
 Alpha virt. eigenvalues --    5.67829   5.78409   5.82739   5.96373   6.17968
 Alpha virt. eigenvalues --    6.30915   6.34835   6.40078   6.49966   6.51092
 Alpha virt. eigenvalues --    6.61477   6.66668   6.70937   6.75531   6.76295
 Alpha virt. eigenvalues --    6.83956   6.90711   7.02050   7.05481   7.06091
 Alpha virt. eigenvalues --    7.08983   7.13233   7.15699   7.18270   7.23634
 Alpha virt. eigenvalues --    7.24007   7.30294   7.32964   7.35418   7.40708
 Alpha virt. eigenvalues --    7.44334   7.49148   7.61269   7.62887   7.64908
 Alpha virt. eigenvalues --    7.68168   7.79911   7.89452   8.12383   8.32561
 Alpha virt. eigenvalues --    8.40901   8.55691  13.46423  14.53850  15.18438
 Alpha virt. eigenvalues --   16.20429
          Condensed to atoms (all electrons):
               1          2          3          4          5
     1  H    0.589101   0.128224   0.020252   0.012593  -0.000630
     2  O    0.128224   8.322027  -0.171470  -0.095121   0.016186
     3  O    0.020252  -0.171470   8.462791  -0.137242  -0.044031
     4  N    0.012593  -0.095121  -0.137242   6.994867  -0.059165
     5  O   -0.000630   0.016186  -0.044031  -0.059165   8.292025
 Mulliken charges:
               1
     1  H    0.250460
     2  O   -0.199846
     3  O   -0.130300
     4  N    0.284070
     5  O   -0.204384
 Sum of Mulliken charges =  -0.00000
 Mulliken charges with hydrogens summed into heavy atoms:
               1
     2  O    0.050615
     3  O   -0.130300
     4  N    0.284070
     5  O   -0.204384
 Electronic spatial extent (au):  <R**2>=            250.2595
 Charge=             -0.0000 electrons
 Dipole moment (field-independent basis, Debye):
    X=              0.6252    Y=              1.5063    Z=             -0.0000  Tot=              1.6309
 Quadrupole moment (field-independent basis, Debye-Ang):
   XX=            -22.5133   YY=            -18.7234   ZZ=            -21.9735
   XY=              3.2076   XZ=              0.0000   YZ=             -0.0000
 Traceless Quadrupole moment (field-independent basis, Debye-Ang):
   XX=             -1.4432   YY=              2.3466   ZZ=             -0.9034
   XY=              3.2076   XZ=              0.0000   YZ=             -0.0000
 Octapole moment (field-independent basis, Debye-Ang**2):
  XXX=              3.3636  YYY=             11.3395  ZZZ=              0.0000  XYY=              7.9486
  XXY=              6.7851  XXZ=             -0.0000  XZZ=             -1.5348  YZZ=             -0.7567
  YYZ=             -0.0000  XYZ=             -0.0000
 Hexadecapole moment (field-independent basis, Debye-Ang**3):
 XXXX=           -158.5902 YYYY=            -87.2474 ZZZZ=            -18.1662 XXXY=            -35.8529
 XXXZ=              0.0000 YYYX=            -30.3179 YYYZ=              0.0000 ZZZX=              0.0000
 ZZZY=              0.0000 XXYY=            -33.6578 XXZZ=            -30.8873 YYZZ=            -20.1327
 XXYZ=              0.0000 YYXZ=              0.0000 ZZXY=            -14.7828
 N-N= 1.175773320149D+02 E-N=-8.972512823359D+02  KE= 2.802306877509D+02
 Symmetry A'   KE= 2.662500522209D+02
 Symmetry A"   KE= 1.398063553007D+01
 No NMR shielding tensors so no spin-rotation constants.
 Leave Link  601 at Mon Feb 14 13:07:01 2022, MaxMem= 16106127360 cpu:              15.5 elap:               0.6
 (Enter /sw/contrib/gaussian/g16/B01/g16/l9999.exe)
 1\1\GINC-N2228\SP\RMP2-FC\Aug-CC-pVTZ\H1N1O3\CGAVINH\14-Feb-2022\0\\#p
  SP mp2/aug-cc-pvtz density=current\\title\\0,1\H\O,1,0.96897556\O,2,1
 .45491931,1,97.59494903\N,3,1.4332273989,2,102.29752444,1,180.,0\O,4,1
 .17072885,3,109.06955123,2,180.,0\\Version=ES64L-G16RevB.01\State=1-A'
 \HF=-279.5039739\MP2=-280.4465929\RMSD=3.469e-09\Dipole=-0.1846752,0.,
 -0.6145139\Quadrupole=-1.5248658,-0.6716622,2.1965281,0.,2.0517408,0.\
 PG=CS [SG(H1N1O3)]\\@


 KEEP CLOSE TO NATURES HEART, YOURSELF;
 AND BREAK CLEAR AWAY, ONCE IN A WHILE, AND
 CLIMB A MOUNTAIN OR SPEND A WEEK IN THE
 WOODS.  WASH YOUR SPIRIT CLEAN...
                                         -- JOHN MUIR
 Job cpu time:       0 days  0 hours  6 minutes 38.7 seconds.
 Elapsed time:       0 days  0 hours  0 minutes 18.1 seconds.
 File lengths (MBytes):  RWF=     22 Int=      0 D2E=      0 Chk=      8 Scr=      1
 Normal termination of Gaussian 16 at Mon Feb 14 13:07:01 2022.
