title                                                                   
SP        RMP2-FC                                                     Aug-CC-pVTZ         
Number of atoms                            I                5
Info1-9                                    I   N=           9
          33          24           0           0           0         110
           1           2           1
Full Title                                 C   N=           1
title       
Route                                      C   N=           4
#p SP mp2/aug-cc-pvtz density=current           
Charge                                     I                0
Multiplicity                               I                1
Number of electrons                        I               32
Number of alpha electrons                  I               16
Number of beta electrons                   I               16
Number of basis functions                  I              207
Number of independent functions            I              207
Number of point charges in /Mol/           I                0
Number of translation vectors              I                0
Atomic numbers                             I   N=           5
           1           8           8           7           8
Nuclear charges                            R   N=           5
  1.00000000E+00  8.00000000E+00  8.00000000E+00  7.00000000E+00  8.00000000E+00
Current cartesian coordinates              R   N=          15
  2.99501180E+00  3.17633584E+00 -1.01403669E-30  2.74792738E+00  1.36198451E+00
 -7.77929170E-31 -2.96930344E-17  1.27203947E+00  5.72075509E-32 -4.98716047E-01
 -1.43917615E+00  1.30526064E-31 -2.68592732E+00 -1.77178684E+00  8.63202101E-31
Number of symbols in /Mol/                 I                0
Force Field                                I                0
Atom Types                                 C   N=           5
                                                            
Int Atom Types                             I   N=           5
           0           0           0           0           0
MM charges                                 R   N=           5
  0.00000000E+00  0.00000000E+00  0.00000000E+00  0.00000000E+00  0.00000000E+00
Integer atomic weights                     I   N=           5
           1          16          16          14          16
Real atomic weights                        R   N=           5
  1.00782504E+00  1.59949146E+01  1.59949146E+01  1.40030740E+01  1.59949146E+01
Atom fragment info                         I   N=           5
           0           0           0           0           0
Atom residue num                           I   N=           5
           0           0           0           0           0
Nuclear spins                              I   N=           5
           1           0           0           2           0
Nuclear ZEff                               R   N=           5
 -1.00000000E+00 -5.60000000E+00 -5.60000000E+00 -4.55000000E+00 -5.60000000E+00
Nuclear ZNuc                               R   N=           5
  1.00000000E+00  8.00000000E+00  8.00000000E+00  7.00000000E+00  8.00000000E+00
Nuclear QMom                               R   N=           5
  0.00000000E+00  0.00000000E+00  0.00000000E+00  2.04400000E+00  0.00000000E+00
Nuclear GFac                               R   N=           5
  2.79284600E+00  0.00000000E+00  0.00000000E+00  4.03761000E-01  0.00000000E+00
MicOpt                                     I   N=           5
          -1          -1          -1          -1          -1
Number of residues                         I                0
Number of secondary structures             I                0
SymInf integers                            I   N=          26
           1           2           1           1           1           1
           1          -1           0           0           0           0
           0           0           0           0           0           0
           0           0           0           0           0           0
           0           0
RotTr to input orientation                 R   N=          12
 -9.90854069E-01 -8.87263002E-16 -1.34937813E-01  1.34937813E-01  8.17064891E-16
 -9.90854069E-01  9.89401106E-16 -1.00000000E+00 -6.89866743E-16  2.53901182E+00
  0.00000000E+00  3.55142564E+00
Number of contracted shells                I               65
Number of primitive shells                 I              119
Pure/Cartesian d shells                    I                0
Pure/Cartesian f shells                    I                0
Highest angular momentum                   I                3
Largest degree of contraction              I                7
Shell types                                I   N=          65
           0           0           0           0           1           1
           1          -2          -2           0           0           0
           0           0           1           1           1           1
          -2          -2          -2          -3          -3           0
           0           0           0           0           1           1
           1           1          -2          -2          -2          -3
          -3           0           0           0           0           0
           1           1           1           1          -2          -2
          -2          -3          -3           0           0           0
           0           0           1           1           1           1
          -2          -2          -2          -3          -3
Number of primitives per shell             I   N=          65
           3           1           1           1           1           1
           1           1           1           7           6           1
           1           1           3           1           1           1
           1           1           1           1           1           7
           6           1           1           1           3           1
           1           1           1           1           1           1
           1           7           6           1           1           1
           3           1           1           1           1           1
           1           1           1           7           6           1
           1           1           3           1           1           1
           1           1           1           1           1
Shell to atom map                          I   N=          65
           1           1           1           1           1           1
           1           1           1           2           2           2
           2           2           2           2           2           2
           2           2           2           2           2           3
           3           3           3           3           3           3
           3           3           3           3           3           3
           3           4           4           4           4           4
           4           4           4           4           4           4
           4           4           4           5           5           5
           5           5           5           5           5           5
           5           5           5           5           5
Primitive exponents                        R   N=         119
  3.38700000E+01  5.09500000E+00  1.15900000E+00  3.25800000E-01  1.02700000E-01
  2.52600000E-02  1.40700000E+00  3.88000000E-01  1.02000000E-01  1.05700000E+00
  2.47000000E-01  1.53300000E+04  2.29900000E+03  5.22400000E+02  1.47300000E+02
  4.75500000E+01  1.67600000E+01  6.20700000E+00  5.22400000E+02  1.47300000E+02
  4.75500000E+01  1.67600000E+01  6.20700000E+00  6.88200000E-01  1.75200000E+00
  2.38400000E-01  7.37600000E-02  3.44600000E+01  7.74900000E+00  2.28000000E+00
  7.15600000E-01  2.14000000E-01  5.97400000E-02  2.31400000E+00  6.45000000E-01
  2.14000000E-01  1.42800000E+00  5.00000000E-01  1.53300000E+04  2.29900000E+03
  5.22400000E+02  1.47300000E+02  4.75500000E+01  1.67600000E+01  6.20700000E+00
  5.22400000E+02  1.47300000E+02  4.75500000E+01  1.67600000E+01  6.20700000E+00
  6.88200000E-01  1.75200000E+00  2.38400000E-01  7.37600000E-02  3.44600000E+01
  7.74900000E+00  2.28000000E+00  7.15600000E-01  2.14000000E-01  5.97400000E-02
  2.31400000E+00  6.45000000E-01  2.14000000E-01  1.42800000E+00  5.00000000E-01
  1.14200000E+04  1.71200000E+03  3.89300000E+02  1.10000000E+02  3.55700000E+01
  1.25400000E+01  4.64400000E+00  3.89300000E+02  1.10000000E+02  3.55700000E+01
  1.25400000E+01  4.64400000E+00  5.11800000E-01  1.29300000E+00  1.78700000E-01
  5.76000000E-02  2.66300000E+01  5.94800000E+00  1.74200000E+00  5.55000000E-01
  1.72500000E-01  4.91000000E-02  1.65400000E+00  4.69000000E-01  1.51000000E-01
  1.09300000E+00  3.64000000E-01  1.53300000E+04  2.29900000E+03  5.22400000E+02
  1.47300000E+02  4.75500000E+01  1.67600000E+01  6.20700000E+00  5.22400000E+02
  1.47300000E+02  4.75500000E+01  1.67600000E+01  6.20700000E+00  6.88200000E-01
  1.75200000E+00  2.38400000E-01  7.37600000E-02  3.44600000E+01  7.74900000E+00
  2.28000000E+00  7.15600000E-01  2.14000000E-01  5.97400000E-02  2.31400000E+00
  6.45000000E-01  2.14000000E-01  1.42800000E+00  5.00000000E-01
Contraction coefficients                   R   N=         119
  2.54948632E-02  1.90362766E-01  8.52162022E-01  1.00000000E+00  1.00000000E+00
  1.00000000E+00  1.00000000E+00  1.00000000E+00  1.00000000E+00  1.00000000E+00
  1.00000000E+00  5.19808943E-04  4.02025621E-03  2.07128267E-02  8.10105536E-02
  2.35962985E-01  4.42653446E-01  3.57064423E-01 -4.42115008E-05 -1.22591041E-03
 -1.05517725E-02 -6.74452633E-02 -1.71198607E-01  1.07329856E+00  1.00000000E+00
  1.00000000E+00  1.00000000E+00  4.11634896E-02  2.57762836E-01  8.02419274E-01
  1.00000000E+00  1.00000000E+00  1.00000000E+00  1.00000000E+00  1.00000000E+00
  1.00000000E+00  1.00000000E+00  1.00000000E+00  5.19808943E-04  4.02025621E-03
  2.07128267E-02  8.10105536E-02  2.35962985E-01  4.42653446E-01  3.57064423E-01
 -4.42115008E-05 -1.22591041E-03 -1.05517725E-02 -6.74452633E-02 -1.71198607E-01
  1.07329856E+00  1.00000000E+00  1.00000000E+00  1.00000000E+00  4.11634896E-02
  2.57762836E-01  8.02419274E-01  1.00000000E+00  1.00000000E+00  1.00000000E+00
  1.00000000E+00  1.00000000E+00  1.00000000E+00  1.00000000E+00  1.00000000E+00
  5.34563860E-04  4.13435660E-03  2.12335358E-02  8.25006224E-02  2.38138871E-01
  4.42551547E-01  3.53757422E-01 -4.89867350E-05 -1.19527323E-03 -1.03490714E-02
 -6.48680190E-02 -1.71552477E-01  1.07289568E+00  1.00000000E+00  1.00000000E+00
  1.00000000E+00  3.98072123E-02  2.49002660E-01  8.10479727E-01  1.00000000E+00
  1.00000000E+00  1.00000000E+00  1.00000000E+00  1.00000000E+00  1.00000000E+00
  1.00000000E+00  1.00000000E+00  5.19808943E-04  4.02025621E-03  2.07128267E-02
  8.10105536E-02  2.35962985E-01  4.42653446E-01  3.57064423E-01 -4.42115008E-05
 -1.22591041E-03 -1.05517725E-02 -6.74452633E-02 -1.71198607E-01  1.07329856E+00
  1.00000000E+00  1.00000000E+00  1.00000000E+00  4.11634896E-02  2.57762836E-01
  8.02419274E-01  1.00000000E+00  1.00000000E+00  1.00000000E+00  1.00000000E+00
  1.00000000E+00  1.00000000E+00  1.00000000E+00  1.00000000E+00
Coordinates of each shell                  R   N=         195
  2.99501180E+00  3.17633584E+00 -4.34056482E-31  2.99501180E+00  3.17633584E+00
 -4.34056482E-31  2.99501180E+00  3.17633584E+00 -4.34056482E-31  2.99501180E+00
  3.17633584E+00 -4.34056482E-31  2.99501180E+00  3.17633584E+00 -4.34056482E-31
  2.99501180E+00  3.17633584E+00 -4.34056482E-31  2.99501180E+00  3.17633584E+00
 -4.34056482E-31  2.99501180E+00  3.17633584E+00 -4.34056482E-31  2.99501180E+00
  3.17633584E+00 -4.34056482E-31  2.74792738E+00  1.36198451E+00 -4.74782100E-31
  2.74792738E+00  1.36198451E+00 -4.74782100E-31  2.74792738E+00  1.36198451E+00
 -4.74782100E-31  2.74792738E+00  1.36198451E+00 -4.74782100E-31  2.74792738E+00
  1.36198451E+00 -4.74782100E-31  2.74792738E+00  1.36198451E+00 -4.74782100E-31
  2.74792738E+00  1.36198451E+00 -4.74782100E-31  2.74792738E+00  1.36198451E+00
 -4.74782100E-31  2.74792738E+00  1.36198451E+00 -4.74782100E-31  2.74792738E+00
  1.36198451E+00 -4.74782100E-31  2.74792738E+00  1.36198451E+00 -4.74782100E-31
  2.74792738E+00  1.36198451E+00 -4.74782100E-31  2.74792738E+00  1.36198451E+00
 -4.74782100E-31  2.74792738E+00  1.36198451E+00 -4.74782100E-31  1.98022179E-17
  1.27203947E+00  6.27163882E-32  1.98022179E-17  1.27203947E+00  6.27163882E-32
  1.98022179E-17  1.27203947E+00  6.27163882E-32  1.98022179E-17  1.27203947E+00
  6.27163882E-32  1.98022179E-17  1.27203947E+00  6.27163882E-32  1.98022179E-17
  1.27203947E+00  6.27163882E-32  1.98022179E-17  1.27203947E+00  6.27163882E-32
  1.98022179E-17  1.27203947E+00  6.27163882E-32  1.98022179E-17  1.27203947E+00
  6.27163882E-32  1.98022179E-17  1.27203947E+00  6.27163882E-32  1.98022179E-17
  1.27203947E+00  6.27163882E-32  1.98022179E-17  1.27203947E+00  6.27163882E-32
  1.98022179E-17  1.27203947E+00  6.27163882E-32  1.98022179E-17  1.27203947E+00
  6.27163882E-32 -4.98716047E-01 -1.43917615E+00  2.73975357E-32 -4.98716047E-01
 -1.43917615E+00  2.73975357E-32 -4.98716047E-01 -1.43917615E+00  2.73975357E-32
 -4.98716047E-01 -1.43917615E+00  2.73975357E-32 -4.98716047E-01 -1.43917615E+00
  2.73975357E-32 -4.98716047E-01 -1.43917615E+00  2.73975357E-32 -4.98716047E-01
 -1.43917615E+00  2.73975357E-32 -4.98716047E-01 -1.43917615E+00  2.73975357E-32
 -4.98716047E-01 -1.43917615E+00  2.73975357E-32 -4.98716047E-01 -1.43917615E+00
  2.73975357E-32 -4.98716047E-01 -1.43917615E+00  2.73975357E-32 -4.98716047E-01
 -1.43917615E+00  2.73975357E-32 -4.98716047E-01 -1.43917615E+00  2.73975357E-32
 -4.98716047E-01 -1.43917615E+00  2.73975357E-32 -2.68592732E+00 -1.77178684E+00
  4.42349929E-31 -2.68592732E+00 -1.77178684E+00  4.42349929E-31 -2.68592732E+00
 -1.77178684E+00  4.42349929E-31 -2.68592732E+00 -1.77178684E+00  4.42349929E-31
 -2.68592732E+00 -1.77178684E+00  4.42349929E-31 -2.68592732E+00 -1.77178684E+00
  4.42349929E-31 -2.68592732E+00 -1.77178684E+00  4.42349929E-31 -2.68592732E+00
 -1.77178684E+00  4.42349929E-31 -2.68592732E+00 -1.77178684E+00  4.42349929E-31
 -2.68592732E+00 -1.77178684E+00  4.42349929E-31 -2.68592732E+00 -1.77178684E+00
  4.42349929E-31 -2.68592732E+00 -1.77178684E+00  4.42349929E-31 -2.68592732E+00
 -1.77178684E+00  4.42349929E-31 -2.68592732E+00 -1.77178684E+00  4.42349929E-31
Num ILSW                                   I              100
ILSW                                       I   N=         100
           0           0           0           0           2           0
           0           0           0           0           0          -1
           5           0           0           0           0           0
           0           0           0           0           0           0
           1           0           0           0           0           0
           0           0      100000           0          -1           0
           0           0           0           0           0           0
           0           0           0           1           0           0
           0 -2000000000           1           0           0           0
           0           0           4          52           0           0
           0           0           0           0           0           0
           0           0           0           5           0           1
           0           0           0           0           0           0
           0           0           0           0           0           0
           0           0           0           0           0           0
           0           0           0           0           0           0
           0           0           0           0
Num RLSW                                   I               52
RLSW                                       R   N=          52
  1.00000000E+00  1.00000000E+00  1.00000000E+00  1.00000000E+00  1.00000000E+00
  0.00000000E+00  0.00000000E+00  1.00000000E+00  0.00000000E+00  0.00000000E+00
  0.00000000E+00  0.00000000E+00  1.00000000E+00  0.00000000E+00  0.00000000E+00
  0.00000000E+00  0.00000000E+00  1.00000000E+00  0.00000000E+00  0.00000000E+00
  0.00000000E+00  0.00000000E+00  1.00000000E+00  0.00000000E+00  0.00000000E+00
  0.00000000E+00  0.00000000E+00  1.00000000E+00  0.00000000E+00  0.00000000E+00
  0.00000000E+00  0.00000000E+00  1.00000000E+00  0.00000000E+00  0.00000000E+00
  0.00000000E+00  0.00000000E+00  0.00000000E+00  1.00000000E+00  1.00000000E+00
  0.00000000E+00  1.00000000E+00  0.00000000E+00  0.00000000E+00  0.00000000E+00
  0.00000000E+00  0.00000000E+00  0.00000000E+00  0.00000000E+00  0.00000000E+00
  0.00000000E+00  0.00000000E+00
MxBond                                     I                2
NBond                                      I   N=           5
           1           2           2           2           1
IBond                                      I   N=          10
           2           0           1           3           2           4
           3           5           4           0
RBond                                      R   N=          10
  1.00000000E+00  0.00000000E+00  1.00000000E+00  1.00000000E+00  1.00000000E+00
  1.00000000E+00  1.00000000E+00  2.00000000E+00  2.00000000E+00  0.00000000E+00
Virial Ratio                               R      2.002380224348508E+00
SCF Energy                                 R     -2.795018066082865E+02
MP2 Energy                                 R     -2.804465949468072E+02
Total Energy                               R     -2.804465949468072E+02
Post-SCF wavefunction norm                 R      1.120172896409135E+00
RMS Density                                R      3.812637047099641E-09
Job Status                                 I                1
Nuclear derivative order                   I                0
External E-field                           R   N=          35
  0.00000000E+00  0.00000000E+00  0.00000000E+00  0.00000000E+00  0.00000000E+00
  0.00000000E+00  0.00000000E+00  0.00000000E+00  0.00000000E+00  0.00000000E+00
  0.00000000E+00  0.00000000E+00  0.00000000E+00  0.00000000E+00  0.00000000E+00
  0.00000000E+00  0.00000000E+00  0.00000000E+00  0.00000000E+00  0.00000000E+00
  0.00000000E+00  0.00000000E+00  0.00000000E+00  0.00000000E+00  0.00000000E+00
  0.00000000E+00  0.00000000E+00  0.00000000E+00  0.00000000E+00  0.00000000E+00
  0.00000000E+00  0.00000000E+00  0.00000000E+00  0.00000000E+00  0.00000000E+00
IOpCl                                      I                0
IROHF                                      I                0
Alpha Orbital Energies                     R   N=         207
 -2.06911643E+01 -2.06843682E+01 -2.06591021E+01 -1.58129132E+01 -1.62397589E+00
 -1.49451352E+00 -1.25469192E+00 -9.48009992E-01 -7.71839341E-01 -7.60478395E-01
 -7.11596852E-01 -6.79859027E-01 -6.20095004E-01 -5.87475317E-01 -4.84968939E-01
 -4.72499621E-01  2.94094255E-02  7.17315388E-02  8.59507589E-02  1.01786327E-01
  1.33751932E-01  1.34055497E-01  1.44103837E-01  1.54429679E-01  1.78320758E-01
  1.94372422E-01  1.99981793E-01  2.06262154E-01  2.20889832E-01  2.35402665E-01
  2.37398956E-01  2.66963885E-01  2.93426453E-01  3.04177635E-01  3.09869013E-01
  3.43607657E-01  3.49345844E-01  3.87144265E-01  4.20378643E-01  4.32358974E-01
  5.26991303E-01  5.29135104E-01  5.58866067E-01  5.82177203E-01  6.25743063E-01
  6.38482753E-01  6.74248057E-01  6.84063079E-01  7.06223782E-01  7.12103813E-01
  7.20388710E-01  7.30432396E-01  7.45064891E-01  7.89539982E-01  7.89639111E-01
  8.09190010E-01  8.13321359E-01  8.31816765E-01  8.68830464E-01  9.07313638E-01
  9.23413297E-01  9.25326755E-01  9.58985302E-01  9.78258873E-01  9.83142865E-01
  1.01539613E+00  1.05252043E+00  1.05526572E+00  1.08201788E+00  1.11744950E+00
  1.13839185E+00  1.18890554E+00  1.22088342E+00  1.23092882E+00  1.33831100E+00
  1.34775725E+00  1.38741681E+00  1.45120918E+00  1.48866160E+00  1.51263138E+00
  1.53887106E+00  1.56723707E+00  1.57995496E+00  1.61603984E+00  1.66490108E+00
  1.66922918E+00  1.70358559E+00  1.78815848E+00  1.83198997E+00  1.83331693E+00
  1.87931567E+00  1.90902946E+00  1.95743684E+00  1.99038436E+00  2.00751099E+00
  2.07605086E+00  2.11600747E+00  2.13196065E+00  2.15041050E+00  2.22213913E+00
  2.26526913E+00  2.26675218E+00  2.28793589E+00  2.31485901E+00  2.34640653E+00
  2.38485913E+00  2.42085455E+00  2.42395038E+00  2.45501589E+00  2.46333512E+00
  2.47411078E+00  2.50355526E+00  2.58865721E+00  2.59406691E+00  2.61670402E+00
  2.62870907E+00  2.63382840E+00  2.66997665E+00  2.75656100E+00  2.82109064E+00
  2.86570534E+00  2.88989082E+00  2.89463391E+00  2.92097799E+00  2.96177403E+00
  3.02720514E+00  3.06748367E+00  3.12324209E+00  3.19911653E+00  3.23041389E+00
  3.31919248E+00  3.34051407E+00  3.51267930E+00  3.65341479E+00  3.83967711E+00
  3.84879163E+00  4.15288255E+00  4.15576827E+00  4.18410507E+00  4.25626269E+00
  4.36205924E+00  4.39018940E+00  4.46519728E+00  4.50956432E+00  4.66480469E+00
  4.68861917E+00  4.80673118E+00  4.82407664E+00  4.83300210E+00  4.89594693E+00
  5.02159953E+00  5.07794994E+00  5.10366880E+00  5.14943091E+00  5.18859260E+00
  5.23441255E+00  5.27409048E+00  5.31128778E+00  5.33198680E+00  5.35307810E+00
  5.61066955E+00  5.67375877E+00  5.77482691E+00  5.81402550E+00  5.95688523E+00
  6.16345756E+00  6.30593374E+00  6.34213463E+00  6.39741960E+00  6.49340916E+00
  6.50573951E+00  6.61205707E+00  6.66715619E+00  6.69662459E+00  6.75384495E+00
  6.76571011E+00  6.83038385E+00  6.89776560E+00  6.99919332E+00  7.05757660E+00
  7.06370382E+00  7.09146520E+00  7.12337999E+00  7.15738446E+00  7.18106021E+00
  7.22367765E+00  7.24175271E+00  7.31103821E+00  7.32579150E+00  7.34677792E+00
  7.39849547E+00  7.41408434E+00  7.48415741E+00  7.60890394E+00  7.61357335E+00
  7.62778602E+00  7.66569771E+00  7.78402070E+00  7.88641772E+00  8.09106713E+00
  8.30979406E+00  8.42371965E+00  8.54579372E+00  1.33965770E+01  1.43978458E+01
  1.51358775E+01  1.61508528E+01
Alpha MO coefficients                      R   N=       42849
  9.18218293E-05 -7.57454629E-04 -8.05259891E-04 -6.18789801E-06 -3.63708883E-05
 -2.24937113E-05  0.00000000E+00 -3.02629019E-05  1.31502722E-04  0.00000000E+00
  1.02513660E-04  6.75144729E-05  0.00000000E+00  3.51525007E-05  0.00000000E+00
  0.00000000E+00 -3.67274027E-05  2.60937609E-05 -1.63786350E-07  0.00000000E+00
  0.00000000E+00 -1.17703373E-04  1.09594282E-04  4.41651752E-03 -2.70171980E-04
  3.03374881E-06  1.74199276E-03  1.93290042E-03  1.06824106E-04  4.65312909E-06
  0.00000000E+00 -6.16095735E-04 -1.63977690E-06  0.00000000E+00 -1.12487776E-03
  8.81684705E-04  0.00000000E+00 -4.18174136E-04  6.77483984E-05  0.00000000E+00
  2.91292552E-05  0.00000000E+00  0.00000000E+00 -5.58659999E-05  4.74096516E-06
 -3.88476484E-04  0.00000000E+00  0.00000000E+00  7.36069038E-04 -2.74871065E-05
 -4.57644659E-04  0.00000000E+00  0.00000000E+00  2.46935387E-04 -2.32917884E-05
  0.00000000E+00  8.04329641E-05  1.15608583E-05  0.00000000E+00  0.00000000E+00
 -1.10017453E-04 -4.75579698E-06  0.00000000E+00  2.53761088E-04 -2.80305333E-05
  0.00000000E+00  0.00000000E+00 -3.62088670E-04  5.84910196E-05  9.76914663E-01
 -9.21309116E-03  4.33148829E-02  2.03875417E-03 -9.69870589E-04  1.50237836E-03
 -1.35733296E-03  0.00000000E+00 -1.44599448E-03  1.38595496E-03  0.00000000E+00
  4.30387856E-05 -1.21607955E-03  0.00000000E+00 -1.47999288E-04 -1.77899873E-05
  0.00000000E+00  4.73847666E-05  0.00000000E+00  0.00000000E+00 -3.42854408E-05
  1.95397873E-05  7.45476961E-04  0.00000000E+00  0.00000000E+00 -2.43057065E-04
 -3.86896718E-04 -3.46817797E-04  0.00000000E+00  0.00000000E+00 -3.22467451E-04
 -4.03384544E-04  0.00000000E+00  4.77969183E-05 -4.96304647E-05  0.00000000E+00
  0.00000000E+00 -4.00183273E-05 -1.47664232E-05  0.00000000E+00  2.35276507E-05
  2.48387311E-05  0.00000000E+00  0.00000000E+00 -3.06296594E-04 -1.39724493E-04
  3.88435384E-05  4.51150909E-05 -2.62953007E-04 -7.23777532E-04 -1.47899614E-04
 -2.70340852E-05 -9.64986165E-05  0.00000000E+00  2.69380864E-04  7.03622311E-04
  0.00000000E+00 -8.62154867E-04 -5.28703180E-04  0.00000000E+00 -1.32172183E-04
 -3.15020958E-05  0.00000000E+00 -1.82633390E-05  0.00000000E+00  0.00000000E+00
 -2.97328825E-05  1.50844530E-05 -3.25836078E-04  0.00000000E+00  0.00000000E+00
 -8.23360503E-04  1.31138180E-04 -3.60301380E-05  0.00000000E+00  0.00000000E+00
  1.13216749E-04 -1.10517884E-04  0.00000000E+00 -2.07740172E-05 -1.19542840E-04
  0.00000000E+00  0.00000000E+00 -6.33327863E-05 -1.36987676E-04  0.00000000E+00
  2.77370992E-06 -1.50354267E-04  0.00000000E+00  0.00000000E+00  4.39331337E-05
 -4.18468963E-04 -2.48464998E-03  1.20753977E-04 -1.19238964E-04 -2.65285114E-04
  1.26715144E-04 -7.70003579E-06 -2.74285124E-05  0.00000000E+00  6.82380883E-05
  1.62040198E-04  0.00000000E+00  2.29882240E-04  2.22800053E-04  0.00000000E+00
  1.28681294E-04  2.58717394E-05  0.00000000E+00 -3.33293591E-06  0.00000000E+00
  0.00000000E+00 -1.77777751E-05  9.45650567E-07  7.50519286E-07  0.00000000E+00
  0.00000000E+00  7.96969622E-05  8.89070843E-05 -1.03193712E-04  0.00000000E+00
  0.00000000E+00  1.63515579E-04  1.70722552E-04  0.00000000E+00  1.58756070E-05
 -3.54463394E-06  0.00000000E+00  0.00000000E+00 -4.26490983E-06 -1.20568077E-05
  0.00000000E+00 -3.38000023E-05  4.48374228E-05  0.00000000E+00  0.00000000E+00
  8.29297959E-05  9.06154897E-05  3.44239265E-05 -9.86326244E-04 -4.95067805E-04
 -1.17565298E-05 -2.37284671E-05  1.68727286E-05  0.00000000E+00 -2.23707598E-06
  2.70494294E-04  0.00000000E+00 -4.69593230E-05  1.35105822E-04  0.00000000E+00
  2.38300846E-05  0.00000000E+00  0.00000000E+00  1.42867825E-05  1.28953927E-05
 -2.97616269E-05  0.00000000E+00  0.00000000E+00  1.38683946E-05  3.97812152E-05
  1.08004405E-04  8.39315964E-05 -2.87698054E-05  7.44015054E-04  6.62140661E-04
  9.93760066E-06  2.65838269E-06  0.00000000E+00 -7.09699134E-05  1.27775430E-05
  0.00000000E+00  3.82409398E-04  9.03912633E-04  0.00000000E+00  1.07302372E-05
  8.58060392E-05  0.00000000E+00 -2.11155070E-06  0.00000000E+00  0.00000000E+00
 -4.11707890E-07 -6.70491326E-06 -3.61477497E-05  0.00000000E+00  0.00000000E+00
 -1.47850240E-05  9.04620272E-05 -2.21878424E-05  0.00000000E+00  0.00000000E+00
 -2.72913279E-04 -1.41227157E-04  0.00000000E+00  9.54812487E-06  6.11774747E-06
  0.00000000E+00  0.00000000E+00  2.55161473E-06 -1.80669170E-05  0.00000000E+00
 -4.32196968E-05 -3.83574142E-05  0.00000000E+00  0.00000000E+00 -8.31244981E-05
  2.29382138E-05  2.52338874E-03  3.92314294E-05  8.71152132E-05 -4.03244343E-05
 -4.78920645E-04  7.32078657E-06  1.57898976E-05  0.00000000E+00 -6.26323220E-05
 -5.44128968E-05  0.00000000E+00  2.42777724E-04 -1.97614476E-04  0.00000000E+00
 -1.91673234E-04 -6.55970676E-05  0.00000000E+00 -8.54611104E-06  0.00000000E+00
  0.00000000E+00  2.27396091E-05  1.96531464E-05  3.59670597E-06  0.00000000E+00
  0.00000000E+00 -1.19705379E-04 -4.52483401E-05 -5.02393344E-08  0.00000000E+00
  0.00000000E+00 -2.24028071E-04 -2.15411565E-04  0.00000000E+00  3.03002985E-06
 -9.16218160E-07  0.00000000E+00  0.00000000E+00  1.40043087E-06 -1.31251364E-05
  0.00000000E+00 -4.50691834E-05  5.38379557E-06  0.00000000E+00  0.00000000E+00
 -7.59064483E-05  1.86533829E-04  2.58766092E-04  1.46580747E-03 -7.78383788E-05
 -1.53320785E-03  4.09740841E-04 -1.44355145E-04  6.70348921E-07  0.00000000E+00
 -2.09195490E-03 -4.02064093E-04  0.00000000E+00  1.01910262E-03  7.49292304E-04
  0.00000000E+00 -1.71218789E-04  5.78201899E-05  0.00000000E+00 -1.23393172E-04
  0.00000000E+00  0.00000000E+00  2.43392353E-04  9.32481444E-05 -4.41792831E-04
  0.00000000E+00  0.00000000E+00  9.00949352E-04 -6.94702148E-05  1.15318554E-05
  0.00000000E+00  0.00000000E+00 -3.33500015E-04 -1.24505973E-04  0.00000000E+00
 -1.14306003E-06  1.55526468E-05  0.00000000E+00  0.00000000E+00  1.88082521E-05
  1.33622935E-05  0.00000000E+00  1.64317904E-04 -7.18779873E-05  0.00000000E+00
  0.00000000E+00 -2.40806230E-04  4.33436142E-05  9.76649843E-01 -9.84775365E-03
  4.35676892E-02  4.48321701E-03 -4.56445662E-04  2.14945290E-03  4.78856798E-04
  0.00000000E+00 -2.38649954E-03 -6.01582553E-04  0.00000000E+00  1.13344705E-03
 -2.68023948E-06  0.00000000E+00  3.32853098E-06 -4.35445049E-05  0.00000000E+00
 -2.32192661E-04  0.00000000E+00  0.00000000E+00  1.02967047E-04  3.13212177E-05
  3.91054551E-04  0.00000000E+00  0.00000000E+00 -8.35920024E-04 -4.17037976E-04
 -1.55047582E-04  0.00000000E+00  0.00000000E+00  2.54368234E-04  1.78075945E-05
  0.00000000E+00  5.24545882E-05  1.76332646E-05  0.00000000E+00  0.00000000E+00
 -2.22200489E-05 -1.32603204E-05  0.00000000E+00  1.37921842E-04  8.92404446E-06
  0.00000000E+00  0.00000000E+00 -1.90865878E-04 -1.39789695E-04  4.80514792E-04
  2.19774777E-03  1.42432690E-04  1.06352299E-05 -4.46558579E-05 -2.44876617E-04
  0.00000000E+00  6.10483115E-05 -1.30294353E-03  0.00000000E+00  2.65551980E-04
 -3.44708534E-04  0.00000000E+00 -3.80013610E-07  0.00000000E+00  0.00000000E+00
  7.64223365E-05  2.87682438E-06 -1.49353756E-04  0.00000000E+00  0.00000000E+00
 -5.36999380E-04  1.39512378E-05  9.76829331E-01 -9.14994105E-03  4.34580838E-02
  2.54645445E-05 -1.07540615E-03 -1.53633898E-03  1.46893178E-03  0.00000000E+00
  1.54423085E-03 -1.29820401E-03  0.00000000E+00 -6.13301487E-04 -9.80530511E-04
  0.00000000E+00  6.08529867E-05 -1.94062972E-06  0.00000000E+00  2.63412694E-05
  0.00000000E+00  0.00000000E+00 -1.17474874E-04  8.77267342E-06  7.67544432E-04
  0.00000000E+00  0.00000000E+00 -2.11692852E-04 -2.74989358E-04 -2.62530087E-04
  0.00000000E+00  0.00000000E+00  2.01315847E-04  1.46216330E-04  0.00000000E+00
 -6.41546485E-05 -4.43541551E-07  0.00000000E+00  0.00000000E+00  2.03394783E-05
  1.00849762E-05  0.00000000E+00  5.56491884E-06  1.30857549E-04  0.00000000E+00
  0.00000000E+00  2.80274932E-04  8.50614674E-05 -4.50668786E-03 -2.11344312E-04