title                                                                   
SP        RMP2-FC                                                     Aug-CC-pVTZ         
Number of atoms                            I                5
Info1-9                                    I   N=           9
          33          24           0           0           0         110
           1           2           1
Full Title                                 C   N=           1
title       
Route                                      C   N=           4
#p SP mp2/aug-cc-pvtz density=current           
Charge                                     I                0
Multiplicity                               I                1
Number of electrons                        I               32
Number of alpha electrons                  I               16
Number of beta electrons                   I               16
Number of basis functions                  I              207
Number of independent functions            I              207
Number of point charges in /Mol/           I                0
Number of translation vectors              I                0
Atomic numbers                             I   N=           5
           1           8           8           7           8
Nuclear charges                            R   N=           5
  1.00000000E+00  8.00000000E+00  8.00000000E+00  7.00000000E+00  8.00000000E+00
Current cartesian coordinates              R   N=          15
  2.86160756E+00  3.26112633E+00 -7.61698491E-34  2.74308514E+00  1.43386776E+00
 -5.26845922E-32 -4.24565740E-17  1.24764494E+00  2.34353853E-32 -4.87953042E-01
 -1.46552842E+00 -2.53229196E-32 -2.67382717E+00 -1.80681613E+00  1.60733399E-32
Number of symbols in /Mol/                 I                0
Force Field                                I                0
Atom Types                                 C   N=           5
                                                            
Int Atom Types                             I   N=           5
           0           0           0           0           0
MM charges                                 R   N=           5
  0.00000000E+00  0.00000000E+00  0.00000000E+00  0.00000000E+00  0.00000000E+00
Integer atomic weights                     I   N=           5
           1          16          16          14          16
Real atomic weights                        R   N=           5
  1.00782504E+00  1.59949146E+01  1.59949146E+01  1.40030740E+01  1.59949146E+01
Atom fragment info                         I   N=           5
           0           0           0           0           0
Atom residue num                           I   N=           5
           0           0           0           0           0
Nuclear spins                              I   N=           5
           1           0           0           2           0
Nuclear ZEff                               R   N=           5
 -1.00000000E+00 -5.60000000E+00 -5.60000000E+00 -4.55000000E+00 -5.60000000E+00
Nuclear ZNuc                               R   N=           5
  1.00000000E+00  8.00000000E+00  8.00000000E+00  7.00000000E+00  8.00000000E+00
Nuclear QMom                               R   N=           5
  0.00000000E+00  0.00000000E+00  0.00000000E+00  2.04400000E+00  0.00000000E+00
Nuclear GFac                               R   N=           5
  2.79284600E+00  0.00000000E+00  0.00000000E+00  4.03761000E-01  0.00000000E+00
MicOpt                                     I   N=           5
          -1          -1          -1          -1          -1
Number of residues                         I                0
Number of secondary structures             I                0
SymInf integers                            I   N=          26
           1           2           1           1           1           1
           1          -1           0           0           0           0
           0           0           0           0           0           0
           0           0           0           0           0           0
           0           0
RotTr to input orientation                 R   N=          12
 -9.97902977E-01 -9.74246411E-17 -6.47274980E-02  6.47274980E-02 -7.42026760E-17
 -9.97902977E-01  9.24173858E-17 -1.00000000E+00  8.03531245E-17  2.64452215E+00
  0.00000000E+00  3.43951237E+00
Number of contracted shells                I               65
Number of primitive shells                 I              119
Pure/Cartesian d shells                    I                0
Pure/Cartesian f shells                    I                0
Highest angular momentum                   I                3
Largest degree of contraction              I                7
Shell types                                I   N=          65
           0           0           0           0           1           1
           1          -2          -2           0           0           0
           0           0           1           1           1           1
          -2          -2          -2          -3          -3           0
           0           0           0           0           1           1
           1           1          -2          -2          -2          -3
          -3           0           0           0           0           0
           1           1           1           1          -2          -2
          -2          -3          -3           0           0           0
           0           0           1           1           1           1
          -2          -2          -2          -3          -3
Number of primitives per shell             I   N=          65
           3           1           1           1           1           1
           1           1           1           7           6           1
           1           1           3           1           1           1
           1           1           1           1           1           7
           6           1           1           1           3           1
           1           1           1           1           1           1
           1           7           6           1           1           1
           3           1           1           1           1           1
           1           1           1           7           6           1
           1           1           3           1           1           1
           1           1           1           1           1
Shell to atom map                          I   N=          65
           1           1           1           1           1           1
           1           1           1           2           2           2
           2           2           2           2           2           2
           2           2           2           2           2           3
           3           3           3           3           3           3
           3           3           3           3           3           3
           3           4           4           4           4           4
           4           4           4           4           4           4
           4           4           4           5           5           5
           5           5           5           5           5           5
           5           5           5           5           5
Primitive exponents                        R   N=         119
  3.38700000E+01  5.09500000E+00  1.15900000E+00  3.25800000E-01  1.02700000E-01
  2.52600000E-02  1.40700000E+00  3.88000000E-01  1.02000000E-01  1.05700000E+00
  2.47000000E-01  1.53300000E+04  2.29900000E+03  5.22400000E+02  1.47300000E+02
  4.75500000E+01  1.67600000E+01  6.20700000E+00  5.22400000E+02  1.47300000E+02
  4.75500000E+01  1.67600000E+01  6.20700000E+00  6.88200000E-01  1.75200000E+00
  2.38400000E-01  7.37600000E-02  3.44600000E+01  7.74900000E+00  2.28000000E+00
  7.15600000E-01  2.14000000E-01  5.97400000E-02  2.31400000E+00  6.45000000E-01
  2.14000000E-01  1.42800000E+00  5.00000000E-01  1.53300000E+04  2.29900000E+03
  5.22400000E+02  1.47300000E+02  4.75500000E+01  1.67600000E+01  6.20700000E+00
  5.22400000E+02  1.47300000E+02  4.75500000E+01  1.67600000E+01  6.20700000E+00
  6.88200000E-01  1.75200000E+00  2.38400000E-01  7.37600000E-02  3.44600000E+01
  7.74900000E+00  2.28000000E+00  7.15600000E-01  2.14000000E-01  5.97400000E-02
  2.31400000E+00  6.45000000E-01  2.14000000E-01  1.42800000E+00  5.00000000E-01
  1.14200000E+04  1.71200000E+03  3.89300000E+02  1.10000000E+02  3.55700000E+01
  1.25400000E+01  4.64400000E+00  3.89300000E+02  1.10000000E+02  3.55700000E+01
  1.25400000E+01  4.64400000E+00  5.11800000E-01  1.29300000E+00  1.78700000E-01
  5.76000000E-02  2.66300000E+01  5.94800000E+00  1.74200000E+00  5.55000000E-01
  1.72500000E-01  4.91000000E-02  1.65400000E+00  4.69000000E-01  1.51000000E-01
  1.09300000E+00  3.64000000E-01  1.53300000E+04  2.29900000E+03  5.22400000E+02
  1.47300000E+02  4.75500000E+01  1.67600000E+01  6.20700000E+00  5.22400000E+02
  1.47300000E+02  4.75500000E+01  1.67600000E+01  6.20700000E+00  6.88200000E-01
  1.75200000E+00  2.38400000E-01  7.37600000E-02  3.44600000E+01  7.74900000E+00
  2.28000000E+00  7.15600000E-01  2.14000000E-01  5.97400000E-02  2.31400000E+00
  6.45000000E-01  2.14000000E-01  1.42800000E+00  5.00000000E-01
Contraction coefficients                   R   N=         119
  2.54948632E-02  1.90362766E-01  8.52162022E-01  1.00000000E+00  1.00000000E+00
  1.00000000E+00  1.00000000E+00  1.00000000E+00  1.00000000E+00  1.00000000E+00
  1.00000000E+00  5.19808943E-04  4.02025621E-03  2.07128267E-02  8.10105536E-02
  2.35962985E-01  4.42653446E-01  3.57064423E-01 -4.42115008E-05 -1.22591041E-03
 -1.05517725E-02 -6.74452633E-02 -1.71198607E-01  1.07329856E+00  1.00000000E+00
  1.00000000E+00  1.00000000E+00  4.11634896E-02  2.57762836E-01  8.02419274E-01
  1.00000000E+00  1.00000000E+00  1.00000000E+00  1.00000000E+00  1.00000000E+00
  1.00000000E+00  1.00000000E+00  1.00000000E+00  5.19808943E-04  4.02025621E-03
  2.07128267E-02  8.10105536E-02  2.35962985E-01  4.42653446E-01  3.57064423E-01
 -4.42115008E-05 -1.22591041E-03 -1.05517725E-02 -6.74452633E-02 -1.71198607E-01
  1.07329856E+00  1.00000000E+00  1.00000000E+00  1.00000000E+00  4.11634896E-02
  2.57762836E-01  8.02419274E-01  1.00000000E+00  1.00000000E+00  1.00000000E+00
  1.00000000E+00  1.00000000E+00  1.00000000E+00  1.00000000E+00  1.00000000E+00
  5.34563860E-04  4.13435660E-03  2.12335358E-02  8.25006224E-02  2.38138871E-01
  4.42551547E-01  3.53757422E-01 -4.89867350E-05 -1.19527323E-03 -1.03490714E-02
 -6.48680190E-02 -1.71552477E-01  1.07289568E+00  1.00000000E+00  1.00000000E+00
  1.00000000E+00  3.98072123E-02  2.49002660E-01  8.10479727E-01  1.00000000E+00
  1.00000000E+00  1.00000000E+00  1.00000000E+00  1.00000000E+00  1.00000000E+00
  1.00000000E+00  1.00000000E+00  5.19808943E-04  4.02025621E-03  2.07128267E-02
  8.10105536E-02  2.35962985E-01  4.42653446E-01  3.57064423E-01 -4.42115008E-05
 -1.22591041E-03 -1.05517725E-02 -6.74452633E-02 -1.71198607E-01  1.07329856E+00
  1.00000000E+00  1.00000000E+00  1.00000000E+00  4.11634896E-02  2.57762836E-01
  8.02419274E-01  1.00000000E+00  1.00000000E+00  1.00000000E+00  1.00000000E+00
  1.00000000E+00  1.00000000E+00  1.00000000E+00  1.00000000E+00
Coordinates of each shell                  R   N=         195
  2.86160756E+00  3.26112633E+00 -1.16121803E-32  2.86160756E+00  3.26112633E+00
 -1.16121803E-32  2.86160756E+00  3.26112633E+00 -1.16121803E-32  2.86160756E+00
  3.26112633E+00 -1.16121803E-32  2.86160756E+00  3.26112633E+00 -1.16121803E-32
  2.86160756E+00  3.26112633E+00 -1.16121803E-32  2.86160756E+00  3.26112633E+00
 -1.16121803E-32  2.86160756E+00  3.26112633E+00 -1.16121803E-32  2.86160756E+00
  3.26112633E+00 -1.16121803E-32  2.74308514E+00  1.43386776E+00 -3.19671936E-32
  2.74308514E+00  1.43386776E+00 -3.19671936E-32  2.74308514E+00  1.43386776E+00
 -3.19671936E-32  2.74308514E+00  1.43386776E+00 -3.19671936E-32  2.74308514E+00
  1.43386776E+00 -3.19671936E-32  2.74308514E+00  1.43386776E+00 -3.19671936E-32
  2.74308514E+00  1.43386776E+00 -3.19671936E-32  2.74308514E+00  1.43386776E+00
 -3.19671936E-32  2.74308514E+00  1.43386776E+00 -3.19671936E-32  2.74308514E+00
  1.43386776E+00 -3.19671936E-32  2.74308514E+00  1.43386776E+00 -3.19671936E-32
  2.74308514E+00  1.43386776E+00 -3.19671936E-32  2.74308514E+00  1.43386776E+00
 -3.19671936E-32  2.74308514E+00  1.43386776E+00 -3.19671936E-32  3.04417866E-20
  1.24764494E+00  1.53622868E-32  3.04417866E-20  1.24764494E+00  1.53622868E-32
  3.04417866E-20  1.24764494E+00  1.53622868E-32  3.04417866E-20  1.24764494E+00
  1.53622868E-32  3.04417866E-20  1.24764494E+00  1.53622868E-32  3.04417866E-20
  1.24764494E+00  1.53622868E-32  3.04417866E-20  1.24764494E+00  1.53622868E-32
  3.04417866E-20  1.24764494E+00  1.53622868E-32  3.04417866E-20  1.24764494E+00
  1.53622868E-32  3.04417866E-20  1.24764494E+00  1.53622868E-32  3.04417866E-20
  1.24764494E+00  1.53622868E-32  3.04417866E-20  1.24764494E+00  1.53622868E-32
  3.04417866E-20  1.24764494E+00  1.53622868E-32  3.04417866E-20  1.24764494E+00
  1.53622868E-32 -4.87953042E-01 -1.46552842E+00 -9.21801495E-33 -4.87953042E-01
 -1.46552842E+00 -9.21801495E-33 -4.87953042E-01 -1.46552842E+00 -9.21801495E-33
 -4.87953042E-01 -1.46552842E+00 -9.21801495E-33 -4.87953042E-01 -1.46552842E+00
 -9.21801495E-33 -4.87953042E-01 -1.46552842E+00 -9.21801495E-33 -4.87953042E-01
 -1.46552842E+00 -9.21801495E-33 -4.87953042E-01 -1.46552842E+00 -9.21801495E-33
 -4.87953042E-01 -1.46552842E+00 -9.21801495E-33 -4.87953042E-01 -1.46552842E+00
 -9.21801495E-33 -4.87953042E-01 -1.46552842E+00 -9.21801495E-33 -4.87953042E-01
 -1.46552842E+00 -9.21801495E-33 -4.87953042E-01 -1.46552842E+00 -9.21801495E-33
 -4.87953042E-01 -1.46552842E+00 -9.21801495E-33 -2.67382717E+00 -1.80681613E+00
  2.61221925E-32 -2.67382717E+00 -1.80681613E+00  2.61221925E-32 -2.67382717E+00
 -1.80681613E+00  2.61221925E-32 -2.67382717E+00 -1.80681613E+00  2.61221925E-32
 -2.67382717E+00 -1.80681613E+00  2.61221925E-32 -2.67382717E+00 -1.80681613E+00
  2.61221925E-32 -2.67382717E+00 -1.80681613E+00  2.61221925E-32 -2.67382717E+00
 -1.80681613E+00  2.61221925E-32 -2.67382717E+00 -1.80681613E+00  2.61221925E-32
 -2.67382717E+00 -1.80681613E+00  2.61221925E-32 -2.67382717E+00 -1.80681613E+00
  2.61221925E-32 -2.67382717E+00 -1.80681613E+00  2.61221925E-32 -2.67382717E+00
 -1.80681613E+00  2.61221925E-32 -2.67382717E+00 -1.80681613E+00  2.61221925E-32
Num ILSW                                   I              100
ILSW                                       I   N=         100
           0           0           0           0           2           0
           0           0           0           0           0          -1
           5           0           0           0           0           0
           0           0           0           0           0           0
           1           0           0           0           0           0
           0           0      100000           0          -1           0
           0           0           0           0           0           0
           0           0           0           1           0           0
           0 -2000000000           1           0           0           0
           0           0           4          52           0           0
           0           0           0           0           0           0
           0           0           0           5           0           1
           0           0           0           0           0           0
           0           0           0           0           0           0
           0           0           0           0           0           0
           0           0           0           0           0           0
           0           0           0           0
Num RLSW                                   I               52
RLSW                                       R   N=          52
  1.00000000E+00  1.00000000E+00  1.00000000E+00  1.00000000E+00  1.00000000E+00
  0.00000000E+00  0.00000000E+00  1.00000000E+00  0.00000000E+00  0.00000000E+00
  0.00000000E+00  0.00000000E+00  1.00000000E+00  0.00000000E+00  0.00000000E+00
  0.00000000E+00  0.00000000E+00  1.00000000E+00  0.00000000E+00  0.00000000E+00
  0.00000000E+00  0.00000000E+00  1.00000000E+00  0.00000000E+00  0.00000000E+00
  0.00000000E+00  0.00000000E+00  1.00000000E+00  0.00000000E+00  0.00000000E+00
  0.00000000E+00  0.00000000E+00  1.00000000E+00  0.00000000E+00  0.00000000E+00
  0.00000000E+00  0.00000000E+00  0.00000000E+00  1.00000000E+00  1.00000000E+00
  0.00000000E+00  1.00000000E+00  0.00000000E+00  0.00000000E+00  0.00000000E+00
  0.00000000E+00  0.00000000E+00  0.00000000E+00  0.00000000E+00  0.00000000E+00
  0.00000000E+00  0.00000000E+00
MxBond                                     I                2
NBond                                      I   N=           5
           1           2           2           2           1
IBond                                      I   N=          10
           2           0           1           3           2           4
           3           5           4           0
RBond                                      R   N=          10
  1.00000000E+00  0.00000000E+00  1.00000000E+00  1.00000000E+00  1.00000000E+00
  1.00000000E+00  1.00000000E+00  2.00000000E+00  2.00000000E+00  0.00000000E+00
Virial Ratio                               R      2.002388976667245E+00
SCF Energy                                 R     -2.795016712082142E+02
MP2 Energy                                 R     -2.804466001149762E+02
Total Energy                               R     -2.804466001149762E+02
Post-SCF wavefunction norm                 R      1.120232966066839E+00
RMS Density                                R      3.808992771347329E-09
Job Status                                 I                1
Nuclear derivative order                   I                0
External E-field                           R   N=          35
  0.00000000E+00  0.00000000E+00  0.00000000E+00  0.00000000E+00  0.00000000E+00
  0.00000000E+00  0.00000000E+00  0.00000000E+00  0.00000000E+00  0.00000000E+00
  0.00000000E+00  0.00000000E+00  0.00000000E+00  0.00000000E+00  0.00000000E+00
  0.00000000E+00  0.00000000E+00  0.00000000E+00  0.00000000E+00  0.00000000E+00
  0.00000000E+00  0.00000000E+00  0.00000000E+00  0.00000000E+00  0.00000000E+00
  0.00000000E+00  0.00000000E+00  0.00000000E+00  0.00000000E+00  0.00000000E+00
  0.00000000E+00  0.00000000E+00  0.00000000E+00  0.00000000E+00  0.00000000E+00
IOpCl                                      I                0
IROHF                                      I                0
Alpha Orbital Energies                     R   N=         207
 -2.06903385E+01 -2.06847011E+01 -2.06605779E+01 -1.58133857E+01 -1.62397579E+00
 -1.49523211E+00 -1.25523707E+00 -9.47738784E-01 -7.71442942E-01 -7.59885370E-01
 -7.11530834E-01 -6.81990798E-01 -6.20921537E-01 -5.88081652E-01 -4.85064310E-01
 -4.72138853E-01  2.96337114E-02  7.14639378E-02  8.59776139E-02  1.02195705E-01
  1.33745215E-01  1.33763517E-01  1.43849746E-01  1.53916441E-01  1.78328632E-01
  1.94345171E-01  1.99995545E-01  2.06056533E-01  2.20635326E-01  2.35170252E-01
  2.37232731E-01  2.67382752E-01  2.93681647E-01  3.02923735E-01  3.10945501E-01
  3.43889855E-01  3.49150400E-01  3.86436910E-01  4.22493001E-01  4.33024953E-01
  5.27592221E-01  5.27686877E-01  5.56474173E-01  5.78951091E-01  6.25483847E-01
  6.39663415E-01  6.74866720E-01  6.84585779E-01  7.07407354E-01  7.10003869E-01
  7.24683856E-01  7.28440472E-01  7.44631700E-01  7.92140911E-01  7.93482387E-01
  8.11359665E-01  8.12610973E-01  8.28866016E-01  8.68205057E-01  9.08528116E-01
  9.21690319E-01  9.26823770E-01  9.53722203E-01  9.71447723E-01  9.83126077E-01
  1.01636309E+00  1.05058632E+00  1.05614747E+00  1.07747959E+00  1.11333465E+00
  1.13829115E+00  1.19169540E+00  1.21906947E+00  1.23501505E+00  1.34043529E+00
  1.35170848E+00  1.38401454E+00  1.45503086E+00  1.48825768E+00  1.50868482E+00
  1.53595599E+00  1.56517383E+00  1.57845239E+00  1.61094845E+00  1.65973383E+00
  1.67307521E+00  1.70328931E+00  1.79138615E+00  1.83641188E+00  1.83714416E+00
  1.87690639E+00  1.90699044E+00  1.95322669E+00  1.99080176E+00  2.00596705E+00
  2.07871279E+00  2.12516845E+00  2.13318567E+00  2.14946260E+00  2.22292698E+00
  2.26393493E+00  2.26547746E+00  2.29122547E+00  2.31179747E+00  2.33438359E+00
  2.38399010E+00  2.42117736E+00  2.42960804E+00  2.45542485E+00  2.46074244E+00
  2.47657432E+00  2.49628153E+00  2.58747854E+00  2.59811062E+00  2.61878572E+00
  2.62827262E+00  2.63903028E+00  2.66444970E+00  2.75321500E+00  2.81709611E+00
  2.83750243E+00  2.87350789E+00  2.89540948E+00  2.92753172E+00  2.96274855E+00
  3.01396763E+00  3.06372446E+00  3.11732696E+00  3.20256736E+00  3.22265248E+00
  3.31860989E+00  3.35045638E+00  3.52966896E+00  3.63312433E+00  3.83644032E+00
  3.84328628E+00  4.14655640E+00  4.16382855E+00  4.18187848E+00  4.25413715E+00
  4.35651427E+00  4.38947385E+00  4.46289806E+00  4.52095283E+00  4.65125073E+00
  4.70925626E+00  4.79878866E+00  4.82372154E+00  4.83177082E+00  4.89435217E+00
  5.02522974E+00  5.07776597E+00  5.10391131E+00  5.15239072E+00  5.17242857E+00
  5.23822030E+00  5.27353150E+00  5.30791731E+00  5.32491292E+00  5.34683406E+00
  5.59109024E+00  5.67332718E+00  5.76376797E+00  5.83191589E+00  5.95755843E+00
  6.16271837E+00  6.30899276E+00  6.34011883E+00  6.39632522E+00  6.49435920E+00
  6.50698084E+00  6.61030854E+00  6.67121411E+00  6.70140117E+00  6.75172710E+00
  6.76311197E+00  6.83130335E+00  6.90084710E+00  7.01792746E+00  7.05569185E+00
  7.06172613E+00  7.08972226E+00  7.12264916E+00  7.14622589E+00  7.18056115E+00
  7.22703446E+00  7.23943243E+00  7.30604619E+00  7.32575799E+00  7.33642546E+00
  7.39503648E+00  7.43436859E+00  7.48144254E+00  7.61379979E+00  7.61510803E+00
  7.61980332E+00  7.66069388E+00  7.78616923E+00  7.87842407E+00  8.09603179E+00
  8.31381115E+00  8.40954429E+00  8.54594671E+00  1.33749347E+01  1.44280294E+01
  1.51429962E+01  1.61498022E+01
Alpha MO coefficients                      R   N=       42849
  9.29328207E-05 -6.67763951E-04 -7.43899665E-04 -6.56811285E-06 -2.27704110E-05
 -2.73840785E-05  0.00000000E+00 -4.02271277E-05  6.89643564E-05  0.00000000E+00
  9.27405178E-05  4.27021502E-05  0.00000000E+00  3.25631755E-05  0.00000000E+00
  0.00000000E+00 -5.07358646E-05  1.76749480E-05 -4.01722971E-06  0.00000000E+00
  0.00000000E+00 -1.49954178E-04  1.08927911E-04  4.75510175E-03 -2.80677103E-04
  1.94006707E-05  1.63642070E-03  1.84405304E-03  1.07640018E-04  1.11475206E-05
  0.00000000E+00 -6.27948712E-04 -5.67528899E-05  0.00000000E+00 -1.16405279E-03
  7.76640815E-04  0.00000000E+00 -4.10426525E-04  5.07651509E-05  0.00000000E+00
  2.87952524E-05  0.00000000E+00  0.00000000E+00 -5.45982065E-05  2.13723285E-06
 -3.82108197E-04  0.00000000E+00  0.00000000E+00  7.45049323E-04  1.98230095E-05
 -4.50706007E-04  0.00000000E+00  0.00000000E+00  2.54857431E-04 -1.32908913E-06
  0.00000000E+00  8.03611598E-05  1.56318322E-05  0.00000000E+00  0.00000000E+00
 -1.08098649E-04 -1.38968160E-05  0.00000000E+00  2.53881786E-04 -2.11830833E-05
  0.00000000E+00  0.00000000E+00 -3.63530720E-04  1.27575576E-05  9.76908675E-01
 -9.20413295E-03  4.33243040E-02  1.96408494E-03 -9.25149376E-04  1.51969751E-03
 -1.32574064E-03  0.00000000E+00 -1.45198906E-03  1.34501704E-03  0.00000000E+00
  5.84034343E-05 -1.16249692E-03  0.00000000E+00 -1.43450444E-04 -1.48996055E-05
  0.00000000E+00  4.35362966E-05  0.00000000E+00  0.00000000E+00 -3.50371967E-05
  2.46624017E-05  7.54482529E-04  0.00000000E+00  0.00000000E+00 -2.23238771E-04
 -4.36086172E-04 -3.58282327E-04  0.00000000E+00  0.00000000E+00 -3.06380355E-04
 -3.71167893E-04  0.00000000E+00  4.73737620E-05 -4.73801284E-05  0.00000000E+00
  0.00000000E+00 -3.83807289E-05 -1.87997447E-05  0.00000000E+00  2.53959759E-05
  2.27598940E-05  0.00000000E+00  0.00000000E+00 -3.06006640E-04 -1.64365890E-04
  4.02835001E-05  5.17981734E-05 -2.67731526E-04 -6.66025232E-04 -1.37404747E-04
 -2.74584251E-05 -9.88061632E-05  0.00000000E+00  2.82499109E-04  7.28796414E-04
  0.00000000E+00 -8.61452711E-04 -4.78305004E-04  0.00000000E+00 -1.19976273E-04
 -2.55685584E-05  0.00000000E+00 -1.86954224E-05  0.00000000E+00  0.00000000E+00
 -3.11347090E-05  1.49173163E-05 -3.30874902E-04  0.00000000E+00  0.00000000E+00
 -8.33454127E-04  1.28976165E-04 -3.62084551E-05  0.00000000E+00  0.00000000E+00
  1.01580413E-04 -1.21600813E-04  0.00000000E+00 -2.12459648E-05 -1.20665356E-04
  0.00000000E+00  0.00000000E+00 -5.98364647E-05 -1.37865882E-04  0.00000000E+00
  9.69279837E-06 -1.46888525E-04  0.00000000E+00  0.00000000E+00  4.45520951E-05
 -4.28683867E-04 -2.96956062E-03  1.25187717E-04 -1.42441722E-04 -2.71024696E-04
  1.27514717E-04 -8.77315370E-06 -2.91292232E-05  0.00000000E+00  6.97596486E-05
  1.72238304E-04  0.00000000E+00  2.31659692E-04  1.89355656E-04  0.00000000E+00
  1.24960388E-04  1.77355378E-05  0.00000000E+00 -3.52748413E-06  0.00000000E+00
  0.00000000E+00 -1.80649164E-05  1.13916862E-06  1.17276347E-07  0.00000000E+00
  0.00000000E+00  8.20858062E-05  9.12657574E-05 -1.00608995E-04  0.00000000E+00
  0.00000000E+00  1.73926014E-04  1.57244678E-04  0.00000000E+00  1.56807936E-05
 -3.76834967E-06  0.00000000E+00  0.00000000E+00 -4.65578382E-06 -1.16703831E-05
  0.00000000E+00 -3.39658248E-05  4.60621707E-05  0.00000000E+00  0.00000000E+00
  8.72422491E-05  9.06897000E-05  3.57103714E-05 -9.77286805E-04 -5.04358658E-04
 -9.27734705E-06 -2.24941217E-05  1.66751320E-05  0.00000000E+00 -6.26511975E-06
  2.77945845E-04  0.00000000E+00 -3.53722082E-05  1.39664685E-04  0.00000000E+00
  2.51065913E-05  0.00000000E+00  0.00000000E+00  1.36197607E-05  1.23193891E-05
 -2.21817680E-05  0.00000000E+00  0.00000000E+00  7.00567800E-06  3.06016006E-05
  1.13522265E-04  7.11860498E-05 -2.73901540E-05  7.86257754E-04  7.18490461E-04
  9.96719859E-06  2.74191034E-06  0.00000000E+00 -6.69144298E-05  1.88705164E-05
  0.00000000E+00  2.66088726E-04  8.49298985E-04  0.00000000E+00 -1.80514825E-05
  7.13448587E-05  0.00000000E+00 -1.53183527E-06  0.00000000E+00  0.00000000E+00
  2.29689780E-07 -8.15533327E-06 -3.87157454E-05  0.00000000E+00  0.00000000E+00
 -2.90684242E-05  9.26212747E-05 -2.91939520E-05  0.00000000E+00  0.00000000E+00
 -2.52603370E-04 -1.46282641E-04  0.00000000E+00  9.10725508E-06  5.97318445E-06
  0.00000000E+00  0.00000000E+00  3.23462833E-06 -1.90979083E-05  0.00000000E+00
 -3.76006411E-05 -3.63139554E-05  0.00000000E+00  0.00000000E+00 -7.05059313E-05
  2.25609136E-06  3.00880894E-03  3.67432435E-05  1.08129363E-04 -7.00664475E-05
 -4.88092373E-04  7.57650877E-06  1.57813465E-05  0.00000000E+00 -6.25174333E-05
 -5.91392476E-05  0.00000000E+00  2.32538290E-04 -1.50436697E-04  0.00000000E+00
 -2.06919389E-04 -7.15155097E-05  0.00000000E+00 -8.66462801E-06  0.00000000E+00
  0.00000000E+00  2.25356538E-05  1.90986089E-05  4.00613739E-06  0.00000000E+00
  0.00000000E+00 -1.18496103E-04 -4.35151932E-05 -2.59873329E-06  0.00000000E+00
  0.00000000E+00 -2.21458015E-04 -1.83371154E-04  0.00000000E+00  3.36422151E-06
  3.12603692E-07  0.00000000E+00  0.00000000E+00  1.94290196E-06 -1.46748572E-05
  0.00000000E+00 -4.72259694E-05 -2.46453317E-07  0.00000000E+00  0.00000000E+00
 -7.98508948E-05  1.96768280E-04  2.58760015E-04  1.46590922E-03 -7.84475932E-05
 -1.55392987E-03  3.64235541E-04 -1.44706808E-04 -4.56196195E-07  0.00000000E+00
 -2.07914456E-03 -4.03676888E-04  0.00000000E+00  9.85629125E-04  7.37157030E-04
  0.00000000E+00 -1.68367572E-04  5.08661734E-05  0.00000000E+00 -1.23508149E-04
  0.00000000E+00  0.00000000E+00  2.42468768E-04  9.59359026E-05 -4.40643235E-04
  0.00000000E+00  0.00000000E+00  8.99671066E-04 -6.83059050E-05  1.43588059E-05
  0.00000000E+00  0.00000000E+00 -3.30223141E-04 -1.34822540E-04  0.00000000E+00
 -2.34273034E-06  1.46984970E-05  0.00000000E+00  0.00000000E+00  2.00753362E-05
  1.54225414E-05  0.00000000E+00  1.71809764E-04 -6.86847630E-05  0.00000000E+00
  0.00000000E+00 -2.42384269E-04  3.32165123E-05  9.76648588E-01 -9.85139405E-03
  4.35653624E-02  4.47704375E-03 -4.38770853E-04  2.14836963E-03  4.89567164E-04
  0.00000000E+00 -2.38354206E-03 -6.10892145E-04  0.00000000E+00  1.14671949E-03
 -3.17973738E-07  0.00000000E+00  7.19464635E-06 -4.63176613E-05  0.00000000E+00
 -2.31638124E-04  0.00000000E+00  0.00000000E+00  1.02951393E-04  3.16199280E-05
  3.90437940E-04  0.00000000E+00  0.00000000E+00 -8.29012702E-04 -4.23555339E-04
 -1.58371404E-04  0.00000000E+00  0.00000000E+00  2.62135651E-04  2.17214429E-05
  0.00000000E+00  5.22507114E-05  1.80905490E-05  0.00000000E+00  0.00000000E+00
 -2.15627522E-05 -1.37408924E-05  0.00000000E+00  1.37082076E-04  8.87299114E-06
  0.00000000E+00  0.00000000E+00 -1.87671376E-04 -1.41783107E-04  4.70586592E-04
  1.95985642E-03  8.32808208E-05  1.41178263E-05 -3.48402692E-05 -2.44280733E-04
  0.00000000E+00  1.58949231E-04 -1.23987299E-03  0.00000000E+00  3.54799893E-04
 -3.13206815E-04  0.00000000E+00 -1.27025500E-06  0.00000000E+00  0.00000000E+00
  7.64051386E-05  2.25058284E-05 -1.61994822E-04  0.00000000E+00  0.00000000E+00
 -5.33400272E-04 -6.22350630E-05  9.76831256E-01 -9.15865420E-03  4.34458492E-02
  2.41607134E-04 -1.23502728E-03 -1.61760817E-03  1.38370959E-03  0.00000000E+00
  1.62577793E-03 -1.22385972E-03  0.00000000E+00 -5.32915744E-04 -7.55069911E-04
  0.00000000E+00  6.24155389E-05 -6.13541094E-05  0.00000000E+00  3.05547795E-05
  0.00000000E+00  0.00000000E+00 -1.15916225E-04 -1.30340740E-05  7.52118335E-04
  0.00000000E+00  0.00000000E+00 -2.00259569E-04 -2.46079584E-04 -2.66617184E-04
  0.00000000E+00  0.00000000E+00  1.58380154E-04  1.00066273E-04  0.00000000E+00
 -6.48175347E-05  4.61544689E-07  0.00000000E+00  0.00000000E+00  1.98291209E-05
  1.14398160E-05  0.00000000E+00 -5.79333210E-06  1.13450315E-04  0.00000000E+00
  0.00000000E+00  2.38450459E-04  1.13345126E-04 -4.84644325E-03 -2.09679870E-04