title                                                                   
SP        RMP2-FC                                                     Aug-CC-pVTZ         
Number of atoms                            I                5
Info1-9                                    I   N=           9
          33          24           0           0           0         110
           1           2           1
Full Title                                 C   N=           1
title       
Route                                      C   N=           4
#p SP mp2/aug-cc-pvtz density=current           
Charge                                     I                0
Multiplicity                               I                1
Number of electrons                        I               32
Number of alpha electrons                  I               16
Number of beta electrons                   I               16
Number of basis functions                  I              207
Number of independent functions            I              207
Number of point charges in /Mol/           I                0
Number of translation vectors              I                0
Atomic numbers                             I   N=           5
           1           8           8           7           8
Nuclear charges                            R   N=           5
  1.00000000E+00  8.00000000E+00  8.00000000E+00  7.00000000E+00  8.00000000E+00
Current cartesian coordinates              R   N=          15
  2.92136938E+00  3.21982848E+00 -1.30287338E-31  2.74747180E+00  1.39700620E+00
 -9.94182380E-32  1.33351882E-16  1.29408029E+00 -4.50491207E-32 -4.94414634E-01
 -1.46700008E+00  4.57102328E-32 -2.68003016E+00 -1.80993997E+00  8.12706544E-32
Number of symbols in /Mol/                 I                0
Force Field                                I                0
Atom Types                                 C   N=           5
                                                            
Int Atom Types                             I   N=           5
           0           0           0           0           0
MM charges                                 R   N=           5
  0.00000000E+00  0.00000000E+00  0.00000000E+00  0.00000000E+00  0.00000000E+00
Integer atomic weights                     I   N=           5
           1          16          16          14          16
Real atomic weights                        R   N=           5
  1.00782504E+00  1.59949146E+01  1.59949146E+01  1.40030740E+01  1.59949146E+01
Atom fragment info                         I   N=           5
           0           0           0           0           0
Atom residue num                           I   N=           5
           0           0           0           0           0
Nuclear spins                              I   N=           5
           1           0           0           2           0
Nuclear ZEff                               R   N=           5
 -1.00000000E+00 -5.60000000E+00 -5.60000000E+00 -4.55000000E+00 -5.60000000E+00
Nuclear ZNuc                               R   N=           5
  1.00000000E+00  8.00000000E+00  8.00000000E+00  7.00000000E+00  8.00000000E+00
Nuclear QMom                               R   N=           5
  0.00000000E+00  0.00000000E+00  0.00000000E+00  2.04400000E+00  0.00000000E+00
Nuclear GFac                               R   N=           5
  2.79284600E+00  0.00000000E+00  0.00000000E+00  4.03761000E-01  0.00000000E+00
MicOpt                                     I   N=           5
          -1          -1          -1          -1          -1
Number of residues                         I                0
Number of secondary structures             I                0
SymInf integers                            I   N=          26
           1           2           1           1           1           1
           1          -1           0           0           0           0
           0           0           0           0           0           0
           0           0           0           0           0           0
           0           0
RotTr to input orientation                 R   N=          12
 -9.95480231E-01 -9.76574051E-17 -9.49689953E-02  9.49689953E-02 -7.38960693E-17
 -9.95480231E-01  9.01981807E-17 -1.00000000E+00  8.28365017E-17  2.60238158E+00
  0.00000000E+00  3.48271512E+00
Number of contracted shells                I               65
Number of primitive shells                 I              119
Pure/Cartesian d shells                    I                0
Pure/Cartesian f shells                    I                0
Highest angular momentum                   I                3
Largest degree of contraction              I                7
Shell types                                I   N=          65
           0           0           0           0           1           1
           1          -2          -2           0           0           0
           0           0           1           1           1           1
          -2          -2          -2          -3          -3           0
           0           0           0           0           1           1
           1           1          -2          -2          -2          -3
          -3           0           0           0           0           0
           1           1           1           1          -2          -2
          -2          -3          -3           0           0           0
           0           0           1           1           1           1
          -2          -2          -2          -3          -3
Number of primitives per shell             I   N=          65
           3           1           1           1           1           1
           1           1           1           7           6           1
           1           1           3           1           1           1
           1           1           1           1           1           7
           6           1           1           1           3           1
           1           1           1           1           1           1
           1           7           6           1           1           1
           3           1           1           1           1           1
           1           1           1           7           6           1
           1           1           3           1           1           1
           1           1           1           1           1
Shell to atom map                          I   N=          65
           1           1           1           1           1           1
           1           1           1           2           2           2
           2           2           2           2           2           2
           2           2           2           2           2           3
           3           3           3           3           3           3
           3           3           3           3           3           3
           3           4           4           4           4           4
           4           4           4           4           4           4
           4           4           4           5           5           5
           5           5           5           5           5           5
           5           5           5           5           5
Primitive exponents                        R   N=         119
  3.38700000E+01  5.09500000E+00  1.15900000E+00  3.25800000E-01  1.02700000E-01
  2.52600000E-02  1.40700000E+00  3.88000000E-01  1.02000000E-01  1.05700000E+00
  2.47000000E-01  1.53300000E+04  2.29900000E+03  5.22400000E+02  1.47300000E+02
  4.75500000E+01  1.67600000E+01  6.20700000E+00  5.22400000E+02  1.47300000E+02
  4.75500000E+01  1.67600000E+01  6.20700000E+00  6.88200000E-01  1.75200000E+00
  2.38400000E-01  7.37600000E-02  3.44600000E+01  7.74900000E+00  2.28000000E+00
  7.15600000E-01  2.14000000E-01  5.97400000E-02  2.31400000E+00  6.45000000E-01
  2.14000000E-01  1.42800000E+00  5.00000000E-01  1.53300000E+04  2.29900000E+03
  5.22400000E+02  1.47300000E+02  4.75500000E+01  1.67600000E+01  6.20700000E+00
  5.22400000E+02  1.47300000E+02  4.75500000E+01  1.67600000E+01  6.20700000E+00
  6.88200000E-01  1.75200000E+00  2.38400000E-01  7.37600000E-02  3.44600000E+01
  7.74900000E+00  2.28000000E+00  7.15600000E-01  2.14000000E-01  5.97400000E-02
  2.31400000E+00  6.45000000E-01  2.14000000E-01  1.42800000E+00  5.00000000E-01
  1.14200000E+04  1.71200000E+03  3.89300000E+02  1.10000000E+02  3.55700000E+01
  1.25400000E+01  4.64400000E+00  3.89300000E+02  1.10000000E+02  3.55700000E+01
  1.25400000E+01  4.64400000E+00  5.11800000E-01  1.29300000E+00  1.78700000E-01
  5.76000000E-02  2.66300000E+01  5.94800000E+00  1.74200000E+00  5.55000000E-01
  1.72500000E-01  4.91000000E-02  1.65400000E+00  4.69000000E-01  1.51000000E-01
  1.09300000E+00  3.64000000E-01  1.53300000E+04  2.29900000E+03  5.22400000E+02
  1.47300000E+02  4.75500000E+01  1.67600000E+01  6.20700000E+00  5.22400000E+02
  1.47300000E+02  4.75500000E+01  1.67600000E+01  6.20700000E+00  6.88200000E-01
  1.75200000E+00  2.38400000E-01  7.37600000E-02  3.44600000E+01  7.74900000E+00
  2.28000000E+00  7.15600000E-01  2.14000000E-01  5.97400000E-02  2.31400000E+00
  6.45000000E-01  2.14000000E-01  1.42800000E+00  5.00000000E-01
Contraction coefficients                   R   N=         119
  2.54948632E-02  1.90362766E-01  8.52162022E-01  1.00000000E+00  1.00000000E+00
  1.00000000E+00  1.00000000E+00  1.00000000E+00  1.00000000E+00  1.00000000E+00
  1.00000000E+00  5.19808943E-04  4.02025621E-03  2.07128267E-02  8.10105536E-02
  2.35962985E-01  4.42653446E-01  3.57064423E-01 -4.42115008E-05 -1.22591041E-03
 -1.05517725E-02 -6.74452633E-02 -1.71198607E-01  1.07329856E+00  1.00000000E+00
  1.00000000E+00  1.00000000E+00  4.11634896E-02  2.57762836E-01  8.02419274E-01
  1.00000000E+00  1.00000000E+00  1.00000000E+00  1.00000000E+00  1.00000000E+00
  1.00000000E+00  1.00000000E+00  1.00000000E+00  5.19808943E-04  4.02025621E-03
  2.07128267E-02  8.10105536E-02  2.35962985E-01  4.42653446E-01  3.57064423E-01
 -4.42115008E-05 -1.22591041E-03 -1.05517725E-02 -6.74452633E-02 -1.71198607E-01
  1.07329856E+00  1.00000000E+00  1.00000000E+00  1.00000000E+00  4.11634896E-02
  2.57762836E-01  8.02419274E-01  1.00000000E+00  1.00000000E+00  1.00000000E+00
  1.00000000E+00  1.00000000E+00  1.00000000E+00  1.00000000E+00  1.00000000E+00
  5.34563860E-04  4.13435660E-03  2.12335358E-02  8.25006224E-02  2.38138871E-01
  4.42551547E-01  3.53757422E-01 -4.89867350E-05 -1.19527323E-03 -1.03490714E-02
 -6.48680190E-02 -1.71552477E-01  1.07289568E+00  1.00000000E+00  1.00000000E+00
  1.00000000E+00  3.98072123E-02  2.49002660E-01  8.10479727E-01  1.00000000E+00
  1.00000000E+00  1.00000000E+00  1.00000000E+00  1.00000000E+00  1.00000000E+00
  1.00000000E+00  1.00000000E+00  5.19808943E-04  4.02025621E-03  2.07128267E-02
  8.10105536E-02  2.35962985E-01  4.42653446E-01  3.57064423E-01 -4.42115008E-05
 -1.22591041E-03 -1.05517725E-02 -6.74452633E-02 -1.71198607E-01  1.07329856E+00
  1.00000000E+00  1.00000000E+00  1.00000000E+00  4.11634896E-02  2.57762836E-01
  8.02419274E-01  1.00000000E+00  1.00000000E+00  1.00000000E+00  1.00000000E+00
  1.00000000E+00  1.00000000E+00  1.00000000E+00  1.00000000E+00
Coordinates of each shell                  R   N=         195
  2.92136938E+00  3.21982848E+00 -5.90927107E-32  2.92136938E+00  3.21982848E+00
 -5.90927107E-32  2.92136938E+00  3.21982848E+00 -5.90927107E-32  2.92136938E+00
  3.21982848E+00 -5.90927107E-32  2.92136938E+00  3.21982848E+00 -5.90927107E-32
  2.92136938E+00  3.21982848E+00 -5.90927107E-32  2.92136938E+00  3.21982848E+00
 -5.90927107E-32  2.92136938E+00  3.21982848E+00 -5.90927107E-32  2.92136938E+00
  3.21982848E+00 -5.90927107E-32  2.74747180E+00  1.39700620E+00 -4.56132365E-32
  2.74747180E+00  1.39700620E+00 -4.56132365E-32  2.74747180E+00  1.39700620E+00
 -4.56132365E-32  2.74747180E+00  1.39700620E+00 -4.56132365E-32  2.74747180E+00
  1.39700620E+00 -4.56132365E-32  2.74747180E+00  1.39700620E+00 -4.56132365E-32
  2.74747180E+00  1.39700620E+00 -4.56132365E-32  2.74747180E+00  1.39700620E+00
 -4.56132365E-32  2.74747180E+00  1.39700620E+00 -4.56132365E-32  2.74747180E+00
  1.39700620E+00 -4.56132365E-32  2.74747180E+00  1.39700620E+00 -4.56132365E-32
  2.74747180E+00  1.39700620E+00 -4.56132365E-32  2.74747180E+00  1.39700620E+00
 -4.56132365E-32  2.74747180E+00  1.39700620E+00 -4.56132365E-32 -2.79872904E-17
  1.29408029E+00 -7.90329172E-33 -2.79872904E-17  1.29408029E+00 -7.90329172E-33
 -2.79872904E-17  1.29408029E+00 -7.90329172E-33 -2.79872904E-17  1.29408029E+00
 -7.90329172E-33 -2.79872904E-17  1.29408029E+00 -7.90329172E-33 -2.79872904E-17
  1.29408029E+00 -7.90329172E-33 -2.79872904E-17  1.29408029E+00 -7.90329172E-33
 -2.79872904E-17  1.29408029E+00 -7.90329172E-33 -2.79872904E-17  1.29408029E+00
 -7.90329172E-33 -2.79872904E-17  1.29408029E+00 -7.90329172E-33 -2.79872904E-17
  1.29408029E+00 -7.90329172E-33 -2.79872904E-17  1.29408029E+00 -7.90329172E-33
 -2.79872904E-17  1.29408029E+00 -7.90329172E-33 -2.79872904E-17  1.29408029E+00
 -7.90329172E-33 -4.94414634E-01 -1.46700008E+00  1.56322431E-32 -4.94414634E-01
 -1.46700008E+00  1.56322431E-32 -4.94414634E-01 -1.46700008E+00  1.56322431E-32
 -4.94414634E-01 -1.46700008E+00  1.56322431E-32 -4.94414634E-01 -1.46700008E+00
  1.56322431E-32 -4.94414634E-01 -1.46700008E+00  1.56322431E-32 -4.94414634E-01
 -1.46700008E+00  1.56322431E-32 -4.94414634E-01 -1.46700008E+00  1.56322431E-32
 -4.94414634E-01 -1.46700008E+00  1.56322431E-32 -4.94414634E-01 -1.46700008E+00
  1.56322431E-32 -4.94414634E-01 -1.46700008E+00  1.56322431E-32 -4.94414634E-01
 -1.46700008E+00  1.56322431E-32 -4.94414634E-01 -1.46700008E+00  1.56322431E-32
 -4.94414634E-01 -1.46700008E+00  1.56322431E-32 -2.68003016E+00 -1.80993997E+00
  4.72249043E-32 -2.68003016E+00 -1.80993997E+00  4.72249043E-32 -2.68003016E+00
 -1.80993997E+00  4.72249043E-32 -2.68003016E+00 -1.80993997E+00  4.72249043E-32
 -2.68003016E+00 -1.80993997E+00  4.72249043E-32 -2.68003016E+00 -1.80993997E+00
  4.72249043E-32 -2.68003016E+00 -1.80993997E+00  4.72249043E-32 -2.68003016E+00
 -1.80993997E+00  4.72249043E-32 -2.68003016E+00 -1.80993997E+00  4.72249043E-32
 -2.68003016E+00 -1.80993997E+00  4.72249043E-32 -2.68003016E+00 -1.80993997E+00
  4.72249043E-32 -2.68003016E+00 -1.80993997E+00  4.72249043E-32 -2.68003016E+00
 -1.80993997E+00  4.72249043E-32 -2.68003016E+00 -1.80993997E+00  4.72249043E-32
Num ILSW                                   I              100
ILSW                                       I   N=         100
           0           0           0           0           2           0
           0           0           0           0           0          -1
           5           0           0           0           0           0
           0           0           0           0           0           0
           1           0           0           0           0           0
           0           0      100000           0          -1           0
           0           0           0           0           0           0
           0           0           0           1           0           0
           0 -2000000000           1           0           0           0
           0           0           4          52           0           0
           0           0           0           0           0           0
           0           0           0           5           0           1
           0           0           0           0           0           0
           0           0           0           0           0           0
           0           0           0           0           0           0
           0           0           0           0           0           0
           0           0           0           0
Num RLSW                                   I               52
RLSW                                       R   N=          52
  1.00000000E+00  1.00000000E+00  1.00000000E+00  1.00000000E+00  1.00000000E+00
  0.00000000E+00  0.00000000E+00  1.00000000E+00  0.00000000E+00  0.00000000E+00
  0.00000000E+00  0.00000000E+00  1.00000000E+00  0.00000000E+00  0.00000000E+00
  0.00000000E+00  0.00000000E+00  1.00000000E+00  0.00000000E+00  0.00000000E+00
  0.00000000E+00  0.00000000E+00  1.00000000E+00  0.00000000E+00  0.00000000E+00
  0.00000000E+00  0.00000000E+00  1.00000000E+00  0.00000000E+00  0.00000000E+00
  0.00000000E+00  0.00000000E+00  1.00000000E+00  0.00000000E+00  0.00000000E+00
  0.00000000E+00  0.00000000E+00  0.00000000E+00  1.00000000E+00  1.00000000E+00
  0.00000000E+00  1.00000000E+00  0.00000000E+00  0.00000000E+00  0.00000000E+00
  0.00000000E+00  0.00000000E+00  0.00000000E+00  0.00000000E+00  0.00000000E+00
  0.00000000E+00  0.00000000E+00
MxBond                                     I                2
NBond                                      I   N=           5
           1           2           2           2           1
IBond                                      I   N=          10
           2           0           1           3           2           4
           3           5           4           0
RBond                                      R   N=          10
  1.00000000E+00  0.00000000E+00  1.00000000E+00  1.00000000E+00  1.00000000E+00
  1.00000000E+00  1.00000000E+00  2.00000000E+00  2.00000000E+00  0.00000000E+00
Virial Ratio                               R      2.002487850030812E+00
SCF Energy                                 R     -2.794990637318817E+02
MP2 Energy                                 R     -2.804466022263900E+02
Total Energy                               R     -2.804466022263900E+02
Post-SCF wavefunction norm                 R      1.121311494945901E+00
RMS Density                                R      4.172896412543256E-09
Job Status                                 I                1
Nuclear derivative order                   I                0
External E-field                           R   N=          35
  0.00000000E+00  0.00000000E+00  0.00000000E+00  0.00000000E+00  0.00000000E+00
  0.00000000E+00  0.00000000E+00  0.00000000E+00  0.00000000E+00  0.00000000E+00
  0.00000000E+00  0.00000000E+00  0.00000000E+00  0.00000000E+00  0.00000000E+00
  0.00000000E+00  0.00000000E+00  0.00000000E+00  0.00000000E+00  0.00000000E+00
  0.00000000E+00  0.00000000E+00  0.00000000E+00  0.00000000E+00  0.00000000E+00
  0.00000000E+00  0.00000000E+00  0.00000000E+00  0.00000000E+00  0.00000000E+00
  0.00000000E+00  0.00000000E+00  0.00000000E+00  0.00000000E+00  0.00000000E+00
IOpCl                                      I                0
IROHF                                      I                0
Alpha Orbital Energies                     R   N=         207
 -2.06903255E+01 -2.06865640E+01 -2.06568500E+01 -1.58169637E+01 -1.62319616E+00
 -1.49198781E+00 -1.24679268E+00 -9.50135356E-01 -7.70787577E-01 -7.56355526E-01
 -7.07723940E-01 -6.80657020E-01 -6.21672103E-01 -5.88025836E-01 -4.82485278E-01
 -4.71228855E-01  3.03292822E-02  6.83872235E-02  8.54493069E-02  1.01413573E-01
  1.33805596E-01  1.34120858E-01  1.44613534E-01  1.55035621E-01  1.78816677E-01
  1.94025593E-01  1.99680328E-01  2.02538172E-01  2.21468850E-01  2.36513276E-01
  2.37092708E-01  2.65296616E-01  2.83743417E-01  3.04443482E-01  3.09747216E-01
  3.41540003E-01  3.48874217E-01  3.86906633E-01  4.22920677E-01  4.32533753E-01
  5.26063019E-01  5.28117551E-01  5.55754446E-01  5.80238392E-01  6.24072630E-01
  6.36821470E-01  6.73514570E-01  6.84498195E-01  7.07223681E-01  7.11666869E-01
  7.24416548E-01  7.31199617E-01  7.45634458E-01  7.89964757E-01  7.92972573E-01
  8.09313181E-01  8.14547728E-01  8.29450603E-01  8.66279228E-01  9.08188548E-01
  9.22910101E-01  9.24444740E-01  9.59009383E-01  9.73949911E-01  9.85679337E-01
  1.01864533E+00  1.05096112E+00  1.05347074E+00  1.08009134E+00  1.11569149E+00
  1.13872439E+00  1.18817861E+00  1.21997538E+00  1.23205023E+00  1.33600717E+00
  1.34563706E+00  1.38887989E+00  1.44948810E+00  1.48760647E+00  1.50986843E+00
  1.53632328E+00  1.56380867E+00  1.57506161E+00  1.61196644E+00  1.66201474E+00
  1.66964517E+00  1.70078841E+00  1.79292741E+00  1.82990831E+00  1.83037415E+00
  1.87901883E+00  1.90697150E+00  1.95578579E+00  1.98708048E+00  2.00249983E+00
  2.06988011E+00  2.11794314E+00  2.12848945E+00  2.15305560E+00  2.21947183E+00
  2.26202364E+00  2.26670939E+00  2.28711800E+00  2.31364585E+00  2.33779576E+00
  2.38606219E+00  2.42052567E+00  2.42283705E+00  2.45170754E+00  2.46019268E+00
  2.47228687E+00  2.49749146E+00  2.59183182E+00  2.59471591E+00  2.61478021E+00
  2.62246535E+00  2.63664570E+00  2.66510726E+00  2.75327996E+00  2.81227474E+00
  2.84424278E+00  2.87489675E+00  2.89562313E+00  2.90282923E+00  2.95667089E+00
  3.01600814E+00  3.05752740E+00  3.11476518E+00  3.20594422E+00  3.22413288E+00
  3.31227745E+00  3.33484759E+00  3.51277763E+00  3.63405049E+00  3.82624515E+00
  3.83896238E+00  4.14835420E+00  4.16974258E+00  4.18080377E+00  4.24678654E+00
  4.35189499E+00  4.39282423E+00  4.46512320E+00  4.51587094E+00  4.65272393E+00
  4.70637950E+00  4.79793207E+00  4.80918613E+00  4.83220327E+00  4.89293564E+00
  5.01463154E+00  5.07003154E+00  5.09222816E+00  5.14569624E+00  5.17148882E+00
  5.23637915E+00  5.26284971E+00  5.30308538E+00  5.32824103E+00  5.34460254E+00
  5.59806272E+00  5.66894288E+00  5.75363380E+00  5.83083647E+00  5.94503311E+00
  6.15749906E+00  6.30849527E+00  6.32811007E+00  6.39094801E+00  6.48744775E+00
  6.50004895E+00  6.61277537E+00  6.66902875E+00  6.69212671E+00  6.76153469E+00
  6.76350228E+00  6.82478820E+00  6.89050600E+00  7.00759841E+00  7.05294045E+00
  7.05938549E+00  7.09044297E+00  7.11673661E+00  7.14284646E+00  7.18063133E+00
  7.21221103E+00  7.24320620E+00  7.31209928E+00  7.32106012E+00  7.33958071E+00
  7.39157200E+00  7.41863377E+00  7.47781627E+00  7.60003557E+00  7.60378475E+00
  7.61316939E+00  7.65407995E+00  7.77906058E+00  7.88103664E+00  8.06392614E+00
  8.30279092E+00  8.40866834E+00  8.53245902E+00  1.33414942E+01  1.42608456E+01
  1.51416367E+01  1.61052694E+01
Alpha MO coefficients                      R   N=       42849
  3.72183808E-05 -9.72601621E-04 -4.82047543E-04 -1.28813572E-05 -2.26544374E-05
  1.68731196E-05  0.00000000E+00  4.58181616E-06  2.75260327E-04  0.00000000E+00
 -4.01763984E-05  1.33733816E-04  0.00000000E+00  2.55273213E-05  0.00000000E+00
  0.00000000E+00  1.37122240E-05  1.01119705E-05 -2.44540577E-05  0.00000000E+00
  0.00000000E+00  9.50365079E-06  2.99625856E-05  5.25832934E-05  8.64997287E-05
 -2.87544823E-05  7.05188847E-04  6.21952997E-04  8.85032881E-06  2.23852840E-06
  0.00000000E+00 -6.33652935E-05  1.98217313E-05  0.00000000E+00  3.46123478E-04
  8.59279043E-04  0.00000000E+00  9.49207136E-06  7.71724760E-05  0.00000000E+00
 -2.45814857E-06  0.00000000E+00  0.00000000E+00  5.00459906E-07 -6.93432834E-06
 -3.24282978E-05  0.00000000E+00  0.00000000E+00 -3.02648442E-05  8.66710943E-05
 -1.92723213E-05  0.00000000E+00  0.00000000E+00 -2.66901025E-04 -1.45805968E-04
  0.00000000E+00  8.34854406E-06  5.51937287E-06  0.00000000E+00  0.00000000E+00
  4.04279679E-06 -1.83892591E-05  0.00000000E+00 -4.22506104E-05 -3.59429441E-05
  0.00000000E+00  0.00000000E+00 -7.10704255E-05  1.30859244E-05 -4.38978188E-03
  1.05561580E-04 -2.20209441E-04 -1.09324737E-04 -4.84234759E-04 -1.58259440E-06
  2.53495123E-05  0.00000000E+00 -5.56248892E-05 -6.07976030E-05  0.00000000E+00
  2.55377536E-04 -8.41394814E-05  0.00000000E+00 -1.75452687E-04 -4.76853379E-05
  0.00000000E+00 -8.49916443E-06  0.00000000E+00  0.00000000E+00  2.04164951E-05
  1.75982292E-05 -1.72189900E-06  0.00000000E+00  0.00000000E+00 -9.86285571E-05
 -3.20108573E-05  3.08491898E-06  0.00000000E+00  0.00000000E+00 -1.80749789E-04
 -1.86452671E-04  0.00000000E+00  5.16396870E-06  1.39993871E-06  0.00000000E+00
  0.00000000E+00  5.21643144E-06 -1.73843000E-05  0.00000000E+00 -4.91316307E-05
 -2.04586752E-06  0.00000000E+00  0.00000000E+00 -7.40258539E-05  1.85022134E-04
  2.60123547E-04  1.46821634E-03 -8.10729146E-05 -1.44622383E-03  4.34738096E-04
 -1.46133006E-04 -7.68749334E-07  0.00000000E+00 -2.06506843E-03 -3.97113331E-04
  0.00000000E+00  1.02150158E-03  7.81658041E-04  0.00000000E+00 -1.72801353E-04
  5.87609684E-05  0.00000000E+00 -1.23403648E-04  0.00000000E+00  0.00000000E+00
  2.40636494E-04  9.40889967E-05 -4.44316607E-04  0.00000000E+00  0.00000000E+00
  8.99124568E-04 -3.71830960E-05  5.47630619E-06  0.00000000E+00  0.00000000E+00
 -3.34156259E-04 -1.12081955E-04  0.00000000E+00 -2.49350973E-06  1.54547700E-05
  0.00000000E+00  0.00000000E+00  1.74926277E-05  1.41125981E-05  0.00000000E+00
  1.68867357E-04 -6.64445131E-05  0.00000000E+00  0.00000000E+00 -2.50550967E-04
  3.09658127E-05  9.76648637E-01 -9.85382116E-03  4.35537058E-02  4.47065737E-03
 -4.55968987E-04  2.14243100E-03  4.82614147E-04  0.00000000E+00 -2.38133946E-03
 -6.03380778E-04  0.00000000E+00  1.14151608E-03  7.25985564E-06  0.00000000E+00
  2.83635308E-06 -3.97591509E-05  0.00000000E+00 -2.31844535E-04  0.00000000E+00
  0.00000000E+00  1.04451302E-04  3.11229288E-05  3.86382409E-04  0.00000000E+00
  0.00000000E+00 -8.27265739E-04 -4.17038807E-04 -1.56757296E-04  0.00000000E+00
  0.00000000E+00  2.62155246E-04  2.36185873E-05  0.00000000E+00  5.17701346E-05
  1.76526126E-05  0.00000000E+00  0.00000000E+00 -2.25029103E-05 -1.34991728E-05
  0.00000000E+00  1.35518477E-04  9.08192610E-06  0.00000000E+00  0.00000000E+00
 -1.87421559E-04 -1.38865428E-04  9.37770815E-05 -6.83763040E-04 -7.71988137E-04
 -5.11715869E-06 -2.31257330E-05 -2.67845368E-05  0.00000000E+00 -5.03891298E-05
  7.42364414E-05  0.00000000E+00  8.82986366E-05  5.03944904E-05  0.00000000E+00
  3.28305395E-05  0.00000000E+00  0.00000000E+00 -4.84720441E-05  2.23189634E-05
 -4.44918036E-06  0.00000000E+00  0.00000000E+00 -1.40610497E-04  1.17328432E-04
  4.76819862E-03 -2.78475219E-04  2.12963945E-05  1.54274337E-03  1.83376789E-03
  1.06314234E-04  8.21355248E-06  0.00000000E+00 -6.15313575E-04 -3.60238005E-05
  0.00000000E+00 -1.05244617E-03  8.18131380E-04  0.00000000E+00 -3.98095941E-04
  6.65939588E-05  0.00000000E+00  2.87225025E-05  0.00000000E+00  0.00000000E+00
 -5.47437001E-05  4.45151014E-06 -3.79082381E-04  0.00000000E+00  0.00000000E+00
  7.40571855E-04 -1.94416086E-05 -4.48515833E-04  0.00000000E+00  0.00000000E+00
  2.23268448E-04 -3.64965903E-06  0.00000000E+00  8.04572171E-05  1.31157398E-05
  0.00000000E+00  0.00000000E+00 -1.09826471E-04 -4.50146240E-06  0.00000000E+00
  2.54461932E-04 -2.70646597E-05  0.00000000E+00  0.00000000E+00 -3.60487337E-04
  4.21370518E-05  9.76918792E-01 -9.20221196E-03  4.32853278E-02  2.24180284E-03
 -8.29837571E-04  1.51117674E-03 -1.29589945E-03  0.00000000E+00 -1.46685693E-03
  1.29633263E-03  0.00000000E+00  1.16168686E-04 -1.22863109E-03  0.00000000E+00
 -1.38078459E-04 -2.80117128E-05  0.00000000E+00  5.29097083E-05  0.00000000E+00
  0.00000000E+00 -2.84833885E-05  1.92076087E-05  7.24481327E-04  0.00000000E+00
  0.00000000E+00 -2.70834554E-04 -3.72722715E-04 -3.78385919E-04  0.00000000E+00
  0.00000000E+00 -3.13070437E-04 -3.65725467E-04  0.00000000E+00  4.97887000E-05
 -4.61876779E-05  0.00000000E+00  0.00000000E+00 -3.75575407E-05 -1.48051468E-05
  0.00000000E+00  1.93918533E-05  3.26078788E-05  0.00000000E+00  0.00000000E+00
 -2.98484596E-04 -1.22619680E-04  3.18655509E-05  1.74497712E-06 -2.41155826E-04
 -7.87807673E-04 -1.67607591E-04 -2.77634271E-05 -9.14865443E-05  0.00000000E+00
  2.37259515E-04  5.87149448E-04  0.00000000E+00 -8.52475971E-04 -6.06452007E-04
  0.00000000E+00 -1.28202237E-04 -3.98647243E-05  0.00000000E+00 -9.27919317E-06
  0.00000000E+00  0.00000000E+00 -9.70805869E-06  1.05435819E-05 -3.04180676E-04
  0.00000000E+00  0.00000000E+00 -7.74816251E-04  1.18275051E-04 -2.49872100E-05
  0.00000000E+00  0.00000000E+00  1.09474910E-04 -1.05998431E-04  0.00000000E+00
 -1.96900374E-05 -1.15178956E-04  0.00000000E+00  0.00000000E+00 -5.62750295E-05
 -1.34978331E-04  0.00000000E+00  1.15635645E-05 -1.42672562E-04  0.00000000E+00
  0.00000000E+00  6.50059456E-05 -4.25279657E-04  4.42829154E-03  5.81158082E-05
  1.87162020E-04 -2.47186831E-04  9.75467606E-05  8.10528439E-06 -2.71217133E-05
  0.00000000E+00  4.85506997E-05  1.71973652E-04  0.00000000E+00  2.10839379E-04
  2.38981698E-04  0.00000000E+00  1.16024573E-04  2.25314362E-05  0.00000000E+00
 -6.02742571E-06  0.00000000E+00  0.00000000E+00 -1.64883125E-05  6.28066597E-07
  6.93687362E-06  0.00000000E+00  0.00000000E+00  6.64763406E-05  9.77274133E-05
 -9.56266209E-05  0.00000000E+00  0.00000000E+00  1.59521074E-04  1.76084594E-04
  0.00000000E+00  1.52897890E-05 -5.25043255E-06  0.00000000E+00  0.00000000E+00
 -7.65141804E-06 -1.01565023E-05  0.00000000E+00 -2.79426908E-05  4.77096438E-05
  0.00000000E+00  0.00000000E+00  8.17046809E-05  9.34738522E-05  4.75279109E-04
  2.02101542E-03  8.45655209E-05  1.34730913E-05 -4.11186931E-05 -2.45775221E-04
  0.00000000E+00  1.17758453E-04 -1.26090510E-03  0.00000000E+00  3.09233854E-04
 -3.26024783E-04  0.00000000E+00 -1.59740185E-06  0.00000000E+00  0.00000000E+00
  7.66908206E-05  1.56680349E-05 -1.59469150E-04  0.00000000E+00  0.00000000E+00
 -5.36881306E-04 -2.70378904E-05  9.76829433E-01 -9.15860858E-03  4.34487783E-02
  1.91943588E-04 -1.10008178E-03 -1.56289116E-03  1.43402871E-03  0.00000000E+00
  1.57339021E-03 -1.27408298E-03  0.00000000E+00 -5.59732002E-04 -8.32887796E-04
  0.00000000E+00  5.44457289E-05 -2.30932834E-05  0.00000000E+00  2.93375954E-05
  0.00000000E+00  0.00000000E+00 -1.17237315E-04 -4.15140530E-06  7.53878770E-04
  0.00000000E+00  0.00000000E+00 -1.99298352E-04 -2.35561510E-04 -2.71217103E-04
  0.00000000E+00  0.00000000E+00  1.65371869E-04  1.27273439E-04  0.00000000E+00
 -6.41110123E-05  1.05595015E-06  0.00000000E+00  0.00000000E+00  1.89275073E-05
  1.02100524E-05  0.00000000E+00 -2.19366632E-07  1.21441421E-04  0.00000000E+00
  0.00000000E+00  2.52046619E-04  9.20239716E-05 -4.85747992E-03 -1.99791435E-04