title                                                                   
SP        RMP2-FC                                                     Aug-CC-pVTZ         
Number of atoms                            I                5
Info1-9                                    I   N=           9
          33          24           0           0           0         110
           1           2           1
Full Title                                 C   N=           1
title       
Route                                      C   N=           4
#p SP mp2/aug-cc-pvtz density=current           
Charge                                     I                0
Multiplicity                               I                1
Number of electrons                        I               32
Number of alpha electrons                  I               16
Number of beta electrons                   I               16
Number of basis functions                  I              207
Number of independent functions            I              207
Number of point charges in /Mol/           I                0
Number of translation vectors              I                0
Atomic numbers                             I   N=           5
           1           8           8           7           8
Nuclear charges                            R   N=           5
  1.00000000E+00  8.00000000E+00  8.00000000E+00  7.00000000E+00  8.00000000E+00
Current cartesian coordinates              R   N=          15
  2.92502582E+00  3.16626902E+00  4.81903756E-31  2.74777595E+00  1.36697914E+00
  3.05778133E-31  1.12545683E-16  1.27252103E+00 -1.66609714E-31 -4.94262474E-01
 -1.43951002E+00 -1.58941823E-31 -2.68092452E+00 -1.77571254E+00 -2.96108738E-31
Number of symbols in /Mol/                 I                0
Force Field                                I                0
Atom Types                                 C   N=           5
                                                            
Int Atom Types                             I   N=           5
           0           0           0           0           0
MM charges                                 R   N=           5
  0.00000000E+00  0.00000000E+00  0.00000000E+00  0.00000000E+00  0.00000000E+00
Integer atomic weights                     I   N=           5
           1          16          16          14          16
Real atomic weights                        R   N=           5
  1.00782504E+00  1.59949146E+01  1.59949146E+01  1.40030740E+01  1.59949146E+01
Atom fragment info                         I   N=           5
           0           0           0           0           0
Atom residue num                           I   N=           5
           0           0           0           0           0
Nuclear spins                              I   N=           5
           1           0           0           2           0
Nuclear ZEff                               R   N=           5
 -1.00000000E+00 -5.60000000E+00 -5.60000000E+00 -4.55000000E+00 -5.60000000E+00
Nuclear ZNuc                               R   N=           5
  1.00000000E+00  8.00000000E+00  8.00000000E+00  7.00000000E+00  8.00000000E+00
Nuclear QMom                               R   N=           5
  0.00000000E+00  0.00000000E+00  0.00000000E+00  2.04400000E+00  0.00000000E+00
Nuclear GFac                               R   N=           5
  2.79284600E+00  0.00000000E+00  0.00000000E+00  4.03761000E-01  0.00000000E+00
MicOpt                                     I   N=           5
          -1          -1          -1          -1          -1
Number of residues                         I                0
Number of secondary structures             I                0
SymInf integers                            I   N=          26
           1           2           1           1           1           1
           1          -1           0           0           0           0
           0           0           0           0           0           0
           0           0           0           0           0           0
           0           0
RotTr to input orientation                 R   N=          12
 -9.95182823E-01 -8.64377872E-16 -9.80364694E-02  9.80364694E-02  7.75490708E-16
 -9.95182823E-01  9.36240381E-16 -1.00000000E+00 -6.87014477E-16  2.60052562E+00
  0.00000000E+00  3.43777575E+00
Number of contracted shells                I               65
Number of primitive shells                 I              119
Pure/Cartesian d shells                    I                0
Pure/Cartesian f shells                    I                0
Highest angular momentum                   I                3
Largest degree of contraction              I                7
Shell types                                I   N=          65
           0           0           0           0           1           1
           1          -2          -2           0           0           0
           0           0           1           1           1           1
          -2          -2          -2          -3          -3           0
           0           0           0           0           1           1
           1           1          -2          -2          -2          -3
          -3           0           0           0           0           0
           1           1           1           1          -2          -2
          -2          -3          -3           0           0           0
           0           0           1           1           1           1
          -2          -2          -2          -3          -3
Number of primitives per shell             I   N=          65
           3           1           1           1           1           1
           1           1           1           7           6           1
           1           1           3           1           1           1
           1           1           1           1           1           7
           6           1           1           1           3           1
           1           1           1           1           1           1
           1           7           6           1           1           1
           3           1           1           1           1           1
           1           1           1           7           6           1
           1           1           3           1           1           1
           1           1           1           1           1
Shell to atom map                          I   N=          65
           1           1           1           1           1           1
           1           1           1           2           2           2
           2           2           2           2           2           2
           2           2           2           2           2           3
           3           3           3           3           3           3
           3           3           3           3           3           3
           3           4           4           4           4           4
           4           4           4           4           4           4
           4           4           4           5           5           5
           5           5           5           5           5           5
           5           5           5           5           5
Primitive exponents                        R   N=         119
  3.38700000E+01  5.09500000E+00  1.15900000E+00  3.25800000E-01  1.02700000E-01
  2.52600000E-02  1.40700000E+00  3.88000000E-01  1.02000000E-01  1.05700000E+00
  2.47000000E-01  1.53300000E+04  2.29900000E+03  5.22400000E+02  1.47300000E+02
  4.75500000E+01  1.67600000E+01  6.20700000E+00  5.22400000E+02  1.47300000E+02
  4.75500000E+01  1.67600000E+01  6.20700000E+00  6.88200000E-01  1.75200000E+00
  2.38400000E-01  7.37600000E-02  3.44600000E+01  7.74900000E+00  2.28000000E+00
  7.15600000E-01  2.14000000E-01  5.97400000E-02  2.31400000E+00  6.45000000E-01
  2.14000000E-01  1.42800000E+00  5.00000000E-01  1.53300000E+04  2.29900000E+03
  5.22400000E+02  1.47300000E+02  4.75500000E+01  1.67600000E+01  6.20700000E+00
  5.22400000E+02  1.47300000E+02  4.75500000E+01  1.67600000E+01  6.20700000E+00
  6.88200000E-01  1.75200000E+00  2.38400000E-01  7.37600000E-02  3.44600000E+01
  7.74900000E+00  2.28000000E+00  7.15600000E-01  2.14000000E-01  5.97400000E-02
  2.31400000E+00  6.45000000E-01  2.14000000E-01  1.42800000E+00  5.00000000E-01
  1.14200000E+04  1.71200000E+03  3.89300000E+02  1.10000000E+02  3.55700000E+01
  1.25400000E+01  4.64400000E+00  3.89300000E+02  1.10000000E+02  3.55700000E+01
  1.25400000E+01  4.64400000E+00  5.11800000E-01  1.29300000E+00  1.78700000E-01
  5.76000000E-02  2.66300000E+01  5.94800000E+00  1.74200000E+00  5.55000000E-01
  1.72500000E-01  4.91000000E-02  1.65400000E+00  4.69000000E-01  1.51000000E-01
  1.09300000E+00  3.64000000E-01  1.53300000E+04  2.29900000E+03  5.22400000E+02
  1.47300000E+02  4.75500000E+01  1.67600000E+01  6.20700000E+00  5.22400000E+02
  1.47300000E+02  4.75500000E+01  1.67600000E+01  6.20700000E+00  6.88200000E-01
  1.75200000E+00  2.38400000E-01  7.37600000E-02  3.44600000E+01  7.74900000E+00
  2.28000000E+00  7.15600000E-01  2.14000000E-01  5.97400000E-02  2.31400000E+00
  6.45000000E-01  2.14000000E-01  1.42800000E+00  5.00000000E-01
Contraction coefficients                   R   N=         119
  2.54948632E-02  1.90362766E-01  8.52162022E-01  1.00000000E+00  1.00000000E+00
  1.00000000E+00  1.00000000E+00  1.00000000E+00  1.00000000E+00  1.00000000E+00
  1.00000000E+00  5.19808943E-04  4.02025621E-03  2.07128267E-02  8.10105536E-02
  2.35962985E-01  4.42653446E-01  3.57064423E-01 -4.42115008E-05 -1.22591041E-03
 -1.05517725E-02 -6.74452633E-02 -1.71198607E-01  1.07329856E+00  1.00000000E+00
  1.00000000E+00  1.00000000E+00  4.11634896E-02  2.57762836E-01  8.02419274E-01
  1.00000000E+00  1.00000000E+00  1.00000000E+00  1.00000000E+00  1.00000000E+00
  1.00000000E+00  1.00000000E+00  1.00000000E+00  5.19808943E-04  4.02025621E-03
  2.07128267E-02  8.10105536E-02  2.35962985E-01  4.42653446E-01  3.57064423E-01
 -4.42115008E-05 -1.22591041E-03 -1.05517725E-02 -6.74452633E-02 -1.71198607E-01
  1.07329856E+00  1.00000000E+00  1.00000000E+00  1.00000000E+00  4.11634896E-02
  2.57762836E-01  8.02419274E-01  1.00000000E+00  1.00000000E+00  1.00000000E+00
  1.00000000E+00  1.00000000E+00  1.00000000E+00  1.00000000E+00  1.00000000E+00
  5.34563860E-04  4.13435660E-03  2.12335358E-02  8.25006224E-02  2.38138871E-01
  4.42551547E-01  3.53757422E-01 -4.89867350E-05 -1.19527323E-03 -1.03490714E-02
 -6.48680190E-02 -1.71552477E-01  1.07289568E+00  1.00000000E+00  1.00000000E+00
  1.00000000E+00  3.98072123E-02  2.49002660E-01  8.10479727E-01  1.00000000E+00
  1.00000000E+00  1.00000000E+00  1.00000000E+00  1.00000000E+00  1.00000000E+00
  1.00000000E+00  1.00000000E+00  5.19808943E-04  4.02025621E-03  2.07128267E-02
  8.10105536E-02  2.35962985E-01  4.42653446E-01  3.57064423E-01 -4.42115008E-05
 -1.22591041E-03 -1.05517725E-02 -6.74452633E-02 -1.71198607E-01  1.07329856E+00
  1.00000000E+00  1.00000000E+00  1.00000000E+00  4.11634896E-02  2.57762836E-01
  8.02419274E-01  1.00000000E+00  1.00000000E+00  1.00000000E+00  1.00000000E+00
  1.00000000E+00  1.00000000E+00  1.00000000E+00  1.00000000E+00
Coordinates of each shell                  R   N=         195
  2.92502582E+00  3.16626902E+00  1.32320699E-31  2.92502582E+00  3.16626902E+00
  1.32320699E-31  2.92502582E+00  3.16626902E+00  1.32320699E-31  2.92502582E+00
  3.16626902E+00  1.32320699E-31  2.92502582E+00  3.16626902E+00  1.32320699E-31
  2.92502582E+00  3.16626902E+00  1.32320699E-31  2.92502582E+00  3.16626902E+00
  1.32320699E-31  2.92502582E+00  3.16626902E+00  1.32320699E-31  2.92502582E+00
  3.16626902E+00  1.32320699E-31  2.74777595E+00  1.36697914E+00  2.03554353E-31
  2.74777595E+00  1.36697914E+00  2.03554353E-31  2.74777595E+00  1.36697914E+00
  2.03554353E-31  2.74777595E+00  1.36697914E+00  2.03554353E-31  2.74777595E+00
  1.36697914E+00  2.03554353E-31  2.74777595E+00  1.36697914E+00  2.03554353E-31
  2.74777595E+00  1.36697914E+00  2.03554353E-31  2.74777595E+00  1.36697914E+00
  2.03554353E-31  2.74777595E+00  1.36697914E+00  2.03554353E-31  2.74777595E+00
  1.36697914E+00  2.03554353E-31  2.74777595E+00  1.36697914E+00  2.03554353E-31
  2.74777595E+00  1.36697914E+00  2.03554353E-31  2.74777595E+00  1.36697914E+00
  2.03554353E-31  2.74777595E+00  1.36697914E+00  2.03554353E-31  4.25758117E-18
  1.27252103E+00 -6.27401309E-32  4.25758117E-18  1.27252103E+00 -6.27401309E-32
  4.25758117E-18  1.27252103E+00 -6.27401309E-32  4.25758117E-18  1.27252103E+00
 -6.27401309E-32  4.25758117E-18  1.27252103E+00 -6.27401309E-32  4.25758117E-18
  1.27252103E+00 -6.27401309E-32  4.25758117E-18  1.27252103E+00 -6.27401309E-32
  4.25758117E-18  1.27252103E+00 -6.27401309E-32  4.25758117E-18  1.27252103E+00
 -6.27401309E-32  4.25758117E-18  1.27252103E+00 -6.27401309E-32  4.25758117E-18
  1.27252103E+00 -6.27401309E-32  4.25758117E-18  1.27252103E+00 -6.27401309E-32
  4.25758117E-18  1.27252103E+00 -6.27401309E-32  4.25758117E-18  1.27252103E+00
 -6.27401309E-32 -4.94262474E-01 -1.43951002E+00  2.22352808E-32 -4.94262474E-01
 -1.43951002E+00  2.22352808E-32 -4.94262474E-01 -1.43951002E+00  2.22352808E-32
 -4.94262474E-01 -1.43951002E+00  2.22352808E-32 -4.94262474E-01 -1.43951002E+00
  2.22352808E-32 -4.94262474E-01 -1.43951002E+00  2.22352808E-32 -4.94262474E-01
 -1.43951002E+00  2.22352808E-32 -4.94262474E-01 -1.43951002E+00  2.22352808E-32
 -4.94262474E-01 -1.43951002E+00  2.22352808E-32 -4.94262474E-01 -1.43951002E+00
  2.22352808E-32 -4.94262474E-01 -1.43951002E+00  2.22352808E-32 -4.94262474E-01
 -1.43951002E+00  2.22352808E-32 -4.94262474E-01 -1.43951002E+00  2.22352808E-32
 -4.94262474E-01 -1.43951002E+00  2.22352808E-32 -2.68092452E+00 -1.77571254E+00
 -1.76810180E-31 -2.68092452E+00 -1.77571254E+00 -1.76810180E-31 -2.68092452E+00
 -1.77571254E+00 -1.76810180E-31 -2.68092452E+00 -1.77571254E+00 -1.76810180E-31
 -2.68092452E+00 -1.77571254E+00 -1.76810180E-31 -2.68092452E+00 -1.77571254E+00
 -1.76810180E-31 -2.68092452E+00 -1.77571254E+00 -1.76810180E-31 -2.68092452E+00
 -1.77571254E+00 -1.76810180E-31 -2.68092452E+00 -1.77571254E+00 -1.76810180E-31
 -2.68092452E+00 -1.77571254E+00 -1.76810180E-31 -2.68092452E+00 -1.77571254E+00
 -1.76810180E-31 -2.68092452E+00 -1.77571254E+00 -1.76810180E-31 -2.68092452E+00
 -1.77571254E+00 -1.76810180E-31 -2.68092452E+00 -1.77571254E+00 -1.76810180E-31
Num ILSW                                   I              100
ILSW                                       I   N=         100
           0           0           0           0           2           0
           0           0           0           0           0          -1
           5           0           0           0           0           0
           0           0           0           0           0           0
           1           0           0           0           0           0
           0           0      100000           0          -1           0
           0           0           0           0           0           0
           0           0           0           1           0           0
           0 -2000000000           1           0           0           0
           0           0           4          52           0           0
           0           0           0           0           0           0
           0           0           0           5           0           1
           0           0           0           0           0           0
           0           0           0           0           0           0
           0           0           0           0           0           0
           0           0           0           0           0           0
           0           0           0           0
Num RLSW                                   I               52
RLSW                                       R   N=          52
  1.00000000E+00  1.00000000E+00  1.00000000E+00  1.00000000E+00  1.00000000E+00
  0.00000000E+00  0.00000000E+00  1.00000000E+00  0.00000000E+00  0.00000000E+00
  0.00000000E+00  0.00000000E+00  1.00000000E+00  0.00000000E+00  0.00000000E+00
  0.00000000E+00  0.00000000E+00  1.00000000E+00  0.00000000E+00  0.00000000E+00
  0.00000000E+00  0.00000000E+00  1.00000000E+00  0.00000000E+00  0.00000000E+00
  0.00000000E+00  0.00000000E+00  1.00000000E+00  0.00000000E+00  0.00000000E+00
  0.00000000E+00  0.00000000E+00  1.00000000E+00  0.00000000E+00  0.00000000E+00
  0.00000000E+00  0.00000000E+00  0.00000000E+00  1.00000000E+00  1.00000000E+00
  0.00000000E+00  1.00000000E+00  0.00000000E+00  0.00000000E+00  0.00000000E+00
  0.00000000E+00  0.00000000E+00  0.00000000E+00  0.00000000E+00  0.00000000E+00
  0.00000000E+00  0.00000000E+00
MxBond                                     I                2
NBond                                      I   N=           5
           1           2           2           2           1
IBond                                      I   N=          10
           2           0           1           3           2           4
           3           5           4           0
RBond                                      R   N=          10
  1.00000000E+00  0.00000000E+00  1.00000000E+00  1.00000000E+00  1.00000000E+00
  1.00000000E+00  1.00000000E+00  2.00000000E+00  2.00000000E+00  0.00000000E+00
Virial Ratio                               R      2.002271134900303E+00
SCF Energy                                 R     -2.795021301923559E+02
MP2 Energy                                 R     -2.804465942246394E+02
Total Energy                               R     -2.804465942246394E+02
Post-SCF wavefunction norm                 R      1.120012432319948E+00
RMS Density                                R      3.787831071900673E-09
Job Status                                 I                1
Nuclear derivative order                   I                0
External E-field                           R   N=          35
  0.00000000E+00  0.00000000E+00  0.00000000E+00  0.00000000E+00  0.00000000E+00
  0.00000000E+00  0.00000000E+00  0.00000000E+00  0.00000000E+00  0.00000000E+00
  0.00000000E+00  0.00000000E+00  0.00000000E+00  0.00000000E+00  0.00000000E+00
  0.00000000E+00  0.00000000E+00  0.00000000E+00  0.00000000E+00  0.00000000E+00
  0.00000000E+00  0.00000000E+00  0.00000000E+00  0.00000000E+00  0.00000000E+00
  0.00000000E+00  0.00000000E+00  0.00000000E+00  0.00000000E+00  0.00000000E+00
  0.00000000E+00  0.00000000E+00  0.00000000E+00  0.00000000E+00  0.00000000E+00
IOpCl                                      I                0
IROHF                                      I                0
Alpha Orbital Energies                     R   N=         207
 -2.06912149E+01 -2.06845334E+01 -2.06590149E+01 -1.58130886E+01 -1.62431893E+00
 -1.49728544E+00 -1.25683215E+00 -9.48352195E-01 -7.73837155E-01 -7.60150058E-01
 -7.12083927E-01 -6.81221481E-01 -6.20825207E-01 -5.90015567E-01 -4.85647451E-01
 -4.72836071E-01  2.98551872E-02  7.14842093E-02  8.58895677E-02  1.01684961E-01
  1.33865465E-01  1.33926643E-01  1.44567772E-01  1.54998072E-01  1.78078555E-01
  1.94141146E-01  1.99766786E-01  2.06369477E-01  2.20771544E-01  2.35081478E-01
  2.37264486E-01  2.66336221E-01  2.93651366E-01  3.04445494E-01  3.10928033E-01
  3.43330083E-01  3.49068623E-01  3.87370749E-01  4.23385453E-01  4.33413197E-01
  5.27240623E-01  5.29084291E-01  5.58460766E-01  5.81452253E-01  6.25805457E-01
  6.38265349E-01  6.74304504E-01  6.85583318E-01  7.06340811E-01  7.11599736E-01
  7.25134331E-01  7.29465503E-01  7.44915419E-01  7.91221714E-01  7.92219038E-01
  8.10503216E-01  8.12576797E-01  8.30756613E-01  8.68054151E-01  9.08027501E-01
  9.22563735E-01  9.26499409E-01  9.57601840E-01  9.76049814E-01  9.86276452E-01
  1.01902074E+00  1.05142200E+00  1.05486988E+00  1.08346714E+00  1.11956494E+00
  1.14264075E+00  1.18907206E+00  1.22152285E+00  1.23502867E+00  1.33847822E+00
  1.34981248E+00  1.38604092E+00  1.45691097E+00  1.49117332E+00  1.51106489E+00
  1.53769002E+00  1.56698160E+00  1.57897435E+00  1.61471340E+00  1.66304846E+00
  1.66904309E+00  1.70338516E+00  1.79348526E+00  1.83168413E+00  1.83443274E+00
  1.87788975E+00  1.91132163E+00  1.96249178E+00  1.99259957E+00  2.00819458E+00
  2.07783318E+00  2.12239674E+00  2.13186122E+00  2.14985484E+00  2.22509165E+00
  2.26326172E+00  2.26545466E+00  2.28960060E+00  2.31559313E+00  2.34470329E+00
  2.38859083E+00  2.42452200E+00  2.42984726E+00  2.45408575E+00  2.46303271E+00
  2.47732615E+00  2.50215706E+00  2.58486432E+00  2.59707305E+00  2.62039568E+00
  2.62623168E+00  2.63419518E+00  2.66578236E+00  2.75749076E+00  2.82093295E+00
  2.85617426E+00  2.88484649E+00  2.89363671E+00  2.92531931E+00  2.95772104E+00
  3.02716076E+00  3.06895425E+00  3.12001104E+00  3.20431606E+00  3.22764254E+00
  3.31837566E+00  3.34289419E+00  3.51653629E+00  3.64812487E+00  3.83859267E+00
  3.85795746E+00  4.15973704E+00  4.16722997E+00  4.18662689E+00  4.25882153E+00
  4.36225896E+00  4.39583169E+00  4.46736595E+00  4.52371325E+00  4.66309402E+00
  4.71532743E+00  4.80642789E+00  4.82421467E+00  4.84955830E+00  4.89598276E+00
  5.02319818E+00  5.07754373E+00  5.11390352E+00  5.15189437E+00  5.18589385E+00
  5.26078726E+00  5.27550070E+00  5.31108975E+00  5.35848645E+00  5.35977736E+00
  5.61291708E+00  5.67362094E+00  5.77290098E+00  5.83578428E+00  5.95878066E+00
  6.16599528E+00  6.30902920E+00  6.33644793E+00  6.39754132E+00  6.49359120E+00
  6.50541109E+00  6.61572351E+00  6.66683134E+00  6.69973504E+00  6.75711595E+00
  6.76310630E+00  6.83298672E+00  6.89821552E+00  7.02062010E+00  7.05751063E+00
  7.05879565E+00  7.09133813E+00  7.12681263E+00  7.15238222E+00  7.18161057E+00
  7.22815526E+00  7.26368494E+00  7.31940344E+00  7.32573202E+00  7.35163033E+00
  7.39884146E+00  7.43367362E+00  7.48444346E+00  7.60885102E+00  7.62050741E+00
  7.62936288E+00  7.66982788E+00  7.80382156E+00  7.88730077E+00  8.09809829E+00
  8.31816484E+00  8.42489670E+00  8.54869352E+00  1.33943345E+01  1.44049560E+01
  1.53445523E+01  1.61523849E+01
Alpha MO coefficients                      R   N=       42849
  9.33294793E-05 -6.43468589E-04 -7.35639691E-04 -4.90063786E-06 -2.02854480E-05
 -2.58641640E-05  0.00000000E+00 -6.99349511E-05  4.74246491E-05  0.00000000E+00
  6.89705000E-05  3.14149722E-05  0.00000000E+00  3.21738678E-05  0.00000000E+00
  0.00000000E+00 -5.09822650E-05  2.37962892E-05 -7.38877128E-06  0.00000000E+00
  0.00000000E+00 -1.41265247E-04  1.32423936E-04  4.39414236E-03 -2.85018002E-04
  5.83894571E-06  1.55402486E-03  1.83865484E-03  1.06499590E-04  7.30939032E-06
  0.00000000E+00 -6.17222654E-04 -4.15957570E-05  0.00000000E+00 -1.06798976E-03
  8.02631131E-04  0.00000000E+00 -3.97790308E-04  7.45666583E-05  0.00000000E+00
  2.92643190E-05  0.00000000E+00  0.00000000E+00 -5.41732163E-05  5.05436581E-06
 -3.79495922E-04  0.00000000E+00  0.00000000E+00  7.44681191E-04 -2.63265350E-05
 -4.46722326E-04  0.00000000E+00  0.00000000E+00  2.41467107E-04 -4.57801029E-06
  0.00000000E+00  8.04793194E-05  1.28468507E-05  0.00000000E+00  0.00000000E+00
 -1.09407458E-04 -3.08961902E-06  0.00000000E+00  2.52941182E-04 -2.89394152E-05
  0.00000000E+00  0.00000000E+00 -3.59408792E-04  5.28862015E-05  9.76911950E-01
 -9.21718618E-03  4.33189891E-02  2.04461190E-03 -9.22668575E-04  1.49541275E-03
 -1.35461543E-03  0.00000000E+00 -1.43851410E-03  1.38332687E-03  0.00000000E+00
  8.20877164E-05 -1.16303455E-03  0.00000000E+00 -1.46296331E-04 -2.36396687E-05
  0.00000000E+00  4.63197295E-05  0.00000000E+00  0.00000000E+00 -3.52509334E-05
  2.15976635E-05  7.47846766E-04  0.00000000E+00  0.00000000E+00 -2.34776948E-04
 -3.89900339E-04 -3.59230985E-04  0.00000000E+00  0.00000000E+00 -3.13823805E-04
 -3.74545861E-04  0.00000000E+00  4.74626954E-05 -4.90878256E-05  0.00000000E+00
  0.00000000E+00 -3.91450016E-05 -1.56686746E-05  0.00000000E+00  2.41389916E-05
  2.26389138E-05  0.00000000E+00  0.00000000E+00 -3.05989238E-04 -1.40493747E-04
  3.90073113E-05  4.57190367E-05 -2.64154091E-04 -6.98553465E-04 -1.40453800E-04
 -2.67497299E-05 -9.73668815E-05  0.00000000E+00  2.66359970E-04  7.08123388E-04
  0.00000000E+00 -8.33116125E-04 -4.75320975E-04  0.00000000E+00 -1.19850862E-04
 -2.58611366E-05  0.00000000E+00 -1.81488724E-05  0.00000000E+00  0.00000000E+00
 -2.95605906E-05  1.49433722E-05 -3.28688887E-04  0.00000000E+00  0.00000000E+00
 -8.27069595E-04  1.27414582E-04 -3.75337332E-05  0.00000000E+00  0.00000000E+00
  9.78189936E-05 -1.15391455E-04  0.00000000E+00 -2.03072145E-05 -1.19847263E-04
  0.00000000E+00  0.00000000E+00 -6.26786055E-05 -1.38158060E-04  0.00000000E+00
  1.53225939E-06 -1.53437318E-04  0.00000000E+00  0.00000000E+00  4.34932444E-05
 -4.15606153E-04 -2.53720023E-03  1.22160063E-04 -1.21432249E-04 -2.48026816E-04
  1.29138258E-04 -7.73879049E-06 -2.75664898E-05  0.00000000E+00  6.82683300E-05
  1.62544465E-04  0.00000000E+00  2.30308043E-04  1.97864860E-04  0.00000000E+00
  1.24712347E-04  2.09116875E-05  0.00000000E+00 -3.30161553E-06  0.00000000E+00
  0.00000000E+00 -1.78658013E-05  1.30804337E-06  8.95392686E-07  0.00000000E+00
  0.00000000E+00  7.94546714E-05  8.67865757E-05 -9.95933592E-05  0.00000000E+00
  0.00000000E+00  1.65753758E-04  1.60543581E-04  0.00000000E+00  1.59628079E-05
 -3.53204030E-06  0.00000000E+00  0.00000000E+00 -4.40622138E-06 -1.19689197E-05
  0.00000000E+00 -3.36316991E-05  4.54291382E-05  0.00000000E+00  0.00000000E+00
  8.32646958E-05  8.97713156E-05  3.84990472E-05 -1.01570574E-03 -5.07222878E-04
 -1.13372215E-05 -2.24887421E-05  1.74204480E-05  0.00000000E+00 -2.36760455E-06
  2.74567707E-04  0.00000000E+00 -4.30542399E-05  1.36153237E-04  0.00000000E+00
  2.62577627E-05  0.00000000E+00  0.00000000E+00  1.19363312E-05  1.09072707E-05
 -2.88422110E-05  0.00000000E+00  0.00000000E+00  1.05285167E-05  3.66026635E-05
  1.08060562E-04  8.60566276E-05 -2.78438874E-05  7.79344867E-04  6.71793390E-04
  1.02284383E-05  2.51214935E-06  0.00000000E+00 -7.21760194E-05  1.86288730E-05
  0.00000000E+00  3.37905683E-04  9.17034837E-04  0.00000000E+00  2.59199056E-06
  8.35223992E-05  0.00000000E+00 -2.32789185E-06  0.00000000E+00  0.00000000E+00
 -3.69240727E-07 -6.08789617E-06 -3.62832514E-05  0.00000000E+00  0.00000000E+00
 -1.94502043E-05  8.47458874E-05 -2.36930457E-05  0.00000000E+00  0.00000000E+00
 -2.69849531E-04 -1.62809818E-04  0.00000000E+00  9.16627542E-06  5.97195369E-06
  0.00000000E+00  0.00000000E+00  2.56413712E-06 -1.86397296E-05  0.00000000E+00
 -4.04664673E-05 -3.80388644E-05  0.00000000E+00  0.00000000E+00 -7.73396418E-05
  2.08141300E-05  2.57620183E-03  3.94355895E-05  8.96339282E-05 -6.94153271E-05
 -4.70250388E-04  7.31738828E-06  1.58710448E-05  0.00000000E+00 -6.27217107E-05
 -5.57323175E-05  0.00000000E+00  2.34122346E-04 -1.89796758E-04  0.00000000E+00
 -1.89150186E-04 -6.52976860E-05  0.00000000E+00 -8.71470960E-06  0.00000000E+00
  0.00000000E+00  2.24012310E-05  1.98140226E-05  4.51175790E-06  0.00000000E+00
  0.00000000E+00 -1.17698216E-04 -4.67501794E-05 -4.10627273E-06  0.00000000E+00
  0.00000000E+00 -2.22999030E-04 -2.07154284E-04  0.00000000E+00  3.30077027E-06
 -5.32731565E-07  0.00000000E+00  0.00000000E+00  1.72065202E-06 -1.36340014E-05
  0.00000000E+00 -4.65620095E-05  3.46149571E-06  0.00000000E+00  0.00000000E+00
 -7.66469726E-05  1.88016531E-04  2.58702784E-04  1.46525693E-03 -7.79789507E-05
 -1.53918702E-03  3.93565642E-04 -1.44425565E-04  1.52821230E-07  0.00000000E+00
 -2.09035842E-03 -4.04271160E-04  0.00000000E+00  1.03977591E-03  7.62661247E-04
  0.00000000E+00 -1.71443135E-04  5.37865208E-05  0.00000000E+00 -1.23351278E-04
  0.00000000E+00  0.00000000E+00  2.43123476E-04  9.40753706E-05 -4.42415553E-04
  0.00000000E+00  0.00000000E+00  8.99148598E-04 -6.61332011E-05  1.16002405E-05
  0.00000000E+00  0.00000000E+00 -3.38277965E-04 -1.22723965E-04  0.00000000E+00
 -1.24506604E-06  1.52984041E-05  0.00000000E+00  0.00000000E+00  1.88335537E-05
  1.32838221E-05  0.00000000E+00  1.64503133E-04 -7.18802732E-05  0.00000000E+00
  0.00000000E+00 -2.40526986E-04  4.25316477E-05  9.76649476E-01 -9.84825894E-03
  4.35679643E-02  4.50136003E-03 -4.45196432E-04  2.14825537E-03  4.81196030E-04
  0.00000000E+00 -2.38425157E-03 -6.04240708E-04  0.00000000E+00  1.13897107E-03
 -3.15821039E-06  0.00000000E+00  5.07354225E-06 -4.16156442E-05  0.00000000E+00
 -2.32366472E-04  0.00000000E+00  0.00000000E+00  1.02752119E-04  3.18569935E-05
  3.90683074E-04  0.00000000E+00  0.00000000E+00 -8.34185931E-04 -4.19450997E-04
 -1.53460318E-04  0.00000000E+00  0.00000000E+00  2.55657004E-04  1.70663567E-05
  0.00000000E+00  5.22732196E-05  1.77125945E-05  0.00000000E+00  0.00000000E+00
 -2.21281592E-05 -1.32922273E-05  0.00000000E+00  1.38419547E-04  9.24293106E-06
  0.00000000E+00  0.00000000E+00 -1.89871868E-04 -1.40733207E-04  5.00744203E-04
  1.77079036E-03 -6.61607514E-05  7.17679586E-06 -4.03391654E-05 -2.08201113E-04
  0.00000000E+00  1.24856312E-04 -1.13323997E-03  0.00000000E+00  3.17826596E-04
 -2.87534992E-04  0.00000000E+00  2.36421651E-05  0.00000000E+00  0.00000000E+00
  1.22662419E-04  9.95180750E-06 -1.52770881E-04  0.00000000E+00  0.00000000E+00
 -5.26578660E-04 -2.32976454E-05  9.76825610E-01 -9.12437743E-03  4.34628979E-02
  4.02408271E-04 -9.85859273E-04 -1.56096827E-03  1.44391826E-03  0.00000000E+00
  1.58361567E-03 -1.19487159E-03  0.00000000E+00 -5.25273254E-04 -6.97452171E-04
  0.00000000E+00  4.68670103E-05 -1.17106903E-05  0.00000000E+00  2.24592578E-05
  0.00000000E+00  0.00000000E+00 -1.28835251E-04 -1.61628075E-06  7.37295772E-04
  0.00000000E+00  0.00000000E+00 -2.40536541E-04 -2.23114710E-04 -2.81467895E-04
  0.00000000E+00  0.00000000E+00  1.31901012E-04  1.32913043E-04  0.00000000E+00
 -6.50501231E-05 -6.69626943E-06  0.00000000E+00  0.00000000E+00  1.49391537E-05
 -1.02973517E-06  0.00000000E+00 -3.32234264E-06  1.23602703E-04  0.00000000E+00
  0.00000000E+00  2.55659495E-04  9.22160080E-05 -4.48782325E-03 -2.16987613E-04