title                                                                   
SP        RMP2-FC                                                     Aug-CC-pVTZ         
Number of atoms                            I                5
Info1-9                                    I   N=           9
          33          24           0           0           0         110
           1           2           1
Full Title                                 C   N=           1
title       
Route                                      C   N=           4
#p SP mp2/aug-cc-pvtz density=current           
Charge                                     I                0
Multiplicity                               I                1
Number of electrons                        I               32
Number of alpha electrons                  I               16
Number of beta electrons                   I               16
Number of basis functions                  I              207
Number of independent functions            I              207
Number of point charges in /Mol/           I                0
Number of translation vectors              I                0
Atomic numbers                             I   N=           5
           1           8           8           7           8
Nuclear charges                            R   N=           5
  1.00000000E+00  8.00000000E+00  8.00000000E+00  7.00000000E+00  8.00000000E+00
Current cartesian coordinates              R   N=          15
  2.93360917E+00  3.15658871E+00 -1.94399114E-31  2.74807313E+00  1.33491425E+00
 -1.46831900E-31  8.21392723E-17  1.24953801E+00 -3.18686550E-32 -4.94406950E-01
 -1.41336109E+00  3.40094273E-32 -2.68216819E+00 -1.74233490E+00  1.83450548E-31
Number of symbols in /Mol/                 I                0
Force Field                                I                0
Atom Types                                 C   N=           5
                                                            
Int Atom Types                             I   N=           5
           0           0           0           0           0
MM charges                                 R   N=           5
  0.00000000E+00  0.00000000E+00  0.00000000E+00  0.00000000E+00  0.00000000E+00
Integer atomic weights                     I   N=           5
           1          16          16          14          16
Real atomic weights                        R   N=           5
  1.00782504E+00  1.59949146E+01  1.59949146E+01  1.40030740E+01  1.59949146E+01
Atom fragment info                         I   N=           5
           0           0           0           0           0
Atom residue num                           I   N=           5
           0           0           0           0           0
Nuclear spins                              I   N=           5
           1           0           0           2           0
Nuclear ZEff                               R   N=           5
 -1.00000000E+00 -5.60000000E+00 -5.60000000E+00 -4.55000000E+00 -5.60000000E+00
Nuclear ZNuc                               R   N=           5
  1.00000000E+00  8.00000000E+00  8.00000000E+00  7.00000000E+00  8.00000000E+00
Nuclear QMom                               R   N=           5
  0.00000000E+00  0.00000000E+00  0.00000000E+00  2.04400000E+00  0.00000000E+00
Nuclear GFac                               R   N=           5
  2.79284600E+00  0.00000000E+00  0.00000000E+00  4.03761000E-01  0.00000000E+00
MicOpt                                     I   N=           5
          -1          -1          -1          -1          -1
Number of residues                         I                0
Number of secondary structures             I                0
SymInf integers                            I   N=          26
           1           2           1           1           1           1
           1          -1           0           0           0           0
           0           0           0           0           0           0
           0           0           0           0           0           0
           0           0
RotTr to input orientation                 R   N=          12
 -9.94853379E-01 -9.92250212E-17 -1.01324996E-01  1.01324996E-01 -7.17773849E-17
 -9.94853379E-01  9.14415044E-17 -1.00000000E+00  8.14619488E-17  2.59866966E+00
  0.00000000E+00  3.43759088E+00
Number of contracted shells                I               65
Number of primitive shells                 I              119
Pure/Cartesian d shells                    I                0
Pure/Cartesian f shells                    I                0
Highest angular momentum                   I                3
Largest degree of contraction              I                7
Shell types                                I   N=          65
           0           0           0           0           1           1
           1          -2          -2           0           0           0
           0           0           1           1           1           1
          -2          -2          -2          -3          -3           0
           0           0           0           0           1           1
           1           1          -2          -2          -2          -3
          -3           0           0           0           0           0
           1           1           1           1          -2          -2
          -2          -3          -3           0           0           0
           0           0           1           1           1           1
          -2          -2          -2          -3          -3
Number of primitives per shell             I   N=          65
           3           1           1           1           1           1
           1           1           1           7           6           1
           1           1           3           1           1           1
           1           1           1           1           1           7
           6           1           1           1           3           1
           1           1           1           1           1           1
           1           7           6           1           1           1
           3           1           1           1           1           1
           1           1           1           7           6           1
           1           1           3           1           1           1
           1           1           1           1           1
Shell to atom map                          I   N=          65
           1           1           1           1           1           1
           1           1           1           2           2           2
           2           2           2           2           2           2
           2           2           2           2           2           3
           3           3           3           3           3           3
           3           3           3           3           3           3
           3           4           4           4           4           4
           4           4           4           4           4           4
           4           4           4           5           5           5
           5           5           5           5           5           5
           5           5           5           5           5
Primitive exponents                        R   N=         119
  3.38700000E+01  5.09500000E+00  1.15900000E+00  3.25800000E-01  1.02700000E-01
  2.52600000E-02  1.40700000E+00  3.88000000E-01  1.02000000E-01  1.05700000E+00
  2.47000000E-01  1.53300000E+04  2.29900000E+03  5.22400000E+02  1.47300000E+02
  4.75500000E+01  1.67600000E+01  6.20700000E+00  5.22400000E+02  1.47300000E+02
  4.75500000E+01  1.67600000E+01  6.20700000E+00  6.88200000E-01  1.75200000E+00
  2.38400000E-01  7.37600000E-02  3.44600000E+01  7.74900000E+00  2.28000000E+00
  7.15600000E-01  2.14000000E-01  5.97400000E-02  2.31400000E+00  6.45000000E-01
  2.14000000E-01  1.42800000E+00  5.00000000E-01  1.53300000E+04  2.29900000E+03
  5.22400000E+02  1.47300000E+02  4.75500000E+01  1.67600000E+01  6.20700000E+00
  5.22400000E+02  1.47300000E+02  4.75500000E+01  1.67600000E+01  6.20700000E+00
  6.88200000E-01  1.75200000E+00  2.38400000E-01  7.37600000E-02  3.44600000E+01
  7.74900000E+00  2.28000000E+00  7.15600000E-01  2.14000000E-01  5.97400000E-02
  2.31400000E+00  6.45000000E-01  2.14000000E-01  1.42800000E+00  5.00000000E-01
  1.14200000E+04  1.71200000E+03  3.89300000E+02  1.10000000E+02  3.55700000E+01
  1.25400000E+01  4.64400000E+00  3.89300000E+02  1.10000000E+02  3.55700000E+01
  1.25400000E+01  4.64400000E+00  5.11800000E-01  1.29300000E+00  1.78700000E-01
  5.76000000E-02  2.66300000E+01  5.94800000E+00  1.74200000E+00  5.55000000E-01
  1.72500000E-01  4.91000000E-02  1.65400000E+00  4.69000000E-01  1.51000000E-01
  1.09300000E+00  3.64000000E-01  1.53300000E+04  2.29900000E+03  5.22400000E+02
  1.47300000E+02  4.75500000E+01  1.67600000E+01  6.20700000E+00  5.22400000E+02
  1.47300000E+02  4.75500000E+01  1.67600000E+01  6.20700000E+00  6.88200000E-01
  1.75200000E+00  2.38400000E-01  7.37600000E-02  3.44600000E+01  7.74900000E+00
  2.28000000E+00  7.15600000E-01  2.14000000E-01  5.97400000E-02  2.31400000E+00
  6.45000000E-01  2.14000000E-01  1.42800000E+00  5.00000000E-01
Contraction coefficients                   R   N=         119
  2.54948632E-02  1.90362766E-01  8.52162022E-01  1.00000000E+00  1.00000000E+00
  1.00000000E+00  1.00000000E+00  1.00000000E+00  1.00000000E+00  1.00000000E+00
  1.00000000E+00  5.19808943E-04  4.02025621E-03  2.07128267E-02  8.10105536E-02
  2.35962985E-01  4.42653446E-01  3.57064423E-01 -4.42115008E-05 -1.22591041E-03
 -1.05517725E-02 -6.74452633E-02 -1.71198607E-01  1.07329856E+00  1.00000000E+00
  1.00000000E+00  1.00000000E+00  4.11634896E-02  2.57762836E-01  8.02419274E-01
  1.00000000E+00  1.00000000E+00  1.00000000E+00  1.00000000E+00  1.00000000E+00
  1.00000000E+00  1.00000000E+00  1.00000000E+00  5.19808943E-04  4.02025621E-03
  2.07128267E-02  8.10105536E-02  2.35962985E-01  4.42653446E-01  3.57064423E-01
 -4.42115008E-05 -1.22591041E-03 -1.05517725E-02 -6.74452633E-02 -1.71198607E-01
  1.07329856E+00  1.00000000E+00  1.00000000E+00  1.00000000E+00  4.11634896E-02
  2.57762836E-01  8.02419274E-01  1.00000000E+00  1.00000000E+00  1.00000000E+00
  1.00000000E+00  1.00000000E+00  1.00000000E+00  1.00000000E+00  1.00000000E+00
  5.34563860E-04  4.13435660E-03  2.12335358E-02  8.25006224E-02  2.38138871E-01
  4.42551547E-01  3.53757422E-01 -4.89867350E-05 -1.19527323E-03 -1.03490714E-02
 -6.48680190E-02 -1.71552477E-01  1.07289568E+00  1.00000000E+00  1.00000000E+00
  1.00000000E+00  3.98072123E-02  2.49002660E-01  8.10479727E-01  1.00000000E+00
  1.00000000E+00  1.00000000E+00  1.00000000E+00  1.00000000E+00  1.00000000E+00
  1.00000000E+00  1.00000000E+00  5.19808943E-04  4.02025621E-03  2.07128267E-02
  8.10105536E-02  2.35962985E-01  4.42653446E-01  3.57064423E-01 -4.42115008E-05
 -1.22591041E-03 -1.05517725E-02 -6.74452633E-02 -1.71198607E-01  1.07329856E+00
  1.00000000E+00  1.00000000E+00  1.00000000E+00  4.11634896E-02  2.57762836E-01
  8.02419274E-01  1.00000000E+00  1.00000000E+00  1.00000000E+00  1.00000000E+00
  1.00000000E+00  1.00000000E+00  1.00000000E+00  1.00000000E+00
Coordinates of each shell                  R   N=         195
  2.93360917E+00  3.15658871E+00 -9.35048390E-32  2.93360917E+00  3.15658871E+00
 -9.35048390E-32  2.93360917E+00  3.15658871E+00 -9.35048390E-32  2.93360917E+00
  3.15658871E+00 -9.35048390E-32  2.93360917E+00  3.15658871E+00 -9.35048390E-32
  2.93360917E+00  3.15658871E+00 -9.35048390E-32  2.93360917E+00  3.15658871E+00
 -9.35048390E-32  2.93360917E+00  3.15658871E+00 -9.35048390E-32  2.93360917E+00
  3.15658871E+00 -9.35048390E-32  2.74807313E+00  1.33491425E+00 -7.76460071E-32
  2.74807313E+00  1.33491425E+00 -7.76460071E-32  2.74807313E+00  1.33491425E+00
 -7.76460071E-32  2.74807313E+00  1.33491425E+00 -7.76460071E-32  2.74807313E+00
  1.33491425E+00 -7.76460071E-32  2.74807313E+00  1.33491425E+00 -7.76460071E-32
  2.74807313E+00  1.33491425E+00 -7.76460071E-32  2.74807313E+00  1.33491425E+00
 -7.76460071E-32  2.74807313E+00  1.33491425E+00 -7.76460071E-32  2.74807313E+00
  1.33491425E+00 -7.76460071E-32  2.74807313E+00  1.33491425E+00 -7.76460071E-32
  2.74807313E+00  1.33491425E+00 -7.76460071E-32  2.74807313E+00  1.33491425E+00
 -7.76460071E-32  2.74807313E+00  1.33491425E+00 -7.76460071E-32  1.41630243E-17
  1.24953801E+00 -7.66123907E-33  1.41630243E-17  1.24953801E+00 -7.66123907E-33
  1.41630243E-17  1.24953801E+00 -7.66123907E-33  1.41630243E-17  1.24953801E+00
 -7.66123907E-33  1.41630243E-17  1.24953801E+00 -7.66123907E-33  1.41630243E-17
  1.24953801E+00 -7.66123907E-33  1.41630243E-17  1.24953801E+00 -7.66123907E-33
  1.41630243E-17  1.24953801E+00 -7.66123907E-33  1.41630243E-17  1.24953801E+00
 -7.66123907E-33  1.41630243E-17  1.24953801E+00 -7.66123907E-33  1.41630243E-17
  1.24953801E+00 -7.66123907E-33  1.41630243E-17  1.24953801E+00 -7.66123907E-33
  1.41630243E-17  1.24953801E+00 -7.66123907E-33  1.41630243E-17  1.24953801E+00
 -7.66123907E-33 -4.94406950E-01 -1.41336109E+00  2.11624920E-32 -4.94406950E-01
 -1.41336109E+00  2.11624920E-32 -4.94406950E-01 -1.41336109E+00  2.11624920E-32
 -4.94406950E-01 -1.41336109E+00  2.11624920E-32 -4.94406950E-01 -1.41336109E+00
  2.11624920E-32 -4.94406950E-01 -1.41336109E+00  2.11624920E-32 -4.94406950E-01
 -1.41336109E+00  2.11624920E-32 -4.94406950E-01 -1.41336109E+00  2.11624920E-32
 -4.94406950E-01 -1.41336109E+00  2.11624920E-32 -4.94406950E-01 -1.41336109E+00
  2.11624920E-32 -4.94406950E-01 -1.41336109E+00  2.11624920E-32 -4.94406950E-01
 -1.41336109E+00  2.11624920E-32 -4.94406950E-01 -1.41336109E+00  2.11624920E-32
 -4.94406950E-01 -1.41336109E+00  2.11624920E-32 -2.68216819E+00 -1.74233490E+00
  7.84781706E-32 -2.68216819E+00 -1.74233490E+00  7.84781706E-32 -2.68216819E+00
 -1.74233490E+00  7.84781706E-32 -2.68216819E+00 -1.74233490E+00  7.84781706E-32
 -2.68216819E+00 -1.74233490E+00  7.84781706E-32 -2.68216819E+00 -1.74233490E+00
  7.84781706E-32 -2.68216819E+00 -1.74233490E+00  7.84781706E-32 -2.68216819E+00
 -1.74233490E+00  7.84781706E-32 -2.68216819E+00 -1.74233490E+00  7.84781706E-32
 -2.68216819E+00 -1.74233490E+00  7.84781706E-32 -2.68216819E+00 -1.74233490E+00
  7.84781706E-32 -2.68216819E+00 -1.74233490E+00  7.84781706E-32 -2.68216819E+00
 -1.74233490E+00  7.84781706E-32 -2.68216819E+00 -1.74233490E+00  7.84781706E-32
Num ILSW                                   I              100
ILSW                                       I   N=         100
           0           0           0           0           2           0
           0           0           0           0           0          -1
           5           0           0           0           0           0
           0           0           0           0           0           0
           1           0           0           0           0           0
           0           0      100000           0          -1           0
           0           0           0           0           0           0
           0           0           0           1           0           0
           0 -2000000000           1           0           0           0
           0           0           4          52           0           0
           0           0           0           0           0           0
           0           0           0           5           0           1
           0           0           0           0           0           0
           0           0           0           0           0           0
           0           0           0           0           0           0
           0           0           0           0           0           0
           0           0           0           0
Num RLSW                                   I               52
RLSW                                       R   N=          52
  1.00000000E+00  1.00000000E+00  1.00000000E+00  1.00000000E+00  1.00000000E+00
  0.00000000E+00  0.00000000E+00  1.00000000E+00  0.00000000E+00  0.00000000E+00
  0.00000000E+00  0.00000000E+00  1.00000000E+00  0.00000000E+00  0.00000000E+00
  0.00000000E+00  0.00000000E+00  1.00000000E+00  0.00000000E+00  0.00000000E+00
  0.00000000E+00  0.00000000E+00  1.00000000E+00  0.00000000E+00  0.00000000E+00
  0.00000000E+00  0.00000000E+00  1.00000000E+00  0.00000000E+00  0.00000000E+00
  0.00000000E+00  0.00000000E+00  1.00000000E+00  0.00000000E+00  0.00000000E+00
  0.00000000E+00  0.00000000E+00  0.00000000E+00  1.00000000E+00  1.00000000E+00
  0.00000000E+00  1.00000000E+00  0.00000000E+00  0.00000000E+00  0.00000000E+00
  0.00000000E+00  0.00000000E+00  0.00000000E+00  0.00000000E+00  0.00000000E+00
  0.00000000E+00  0.00000000E+00
MxBond                                     I                2
NBond                                      I   N=           5
           1           2           2           2           1
IBond                                      I   N=          10
           2           0           1           3           2           4
           3           5           4           0
RBond                                      R   N=          10
  1.00000000E+00  0.00000000E+00  1.00000000E+00  1.00000000E+00  1.00000000E+00
  1.00000000E+00  1.00000000E+00  2.00000000E+00  2.00000000E+00  0.00000000E+00
Virial Ratio                               R      2.002206171659188E+00
SCF Energy                                 R     -2.795039739084194E+02
MP2 Energy                                 R     -2.804465929002165E+02
Total Energy                               R     -2.804465929002165E+02
Post-SCF wavefunction norm                 R      1.119164010821312E+00
RMS Density                                R      3.469137079770191E-09
Job Status                                 I                1
Nuclear derivative order                   I                0
External E-field                           R   N=          35
  0.00000000E+00  0.00000000E+00  0.00000000E+00  0.00000000E+00  0.00000000E+00
  0.00000000E+00  0.00000000E+00  0.00000000E+00  0.00000000E+00  0.00000000E+00
  0.00000000E+00  0.00000000E+00  0.00000000E+00  0.00000000E+00  0.00000000E+00
  0.00000000E+00  0.00000000E+00  0.00000000E+00  0.00000000E+00  0.00000000E+00
  0.00000000E+00  0.00000000E+00  0.00000000E+00  0.00000000E+00  0.00000000E+00
  0.00000000E+00  0.00000000E+00  0.00000000E+00  0.00000000E+00  0.00000000E+00
  0.00000000E+00  0.00000000E+00  0.00000000E+00  0.00000000E+00  0.00000000E+00
IOpCl                                      I                0
IROHF                                      I                0
Alpha Orbital Energies                     R   N=         207
 -2.06952086E+01 -2.06781865E+01 -2.06630985E+01 -1.58087493E+01 -1.62586442E+00
 -1.49917034E+00 -1.26214670E+00 -9.46256972E-01 -7.74888457E-01 -7.62327160E-01
 -7.16441619E-01 -6.78053464E-01 -6.19097612E-01 -5.90728966E-01 -4.87771019E-01
 -4.73400970E-01  2.89240240E-02  7.49831728E-02  8.63908614E-02  1.01987294E-01
  1.33729219E-01  1.34064477E-01  1.43562595E-01  1.54029537E-01  1.77695010E-01
  1.94203787E-01  1.99943787E-01  2.09417611E-01  2.20022160E-01  2.34275798E-01
  2.37704913E-01  2.66136049E-01  3.01748378E-01  3.03330093E-01  3.13599884E-01
  3.45337266E-01  3.50953673E-01  3.88734229E-01  4.21029807E-01  4.30814547E-01
  5.28555729E-01  5.30304812E-01  5.61376857E-01  5.83018783E-01  6.27798676E-01
  6.39820527E-01  6.75172040E-01  6.84355313E-01  7.05406532E-01  7.10570135E-01
  7.23834072E-01  7.27682295E-01  7.43849563E-01  7.91126991E-01  7.93213153E-01
  8.10957732E-01  8.11345048E-01  8.31912470E-01  8.70116326E-01  9.08382196E-01
  9.20988288E-01  9.28200735E-01  9.54183242E-01  9.81104786E-01  9.83640618E-01
  1.01439117E+00  1.05320209E+00  1.05608083E+00  1.08479849E+00  1.11961093E+00
  1.14387310E+00  1.19082592E+00  1.22145951E+00  1.23336723E+00  1.34177502E+00
  1.35525145E+00  1.38329396E+00  1.45738351E+00  1.48793472E+00  1.50774728E+00
  1.53968981E+00  1.56989095E+00  1.58475852E+00  1.61456919E+00  1.66585553E+00
  1.67013438E+00  1.70566734E+00  1.79332260E+00  1.83269110E+00  1.83912883E+00
  1.87774206E+00  1.91327861E+00  1.95635947E+00  1.99731935E+00  2.00782866E+00
  2.08605337E+00  2.12370528E+00  2.13559862E+00  2.14642435E+00  2.22944064E+00
  2.26279424E+00  2.26454896E+00  2.29410558E+00  2.31507323E+00  2.35050404E+00
  2.38592404E+00  2.42811258E+00  2.43464182E+00  2.45773520E+00  2.46599585E+00
  2.48078828E+00  2.50524205E+00  2.58721871E+00  2.59872958E+00  2.62672711E+00
  2.62720013E+00  2.63265101E+00  2.67074237E+00  2.76182940E+00  2.83594715E+00
  2.86682236E+00  2.89249736E+00  2.89367428E+00  2.94476515E+00  2.95931195E+00
  3.03508081E+00  3.07782303E+00  3.13005524E+00  3.20086385E+00  3.23308779E+00
  3.32124090E+00  3.34925975E+00  3.52100299E+00  3.65309464E+00  3.85054391E+00
  3.85133615E+00  4.14882353E+00  4.15790742E+00  4.18801674E+00  4.26912242E+00
  4.35146254E+00  4.39433543E+00  4.46193240E+00  4.52233892E+00  4.67106890E+00
  4.71384506E+00  4.80988898E+00  4.82545274E+00  4.84536364E+00  4.89826548E+00
  5.03177101E+00  5.08518165E+00  5.11238277E+00  5.14375405E+00  5.18618347E+00
  5.24935376E+00  5.28103217E+00  5.31383475E+00  5.33253641E+00  5.36595230E+00
  5.61173698E+00  5.67829067E+00  5.78409065E+00  5.82738757E+00  5.96372880E+00
  6.17967844E+00  6.30915066E+00  6.34835215E+00  6.40078482E+00  6.49966146E+00
  6.51091966E+00  6.61476520E+00  6.66667661E+00  6.70937410E+00  6.75530517E+00
  6.76295205E+00  6.83955643E+00  6.90710532E+00  7.02050131E+00  7.05481003E+00
  7.06090525E+00  7.08982912E+00  7.13233083E+00  7.15698630E+00  7.18269970E+00
  7.23633583E+00  7.24007472E+00  7.30294310E+00  7.32963945E+00  7.35418312E+00
  7.40708366E+00  7.44333940E+00  7.49147565E+00  7.61269125E+00  7.62887177E+00
  7.64907666E+00  7.68168261E+00  7.79910984E+00  7.89451883E+00  8.12383368E+00
  8.32560653E+00  8.40900711E+00  8.55690785E+00  1.34642309E+01  1.45385037E+01
  1.51843838E+01  1.62042850E+01
Alpha MO coefficients                      R   N=       42849
  9.02841971E-05 -6.01486486E-04 -6.85286923E-04 -4.05418060E-06 -1.98439180E-05
 -2.70353790E-05  0.00000000E+00 -3.72367563E-05  4.80883382E-05  0.00000000E+00
  8.48518274E-05  2.28545991E-05  0.00000000E+00  3.10034290E-05  0.00000000E+00
  0.00000000E+00 -5.09125048E-05  1.99382976E-05 -5.94548759E-06  0.00000000E+00
  0.00000000E+00 -1.37054779E-04  1.18812619E-04  4.41008783E-03 -2.84587813E-04
  8.04614145E-06  1.57442745E-03  1.81831770E-03  1.06240497E-04  6.85250561E-06
  0.00000000E+00 -6.19546607E-04 -3.58366468E-05  0.00000000E+00 -1.14875047E-03
  7.71646901E-04  0.00000000E+00 -4.07779958E-04  6.09839445E-05  0.00000000E+00
  2.89539381E-05  0.00000000E+00  0.00000000E+00 -5.35093507E-05  6.99658814E-06
 -3.77833876E-04  0.00000000E+00  0.00000000E+00  7.39810994E-04 -4.36619135E-05
 -4.44898731E-04  0.00000000E+00  0.00000000E+00  2.60339190E-04 -2.66234170E-05
  0.00000000E+00  7.98134221E-05  1.23864746E-05  0.00000000E+00  0.00000000E+00
 -1.09331305E-04 -2.34102376E-06  0.00000000E+00  2.54835430E-04 -2.85165444E-05
  0.00000000E+00  0.00000000E+00 -3.46810535E-04  5.76744742E-05  9.76898098E-01
 -9.23360267E-03  4.33535612E-02  1.82857809E-03 -1.01307135E-03  1.47647091E-03
 -1.41474512E-03  0.00000000E+00 -1.40478461E-03  1.47350599E-03  0.00000000E+00
  4.55464046E-05 -1.09044262E-03  0.00000000E+00 -1.33910389E-04  3.17053424E-06
  0.00000000E+00  3.91670626E-05  0.00000000E+00  0.00000000E+00 -4.20623272E-05
  2.36366474E-05  7.70454466E-04  0.00000000E+00  0.00000000E+00 -1.95109194E-04
 -4.06091743E-04 -3.40686141E-04  0.00000000E+00  0.00000000E+00 -3.13050656E-04
 -3.79923840E-04  0.00000000E+00  4.50751039E-05 -5.15732935E-05  0.00000000E+00
  0.00000000E+00 -4.03701471E-05 -1.67714695E-05  0.00000000E+00  2.72635326E-05
  1.05132965E-05  0.00000000E+00  0.00000000E+00 -3.12171820E-04 -1.54412175E-04
  4.97117088E-05  1.13147957E-04 -2.85404856E-04 -6.33764325E-04 -1.16576327E-04
 -2.72902475E-05 -1.00727211E-04  0.00000000E+00  2.87662330E-04  8.37229297E-04
  0.00000000E+00 -8.03683699E-04 -3.39509452E-04  0.00000000E+00 -1.23421340E-04
 -1.45567621E-05  0.00000000E+00 -2.90107827E-05  0.00000000E+00  0.00000000E+00
 -4.93845311E-05  2.13903936E-05 -3.55115322E-04  0.00000000E+00  0.00000000E+00
 -8.69365239E-04  1.34685283E-04 -4.62780736E-05  0.00000000E+00  0.00000000E+00
  8.25094425E-05 -1.30062453E-04  0.00000000E+00 -2.15346717E-05 -1.23214426E-04
  0.00000000E+00  0.00000000E+00 -6.81468388E-05 -1.37561633E-04  0.00000000E+00
 -4.75528824E-06 -1.62854319E-04  0.00000000E+00  0.00000000E+00  1.96062346E-05
 -4.05956368E-04 -1.01622613E-03  9.86513585E-05 -5.21205258E-05 -1.96441586E-04
  1.73211505E-04 -5.38336053E-06 -2.37871272E-05  0.00000000E+00  6.99087145E-05
  1.47530692E-04  0.00000000E+00  2.69388651E-04  1.54568994E-04  0.00000000E+00
  1.38257262E-04  2.45770832E-05  0.00000000E+00 -2.60682847E-06  0.00000000E+00
  0.00000000E+00 -1.82438538E-05  2.17179674E-06 -2.85527771E-06  0.00000000E+00
  0.00000000E+00  8.76688430E-05  7.12420185E-05 -1.06267056E-04  0.00000000E+00
  0.00000000E+00  1.76774038E-04  1.44126373E-04  0.00000000E+00  1.67775862E-05
 -1.62730049E-06  0.00000000E+00  0.00000000E+00 -8.44460600E-07 -1.42965644E-05
  0.00000000E+00 -3.83838234E-05  4.32330145E-05  0.00000000E+00  0.00000000E+00
  8.40126828E-05  8.40295297E-05  4.00067333E-05 -1.00035278E-03 -4.83851250E-04
 -8.55979860E-06 -2.11987815E-05  1.53963179E-05  0.00000000E+00 -3.93597023E-06
  2.73020414E-04  0.00000000E+00 -4.48808977E-05  1.32718641E-04  0.00000000E+00
  2.61036737E-05  0.00000000E+00  0.00000000E+00  1.16215295E-05  1.16869381E-05
 -3.09842301E-05  0.00000000E+00  0.00000000E+00  1.47772829E-05  3.88417564E-05
  1.63421708E-04  8.35770971E-05 -2.59777149E-05  7.87207734E-04  6.67503462E-04
  1.06344318E-05  2.68581350E-06  0.00000000E+00 -7.70992698E-05  1.25386773E-05
  0.00000000E+00  3.30252905E-04  9.39483579E-04  0.00000000E+00  1.12899907E-06
  8.56024508E-05  0.00000000E+00 -2.32665360E-06  0.00000000E+00  0.00000000E+00
 -2.39355329E-07 -5.14097757E-06 -3.59940713E-05  0.00000000E+00  0.00000000E+00
 -1.60593406E-05  7.98288951E-05 -2.30697658E-05  0.00000000E+00  0.00000000E+00
 -2.71392988E-04 -1.80419858E-04  0.00000000E+00  9.29308593E-06  6.39776781E-06
  0.00000000E+00  0.00000000E+00  2.20583150E-06 -1.89508009E-05  0.00000000E+00
 -4.05146270E-05 -4.03303265E-05  0.00000000E+00  0.00000000E+00 -7.88709630E-05
  2.66219218E-05  1.05296935E-03  5.38009139E-05  2.31806765E-05 -3.87594814E-05
 -4.42445169E-04  2.70313176E-06  1.78406923E-05  0.00000000E+00 -5.45820024E-05
 -6.27893125E-05  0.00000000E+00  2.10432128E-04 -2.92090793E-04  0.00000000E+00
 -2.00539182E-04 -8.19798828E-05  0.00000000E+00 -9.29397235E-06  0.00000000E+00
  0.00000000E+00  2.46451845E-05  2.16037771E-05  3.91909698E-06  0.00000000E+00
  0.00000000E+00 -1.35353016E-04 -5.83233039E-05 -8.25980418E-06  0.00000000E+00
  0.00000000E+00 -2.62938261E-04 -2.24312853E-04  0.00000000E+00  6.87344504E-07
 -2.12409323E-06  0.00000000E+00  0.00000000E+00 -1.59350889E-06 -8.96596128E-06
  0.00000000E+00 -4.33071080E-05  9.23712226E-06  0.00000000E+00  0.00000000E+00
 -7.57165320E-05  1.90782345E-04  2.56750541E-04  1.46067459E-03 -7.28806567E-05
 -1.63620571E-03  3.59606114E-04 -1.42444505E-04  1.83851965E-06  0.00000000E+00
 -2.11887040E-03 -4.17733849E-04  0.00000000E+00  1.06208814E-03  7.45363636E-04
  0.00000000E+00 -1.67218979E-04  5.28382819E-05  0.00000000E+00 -1.23135365E-04
  0.00000000E+00  0.00000000E+00  2.45981428E-04  9.37619400E-05 -4.37534272E-04
  0.00000000E+00  0.00000000E+00  9.05456477E-04 -9.76189835E-05  1.86834358E-05
  0.00000000E+00  0.00000000E+00 -3.43537858E-04 -1.34242956E-04  0.00000000E+00
  2.59575362E-07  1.61588162E-05  0.00000000E+00  0.00000000E+00  2.11232585E-05
  1.36320355E-05  0.00000000E+00  1.59987869E-04 -7.59051739E-05  0.00000000E+00
  0.00000000E+00 -2.30584027E-04  5.69602631E-05  9.76646188E-01 -9.84271502E-03
  4.35825179E-02  4.53405535E-03 -4.38446439E-04  2.15416613E-03  4.78925636E-04
  0.00000000E+00 -2.38752328E-03 -6.04962884E-04  0.00000000E+00  1.13354418E-03
 -1.80507893E-05  0.00000000E+00  4.99098653E-06 -4.58293298E-05  0.00000000E+00
 -2.32602090E-04  0.00000000E+00  0.00000000E+00  1.01312676E-04  3.27597926E-05
  3.95382733E-04  0.00000000E+00  0.00000000E+00 -8.42039976E-04 -4.22116103E-04
 -1.49139111E-04  0.00000000E+00  0.00000000E+00  2.47904662E-04  7.64855349E-06
  0.00000000E+00  5.26542902E-05  1.77142169E-05  0.00000000E+00  0.00000000E+00
 -2.17328144E-05 -1.29403618E-05  0.00000000E+00  1.41693739E-04  9.24143530E-06
  0.00000000E+00  0.00000000E+00 -1.92902807E-04 -1.43408940E-04  4.74423652E-04
  2.10209667E-03  1.47773240E-04  1.63534312E-05 -4.12908796E-05 -2.47937745E-04
  0.00000000E+00  1.04565400E-04 -1.28983574E-03  0.00000000E+00  3.12032534E-04
 -3.51381721E-04  0.00000000E+00 -3.74353473E-06  0.00000000E+00  0.00000000E+00
  7.51567094E-05  1.51870590E-05 -1.60945766E-04  0.00000000E+00  0.00000000E+00
 -5.37749683E-04 -1.97789080E-05  9.76830706E-01 -9.16757171E-03  4.34508183E-02
  1.35943213E-04 -1.18464778E-03 -1.56022510E-03  1.45159967E-03  0.00000000E+00
  1.57426309E-03 -1.29726732E-03  0.00000000E+00 -5.79400100E-04 -8.99051820E-04
  0.00000000E+00  5.77524530E-05 -3.99949993E-05  0.00000000E+00  2.96604121E-05
  0.00000000E+00  0.00000000E+00 -1.18855657E-04 -1.46089904E-06  7.61277340E-04
  0.00000000E+00  0.00000000E+00 -2.05151753E-04 -2.35024710E-04 -2.60630464E-04
  0.00000000E+00  0.00000000E+00  1.72643169E-04  1.27447199E-04  0.00000000E+00
 -6.41066133E-05  1.55563857E-06  0.00000000E+00  0.00000000E+00  1.88209963E-05
  9.47939806E-06  0.00000000E+00 -2.35273982E-06  1.24093302E-04  0.00000000E+00
  0.00000000E+00  2.62265920E-04  9.11229668E-05 -4.50480479E-03 -2.23450568E-04