 Entering Gaussian System, Link 0=g16
 Input=hoono_d1_169p2519.gjf
 Output=hoono_d1_169p2519.log
 Initial command:
 /sw/contrib/gaussian/g16/B01/g16/l1.exe "/scr/Gau-8821.inp" -scrdir="/scr/"
 Entering Link 1 = /sw/contrib/gaussian/g16/B01/g16/l1.exe PID=      8822.
  
 Copyright (c) 1988-2017, Gaussian, Inc.  All Rights Reserved.
  
 This is part of the Gaussian(R) 16 program.  It is based on
 the Gaussian(R) 09 system (copyright 2009, Gaussian, Inc.),
 the Gaussian(R) 03 system (copyright 2003, Gaussian, Inc.),
 the Gaussian(R) 98 system (copyright 1998, Gaussian, Inc.),
 the Gaussian(R) 94 system (copyright 1995, Gaussian, Inc.),
 the Gaussian 92(TM) system (copyright 1992, Gaussian, Inc.),
 the Gaussian 90(TM) system (copyright 1990, Gaussian, Inc.),
 the Gaussian 88(TM) system (copyright 1988, Gaussian, Inc.),
 the Gaussian 86(TM) system (copyright 1986, Carnegie Mellon
 University), and the Gaussian 82(TM) system (copyright 1983,
 Carnegie Mellon University). Gaussian is a federally registered
 trademark of Gaussian, Inc.
  
 This software contains proprietary and confidential information,
 including trade secrets, belonging to Gaussian, Inc.
  
 This software is provided under written license and may be
 used, copied, transmitted, or stored only in accord with that
 written license.
  
 The following legend is applicable only to US Government
 contracts under FAR:
  
                    RESTRICTED RIGHTS LEGEND
  
 Use, reproduction and disclosure by the US Government is
 subject to restrictions as set forth in subparagraphs (a)
 and (c) of the Commercial Computer Software - Restricted
 Rights clause in FAR 52.227-19.
  
 Gaussian, Inc.
 340 Quinnipiac St., Bldg. 40, Wallingford CT 06492
  
  
 ---------------------------------------------------------------
 Warning -- This program may not be used in any manner that
 competes with the business of Gaussian, Inc. or will provide
 assistance to any competitor of Gaussian, Inc.  The licensee
 of this program is prohibited from giving any competitor of
 Gaussian, Inc. access to this program.  By using this program,
 the user acknowledges that Gaussian, Inc. is engaged in the
 business of creating and licensing software in the field of
 computational chemistry and represents and warrants to the
 licensee that it is not a competitor of Gaussian, Inc. and that
 it will not use this program in any manner prohibited above.
 ---------------------------------------------------------------
  

 Cite this work as:
 Gaussian 16, Revision B.01,
 M. J. Frisch, G. W. Trucks, H. B. Schlegel, G. E. Scuseria, 
 M. A. Robb, J. R. Cheeseman, G. Scalmani, V. Barone, 
 G. A. Petersson, H. Nakatsuji, X. Li, M. Caricato, A. V. Marenich, 
 J. Bloino, B. G. Janesko, R. Gomperts, B. Mennucci, H. P. Hratchian, 
 J. V. Ortiz, A. F. Izmaylov, J. L. Sonnenberg, D. Williams-Young, 
 F. Ding, F. Lipparini, F. Egidi, J. Goings, B. Peng, A. Petrone, 
 T. Henderson, D. Ranasinghe, V. G. Zakrzewski, J. Gao, N. Rega, 
 G. Zheng, W. Liang, M. Hada, M. Ehara, K. Toyota, R. Fukuda, 
 J. Hasegawa, M. Ishida, T. Nakajima, Y. Honda, O. Kitao, H. Nakai, 
 T. Vreven, K. Throssell, J. A. Montgomery, Jr., J. E. Peralta, 
 F. Ogliaro, M. J. Bearpark, J. J. Heyd, E. N. Brothers, K. N. Kudin, 
 V. N. Staroverov, T. A. Keith, R. Kobayashi, J. Normand, 
 K. Raghavachari, A. P. Rendell, J. C. Burant, S. S. Iyengar, 
 J. Tomasi, M. Cossi, J. M. Millam, M. Klene, C. Adamo, R. Cammi, 
 J. W. Ochterski, R. L. Martin, K. Morokuma, O. Farkas, 
 J. B. Foresman, and D. J. Fox, Gaussian, Inc., Wallingford CT, 2016.
 
 ******************************************
 Gaussian 16:  ES64L-G16RevB.01 20-Dec-2017
                14-Feb-2022 
 ******************************************
 %nproc=28
 Will use up to   28 processors via shared memory.
 %mem=120GB
 %chk=hoono_d1_169p2519.chk
 -------------------------------------
 #p SP mp2/aug-cc-pvtz density=current
 -------------------------------------
 1/30=1,38=1,172=1/1;
 2/12=2,17=6,18=5,40=1/2;
 3/5=16,6=1,7=10,11=9,25=1,30=1,71=1/1,2,3;
 4//1;
 5/5=2,38=5/2;
 8/6=4,10=1/1;
 9/15=1,16=-3/6;
 10/5=1,13=10/2;
 6/7=2,8=2,9=2,10=2,22=-1/1;
 99/5=1,9=1/99;
 Leave Link    1 at Mon Feb 14 13:05:14 2022, MaxMem= 16106127360 cpu:               3.1 elap:               0.1
 (Enter /sw/contrib/gaussian/g16/B01/g16/l101.exe)
 -----
 title
 -----
 Symbolic Z-matrix:
 Charge =  0 Multiplicity = 1
 H
 O                    1    r1
 O                    2    r2       1    a1
 N                    3    r3       2    a2       1    d1       0
 O                    4    r4       3    a3       2    d2       0
       Variables:
  r1                    0.96898                  
  r2                    1.45492                  
  r3                    1.45878                  
  r4                    1.17073                  
  a1                   97.59495                  
  a2                  102.29752                  
  a3                  109.06955                  
  d1                  169.25191                  
  d2                  180.                       
 
 ITRead=  0  0  0  0  0
 MicOpt= -1 -1 -1 -1 -1
 NAtoms=      5 NQM=        5 NQMF=       0 NMMI=      0 NMMIF=      0
                NMic=       0 NMicF=      0.
                    Isotopes and Nuclear Properties:
 (Nuclear quadrupole moments (NQMom) in fm**2, nuclear magnetic moments (NMagM)
  in nuclear magnetons)

  Atom         1           2           3           4           5
 IAtWgt=           1          16          16          14          16
 AtmWgt=   1.0078250  15.9949146  15.9949146  14.0030740  15.9949146
 NucSpn=           1           0           0           2           0
 AtZEff=  -0.0000000  -0.0000000  -0.0000000  -0.0000000  -0.0000000
 NQMom=    0.0000000   0.0000000   0.0000000   2.0440000   0.0000000
 NMagM=    2.7928460   0.0000000   0.0000000   0.4037610   0.0000000
 AtZNuc=   1.0000000   8.0000000   8.0000000   7.0000000   8.0000000
 Leave Link  101 at Mon Feb 14 13:05:14 2022, MaxMem= 16106127360 cpu:               3.3 elap:               0.1
 (Enter /sw/contrib/gaussian/g16/B01/g16/l202.exe)
                          Input orientation:                          
 ---------------------------------------------------------------------
 Center     Atomic      Atomic             Coordinates (Angstroms)
 Number     Number       Type             X           Y           Z
 ---------------------------------------------------------------------
      1          1           0        0.000000    0.000000    0.000000
      2          8           0        0.000000    0.000000    0.968976
      3          8           0        1.442156    0.000000    1.161271
      4          7           0        1.565056    0.265808    2.590359
      5          8           0        2.699492    0.291554    2.878453
 ---------------------------------------------------------------------
                    Distance matrix (angstroms):
                    1          2          3          4          5
     1  H    0.000000
     2  O    0.968976   0.000000
     3  O    1.851584   1.454919   0.000000
     4  N    3.038094   2.269127   1.458784   0.000000
     5  O    3.956988   3.319392   2.148165   1.170729   0.000000
 Stoichiometry    HNO3
 Framework group  C1[X(HNO3)]
 Deg. of freedom     9
 Full point group                 C1      NOp   1
 Largest Abelian subgroup         C1      NOp   1
 Largest concise Abelian subgroup C1      NOp   1
                         Standard orientation:                         
 ---------------------------------------------------------------------
 Center     Atomic      Atomic             Coordinates (Angstroms)
 Number     Number       Type             X           Y           Z
 ---------------------------------------------------------------------
      1          1           0       -2.240576    0.425357    0.149650
      2          8           0       -1.599261   -0.282549   -0.013131
      3          8           0       -0.400207    0.541490   -0.017433
      4          7           0        0.663064   -0.456966    0.006856
      5          8           0        1.699359    0.087735    0.005860
 ---------------------------------------------------------------------
 Rotational constants (GHZ):          54.8524538           5.0117265           4.5946099
 Leave Link  202 at Mon Feb 14 13:05:14 2022, MaxMem= 16106127360 cpu:               0.2 elap:               0.0
 (Enter /sw/contrib/gaussian/g16/B01/g16/l301.exe)
 Standard basis: Aug-CC-pVTZ (5D, 7F)
 Ernie: Thresh=  0.10000D-02 Tol=  0.10000D-05 Strict=F.
 Ernie:  12 primitive shells out of 131 were deleted.
 There are   245 symmetry adapted cartesian basis functions of A   symmetry.
 There are   207 symmetry adapted basis functions of A   symmetry.
   207 basis functions,   315 primitive gaussians,   245 cartesian basis functions
    16 alpha electrons       16 beta electrons
       nuclear repulsion energy       116.8769671351 Hartrees.
 IExCor=    0 DFT=F Ex=HF Corr=None ExCW=0 ScaHFX=  1.000000
 ScaDFX=  1.000000  1.000000  1.000000  1.000000 ScalE2=  1.000000  1.000000
 IRadAn=      5 IRanWt=     -1 IRanGd=            0 ICorTp=0 IEmpDi=  4
 NAtoms=    5 NActive=    5 NUniq=    5 SFac= 1.00D+00 NAtFMM=   60 NAOKFM=F Big=F
 Integral buffers will be    131072 words long.
 Raffenetti 1 integral format.
 Two-electron integral symmetry is turned on.
 Leave Link  301 at Mon Feb 14 13:05:14 2022, MaxMem= 16106127360 cpu:               2.3 elap:               0.1
 (Enter /sw/contrib/gaussian/g16/B01/g16/l302.exe)
 NPDir=0 NMtPBC=     1 NCelOv=     1 NCel=       1 NClECP=     1 NCelD=      1
         NCelK=      1 NCelE2=     1 NClLst=     1 CellRange=     0.0.
 One-electron integrals computed using PRISM.
 One-electron integral symmetry used in STVInt
 NBasis=   207 RedAO= T EigKep=  1.82D-04  NBF=   207
 NBsUse=   207 1.00D-06 EigRej= -1.00D+00 NBFU=   207
 Leave Link  302 at Mon Feb 14 13:05:15 2022, MaxMem= 16106127360 cpu:               5.8 elap:               0.3
 (Enter /sw/contrib/gaussian/g16/B01/g16/l303.exe)
 DipDrv:  MaxL=1.
 Leave Link  303 at Mon Feb 14 13:05:15 2022, MaxMem= 16106127360 cpu:               1.2 elap:               0.1
 (Enter /sw/contrib/gaussian/g16/B01/g16/l401.exe)
 ExpMin= 2.53D-02 ExpMax= 1.53D+04 ExpMxC= 5.22D+02 IAcc=3 IRadAn=         5 AccDes= 0.00D+00
 Harris functional with IExCor=  205 and IRadAn=       5 diagonalized for initial guess.
 HarFok:  IExCor=  205 AccDes= 0.00D+00 IRadAn=         5 IDoV= 1 UseB2=F ITyADJ=14
 ICtDFT=  3500011 ScaDFX=  1.000000  1.000000  1.000000  1.000000
 FoFCou: FMM=F IPFlag=           0 FMFlag=      100000 FMFlg1=           0
         NFxFlg=           0 DoJE=T BraDBF=F KetDBF=T FulRan=T
         wScrn=  0.000000 ICntrl=       500 IOpCl=  0 I1Cent=   200000004 NGrid=           0
         NMat0=    1 NMatS0=      1 NMatT0=    0 NMatD0=    1 NMtDS0=    0 NMtDT0=    0
 Petite list used in FoFCou.
 Harris En= -279.628761858252    
 JPrj=0 DoOrth=F DoCkMO=F.
 Leave Link  401 at Mon Feb 14 13:05:15 2022, MaxMem= 16106127360 cpu:               9.6 elap:               0.5
 (Enter /sw/contrib/gaussian/g16/B01/g16/l502.exe)
 Keep R1 ints in memory in canonical form, NReq=245616937.
 FoFCou: FMM=F IPFlag=           0 FMFlag=           0 FMFlg1=           0
         NFxFlg=           0 DoJE=F BraDBF=F KetDBF=F FulRan=T
         wScrn=  0.000000 ICntrl=       600 IOpCl=  0 I1Cent=           0 NGrid=           0
         NMat0=    1 NMatS0=  21528 NMatT0=    0 NMatD0=    1 NMtDS0=    0 NMtDT0=    0
 Symmetry not used in FoFCou.
 Two-electron integral symmetry not used.
 Closed shell SCF:
 Using DIIS extrapolation, IDIIS=  1040.
 NGot= 16106127360 LenX= 15874260251 LenY= 15874199785
 Requested convergence on RMS density matrix=1.00D-08 within 128 cycles.
 Requested convergence on MAX density matrix=1.00D-06.
 Requested convergence on             energy=1.00D-06.
 No special actions if energy rises.

 Cycle   1  Pass 1  IDiag  1:
 E= -279.370607603819    
 DIIS: error= 2.32D-02 at cycle   1 NSaved=   1.
 NSaved= 1 IEnMin= 1 EnMin= -279.370607603819     IErMin= 1 ErrMin= 2.32D-02
 ErrMax= 2.32D-02  0.00D+00 EMaxC= 1.00D-01 BMatC= 4.38D-01 BMatP= 4.38D-01
 IDIUse=3 WtCom= 7.68D-01 WtEn= 2.32D-01
 Coeff-Com:  0.100D+01
 Coeff-En:   0.100D+01
 Coeff:      0.100D+01
 Gap=     0.518 Goal=   None    Shift=    0.000
 GapD=    0.518 DampG=2.000 DampE=0.500 DampFc=1.0000 IDamp=-1.
 RMSDP=1.62D-03 MaxDP=9.91D-02              OVMax= 1.13D-01

 Cycle   2  Pass 1  IDiag  1:
 E= -279.452534922727     Delta-E=       -0.081927318908 Rises=F Damp=F
 DIIS: error= 1.71D-02 at cycle   2 NSaved=   2.
 NSaved= 2 IEnMin= 2 EnMin= -279.452534922727     IErMin= 2 ErrMin= 1.71D-02
 ErrMax= 1.71D-02  0.00D+00 EMaxC= 1.00D-01 BMatC= 7.18D-02 BMatP= 4.38D-01
 IDIUse=3 WtCom= 8.29D-01 WtEn= 1.71D-01
 Coeff-Com:  0.195D+00 0.805D+00
 Coeff-En:   0.000D+00 0.100D+01
 Coeff:      0.162D+00 0.838D+00
 Gap=     0.531 Goal=   None    Shift=    0.000
 RMSDP=8.99D-04 MaxDP=3.73D-02 DE=-8.19D-02 OVMax= 6.70D-02

 Cycle   3  Pass 1  IDiag  1:
 E= -279.481795548745     Delta-E=       -0.029260626018 Rises=F Damp=F
 DIIS: error= 9.86D-03 at cycle   3 NSaved=   3.
 NSaved= 3 IEnMin= 3 EnMin= -279.481795548745     IErMin= 3 ErrMin= 9.86D-03
 ErrMax= 9.86D-03  0.00D+00 EMaxC= 1.00D-01 BMatC= 2.85D-02 BMatP= 7.18D-02
 IDIUse=3 WtCom= 9.01D-01 WtEn= 9.86D-02
 Coeff-Com: -0.330D-01 0.377D+00 0.656D+00
 Coeff-En:   0.000D+00 0.239D+00 0.761D+00
 Coeff:     -0.297D-01 0.363D+00 0.666D+00
 Gap=     0.509 Goal=   None    Shift=    0.000
 RMSDP=3.75D-04 MaxDP=1.54D-02 DE=-2.93D-02 OVMax= 3.78D-02

 Cycle   4  Pass 1  IDiag  1:
 E= -279.500720248144     Delta-E=       -0.018924699399 Rises=F Damp=F
 DIIS: error= 1.24D-03 at cycle   4 NSaved=   4.
 NSaved= 4 IEnMin= 4 EnMin= -279.500720248144     IErMin= 4 ErrMin= 1.24D-03
 ErrMax= 1.24D-03  0.00D+00 EMaxC= 1.00D-01 BMatC= 4.87D-04 BMatP= 2.85D-02
 IDIUse=3 WtCom= 9.88D-01 WtEn= 1.24D-02
 Coeff-Com: -0.117D-01 0.576D-01 0.158D+00 0.796D+00
 Coeff-En:   0.000D+00 0.000D+00 0.000D+00 0.100D+01
 Coeff:     -0.115D-01 0.569D-01 0.156D+00 0.799D+00
 Gap=     0.501 Goal=   None    Shift=    0.000
 RMSDP=9.00D-05 MaxDP=2.18D-03 DE=-1.89D-02 OVMax= 1.08D-02

 Cycle   5  Pass 1  IDiag  1:
 E= -279.501390315982     Delta-E=       -0.000670067838 Rises=F Damp=F
 DIIS: error= 7.03D-04 at cycle   5 NSaved=   5.
 NSaved= 5 IEnMin= 5 EnMin= -279.501390315982     IErMin= 5 ErrMin= 7.03D-04
 ErrMax= 7.03D-04  0.00D+00 EMaxC= 1.00D-01 BMatC= 8.69D-05 BMatP= 4.87D-04
 IDIUse=3 WtCom= 9.93D-01 WtEn= 7.03D-03
 Coeff-Com:  0.612D-02-0.721D-01-0.118D+00 0.202D-01 0.116D+01
 Coeff-En:   0.000D+00 0.000D+00 0.000D+00 0.000D+00 0.100D+01
 Coeff:      0.608D-02-0.716D-01-0.117D+00 0.200D-01 0.116D+01
 Gap=     0.501 Goal=   None    Shift=    0.000
 RMSDP=7.60D-05 MaxDP=2.09D-03 DE=-6.70D-04 OVMax= 1.09D-02

 Cycle   6  Pass 1  IDiag  1:
 E= -279.501703991635     Delta-E=       -0.000313675653 Rises=F Damp=F
 DIIS: error= 2.81D-04 at cycle   6 NSaved=   6.
 NSaved= 6 IEnMin= 6 EnMin= -279.501703991635     IErMin= 6 ErrMin= 2.81D-04
 ErrMax= 2.81D-04  0.00D+00 EMaxC= 1.00D-01 BMatC= 1.66D-05 BMatP= 8.69D-05
 IDIUse=3 WtCom= 9.97D-01 WtEn= 2.81D-03
 Coeff-Com:  0.596D-03 0.153D-02 0.457D-02-0.130D+00-0.230D+00 0.135D+01
 Coeff-En:   0.000D+00 0.000D+00 0.000D+00 0.000D+00 0.000D+00 0.100D+01
 Coeff:      0.595D-03 0.152D-02 0.456D-02-0.129D+00-0.230D+00 0.135D+01
 Gap=     0.502 Goal=   None    Shift=    0.000
 RMSDP=4.51D-05 MaxDP=1.05D-03 DE=-3.14D-04 OVMax= 5.51D-03

 Cycle   7  Pass 1  IDiag  1:
 E= -279.501776281341     Delta-E=       -0.000072289706 Rises=F Damp=F
 DIIS: error= 9.85D-05 at cycle   7 NSaved=   7.
 NSaved= 7 IEnMin= 7 EnMin= -279.501776281341     IErMin= 7 ErrMin= 9.85D-05
 ErrMax= 9.85D-05  0.00D+00 EMaxC= 1.00D-01 BMatC= 4.50D-06 BMatP= 1.66D-05
 IDIUse=1 WtCom= 1.00D+00 WtEn= 0.00D+00
 Coeff-Com: -0.936D-03 0.135D-01 0.265D-01-0.242D-01-0.287D+00 0.390D+00
 Coeff-Com:  0.882D+00
 Coeff:     -0.936D-03 0.135D-01 0.265D-01-0.242D-01-0.287D+00 0.390D+00
 Coeff:      0.882D+00
 Gap=     0.502 Goal=   None    Shift=    0.000
 RMSDP=1.32D-05 MaxDP=3.78D-04 DE=-7.23D-05 OVMax= 1.54D-03

 Cycle   8  Pass 1  IDiag  1:
 E= -279.501785148064     Delta-E=       -0.000008866724 Rises=F Damp=F
 DIIS: error= 4.75D-05 at cycle   8 NSaved=   8.
 NSaved= 8 IEnMin= 8 EnMin= -279.501785148064     IErMin= 8 ErrMin= 4.75D-05
 ErrMax= 4.75D-05  0.00D+00 EMaxC= 1.00D-01 BMatC= 6.05D-07 BMatP= 4.50D-06
 IDIUse=1 WtCom= 1.00D+00 WtEn= 0.00D+00
 Coeff-Com: -0.449D-03 0.345D-02 0.761D-02 0.274D-01-0.411D-01-0.197D+00
 Coeff-Com:  0.171D+00 0.103D+01
 Coeff:     -0.449D-03 0.345D-02 0.761D-02 0.274D-01-0.411D-01-0.197D+00
 Coeff:      0.171D+00 0.103D+01
 Gap=     0.501 Goal=   None    Shift=    0.000
 RMSDP=6.90D-06 MaxDP=2.02D-04 DE=-8.87D-06 OVMax= 7.46D-04

 Cycle   9  Pass 1  IDiag  1:
 E= -279.501786919561     Delta-E=       -0.000001771497 Rises=F Damp=F
 DIIS: error= 1.55D-05 at cycle   9 NSaved=   9.
 NSaved= 9 IEnMin= 9 EnMin= -279.501786919561     IErMin= 9 ErrMin= 1.55D-05
 ErrMax= 1.55D-05  0.00D+00 EMaxC= 1.00D-01 BMatC= 6.91D-08 BMatP= 6.05D-07
 IDIUse=1 WtCom= 1.00D+00 WtEn= 0.00D+00
 Coeff-Com:  0.123D-03-0.172D-02-0.308D-02-0.205D-02 0.342D-01-0.467D-04
 Coeff-Com: -0.167D+00-0.103D+00 0.124D+01
 Coeff:      0.123D-03-0.172D-02-0.308D-02-0.205D-02 0.342D-01-0.467D-04
 Coeff:     -0.167D+00-0.103D+00 0.124D+01
 Gap=     0.501 Goal=   None    Shift=    0.000
 RMSDP=1.94D-06 MaxDP=5.16D-05 DE=-1.77D-06 OVMax= 1.72D-04

 Cycle  10  Pass 1  IDiag  1:
 E= -279.501787079883     Delta-E=       -0.000000160322 Rises=F Damp=F
 DIIS: error= 3.95D-06 at cycle  10 NSaved=  10.
 NSaved=10 IEnMin=10 EnMin= -279.501787079883     IErMin=10 ErrMin= 3.95D-06
 ErrMax= 3.95D-06  0.00D+00 EMaxC= 1.00D-01 BMatC= 5.56D-09 BMatP= 6.91D-08
 IDIUse=1 WtCom= 1.00D+00 WtEn= 0.00D+00
 Coeff-Com:  0.310D-04-0.243D-03-0.324D-03-0.270D-02 0.165D-02 0.196D-01
 Coeff-Com: -0.130D-01-0.744D-01-0.807D-01 0.115D+01
 Coeff:      0.310D-04-0.243D-03-0.324D-03-0.270D-02 0.165D-02 0.196D-01
 Coeff:     -0.130D-01-0.744D-01-0.807D-01 0.115D+01
 Gap=     0.501 Goal=   None    Shift=    0.000
 RMSDP=5.08D-07 MaxDP=2.10D-05 DE=-1.60D-07 OVMax= 4.08D-05

 Cycle  11  Pass 1  IDiag  1:
 E= -279.501787092582     Delta-E=       -0.000000012700 Rises=F Damp=F
 DIIS: error= 1.76D-06 at cycle  11 NSaved=  11.
 NSaved=11 IEnMin=11 EnMin= -279.501787092582     IErMin=11 ErrMin= 1.76D-06
 ErrMax= 1.76D-06  0.00D+00 EMaxC= 1.00D-01 BMatC= 6.73D-10 BMatP= 5.56D-09
 IDIUse=1 WtCom= 1.00D+00 WtEn= 0.00D+00
 Coeff-Com: -0.214D-04 0.245D-03 0.491D-03 0.540D-03-0.431D-02-0.363D-02
 Coeff-Com:  0.212D-01 0.313D-01-0.139D+00-0.182D+00 0.128D+01
 Coeff:     -0.214D-04 0.245D-03 0.491D-03 0.540D-03-0.431D-02-0.363D-02
 Coeff:      0.212D-01 0.313D-01-0.139D+00-0.182D+00 0.128D+01
 Gap=     0.501 Goal=   None    Shift=    0.000
 RMSDP=1.83D-07 MaxDP=6.51D-06 DE=-1.27D-08 OVMax= 1.68D-05

 Cycle  12  Pass 1  IDiag  1:
 E= -279.501787094490     Delta-E=       -0.000000001908 Rises=F Damp=F
 DIIS: error= 5.47D-07 at cycle  12 NSaved=  12.
 NSaved=12 IEnMin=12 EnMin= -279.501787094490     IErMin=12 ErrMin= 5.47D-07
 ErrMax= 5.47D-07  0.00D+00 EMaxC= 1.00D-01 BMatC= 7.77D-11 BMatP= 6.73D-10
 IDIUse=1 WtCom= 1.00D+00 WtEn= 0.00D+00
 Coeff-Com:  0.138D-05-0.308D-04-0.673D-04 0.184D-03 0.112D-02-0.232D-02
 Coeff-Com: -0.429D-02 0.537D-02 0.433D-01-0.115D+00-0.292D+00 0.136D+01
 Coeff:      0.138D-05-0.308D-04-0.673D-04 0.184D-03 0.112D-02-0.232D-02
 Coeff:     -0.429D-02 0.537D-02 0.433D-01-0.115D+00-0.292D+00 0.136D+01
 Gap=     0.501 Goal=   None    Shift=    0.000
 RMSDP=7.88D-08 MaxDP=2.83D-06 DE=-1.91D-09 OVMax= 8.17D-06

 Cycle  13  Pass 1  IDiag  1:
 E= -279.501787094766     Delta-E=       -0.000000000276 Rises=F Damp=F
 DIIS: error= 1.65D-07 at cycle  13 NSaved=  13.
 NSaved=13 IEnMin=13 EnMin= -279.501787094766     IErMin=13 ErrMin= 1.65D-07
 ErrMax= 1.65D-07  0.00D+00 EMaxC= 1.00D-01 BMatC= 6.40D-12 BMatP= 7.77D-11
 IDIUse=1 WtCom= 1.00D+00 WtEn= 0.00D+00
 Coeff-Com:  0.138D-05-0.145D-04-0.233D-04-0.102D-03 0.103D-03 0.902D-03
 Coeff-Com: -0.799D-03-0.379D-02-0.491D-03 0.484D-01-0.318D-01-0.388D+00
 Coeff-Com:  0.138D+01
 Coeff:      0.138D-05-0.145D-04-0.233D-04-0.102D-03 0.103D-03 0.902D-03
 Coeff:     -0.799D-03-0.379D-02-0.491D-03 0.484D-01-0.318D-01-0.388D+00
 Coeff:      0.138D+01
 Gap=     0.501 Goal=   None    Shift=    0.000
 RMSDP=2.71D-08 MaxDP=5.75D-07 DE=-2.76D-10 OVMax= 3.82D-06

 Cycle  14  Pass 1  IDiag  1:
 E= -279.501787094796     Delta-E=       -0.000000000030 Rises=F Damp=F
 DIIS: error= 9.96D-08 at cycle  14 NSaved=  14.
 NSaved=14 IEnMin=14 EnMin= -279.501787094796     IErMin=14 ErrMin= 9.96D-08
 ErrMax= 9.96D-08  0.00D+00 EMaxC= 1.00D-01 BMatC= 1.20D-12 BMatP= 6.40D-12
 IDIUse=1 WtCom= 1.00D+00 WtEn= 0.00D+00
 Coeff-Com: -0.524D-06 0.738D-05 0.127D-04 0.214D-04-0.150D-03-0.579D-04
 Coeff-Com:  0.613D-03 0.836D-03-0.392D-02-0.464D-02 0.335D-01 0.116D-01
 Coeff-Com: -0.492D+00 0.145D+01
 Coeff:     -0.524D-06 0.738D-05 0.127D-04 0.214D-04-0.150D-03-0.579D-04
 Coeff:      0.613D-03 0.836D-03-0.392D-02-0.464D-02 0.335D-01 0.116D-01
 Coeff:     -0.492D+00 0.145D+01
 Gap=     0.501 Goal=   None    Shift=    0.000
 RMSDP=1.29D-08 MaxDP=3.66D-07 DE=-3.03D-11 OVMax= 2.28D-06

 Cycle  15  Pass 1  IDiag  1:
 E= -279.501787094805     Delta-E=       -0.000000000009 Rises=F Damp=F
 DIIS: error= 6.38D-08 at cycle  15 NSaved=  15.
 NSaved=15 IEnMin=15 EnMin= -279.501787094805     IErMin=15 ErrMin= 6.38D-08
 ErrMax= 6.38D-08  0.00D+00 EMaxC= 1.00D-01 BMatC= 4.01D-13 BMatP= 1.20D-12
 IDIUse=1 WtCom= 1.00D+00 WtEn= 0.00D+00
 Coeff-Com:  0.862D-07-0.207D-05-0.517D-05 0.907D-05 0.101D-03-0.185D-03
 Coeff-Com: -0.285D-03 0.196D-03 0.340D-02-0.820D-02-0.196D-01 0.954D-01
 Coeff-Com:  0.268D-01-0.122D+01 0.212D+01
 Coeff:      0.862D-07-0.207D-05-0.517D-05 0.907D-05 0.101D-03-0.185D-03
 Coeff:     -0.285D-03 0.196D-03 0.340D-02-0.820D-02-0.196D-01 0.954D-01
 Coeff:      0.268D-01-0.122D+01 0.212D+01
 Gap=     0.501 Goal=   None    Shift=    0.000
 RMSDP=1.27D-08 MaxDP=3.76D-07 DE=-9.49D-12 OVMax= 2.32D-06

 Cycle  16  Pass 1  IDiag  1:
 E= -279.501787094807     Delta-E=       -0.000000000002 Rises=F Damp=F
 DIIS: error= 2.24D-08 at cycle  16 NSaved=  16.
 NSaved=16 IEnMin=16 EnMin= -279.501787094807     IErMin=16 ErrMin= 2.24D-08
 ErrMax= 2.24D-08  0.00D+00 EMaxC= 1.00D-01 BMatC= 5.39D-14 BMatP= 4.01D-13
 IDIUse=1 WtCom= 1.00D+00 WtEn= 0.00D+00
 Coeff-Com:  0.575D-07-0.705D-06-0.212D-06-0.919D-05-0.805D-05 0.801D-04
 Coeff-Com: -0.497D-06-0.263D-03-0.504D-03 0.396D-02 0.559D-03-0.419D-01
 Coeff-Com:  0.116D+00 0.113D+00-0.796D+00 0.160D+01
 Coeff:      0.575D-07-0.705D-06-0.212D-06-0.919D-05-0.805D-05 0.801D-04
 Coeff:     -0.497D-06-0.263D-03-0.504D-03 0.396D-02 0.559D-03-0.419D-01
 Coeff:      0.116D+00 0.113D+00-0.796D+00 0.160D+01
 Gap=     0.501 Goal=   None    Shift=    0.000
 RMSDP=5.10D-09 MaxDP=1.52D-07 DE=-1.76D-12 OVMax= 9.52D-07

 SCF Done:  E(RHF) =  -279.501787095     A.U. after   16 cycles
            NFock= 16  Conv=0.51D-08     -V/T= 2.0024
 KE= 2.788455239591D+02 PE=-8.950801386340D+02 EE= 2.198558604450D+02
 Leave Link  502 at Mon Feb 14 13:05:23 2022, MaxMem= 16106127360 cpu:              41.8 elap:               7.5
 (Enter /sw/contrib/gaussian/g16/B01/g16/l801.exe)
 ExpMin= 2.53D-02 ExpMax= 1.53D+04 ExpMxC= 5.22D+02 IAcc=3 IRadAn=         5 AccDes= 0.00D+00
 HarFok:  IExCor=  205 AccDes= 0.00D+00 IRadAn=         5 IDoV=-2 UseB2=F ITyADJ=14
 ICtDFT= 12500011 ScaDFX=  1.000000  1.000000  1.000000  1.000000
 Largest valence mixing into a core orbital is  2.08D-04
 Largest core mixing into a valence orbital is  3.63D-05
 Range of M.O.s used for correlation:     5   207
 NBasis=   207 NAE=    16 NBE=    16 NFC=     4 NFV=     0
 NROrb=    203 NOA=    12 NOB=    12 NVA=   191 NVB=   191

 **** Warning!!: The largest alpha MO coefficient is  0.17926153D+02

 Leave Link  801 at Mon Feb 14 13:05:24 2022, MaxMem= 16106127360 cpu:               4.6 elap:               0.3
 (Enter /sw/contrib/gaussian/g16/B01/g16/l906.exe)
 Frozen-core derivative calculation, NFC=   4 NFV=   0.
 FulOut=F Deriv=T AODrv=F NAtomX=     5
   MMem=          76  MDisk=          12 MDiskD=          12
  W3Min=      811440 MinDsk=     1524655 NBas6D=         245
 NBas2D=       30762    NTT=       30135    LW2=     3500000
    MDV= 16105643539 MDiskM=      328645 NBas2p=       30466
 Fully in-core method, ICMem=   960157634.
 IMap=   1   2   3   4   5   6   7   8   9  10  11  12  13  14  15  16
 JobTyp=1 Pass  1 fully in-core, NPsUse= 28.
 Compute canonical integrals.
 FoFCou: FMM=F IPFlag=           0 FMFlag=           0 FMFlg1=           0
         NFxFlg=           0 DoJE=F BraDBF=F KetDBF=F FulRan=T
         wScrn=  0.000000 ICntrl=       600 IOpCl=  1 I1Cent=           0 NGrid=           0
         NMat0=    1 NMatS0=  30762 NMatT0=    0 NMatD0=    1 NMtDS0=    0 NMtDT0=    0
 Symmetry not used in FoFCou.
 Spin components of T(2) and E(2):
     alpha-alpha T2 =       0.3402699444D-01 E2=     -0.1224107272D+00
     alpha-beta  T2 =       0.1868572063D+00 E2=     -0.7002608435D+00
     beta-beta   T2 =       0.3402699444D-01 E2=     -0.1224107272D+00
 The integrals were generated   1 times.
 ANorm=    0.1120228189D+01
 E2 =    -0.9450822979D+00 EUMP2 =    -0.28044686939273D+03
 Leave Link  906 at Mon Feb 14 13:05:33 2022, MaxMem= 16106127360 cpu:             253.2 elap:               9.1
 (Enter /sw/contrib/gaussian/g16/B01/g16/l1002.exe)
 Minotr:  Closed shell wavefunction.
          Computing MP2/KS-MP2 derivatives.
          Using Z-Vector for PSCF gradient.
          Skipping F1 and S1 gradient terms here.
          Frozen-core window.
          Direct CPHF calculation.
          Differentiating once with respect to electric field.
                with respect to dipole field.
          Electric field/nuclear overlap derivatives assumed to be zero.
          Requested convergence is 1.0D-10 RMS, and 1.0D-09 maximum.
          NewPWx=F KeepS1=T KeepF1=T KeepIn=T MapXYZ=F SortEE=F KeepMc=T.
 Keep R1 ints in memory in canonical form, NReq=245621348.
 FoFCou: FMM=F IPFlag=           0 FMFlag=           0 FMFlg1=           0
         NFxFlg=           0 DoJE=F BraDBF=F KetDBF=F FulRan=T
         wScrn=  0.000000 ICntrl=       600 IOpCl=  0 I1Cent=           0 NGrid=           0
         NMat0=    1 NMatS0=  21528 NMatT0=    0 NMatD0=    1 NMtDS0=    0 NMtDT0=    0
 Symmetry not used in FoFCou.
 Two-electron integral symmetry not used.
          MDV=   16106127360 using IRadAn=       5.
          Solving linear equations separately, MaxMat=       0.
          There are     1 degrees of freedom in the 1st order CPHF.  IDoFFX=0 NUNeed=     1.
 LinEq1:  Iter=  0 NonCon=     1 RMS=5.96D-03 Max=1.29D-01 NDo=     1
 AX will form     1 AO Fock derivatives at one time.
 LinEq1:  Iter=  1 NonCon=     1 RMS=1.90D-03 Max=3.75D-02 NDo=     1
 LinEq1:  Iter=  2 NonCon=     1 RMS=8.67D-04 Max=1.26D-02 NDo=     1
 LinEq1:  Iter=  3 NonCon=     1 RMS=3.86D-04 Max=7.64D-03 NDo=     1
 LinEq1:  Iter=  4 NonCon=     1 RMS=1.19D-04 Max=1.72D-03 NDo=     1
 LinEq1:  Iter=  5 NonCon=     1 RMS=4.56D-05 Max=7.08D-04 NDo=     1
 LinEq1:  Iter=  6 NonCon=     1 RMS=2.04D-05 Max=2.36D-04 NDo=     1
 LinEq1:  Iter=  7 NonCon=     1 RMS=8.24D-06 Max=1.57D-04 NDo=     1
 LinEq1:  Iter=  8 NonCon=     1 RMS=3.61D-06 Max=4.86D-05 NDo=     1
 LinEq1:  Iter=  9 NonCon=     1 RMS=1.06D-06 Max=2.23D-05 NDo=     1
 LinEq1:  Iter= 10 NonCon=     1 RMS=2.76D-07 Max=7.86D-06 NDo=     1
 LinEq1:  Iter= 11 NonCon=     1 RMS=7.83D-08 Max=1.84D-06 NDo=     1
 LinEq1:  Iter= 12 NonCon=     1 RMS=2.01D-08 Max=2.27D-07 NDo=     1
 LinEq1:  Iter= 13 NonCon=     1 RMS=3.87D-09 Max=4.11D-08 NDo=     1
 LinEq1:  Iter= 14 NonCon=     1 RMS=6.28D-10 Max=9.95D-09 NDo=     1
 LinEq1:  Iter= 15 NonCon=     1 RMS=1.37D-10 Max=2.24D-09 NDo=     1
 LinEq1:  Iter= 16 NonCon=     0 RMS=3.55D-11 Max=4.73D-10 NDo=     1
 Linear equations converged to 1.000D-10 1.000D-09 after    16 iterations.
 End of Minotr F.D. properties file   721 does not exist.
 End of Minotr F.D. properties file   722 does not exist.
 End of Minotr F.D. properties file   788 does not exist.
 Leave Link 1002 at Mon Feb 14 13:05:41 2022, MaxMem= 16106127360 cpu:              43.1 elap:               8.2
 (Enter /sw/contrib/gaussian/g16/B01/g16/l601.exe)
 Copying SCF densities to generalized density rwf, IOpCl= 0 IROHF=0.

 **********************************************************************

            Population analysis using the MP2 Density.

 **********************************************************************

 Orbital symmetries:
       Occupied  (A) (A) (A) (A) (A) (A) (A) (A) (A) (A) (A) (A)
                 (A) (A) (A) (A)
       Virtual   (A) (A) (A) (A) (A) (A) (A) (A) (A) (A) (A) (A)
                 (A) (A) (A) (A) (A) (A) (A) (A) (A) (A) (A) (A)
                 (A) (A) (A) (A) (A) (A) (A) (A) (A) (A) (A) (A)
                 (A) (A) (A) (A) (A) (A) (A) (A) (A) (A) (A) (A)
                 (A) (A) (A) (A) (A) (A) (A) (A) (A) (A) (A) (A)
                 (A) (A) (A) (A) (A) (A) (A) (A) (A) (A) (A) (A)
                 (A) (A) (A) (A) (A) (A) (A) (A) (A) (A) (A) (A)
                 (A) (A) (A) (A) (A) (A) (A) (A) (A) (A) (A) (A)
                 (A) (A) (A) (A) (A) (A) (A) (A) (A) (A) (A) (A)
                 (A) (A) (A) (A) (A) (A) (A) (A) (A) (A) (A) (A)
                 (A) (A) (A) (A) (A) (A) (A) (A) (A) (A) (A) (A)
                 (A) (A) (A) (A) (A) (A) (A) (A) (A) (A) (A) (A)
                 (A) (A) (A) (A) (A) (A) (A) (A) (A) (A) (A) (A)
                 (A) (A) (A) (A) (A) (A) (A) (A) (A) (A) (A) (A)
                 (A) (A) (A) (A) (A) (A) (A) (A) (A) (A) (A) (A)
                 (A) (A) (A) (A) (A) (A) (A) (A) (A) (A) (A)
 The electronic state is 1-A.
 Alpha  occ. eigenvalues --  -20.69102 -20.68427 -20.66011 -15.81273  -1.62403
 Alpha  occ. eigenvalues --   -1.49582  -1.25443  -0.94809  -0.77256  -0.75943
 Alpha  occ. eigenvalues --   -0.71270  -0.67889  -0.61998  -0.58891  -0.48668
 Alpha  occ. eigenvalues --   -0.47182
 Alpha virt. eigenvalues --    0.02959   0.07165   0.08593   0.10175   0.13256
 Alpha virt. eigenvalues --    0.13494   0.14393   0.15445   0.17814   0.19411
 Alpha virt. eigenvalues --    0.19933   0.20658   0.22080   0.23537   0.23728
 Alpha virt. eigenvalues --    0.26683   0.29256   0.30043   0.31180   0.34348
 Alpha virt. eigenvalues --    0.35337   0.38750   0.41747   0.42937   0.52717
 Alpha virt. eigenvalues --    0.53084   0.55859   0.58107   0.62596   0.63814
 Alpha virt. eigenvalues --    0.67372   0.68367   0.70680   0.71291   0.71959
 Alpha virt. eigenvalues --    0.73224   0.74756   0.78610   0.79405   0.81053
 Alpha virt. eigenvalues --    0.81402   0.83374   0.86772   0.90835   0.91627
 Alpha virt. eigenvalues --    0.93301   0.95552   0.97159   0.98827   1.01551
 Alpha virt. eigenvalues --    1.05440   1.05841   1.08363   1.11419   1.12992
 Alpha virt. eigenvalues --    1.19824   1.21906   1.23401   1.33703   1.35081
 Alpha virt. eigenvalues --    1.38857   1.45534   1.49208   1.50831   1.53715
 Alpha virt. eigenvalues --    1.56723   1.58073   1.60436   1.66445   1.66683
 Alpha virt. eigenvalues --    1.70576   1.78932   1.82970   1.83695   1.88079
 Alpha virt. eigenvalues --    1.90546   1.95617   1.98285   2.02512   2.07759
 Alpha virt. eigenvalues --    2.11580   2.12779   2.15530   2.22153   2.25820
 Alpha virt. eigenvalues --    2.27158   2.28733   2.31222   2.34357   2.38767
 Alpha virt. eigenvalues --    2.40535   2.44773   2.45374   2.46646   2.47715
 Alpha virt. eigenvalues --    2.50631   2.58948   2.59839   2.61878   2.62625
 Alpha virt. eigenvalues --    2.63767   2.66569   2.75107   2.82848   2.84753
 Alpha virt. eigenvalues --    2.88788   2.89909   2.91796   2.95992   3.02100
 Alpha virt. eigenvalues --    3.07555   3.11988   3.20456   3.22906   3.31596
 Alpha virt. eigenvalues --    3.34079   3.51388   3.64750   3.83743   3.84845
 Alpha virt. eigenvalues --    4.13648   4.16442   4.20138   4.25448   4.34108
 Alpha virt. eigenvalues --    4.39382   4.47452   4.52376   4.65207   4.71107
 Alpha virt. eigenvalues --    4.80418   4.82281   4.82646   4.89685   5.02265
 Alpha virt. eigenvalues --    5.07279   5.10141   5.14575   5.18293   5.24937
 Alpha virt. eigenvalues --    5.27160   5.30439   5.33016   5.35208   5.60039
 Alpha virt. eigenvalues --    5.67359   5.76214   5.83209   5.95476   6.16948
 Alpha virt. eigenvalues --    6.31161   6.34133   6.39253   6.49423   6.50513
 Alpha virt. eigenvalues --    6.62135   6.65593   6.70559   6.74808   6.76937
 Alpha virt. eigenvalues --    6.83486   6.89834   7.01162   7.05445   7.05782
 Alpha virt. eigenvalues --    7.09396   7.12691   7.14641   7.18868   7.22487
 Alpha virt. eigenvalues --    7.23858   7.30425   7.32247   7.35579   7.39261
 Alpha virt. eigenvalues --    7.42861   7.48610   7.60650   7.61820   7.63255
 Alpha virt. eigenvalues --    7.67374   7.78537   7.88431   8.09165   8.31181
 Alpha virt. eigenvalues --    8.40042   8.54140  13.38544  14.39963  15.16069
 Alpha virt. eigenvalues --   16.15045
          Condensed to atoms (all electrons):
               1          2          3          4          5
     1  H    0.590266   0.128444   0.020164   0.011635  -0.000603
     2  O    0.128444   8.320480  -0.172490  -0.089889   0.015127
     3  O    0.020164  -0.172490   8.467398  -0.129327  -0.038701
     4  N    0.011635  -0.089889  -0.129327   6.970205  -0.054596
     5  O   -0.000603   0.015127  -0.038701  -0.054596   8.272120
 Mulliken charges:
               1
     1  H    0.250094
     2  O   -0.201673
     3  O   -0.147044
     4  N    0.291971
     5  O   -0.193348
 Sum of Mulliken charges =  -0.00000
 Mulliken charges with hydrogens summed into heavy atoms:
               1
     2  O    0.048421
     3  O   -0.147044
     4  N    0.291971
     5  O   -0.193348
 Electronic spatial extent (au):  <R**2>=            252.8429
 Charge=             -0.0000 electrons
 Dipole moment (field-independent basis, Debye):
    X=             -1.2046    Y=              0.7734    Z=              0.2840  Tot=              1.4594
 Quadrupole moment (field-independent basis, Debye-Ang):
   XX=            -18.0742   YY=            -23.1178   ZZ=            -21.9463
   XY=             -2.7335   XZ=             -0.7479   YZ=              0.2284
 Traceless Quadrupole moment (field-independent basis, Debye-Ang):
   XX=              2.9719   YY=             -2.0717   ZZ=             -0.9002
   XY=             -2.7335   XZ=             -0.7479   YZ=              0.2284
 Octapole moment (field-independent basis, Debye-Ang**2):
  XXX=            -17.9042  YYY=              1.7507  ZZZ=              0.0953  XYY=             -1.0375
  XXY=              6.0382  XXZ=              1.7897  XZZ=              1.6390  YZZ=              0.2682
  YYZ=              0.0367  XYZ=             -0.3898
 Hexadecapole moment (field-independent basis, Debye-Ang**3):
 XXXX=           -190.9558 YYYY=            -41.0869 ZZZZ=            -18.2853 XXXY=            -11.6998
 XXXZ=             -4.5329 YYYX=             -0.9631 YYYZ=              0.2102 ZZZX=             -0.2827
 ZZZY=              0.1532 XXYY=            -42.5608 XXZZ=            -41.3521 YYZZ=             -9.8670
 XXYZ=              0.9243 YYXZ=             -0.1964 ZZXY=             -0.5146
 N-N= 1.168769671351D+02 E-N=-8.958643168752D+02  KE= 2.801978223684D+02
 No NMR shielding tensors so no spin-rotation constants.
 Leave Link  601 at Mon Feb 14 13:05:42 2022, MaxMem= 16106127360 cpu:               5.5 elap:               0.2
 (Enter /sw/contrib/gaussian/g16/B01/g16/l9999.exe)
 1\1\GINC-N2228\SP\RMP2-FC\Aug-CC-pVTZ\H1N1O3\CGAVINH\14-Feb-2022\0\\#p
  SP mp2/aug-cc-pvtz density=current\\title\\0,1\H\O,1,0.96897556\O,2,1
 .45491931,1,97.59494903\N,3,1.45878406,2,102.29752444,1,169.2519084,0\
 O,4,1.17072885,3,109.06955123,2,180.,0\\Version=ES64L-G16RevB.01\State
 =1-A\HF=-279.5017871\MP2=-280.4468694\RMSD=5.104e-09\Dipole=-0.146538,
 0.0216955,-0.554745\Quadrupole=-1.5007571,-0.7568029,2.25756,0.0678787
 ,2.0861965,-0.041476\PG=C01 [X(H1N1O3)]\\@


 LAWS OF PROGRAMMING DEFINITION:  A WORKING PROGRAM
                                  IS ONE THAT HAS
                                  ONLY UNOBSERVED
                                  BUGS.
 Job cpu time:       0 days  0 hours  6 minutes 15.0 seconds.
 Elapsed time:       0 days  0 hours  0 minutes 26.7 seconds.
 File lengths (MBytes):  RWF=     21 Int=      0 D2E=      0 Chk=      8 Scr=      1
 Normal termination of Gaussian 16 at Mon Feb 14 13:05:42 2022.
