title                                                                   
Freq      RMP2-FC                                                     Aug-CC-pVTZ         
Number of atoms                            I                5
Info1-9                                    I   N=           9
          64          24        1002           0           0         100
           6           2           1
Full Title                                 C   N=           1
title       
Route                                      C   N=           5
#p freq opt=(z-matrix) mp2/aug-cc-pvtz density=current      
Charge                                     I                0
Multiplicity                               I                1
Number of electrons                        I               32
Number of alpha electrons                  I               16
Number of beta electrons                   I               16
Number of basis functions                  I              207
Number of independent functions            I              207
Number of point charges in /Mol/           I                0
Number of translation vectors              I                0
Atomic numbers                             I   N=           5
           1           8           8           7           8
Nuclear charges                            R   N=           5
  1.00000000E+00  8.00000000E+00  8.00000000E+00  7.00000000E+00  8.00000000E+00
Current cartesian coordinates              R   N=          15
  3.60885993E+00  4.17404713E-01  1.55122959E+00  3.08379918E+00  3.68410718E-01
 -2.02173083E-01  7.89317832E-01 -1.04427726E+00 -7.01585671E-03 -1.26854659E+00
  8.83744615E-01 -1.27118932E-02 -3.21424624E+00 -1.49585587E-01  2.64081468E-02
Number of symbols in /Mol/                 I                0
Force Field                                I                0
Atom Types                                 C   N=           5
                                                            
Int Atom Types                             I   N=           5
           0           0           0           0           0
MM charges                                 R   N=           5
  0.00000000E+00  0.00000000E+00  0.00000000E+00  0.00000000E+00  0.00000000E+00
Integer atomic weights                     I   N=           5
           1          16          16          14          16
Real atomic weights                        R   N=           5
  1.00782504E+00  1.59949146E+01  1.59949146E+01  1.40030740E+01  1.59949146E+01
Atom fragment info                         I   N=           5
           0           0           0           0           0
Atom residue num                           I   N=           5
           0           0           0           0           0
Nuclear spins                              I   N=           5
           1           0           0           2           0
Nuclear ZEff                               R   N=           5
 -1.00000000E+00 -5.60000000E+00 -5.60000000E+00 -4.55000000E+00 -5.60000000E+00
Nuclear ZNuc                               R   N=           5
  1.00000000E+00  8.00000000E+00  8.00000000E+00  7.00000000E+00  8.00000000E+00
Nuclear QMom                               R   N=           5
  0.00000000E+00  0.00000000E+00  0.00000000E+00  2.04400000E+00  0.00000000E+00
Nuclear GFac                               R   N=           5
  2.79284600E+00  0.00000000E+00  0.00000000E+00  4.03761000E-01  0.00000000E+00
MicOpt                                     I   N=           5
          -1          -1          -1          -1          -1
Number of residues                         I                0
Number of secondary structures             I                0
SymInf integers                            I   N=          26
           1           1           1           1           1           0
           0           0           0           0           0           0
           0           0           0           0           0           0
           0           0           0           0           0           0
           0           0
RotTr to input orientation                 R   N=          12
 -8.09797066E-01 -5.11854637E-01 -2.86763915E-01 -5.27315268E-01  8.49248258E-01
 -2.67582560E-02  2.57230092E-01  1.29546233E-01 -9.57627513E-01  2.74352513E+00
  1.29177551E+00  2.53155996E+00
Number of contracted shells                I               65
Number of primitive shells                 I              119
Pure/Cartesian d shells                    I                0
Pure/Cartesian f shells                    I                0
Highest angular momentum                   I                3
Largest degree of contraction              I                7
Shell types                                I   N=          65
           0           0           0           0           1           1
           1          -2          -2           0           0           0
           0           0           1           1           1           1
          -2          -2          -2          -3          -3           0
           0           0           0           0           1           1
           1           1          -2          -2          -2          -3
          -3           0           0           0           0           0
           1           1           1           1          -2          -2
          -2          -3          -3           0           0           0
           0           0           1           1           1           1
          -2          -2          -2          -3          -3
Number of primitives per shell             I   N=          65
           3           1           1           1           1           1
           1           1           1           7           6           1
           1           1           3           1           1           1
           1           1           1           1           1           7
           6           1           1           1           3           1
           1           1           1           1           1           1
           1           7           6           1           1           1
           3           1           1           1           1           1
           1           1           1           7           6           1
           1           1           3           1           1           1
           1           1           1           1           1
Shell to atom map                          I   N=          65
           1           1           1           1           1           1
           1           1           1           2           2           2
           2           2           2           2           2           2
           2           2           2           2           2           3
           3           3           3           3           3           3
           3           3           3           3           3           3
           3           4           4           4           4           4
           4           4           4           4           4           4
           4           4           4           5           5           5
           5           5           5           5           5           5
           5           5           5           5           5
Primitive exponents                        R   N=         119
  3.38700000E+01  5.09500000E+00  1.15900000E+00  3.25800000E-01  1.02700000E-01
  2.52600000E-02  1.40700000E+00  3.88000000E-01  1.02000000E-01  1.05700000E+00
  2.47000000E-01  1.53300000E+04  2.29900000E+03  5.22400000E+02  1.47300000E+02
  4.75500000E+01  1.67600000E+01  6.20700000E+00  5.22400000E+02  1.47300000E+02
  4.75500000E+01  1.67600000E+01  6.20700000E+00  6.88200000E-01  1.75200000E+00
  2.38400000E-01  7.37600000E-02  3.44600000E+01  7.74900000E+00  2.28000000E+00
  7.15600000E-01  2.14000000E-01  5.97400000E-02  2.31400000E+00  6.45000000E-01
  2.14000000E-01  1.42800000E+00  5.00000000E-01  1.53300000E+04  2.29900000E+03
  5.22400000E+02  1.47300000E+02  4.75500000E+01  1.67600000E+01  6.20700000E+00
  5.22400000E+02  1.47300000E+02  4.75500000E+01  1.67600000E+01  6.20700000E+00
  6.88200000E-01  1.75200000E+00  2.38400000E-01  7.37600000E-02  3.44600000E+01
  7.74900000E+00  2.28000000E+00  7.15600000E-01  2.14000000E-01  5.97400000E-02
  2.31400000E+00  6.45000000E-01  2.14000000E-01  1.42800000E+00  5.00000000E-01
  1.14200000E+04  1.71200000E+03  3.89300000E+02  1.10000000E+02  3.55700000E+01
  1.25400000E+01  4.64400000E+00  3.89300000E+02  1.10000000E+02  3.55700000E+01
  1.25400000E+01  4.64400000E+00  5.11800000E-01  1.29300000E+00  1.78700000E-01
  5.76000000E-02  2.66300000E+01  5.94800000E+00  1.74200000E+00  5.55000000E-01
  1.72500000E-01  4.91000000E-02  1.65400000E+00  4.69000000E-01  1.51000000E-01
  1.09300000E+00  3.64000000E-01  1.53300000E+04  2.29900000E+03  5.22400000E+02
  1.47300000E+02  4.75500000E+01  1.67600000E+01  6.20700000E+00  5.22400000E+02
  1.47300000E+02  4.75500000E+01  1.67600000E+01  6.20700000E+00  6.88200000E-01
  1.75200000E+00  2.38400000E-01  7.37600000E-02  3.44600000E+01  7.74900000E+00
  2.28000000E+00  7.15600000E-01  2.14000000E-01  5.97400000E-02  2.31400000E+00
  6.45000000E-01  2.14000000E-01  1.42800000E+00  5.00000000E-01
Contraction coefficients                   R   N=         119
  2.54948632E-02  1.90362766E-01  8.52162022E-01  1.00000000E+00  1.00000000E+00
  1.00000000E+00  1.00000000E+00  1.00000000E+00  1.00000000E+00  1.00000000E+00
  1.00000000E+00  5.19808943E-04  4.02025621E-03  2.07128267E-02  8.10105536E-02
  2.35962985E-01  4.42653446E-01  3.57064423E-01 -4.42115008E-05 -1.22591041E-03
 -1.05517725E-02 -6.74452633E-02 -1.71198607E-01  1.07329856E+00  1.00000000E+00
  1.00000000E+00  1.00000000E+00  4.11634896E-02  2.57762836E-01  8.02419274E-01
  1.00000000E+00  1.00000000E+00  1.00000000E+00  1.00000000E+00  1.00000000E+00
  1.00000000E+00  1.00000000E+00  1.00000000E+00  5.19808943E-04  4.02025621E-03
  2.07128267E-02  8.10105536E-02  2.35962985E-01  4.42653446E-01  3.57064423E-01
 -4.42115008E-05 -1.22591041E-03 -1.05517725E-02 -6.74452633E-02 -1.71198607E-01
  1.07329856E+00  1.00000000E+00  1.00000000E+00  1.00000000E+00  4.11634896E-02
  2.57762836E-01  8.02419274E-01  1.00000000E+00  1.00000000E+00  1.00000000E+00
  1.00000000E+00  1.00000000E+00  1.00000000E+00  1.00000000E+00  1.00000000E+00
  5.34563860E-04  4.13435660E-03  2.12335358E-02  8.25006224E-02  2.38138871E-01
  4.42551547E-01  3.53757422E-01 -4.89867350E-05 -1.19527323E-03 -1.03490714E-02
 -6.48680190E-02 -1.71552477E-01  1.07289568E+00  1.00000000E+00  1.00000000E+00
  1.00000000E+00  3.98072123E-02  2.49002660E-01  8.10479727E-01  1.00000000E+00
  1.00000000E+00  1.00000000E+00  1.00000000E+00  1.00000000E+00  1.00000000E+00
  1.00000000E+00  1.00000000E+00  5.19808943E-04  4.02025621E-03  2.07128267E-02
  8.10105536E-02  2.35962985E-01  4.42653446E-01  3.57064423E-01 -4.42115008E-05
 -1.22591041E-03 -1.05517725E-02 -6.74452633E-02 -1.71198607E-01  1.07329856E+00
  1.00000000E+00  1.00000000E+00  1.00000000E+00  4.11634896E-02  2.57762836E-01
  8.02419274E-01  1.00000000E+00  1.00000000E+00  1.00000000E+00  1.00000000E+00
  1.00000000E+00  1.00000000E+00  1.00000000E+00  1.00000000E+00
Coordinates of each shell                  R   N=         195
  3.60885993E+00  4.17404713E-01  1.55122959E+00  3.60885993E+00  4.17404713E-01
  1.55122959E+00  3.60885993E+00  4.17404713E-01  1.55122959E+00  3.60885993E+00
  4.17404713E-01  1.55122959E+00  3.60885993E+00  4.17404713E-01  1.55122959E+00
  3.60885993E+00  4.17404713E-01  1.55122959E+00  3.60885993E+00  4.17404713E-01
  1.55122959E+00  3.60885993E+00  4.17404713E-01  1.55122959E+00  3.60885993E+00
  4.17404713E-01  1.55122959E+00  3.08379918E+00  3.68410718E-01 -2.02173083E-01
  3.08379918E+00  3.68410718E-01 -2.02173083E-01  3.08379918E+00  3.68410718E-01
 -2.02173083E-01  3.08379918E+00  3.68410718E-01 -2.02173083E-01  3.08379918E+00
  3.68410718E-01 -2.02173083E-01  3.08379918E+00  3.68410718E-01 -2.02173083E-01
  3.08379918E+00  3.68410718E-01 -2.02173083E-01  3.08379918E+00  3.68410718E-01
 -2.02173083E-01  3.08379918E+00  3.68410718E-01 -2.02173083E-01  3.08379918E+00
  3.68410718E-01 -2.02173083E-01  3.08379918E+00  3.68410718E-01 -2.02173083E-01
  3.08379918E+00  3.68410718E-01 -2.02173083E-01  3.08379918E+00  3.68410718E-01
 -2.02173083E-01  3.08379918E+00  3.68410718E-01 -2.02173083E-01  7.89317832E-01
 -1.04427726E+00 -7.01585671E-03  7.89317832E-01 -1.04427726E+00 -7.01585671E-03
  7.89317832E-01 -1.04427726E+00 -7.01585671E-03  7.89317832E-01 -1.04427726E+00
 -7.01585671E-03  7.89317832E-01 -1.04427726E+00 -7.01585671E-03  7.89317832E-01
 -1.04427726E+00 -7.01585671E-03  7.89317832E-01 -1.04427726E+00 -7.01585671E-03
  7.89317832E-01 -1.04427726E+00 -7.01585671E-03  7.89317832E-01 -1.04427726E+00
 -7.01585671E-03  7.89317832E-01 -1.04427726E+00 -7.01585671E-03  7.89317832E-01
 -1.04427726E+00 -7.01585671E-03  7.89317832E-01 -1.04427726E+00 -7.01585671E-03
  7.89317832E-01 -1.04427726E+00 -7.01585671E-03  7.89317832E-01 -1.04427726E+00
 -7.01585671E-03 -1.26854659E+00  8.83744615E-01 -1.27118932E-02 -1.26854659E+00
  8.83744615E-01 -1.27118932E-02 -1.26854659E+00  8.83744615E-01 -1.27118932E-02
 -1.26854659E+00  8.83744615E-01 -1.27118932E-02 -1.26854659E+00  8.83744615E-01
 -1.27118932E-02 -1.26854659E+00  8.83744615E-01 -1.27118932E-02 -1.26854659E+00
  8.83744615E-01 -1.27118932E-02 -1.26854659E+00  8.83744615E-01 -1.27118932E-02
 -1.26854659E+00  8.83744615E-01 -1.27118932E-02 -1.26854659E+00  8.83744615E-01
 -1.27118932E-02 -1.26854659E+00  8.83744615E-01 -1.27118932E-02 -1.26854659E+00
  8.83744615E-01 -1.27118932E-02 -1.26854659E+00  8.83744615E-01 -1.27118932E-02
 -1.26854659E+00  8.83744615E-01 -1.27118932E-02 -3.21424624E+00 -1.49585587E-01
  2.64081468E-02 -3.21424624E+00 -1.49585587E-01  2.64081468E-02 -3.21424624E+00
 -1.49585587E-01  2.64081468E-02 -3.21424624E+00 -1.49585587E-01  2.64081468E-02
 -3.21424624E+00 -1.49585587E-01  2.64081468E-02 -3.21424624E+00 -1.49585587E-01
  2.64081468E-02 -3.21424624E+00 -1.49585587E-01  2.64081468E-02 -3.21424624E+00
 -1.49585587E-01  2.64081468E-02 -3.21424624E+00 -1.49585587E-01  2.64081468E-02
 -3.21424624E+00 -1.49585587E-01  2.64081468E-02 -3.21424624E+00 -1.49585587E-01
  2.64081468E-02 -3.21424624E+00 -1.49585587E-01  2.64081468E-02 -3.21424624E+00
 -1.49585587E-01  2.64081468E-02 -3.21424624E+00 -1.49585587E-01  2.64081468E-02
Num ILSW                                   I              100
ILSW                                       I   N=         100
           0           0           0           0           2           0
           0           0           0           0           0          -1
           5           0           0           0           2           0
           0           0           0           0           1           0
           1           0           0           0           0           0
           0           0      100000           0          -1           0
           0           0           0           0           0           0
           0           0           0           1           1           0
           0 -2000000000           1           0           0           0
           0           0           4          52           0           0
           0           0           0           0           0           0
           0           0           0           5           4           1
           0           0           0           0           0           0
           0           0           0           0           0           0
           0           0           0           0           0           0
           0           0           0           0           0           0
           0           0           0           0
Num RLSW                                   I               52
RLSW                                       R   N=          52
  1.00000000E+00  1.00000000E+00  1.00000000E+00  1.00000000E+00  1.00000000E+00
  0.00000000E+00  0.00000000E+00  1.00000000E+00  0.00000000E+00  0.00000000E+00
  0.00000000E+00  0.00000000E+00  1.00000000E+00  0.00000000E+00  0.00000000E+00
  0.00000000E+00  0.00000000E+00  1.00000000E+00  0.00000000E+00  0.00000000E+00
  0.00000000E+00  0.00000000E+00  1.00000000E+00  0.00000000E+00  0.00000000E+00
  0.00000000E+00  0.00000000E+00  1.00000000E+00  0.00000000E+00  0.00000000E+00
  0.00000000E+00  0.00000000E+00  1.00000000E+00  0.00000000E+00  0.00000000E+00
  0.00000000E+00  0.00000000E+00  0.00000000E+00  1.00000000E+00  1.00000000E+00
  0.00000000E+00  1.00000000E+00  0.00000000E+00  0.00000000E+00  0.00000000E+00
  0.00000000E+00  0.00000000E+00  0.00000000E+00  0.00000000E+00  0.00000000E+00
  0.00000000E+00  0.00000000E+00
MxBond                                     I                2
NBond                                      I   N=           5
           1           2           2           2           1
IBond                                      I   N=          10
           2           0           1           3           2           4
           3           5           4           0
RBond                                      R   N=          10
  1.00000000E+00  0.00000000E+00  1.00000000E+00  1.00000000E+00  1.00000000E+00
  1.00000000E+00  1.00000000E+00  1.00000000E+00  1.00000000E+00  0.00000000E+00
Virial Ratio                               R      2.002375527093563E+00
SCF Energy                                 R     -2.795042769264773E+02
MP2 Energy                                 R     -2.804505318234123E+02
Total Energy                               R     -2.804505318234123E+02
Post-SCF wavefunction norm                 R      1.584655539708722E+00
RMS Force                                  R      7.872479036189778E-05
RMS Density                                R      6.454267434452104E-10
NImag                                      I                0
Job Status                                 I                1
Nuclear derivative order                   I                2
External E-field                           R   N=          35
  0.00000000E+00  0.00000000E+00  0.00000000E+00  0.00000000E+00  0.00000000E+00
  0.00000000E+00  0.00000000E+00  0.00000000E+00  0.00000000E+00  0.00000000E+00
  0.00000000E+00  0.00000000E+00  0.00000000E+00  0.00000000E+00  0.00000000E+00
  0.00000000E+00  0.00000000E+00  0.00000000E+00  0.00000000E+00  0.00000000E+00
  0.00000000E+00  0.00000000E+00  0.00000000E+00  0.00000000E+00  0.00000000E+00
  0.00000000E+00  0.00000000E+00  0.00000000E+00  0.00000000E+00  0.00000000E+00
  0.00000000E+00  0.00000000E+00  0.00000000E+00  0.00000000E+00  0.00000000E+00
IOpCl                                      I                0
IROHF                                      I                0
Alpha Orbital Energies                     R   N=         207
 -2.06933684E+01 -2.06878642E+01 -2.06586762E+01 -1.58153915E+01 -1.62880524E+00
 -1.50233077E+00 -1.24238112E+00 -9.53682946E-01 -7.77628335E-01 -7.55833706E-01
 -7.32456223E-01 -6.73375938E-01 -6.18759886E-01 -5.64413879E-01 -5.18194782E-01
 -4.58957129E-01  2.92879434E-02  6.60756752E-02  8.46642499E-02  1.01944815E-01
  1.14808985E-01  1.35545441E-01  1.49377379E-01  1.54776041E-01  1.75586780E-01
  1.85138492E-01  1.96872420E-01  2.05673186E-01  2.20871560E-01  2.31691643E-01
  2.47100692E-01  2.64192680E-01  2.75996742E-01  3.00410907E-01  3.10786134E-01
  3.41799216E-01  3.60299278E-01  3.81593439E-01  3.93826906E-01  4.25536075E-01
  5.24553767E-01  5.26915104E-01  5.50439767E-01  5.79590085E-01  6.21675774E-01
  6.38810649E-01  6.47921662E-01  6.71343687E-01  7.00365968E-01  7.11945084E-01
  7.21436809E-01  7.44192984E-01  7.65324113E-01  7.83427366E-01  8.00276611E-01
  8.15721915E-01  8.44616944E-01  8.48568128E-01  8.64308892E-01  8.85837922E-01
  8.90730852E-01  9.37810386E-01  9.69577260E-01  9.79156701E-01  9.83680868E-01
  1.00776079E+00  1.01631581E+00  1.04516812E+00  1.05495913E+00  1.12956307E+00
  1.17332966E+00  1.17436355E+00  1.21533785E+00  1.27063389E+00  1.28499755E+00
  1.37650856E+00  1.41219057E+00  1.43597355E+00  1.48433323E+00  1.51925409E+00
  1.52200242E+00  1.54900686E+00  1.56927331E+00  1.59039522E+00  1.61846324E+00
  1.66589575E+00  1.71451767E+00  1.73129356E+00  1.81544235E+00  1.84183035E+00
  1.88957226E+00  1.91360019E+00  1.97356526E+00  1.99903886E+00  2.02089062E+00
  2.06201371E+00  2.11532374E+00  2.14239549E+00  2.18221144E+00  2.20345893E+00
  2.23991882E+00  2.25460752E+00  2.30388839E+00  2.31362387E+00  2.33276462E+00
  2.37268511E+00  2.41280881E+00  2.43265544E+00  2.45952570E+00  2.47154853E+00
  2.51778003E+00  2.52881818E+00  2.56729739E+00  2.61317442E+00  2.62791812E+00
  2.64415943E+00  2.67794589E+00  2.68754100E+00  2.75401194E+00  2.77433623E+00
  2.81622810E+00  2.86557987E+00  2.87276463E+00  2.92260716E+00  2.96715686E+00
  2.99893499E+00  3.06978286E+00  3.10169012E+00  3.20060122E+00  3.24288886E+00
  3.31740092E+00  3.34886239E+00  3.48869570E+00  3.68223272E+00  3.78705128E+00
  3.86876142E+00  4.13423914E+00  4.18115036E+00  4.23381846E+00  4.26038139E+00
  4.37297817E+00  4.42347010E+00  4.44064752E+00  4.58006640E+00  4.65543291E+00
  4.70038490E+00  4.76676130E+00  4.77640571E+00  4.83903584E+00  4.90216870E+00
  4.99387328E+00  5.05191239E+00  5.09721002E+00  5.14570769E+00  5.22229158E+00
  5.23976451E+00  5.27330836E+00  5.29176621E+00  5.31539475E+00  5.32900780E+00
  5.47222614E+00  5.67727371E+00  5.68711612E+00  5.87692226E+00  5.92262759E+00
  6.15308726E+00  6.29484060E+00  6.41383493E+00  6.45855760E+00  6.49257886E+00
  6.50827183E+00  6.56436932E+00  6.63922711E+00  6.69767502E+00  6.76761973E+00
  6.78016834E+00  6.82405792E+00  6.89800503E+00  6.97633738E+00  7.03527813E+00
  7.10522298E+00  7.13112652E+00  7.16379312E+00  7.18014543E+00  7.20832395E+00
  7.23536641E+00  7.25523318E+00  7.29118965E+00  7.30180540E+00  7.32746463E+00
  7.38351777E+00  7.46219583E+00  7.48587618E+00  7.52706170E+00  7.60661943E+00
  7.64082863E+00  7.68493379E+00  7.82065803E+00  7.90704857E+00  8.04349848E+00
  8.12334514E+00  8.49143543E+00  8.52881164E+00  1.33207264E+01  1.43612829E+01
  1.51815605E+01  1.62272643E+01
Alpha MO coefficients                      R   N=       42849
 -6.29027011E-06  2.80235807E-05 -1.50980115E-04 -3.78107245E-06  5.55790728E-06
  5.00845266E-06 -8.27154547E-07 -4.74189082E-05 -1.72330982E-06 -1.98526846E-05
  1.00830691E-05 -2.68457844E-05  5.92405750E-05  3.74223625E-07  2.21649758E-06
 -3.64847297E-06  1.60856730E-06  2.43361225E-06  1.35280188E-05  1.40936659E-05
 -4.86457537E-06 -7.01634974E-06  6.27670959E-06  5.95122334E-05  9.14686339E-05
 -1.78564289E-05 -1.46857497E-04  2.98889180E-04  1.43495567E-05 -3.17936534E-06
  3.31447134E-06 -9.32537892E-05  1.23490973E-05 -1.81985234E-05  2.53888344E-04
  8.96200897E-05  2.94534376E-06  1.56245403E-05  1.93369635E-05  2.44220762E-05
 -6.19388790E-06  2.57038566E-07  5.09140711E-07 -4.03769371E-06  1.57147462E-06
  8.25798687E-06 -4.38724925E-06 -2.59935448E-06  6.13040198E-05 -9.20367711E-06
  6.14486433E-05  4.47935710E-05  2.58913944E-05 -8.79809703E-05 -5.51481260E-05
 -8.01045876E-07  4.72526537E-06  1.63340300E-06 -6.36436251E-07  1.63794620E-06
 -1.71454082E-05 -1.41133791E-06  3.59591877E-06 -1.47781977E-05 -1.82645858E-05
  1.15301236E-05 -1.15662910E-05  1.41813867E-05 -2.22108572E-05 -2.93357187E-03
  1.01020901E-04 -1.58479262E-04 -8.31694906E-05 -5.31268396E-04  1.12701354E-05
 -2.13545641E-05  3.07926927E-07 -6.28220078E-05  2.95834680E-05  7.44970291E-07
  2.97454816E-04  7.70460137E-05 -8.07344539E-06 -1.22248953E-04 -1.11853961E-04
 -1.27498603E-05 -8.90164650E-06 -1.19638756E-06 -1.08304388E-07  2.18762720E-05
  1.43821164E-05 -1.79219288E-06  4.78772220E-06  1.31392010E-07 -5.10371103E-05
 -7.90926987E-05  2.24657511E-06  1.47451143E-05 -1.09730608E-05 -1.31585115E-04
 -1.10733009E-04 -1.57099892E-06  4.54760475E-06  9.46932080E-07  6.97117410E-08
  7.16143688E-08 -1.76634527E-05 -1.86141019E-06  5.66283755E-06 -3.86994612E-05
 -2.06840519E-05 -4.57248590E-07  4.58783049E-06  2.01062928E-04 -6.25938126E-06
  2.59571667E-04  1.45933898E-03 -6.79775266E-05 -1.44436089E-03  5.00107256E-04
 -1.32266226E-04 -9.15353500E-05  3.60700480E-06 -1.81302260E-03 -9.08031056E-04
  3.18287406E-05  1.20935493E-03 -5.59159311E-05 -2.06625695E-05 -5.96583605E-05
 -1.64513991E-04  9.31011922E-06 -1.21433230E-04 -7.69642659E-06 -3.06693064E-06
  1.55995080E-04  2.00509389E-04 -4.32961622E-04 -1.96977381E-05 -1.93420096E-05
  2.09706515E-04  8.47964616E-04  9.80728029E-06  3.89557284E-05  1.00731080E-06
 -2.20516729E-04 -2.44402971E-04  4.24428061E-07 -4.91106918E-06 -1.76100473E-05
 -2.12010447E-07 -6.70935649E-08  1.12416146E-05  3.45365091E-05 -8.85566124E-06
  1.20522737E-04  1.53680703E-04  1.23986069E-07  4.16327580E-06  8.92962141E-05
 -2.37003436E-04  9.76646739E-01 -9.85909005E-03  4.35581535E-02  4.44635994E-03
 -4.09578196E-04  2.00007858E-03  9.06377556E-04 -3.32152712E-05 -2.23733421E-03
 -9.52194527E-04  3.82084003E-05  9.44946287E-04  7.24248229E-04  1.09670503E-05
 -2.49478897E-05  5.13400156E-05  4.08839162E-06 -2.36109026E-04 -7.68233224E-06
 -5.37879684E-06  6.17366633E-05  9.60432983E-05  3.76434356E-04  2.70393448E-05
  9.35435820E-06 -6.11834355E-04 -6.61854465E-04 -1.71217707E-04  9.41198754E-07
  1.50447620E-06  9.87064769E-05  2.67649655E-04 -1.84741556E-06  4.90294948E-05
  1.54820165E-05  1.07054208E-06  1.47656577E-06 -4.62722522E-06 -2.13669961E-05
 -6.98104811E-06  1.10906868E-04  7.18363110E-05  5.81916572E-06  7.18866270E-06
 -6.36893710E-05 -2.17043083E-04  6.53096846E-05 -1.81712299E-04 -3.43022465E-04
  1.12706310E-05 -7.09325705E-05 -1.85691549E-05 -1.21843790E-05  8.96765130E-05
 -2.19513659E-05  1.28935505E-04  4.61333060E-05 -1.55145582E-06  6.13069547E-05
  3.66073218E-06  2.19022820E-05  2.71388886E-05 -2.44781527E-05 -4.49312646E-05
  1.14795006E-05  4.76627995E-05  4.01328411E-05 -6.06908620E-05 -2.44292591E-05
  5.36505395E-03 -1.81727064E-04  6.92870019E-06  2.01909655E-03  1.80295090E-03
  8.70428234E-05  7.50982331E-05  2.93704788E-07 -5.50154803E-04 -4.51076653E-04
  5.83255357E-05 -1.40766530E-03 -1.10157490E-03  2.52129070E-04 -3.49551141E-04
 -2.16473599E-04  4.99683060E-05  2.18162746E-05  1.75499963E-06  2.10091615E-06
 -1.28877303E-05 -5.05738745E-05 -4.38515139E-04 -8.52115051E-05 -5.12697383E-05
  2.72423911E-04  7.61715344E-04 -3.95529581E-04 -9.33592283E-05 -4.30529217E-05
  2.59368316E-04  5.71555529E-04 -1.85930321E-05  5.76093298E-05  5.45807023E-05
 -9.59821854E-07  1.35058228E-05  1.36013080E-05 -1.21091021E-04 -1.02680880E-04
  2.54106323E-04  1.26662895E-04  7.57940710E-05  1.11052146E-04  5.77075400E-05
 -3.27608932E-04  9.76929785E-01 -9.15920319E-03  4.32944548E-02  1.61239670E-03
 -1.38335375E-03  5.46715415E-04  1.98512703E-03 -4.47503579E-05 -5.78390063E-04
 -1.96262853E-03  5.02501856E-05 -1.03679530E-03  8.31440801E-04  1.08371888E-04
 -3.72581765E-04 -1.02011177E-04  4.69038832E-05  5.26063248E-05  6.35477695E-06
  8.34174499E-06  9.60268868E-06 -1.35818707E-05  7.37615687E-04  7.05944966E-05
  3.30796773E-05 -4.94385377E-04 -2.23320300E-04 -1.97217956E-04  5.72814625E-05
  8.99495153E-06 -5.21390154E-04 -1.08791475E-04 -6.83735690E-06  1.32491313E-05
  6.47114239E-05 -2.31728479E-06  2.54879114E-06  6.69145478E-06 -5.58231196E-05
 -1.44355060E-05  7.99517786E-05  8.48626796E-06  3.33943851E-05  3.22301232E-05
 -6.39278871E-05 -3.21929076E-04  2.67268154E-05 -3.46266658E-05 -2.46122193E-04
 -5.62579031E-04  2.42266265E-04 -8.54252844E-05  5.42201339E-05  3.29002697E-08
  6.63316511E-04 -2.78924892E-04  2.12104351E-07 -1.70218779E-03  1.15954525E-04
 -1.23718148E-06  8.38071249E-06 -1.49610665E-04  9.45299651E-06 -8.21552846E-06
 -1.46474830E-07 -2.90260582E-07  5.99730532E-06 -1.21175118E-05 -2.87290668E-04
  1.84775997E-05 -1.76610705E-06 -4.76034507E-05 -8.00795580E-04 -7.22348694E-05
  1.20792916E-05 -3.60954797E-06  1.10245706E-04  2.83366152E-04 -4.17741875E-06
 -9.53014767E-05  7.55408512E-05  3.19629106E-06 -2.15783305E-06 -9.37609985E-05
 -9.07355764E-05  9.23522919E-06  2.37651618E-06  1.06186856E-04 -9.14076547E-06
 -1.67027193E-05 -5.24014387E-04 -9.30857750E-05  2.97486906E-03  7.22965019E-05
  1.11812928E-04 -6.56757331E-04 -2.34583498E-04 -1.78264085E-05  2.81428564E-05
 -1.66859108E-06  1.74863589E-04 -1.32105319E-04  1.01476488E-05  4.62115650E-04
 -3.28231906E-04  2.73305718E-05  6.46367526E-06  1.14583959E-04 -1.26005387E-05
 -7.31052966E-06 -4.76874261E-07 -6.89556413E-07 -1.05476188E-05 -1.40357513E-05
  6.81605477E-07  3.70862695E-06  5.85564811E-06  1.70765035E-04  3.62749410E-05
 -1.38764993E-04 -9.72146627E-06  1.17453554E-05  3.49948335E-04  9.33729434E-05
 -1.39168634E-06  7.14070243E-06  1.23503948E-05  2.16530296E-06 -7.01044665E-07
 -1.04934384E-05 -1.07231684E-05  4.57466245E-06 -2.53885289E-06 -5.44482768E-05
 -9.56074680E-06  1.81084343E-06  8.47442205E-05  1.34278646E-04  4.75560174E-04
  2.18332808E-03  5.22581885E-04  2.93632795E-06 -1.26725482E-04 -2.58468274E-05
 -2.10860334E-04  2.24554609E-05  1.49151518E-04 -1.17568489E-03  2.07968164E-04
  1.50035646E-04 -3.12381183E-04 -7.30333384E-05 -2.39624075E-05  1.61958830E-06
  6.05136681E-06  1.68482075E-05  4.62375096E-04  1.27073820E-04 -1.57759674E-05
 -8.28254613E-05 -9.80713334E-05  9.76830436E-01 -9.10483281E-03  4.34625794E-02
 -2.63703284E-05 -1.90831614E-03 -1.14327534E-03 -8.36268439E-04  1.67295897E-03
  1.26402553E-03  8.33437467E-04 -1.48879570E-03 -7.96685508E-04 -2.21273808E-04
 -6.79780838E-04  1.14026050E-04  1.10864084E-04 -1.18402274E-04  7.47407659E-05
  2.66196196E-05  5.15129839E-06 -3.01082347E-05 -6.25730174E-05 -2.97980788E-05
 -1.92483081E-04  2.17883814E-05 -4.49286150E-04 -6.78619064E-04 -3.85453158E-04
 -2.97784602E-04 -1.24612165E-04  1.83181607E-04  1.51557796E-04  7.10358307E-06
 -3.59110662E-05 -8.28635690E-06 -7.07226876E-06 -1.76709480E-05  1.54644927E-07