 Entering Gaussian System, Link 0=g16
 Input=hoono_eq.gjf
 Output=hoono_eq.log
 Initial command:
 /sw/contrib/gaussian/g16/B01/g16/l1.exe "/scr/Gau-50620.inp" -scrdir="/scr/"
 Entering Link 1 = /sw/contrib/gaussian/g16/B01/g16/l1.exe PID=     50621.
  
 Copyright (c) 1988-2017, Gaussian, Inc.  All Rights Reserved.
  
 This is part of the Gaussian(R) 16 program.  It is based on
 the Gaussian(R) 09 system (copyright 2009, Gaussian, Inc.),
 the Gaussian(R) 03 system (copyright 2003, Gaussian, Inc.),
 the Gaussian(R) 98 system (copyright 1998, Gaussian, Inc.),
 the Gaussian(R) 94 system (copyright 1995, Gaussian, Inc.),
 the Gaussian 92(TM) system (copyright 1992, Gaussian, Inc.),
 the Gaussian 90(TM) system (copyright 1990, Gaussian, Inc.),
 the Gaussian 88(TM) system (copyright 1988, Gaussian, Inc.),
 the Gaussian 86(TM) system (copyright 1986, Carnegie Mellon
 University), and the Gaussian 82(TM) system (copyright 1983,
 Carnegie Mellon University). Gaussian is a federally registered
 trademark of Gaussian, Inc.
  
 This software contains proprietary and confidential information,
 including trade secrets, belonging to Gaussian, Inc.
  
 This software is provided under written license and may be
 used, copied, transmitted, or stored only in accord with that
 written license.
  
 The following legend is applicable only to US Government
 contracts under FAR:
  
                    RESTRICTED RIGHTS LEGEND
  
 Use, reproduction and disclosure by the US Government is
 subject to restrictions as set forth in subparagraphs (a)
 and (c) of the Commercial Computer Software - Restricted
 Rights clause in FAR 52.227-19.
  
 Gaussian, Inc.
 340 Quinnipiac St., Bldg. 40, Wallingford CT 06492
  
  
 ---------------------------------------------------------------
 Warning -- This program may not be used in any manner that
 competes with the business of Gaussian, Inc. or will provide
 assistance to any competitor of Gaussian, Inc.  The licensee
 of this program is prohibited from giving any competitor of
 Gaussian, Inc. access to this program.  By using this program,
 the user acknowledges that Gaussian, Inc. is engaged in the
 business of creating and licensing software in the field of
 computational chemistry and represents and warrants to the
 licensee that it is not a competitor of Gaussian, Inc. and that
 it will not use this program in any manner prohibited above.
 ---------------------------------------------------------------
  

 Cite this work as:
 Gaussian 16, Revision B.01,
 M. J. Frisch, G. W. Trucks, H. B. Schlegel, G. E. Scuseria, 
 M. A. Robb, J. R. Cheeseman, G. Scalmani, V. Barone, 
 G. A. Petersson, H. Nakatsuji, X. Li, M. Caricato, A. V. Marenich, 
 J. Bloino, B. G. Janesko, R. Gomperts, B. Mennucci, H. P. Hratchian, 
 J. V. Ortiz, A. F. Izmaylov, J. L. Sonnenberg, D. Williams-Young, 
 F. Ding, F. Lipparini, F. Egidi, J. Goings, B. Peng, A. Petrone, 
 T. Henderson, D. Ranasinghe, V. G. Zakrzewski, J. Gao, N. Rega, 
 G. Zheng, W. Liang, M. Hada, M. Ehara, K. Toyota, R. Fukuda, 
 J. Hasegawa, M. Ishida, T. Nakajima, Y. Honda, O. Kitao, H. Nakai, 
 T. Vreven, K. Throssell, J. A. Montgomery, Jr., J. E. Peralta, 
 F. Ogliaro, M. J. Bearpark, J. J. Heyd, E. N. Brothers, K. N. Kudin, 
 V. N. Staroverov, T. A. Keith, R. Kobayashi, J. Normand, 
 K. Raghavachari, A. P. Rendell, J. C. Burant, S. S. Iyengar, 
 J. Tomasi, M. Cossi, J. M. Millam, M. Klene, C. Adamo, R. Cammi, 
 J. W. Ochterski, R. L. Martin, K. Morokuma, O. Farkas, 
 J. B. Foresman, and D. J. Fox, Gaussian, Inc., Wallingford CT, 2016.
 
 ******************************************
 Gaussian 16:  ES64L-G16RevB.01 20-Dec-2017
                 6-Mar-2022 
 ******************************************
 %nproc=28
 Will use up to   28 processors via shared memory.
 %mem=120GB
 %chk=hoono_eq.chk
 ------------------------------------------------------
 #p freq opt=(z-matrix) mp2/aug-cc-pvtz density=current
 ------------------------------------------------------
 1/10=7,18=40,38=1/1,3;
 2/12=2,17=6,18=5,29=3,40=1/2;
 3/5=16,6=1,7=10,11=9,25=1,30=1,71=1/1,2,3;
 4//1;
 5/5=2,38=5/2;
 8/6=4,10=1/1;
 9/15=2,16=-3/6;
 10/5=1/2;
 6/7=2,8=2,9=2,10=2,22=-1/1;
 7/12=2,29=1/1,2,3,16;
 1/10=7,18=40/3(2);
 2/29=3/2;
 99//99;
 2/29=3/2;
 3/5=16,6=1,7=10,11=9,25=1,30=1,71=1/1,2,3;
 4/5=5,16=3,69=1/1;
 5/5=2,38=5/2;
 8/6=4,10=1/1;
 9/15=2,16=-3/6;
 10/5=1/2;
 7/12=2/1,2,3,16;
 1/18=40/3(-8);
 2/29=3/2;
 6/7=2,8=2,9=2,10=2,22=-1/1;
 99/9=10/99;
 Leave Link    1 at Sun Mar  6 18:00:50 2022, MaxMem= 16106127360 cpu:               1.4 elap:               0.1
 (Enter /sw/contrib/gaussian/g16/B01/g16/l101.exe)
 -----
 title
 -----
 Symbolic Z-matrix:
 Charge =  0 Multiplicity = 1
 H
 O                    1    r1
 O                    2    r2       1    a1
 N                    3    r3       2    a2       1    d1       0
 O                    4    r4       3    a3       2    d2       0
       Variables:
  r1                    0.9823                   
  r2                    1.4418                   
  r3                    1.3845                   
  r4                    1.1917                   
  a1                   99.804                    
  a2                  112.983                    
  a3                  114.4                      
  d1                    0.                       
  d2                    0.                       
 
 ITRead=  0  0  0  0  0
 MicOpt= -1 -1 -1 -1 -1
 NAtoms=      5 NQM=        5 NQMF=       0 NMMI=      0 NMMIF=      0
                NMic=       0 NMicF=      0.
                    Isotopes and Nuclear Properties:
 (Nuclear quadrupole moments (NQMom) in fm**2, nuclear magnetic moments (NMagM)
  in nuclear magnetons)

  Atom         1           2           3           4           5
 IAtWgt=           1          16          16          14          16
 AtmWgt=   1.0078250  15.9949146  15.9949146  14.0030740  15.9949146
 NucSpn=           1           0           0           2           0
 AtZEff=  -0.0000000  -0.0000000  -0.0000000  -0.0000000  -0.0000000
 NQMom=    0.0000000   0.0000000   0.0000000   2.0440000   0.0000000
 NMagM=    2.7928460   0.0000000   0.0000000   0.4037610   0.0000000
 AtZNuc=   1.0000000   8.0000000   8.0000000   7.0000000   8.0000000
 Leave Link  101 at Sun Mar  6 18:00:50 2022, MaxMem= 16106127360 cpu:               3.1 elap:               0.1
 (Enter /sw/contrib/gaussian/g16/B01/g16/l103.exe)

 GradGradGradGradGradGradGradGradGradGradGradGradGradGradGradGradGradGrad
 Berny optimization.
 Initialization pass.
                       ----------------------------
                       !    Initial Parameters    !
                       ! (Angstroms and Degrees)  !
 ----------------------                            ----------------------
 !      Name          Value   Derivative information (Atomic Units)     !
 ------------------------------------------------------------------------
 !       r1          0.9823   estimate D2E/DX2                          !
 !       r2          1.4418   estimate D2E/DX2                          !
 !       r3          1.3845   estimate D2E/DX2                          !
 !       r4          1.1917   estimate D2E/DX2                          !
 !       a1         99.804    estimate D2E/DX2                          !
 !       a2        112.983    estimate D2E/DX2                          !
 !       a3        114.4      estimate D2E/DX2                          !
 !       d1          0.0      estimate D2E/DX2                          !
 !       d2          0.0      estimate D2E/DX2                          !
 ------------------------------------------------------------------------
 Trust Radius=3.00D-01 FncErr=1.00D-07 GrdErr=1.00D-07 EigMax=2.50D+02 EigMin=1.00D-04
 Number of steps in this run=     20 maximum allowed number of steps=    100.
 GradGradGradGradGradGradGradGradGradGradGradGradGradGradGradGradGradGrad

 Leave Link  103 at Sun Mar  6 18:00:50 2022, MaxMem= 16106127360 cpu:               2.1 elap:               0.1
 (Enter /sw/contrib/gaussian/g16/B01/g16/l202.exe)
 ---------------------------------------------------------------------------------------------------
                            Z-MATRIX (ANGSTROMS AND DEGREES)
   CD    Cent   Atom    N1       Length/X        N2       Alpha/Y        N3        Beta/Z          J
 ---------------------------------------------------------------------------------------------------
      1      1  H 
      2      2  O        1   0.982300(     1)
      3      3  O        2   1.441800(     2)      1   99.804(     5)
      4      4  N        3   1.384500(     3)      2  112.983(     6)      1    0.000(     8)      0
      5      5  O        4   1.191700(     4)      3  114.400(     7)      2    0.000(     9)      0
 ---------------------------------------------------------------------------------------------------
                         Z-Matrix orientation:                         
 ---------------------------------------------------------------------
 Center     Atomic      Atomic             Coordinates (Angstroms)
 Number     Number       Type             X           Y           Z
 ---------------------------------------------------------------------
      1          1           0        0.000000    0.000000    0.000000
      2          8           0        0.000000    0.000000    0.982300
      3          8           0        1.420744    0.000000    1.227807
      4          7           0        2.170475    0.000000    0.063873
      5          8           0        1.524694    0.000000   -0.937684
 ---------------------------------------------------------------------
                    Distance matrix (angstroms):
                    1          2          3          4          5
     1  H    0.000000
     2  O    0.982300   0.000000
     3  O    1.877771   1.441800   0.000000
     4  N    2.171415   2.356792   1.384500   0.000000
     5  O    1.789956   2.451740   2.167985   1.191700   0.000000
 Stoichiometry    HNO3
 Framework group  CS[SG(HNO3)]
 Deg. of freedom     7
 Full point group                 CS      NOp   2
 Largest Abelian subgroup         CS      NOp   2
 Largest concise Abelian subgroup C1      NOp   1
                         Standard orientation:                         
 ---------------------------------------------------------------------
 Center     Atomic      Atomic             Coordinates (Angstroms)
 Number     Number       Type             X           Y           Z
 ---------------------------------------------------------------------
      1          1           0        1.103637   -0.599289    0.000000
      2          8           0        1.327442    0.357175    0.000000
      3          8           0        0.000000    0.919924   -0.000000
      4          7           0       -0.995200   -0.042581   -0.000000
      5          8           0       -0.594596   -1.164929   -0.000000
 ---------------------------------------------------------------------
 Rotational constants (GHZ):          21.1825817           8.0573419           5.8370639
 Leave Link  202 at Sun Mar  6 18:00:50 2022, MaxMem= 16106127360 cpu:               1.4 elap:               0.1
 (Enter /sw/contrib/gaussian/g16/B01/g16/l301.exe)
 Standard basis: Aug-CC-pVTZ (5D, 7F)
 Ernie: Thresh=  0.10000D-02 Tol=  0.10000D-05 Strict=F.
 Ernie:  12 primitive shells out of 131 were deleted.
 There are   166 symmetry adapted cartesian basis functions of A'  symmetry.
 There are    79 symmetry adapted cartesian basis functions of A"  symmetry.
 There are   136 symmetry adapted basis functions of A'  symmetry.
 There are    71 symmetry adapted basis functions of A"  symmetry.
   207 basis functions,   315 primitive gaussians,   245 cartesian basis functions
    16 alpha electrons       16 beta electrons
       nuclear repulsion energy       122.4048235676 Hartrees.
 IExCor=    0 DFT=F Ex=HF Corr=None ExCW=0 ScaHFX=  1.000000
 ScaDFX=  1.000000  1.000000  1.000000  1.000000 ScalE2=  1.000000  1.000000
 IRadAn=      5 IRanWt=     -1 IRanGd=            0 ICorTp=0 IEmpDi=  4
 NAtoms=    5 NActive=    5 NUniq=    5 SFac= 1.00D+00 NAtFMM=   60 NAOKFM=F Big=F
 Integral buffers will be    131072 words long.
 Raffenetti 1 integral format.
 Two-electron integral symmetry is turned on.
 Leave Link  301 at Sun Mar  6 18:00:50 2022, MaxMem= 16106127360 cpu:               1.4 elap:               0.1
 (Enter /sw/contrib/gaussian/g16/B01/g16/l302.exe)
 NPDir=0 NMtPBC=     1 NCelOv=     1 NCel=       1 NClECP=     1 NCelD=      1
         NCelK=      1 NCelE2=     1 NClLst=     1 CellRange=     0.0.
 One-electron integrals computed using PRISM.
 One-electron integral symmetry used in STVInt
 NBasis=   207 RedAO= T EigKep=  1.32D-04  NBF=   136    71
 NBsUse=   207 1.00D-06 EigRej= -1.00D+00 NBFU=   136    71
 Leave Link  302 at Sun Mar  6 18:00:51 2022, MaxMem= 16106127360 cpu:               5.2 elap:               0.2
 (Enter /sw/contrib/gaussian/g16/B01/g16/l303.exe)
 DipDrv:  MaxL=1.
 Leave Link  303 at Sun Mar  6 18:00:51 2022, MaxMem= 16106127360 cpu:               1.2 elap:               0.1
 (Enter /sw/contrib/gaussian/g16/B01/g16/l401.exe)
 ExpMin= 2.53D-02 ExpMax= 1.53D+04 ExpMxC= 5.22D+02 IAcc=3 IRadAn=         5 AccDes= 0.00D+00
 Harris functional with IExCor=  205 and IRadAn=       5 diagonalized for initial guess.
 HarFok:  IExCor=  205 AccDes= 0.00D+00 IRadAn=         5 IDoV= 1 UseB2=F ITyADJ=14
 ICtDFT=  3500011 ScaDFX=  1.000000  1.000000  1.000000  1.000000
 FoFCou: FMM=F IPFlag=           0 FMFlag=      100000 FMFlg1=           0
         NFxFlg=           0 DoJE=T BraDBF=F KetDBF=T FulRan=T
         wScrn=  0.000000 ICntrl=       500 IOpCl=  0 I1Cent=   200000004 NGrid=           0
         NMat0=    1 NMatS0=      1 NMatT0=    0 NMatD0=    1 NMtDS0=    0 NMtDT0=    0
 Petite list used in FoFCou.
 Harris En= -279.644304528141    
 JPrj=0 DoOrth=F DoCkMO=F.
 Initial guess orbital symmetries:
       Occupied  (A') (A') (A') (A') (A') (A') (A') (A') (A') (A')
                 (A") (A') (A') (A") (A") (A')
       Virtual   (A") (A') (A') (A') (A') (A") (A') (A') (A') (A')
                 (A") (A') (A") (A') (A') (A") (A') (A') (A") (A')
                 (A') (A') (A') (A') (A") (A') (A') (A') (A") (A')
                 (A') (A") (A") (A') (A') (A") (A') (A") (A') (A")
                 (A') (A") (A') (A") (A') (A') (A') (A") (A') (A')
                 (A') (A") (A') (A") (A') (A") (A') (A') (A') (A")
                 (A') (A') (A") (A') (A') (A') (A") (A") (A') (A')
                 (A") (A') (A") (A") (A') (A') (A") (A') (A') (A')
                 (A") (A') (A') (A") (A') (A") (A') (A") (A') (A')
                 (A') (A") (A') (A") (A') (A') (A") (A') (A") (A')
                 (A") (A') (A') (A") (A") (A') (A') (A') (A") (A')
                 (A") (A') (A') (A') (A") (A') (A') (A') (A") (A')
                 (A") (A') (A') (A") (A") (A") (A") (A') (A') (A')
                 (A') (A') (A') (A") (A') (A") (A') (A") (A') (A')
                 (A") (A") (A') (A') (A') (A") (A') (A') (A') (A')
                 (A") (A') (A') (A") (A') (A") (A") (A') (A") (A')
                 (A') (A") (A") (A') (A") (A') (A') (A") (A") (A')
                 (A") (A") (A") (A') (A') (A") (A') (A') (A") (A')
                 (A') (A') (A') (A') (A') (A') (A') (A') (A') (A')
                 (A')
 The electronic state of the initial guess is 1-A'.
 Leave Link  401 at Sun Mar  6 18:00:51 2022, MaxMem= 16106127360 cpu:               6.2 elap:               0.3
 (Enter /sw/contrib/gaussian/g16/B01/g16/l502.exe)
 Keep R1 ints in memory in symmetry-blocked form, NReq=348887737.
 FoFCou: FMM=F IPFlag=           0 FMFlag=           0 FMFlg1=           0
         NFxFlg=           0 DoJE=F BraDBF=F KetDBF=F FulRan=T
         wScrn=  0.000000 ICntrl=       600 IOpCl=  0 I1Cent=           0 NGrid=           0
         NMat0=    1 NMatS0=  21528 NMatT0=    0 NMatD0=    1 NMtDS0=    0 NMtDT0=    0
 Petite list used in FoFCou.
 Closed shell SCF:
 Using DIIS extrapolation, IDIIS=  1040.
 NGot= 16106127360 LenX= 15988850015 LenY= 15988789549
 Requested convergence on RMS density matrix=1.00D-08 within 128 cycles.
 Requested convergence on MAX density matrix=1.00D-06.
 Requested convergence on             energy=1.00D-06.
 No special actions if energy rises.

 Cycle   1  Pass 1  IDiag  1:
 E= -279.362517717485    
 DIIS: error= 2.75D-02 at cycle   1 NSaved=   1.
 NSaved= 1 IEnMin= 1 EnMin= -279.362517717485     IErMin= 1 ErrMin= 2.75D-02
 ErrMax= 2.75D-02  0.00D+00 EMaxC= 1.00D-01 BMatC= 4.51D-01 BMatP= 4.51D-01
 IDIUse=3 WtCom= 7.25D-01 WtEn= 2.75D-01
 Coeff-Com:  0.100D+01
 Coeff-En:   0.100D+01
 Coeff:      0.100D+01
 Gap=     0.498 Goal=   None    Shift=    0.000
 GapD=    0.498 DampG=2.000 DampE=0.500 DampFc=1.0000 IDamp=-1.
 RMSDP=1.68D-03 MaxDP=8.79D-02              OVMax= 1.23D-01

 Cycle   2  Pass 1  IDiag  1:
 E= -279.444430390269     Delta-E=       -0.081912672784 Rises=F Damp=F
 DIIS: error= 1.95D-02 at cycle   2 NSaved=   2.
 NSaved= 2 IEnMin= 2 EnMin= -279.444430390269     IErMin= 2 ErrMin= 1.95D-02
 ErrMax= 1.95D-02  0.00D+00 EMaxC= 1.00D-01 BMatC= 8.73D-02 BMatP= 4.51D-01
 IDIUse=3 WtCom= 8.05D-01 WtEn= 1.95D-01
 Coeff-Com:  0.221D+00 0.779D+00
 Coeff-En:   0.846D-01 0.915D+00
 Coeff:      0.194D+00 0.806D+00
 Gap=     0.564 Goal=   None    Shift=    0.000
 RMSDP=9.72D-04 MaxDP=3.72D-02 DE=-8.19D-02 OVMax= 9.00D-02

 Cycle   3  Pass 1  IDiag  1:
 E= -279.483098009187     Delta-E=       -0.038667618917 Rises=F Damp=F
 DIIS: error= 1.14D-02 at cycle   3 NSaved=   3.
 NSaved= 3 IEnMin= 3 EnMin= -279.483098009187     IErMin= 3 ErrMin= 1.14D-02
 ErrMax= 1.14D-02  0.00D+00 EMaxC= 1.00D-01 BMatC= 3.10D-02 BMatP= 8.73D-02
 IDIUse=3 WtCom= 8.86D-01 WtEn= 1.14D-01
 Coeff-Com: -0.349D-01 0.363D+00 0.672D+00
 Coeff-En:   0.000D+00 0.215D+00 0.785D+00
 Coeff:     -0.310D-01 0.346D+00 0.685D+00
 Gap=     0.544 Goal=   None    Shift=    0.000
 RMSDP=4.11D-04 MaxDP=1.56D-02 DE=-3.87D-02 OVMax= 3.86D-02

 Cycle   4  Pass 1  IDiag  1:
 E= -279.504311053151     Delta-E=       -0.021213043964 Rises=F Damp=F
 DIIS: error= 1.64D-03 at cycle   4 NSaved=   4.
 NSaved= 4 IEnMin= 4 EnMin= -279.504311053151     IErMin= 4 ErrMin= 1.64D-03
 ErrMax= 1.64D-03  0.00D+00 EMaxC= 1.00D-01 BMatC= 6.31D-04 BMatP= 3.10D-02
 IDIUse=3 WtCom= 9.84D-01 WtEn= 1.64D-02
 Coeff-Com: -0.124D-01 0.501D-01 0.162D+00 0.800D+00
 Coeff-En:   0.000D+00 0.000D+00 0.000D+00 0.100D+01
 Coeff:     -0.122D-01 0.493D-01 0.159D+00 0.803D+00
 Gap=     0.530 Goal=   None    Shift=    0.000
 RMSDP=9.90D-05 MaxDP=2.40D-03 DE=-2.12D-02 OVMax= 1.19D-02

 Cycle   5  Pass 1  IDiag  1:
 E= -279.505136086030     Delta-E=       -0.000825032879 Rises=F Damp=F
 DIIS: error= 1.09D-03 at cycle   5 NSaved=   5.
 NSaved= 5 IEnMin= 5 EnMin= -279.505136086030     IErMin= 5 ErrMin= 1.09D-03
 ErrMax= 1.09D-03  0.00D+00 EMaxC= 1.00D-01 BMatC= 1.05D-04 BMatP= 6.31D-04
 IDIUse=3 WtCom= 9.89D-01 WtEn= 1.09D-02
 Coeff-Com:  0.548D-02-0.667D-01-0.113D+00 0.589D-01 0.111D+01
 Coeff-En:   0.000D+00 0.000D+00 0.000D+00 0.000D+00 0.100D+01
 Coeff:      0.542D-02-0.660D-01-0.111D+00 0.583D-01 0.111D+01
 Gap=     0.534 Goal=   None    Shift=    0.000
 RMSDP=8.04D-05 MaxDP=2.12D-03 DE=-8.25D-04 OVMax= 1.28D-02

 Cycle   6  Pass 1  IDiag  1:
 E= -279.505503388556     Delta-E=       -0.000367302526 Rises=F Damp=F
 DIIS: error= 3.30D-04 at cycle   6 NSaved=   6.
 NSaved= 6 IEnMin= 6 EnMin= -279.505503388556     IErMin= 6 ErrMin= 3.30D-04
 ErrMax= 3.30D-04  0.00D+00 EMaxC= 1.00D-01 BMatC= 2.38D-05 BMatP= 1.05D-04
 IDIUse=3 WtCom= 9.97D-01 WtEn= 3.30D-03
 Coeff-Com:  0.186D-02-0.693D-02-0.174D-01-0.175D+00 0.250D-05 0.120D+01
 Coeff-En:   0.000D+00 0.000D+00 0.000D+00 0.000D+00 0.000D+00 0.100D+01
 Coeff:      0.185D-02-0.691D-02-0.174D-01-0.174D+00 0.249D-05 0.120D+01
 Gap=     0.534 Goal=   None    Shift=    0.000
 RMSDP=4.64D-05 MaxDP=1.07D-03 DE=-3.67D-04 OVMax= 5.98D-03

 Cycle   7  Pass 1  IDiag  1:
 E= -279.505588528683     Delta-E=       -0.000085140127 Rises=F Damp=F
 DIIS: error= 1.29D-04 at cycle   7 NSaved=   7.
 NSaved= 7 IEnMin= 7 EnMin= -279.505588528683     IErMin= 7 ErrMin= 1.29D-04
 ErrMax= 1.29D-04  0.00D+00 EMaxC= 1.00D-01 BMatC= 3.65D-06 BMatP= 2.38D-05
 IDIUse=3 WtCom= 9.99D-01 WtEn= 1.29D-03
 Coeff-Com: -0.105D-02 0.113D-01 0.246D-01 0.118D-01-0.181D+00-0.117D+00
 Coeff-Com:  0.125D+01
 Coeff-En:   0.000D+00 0.000D+00 0.000D+00 0.000D+00 0.000D+00 0.000D+00
 Coeff-En:   0.100D+01
 Coeff:     -0.105D-02 0.112D-01 0.245D-01 0.117D-01-0.181D+00-0.117D+00
 Coeff:      0.125D+01
 Gap=     0.535 Goal=   None    Shift=    0.000
 RMSDP=1.73D-05 MaxDP=4.90D-04 DE=-8.51D-05 OVMax= 2.24D-03

 Cycle   8  Pass 1  IDiag  1:
 E= -279.505600417038     Delta-E=       -0.000011888355 Rises=F Damp=F
 DIIS: error= 4.75D-05 at cycle   8 NSaved=   8.
 NSaved= 8 IEnMin= 8 EnMin= -279.505600417038     IErMin= 8 ErrMin= 4.75D-05
 ErrMax= 4.75D-05  0.00D+00 EMaxC= 1.00D-01 BMatC= 6.33D-07 BMatP= 3.65D-06
 IDIUse=1 WtCom= 1.00D+00 WtEn= 0.00D+00
 Coeff-Com: -0.576D-03 0.422D-02 0.999D-02 0.248D-01-0.582D-01-0.196D+00
 Coeff-Com:  0.357D+00 0.860D+00
 Coeff:     -0.576D-03 0.422D-02 0.999D-02 0.248D-01-0.582D-01-0.196D+00
 Coeff:      0.357D+00 0.860D+00
 Gap=     0.535 Goal=   None    Shift=    0.000
 RMSDP=5.68D-06 MaxDP=1.59D-04 DE=-1.19D-05 OVMax= 6.75D-04

 Cycle   9  Pass 1  IDiag  1:
 E= -279.505601873705     Delta-E=       -0.000001456667 Rises=F Damp=F
 DIIS: error= 2.40D-05 at cycle   9 NSaved=   9.
 NSaved= 9 IEnMin= 9 EnMin= -279.505601873705     IErMin= 9 ErrMin= 2.40D-05
 ErrMax= 2.40D-05  0.00D+00 EMaxC= 1.00D-01 BMatC= 1.12D-07 BMatP= 6.33D-07
 IDIUse=1 WtCom= 1.00D+00 WtEn= 0.00D+00
 Coeff-Com:  0.237D-03-0.251D-02-0.525D-02-0.510D-02 0.456D-01 0.478D-01
 Coeff-Com: -0.328D+00 0.754D-02 0.124D+01
 Coeff:      0.237D-03-0.251D-02-0.525D-02-0.510D-02 0.456D-01 0.478D-01
 Coeff:     -0.328D+00 0.754D-02 0.124D+01
 Gap=     0.535 Goal=   None    Shift=    0.000
 RMSDP=2.42D-06 MaxDP=6.47D-05 DE=-1.46D-06 OVMax= 2.51D-04

 Cycle  10  Pass 1  IDiag  1:
 E= -279.505602127688     Delta-E=       -0.000000253983 Rises=F Damp=F
 DIIS: error= 5.69D-06 at cycle  10 NSaved=  10.
 NSaved=10 IEnMin=10 EnMin= -279.505602127688     IErMin=10 ErrMin= 5.69D-06
 ErrMax= 5.69D-06  0.00D+00 EMaxC= 1.00D-01 BMatC= 7.81D-09 BMatP= 1.12D-07
 IDIUse=1 WtCom= 1.00D+00 WtEn= 0.00D+00
 Coeff-Com: -0.392D-04 0.500D-03 0.120D-02-0.177D-02-0.111D-01 0.517D-02
 Coeff-Com:  0.715D-01-0.434D-01-0.448D+00 0.143D+01
 Coeff:     -0.392D-04 0.500D-03 0.120D-02-0.177D-02-0.111D-01 0.517D-02
 Coeff:      0.715D-01-0.434D-01-0.448D+00 0.143D+01
 Gap=     0.535 Goal=   None    Shift=    0.000
 RMSDP=6.85D-07 MaxDP=2.47D-05 DE=-2.54D-07 OVMax= 7.20D-05

 Cycle  11  Pass 1  IDiag  1:
 E= -279.505602151346     Delta-E=       -0.000000023658 Rises=F Damp=F
 DIIS: error= 2.17D-06 at cycle  11 NSaved=  11.
 NSaved=11 IEnMin=11 EnMin= -279.505602151346     IErMin=11 ErrMin= 2.17D-06
 ErrMax= 2.17D-06  0.00D+00 EMaxC= 1.00D-01 BMatC= 8.06D-10 BMatP= 7.81D-09
 IDIUse=1 WtCom= 1.00D+00 WtEn= 0.00D+00
 Coeff-Com: -0.152D-04 0.153D-03 0.314D-03 0.831D-03-0.184D-02-0.704D-02
 Coeff-Com:  0.166D-01 0.208D-01-0.422D-01-0.341D+00 0.135D+01
 Coeff:     -0.152D-04 0.153D-03 0.314D-03 0.831D-03-0.184D-02-0.704D-02
 Coeff:      0.166D-01 0.208D-01-0.422D-01-0.341D+00 0.135D+01
 Gap=     0.535 Goal=   None    Shift=    0.000
 RMSDP=2.39D-07 MaxDP=8.74D-06 DE=-2.37D-08 OVMax= 2.75D-05

 Cycle  12  Pass 1  IDiag  1:
 E= -279.505602154242     Delta-E=       -0.000000002896 Rises=F Damp=F
 DIIS: error= 7.15D-07 at cycle  12 NSaved=  12.
 NSaved=12 IEnMin=12 EnMin= -279.505602154242     IErMin=12 ErrMin= 7.15D-07
 ErrMax= 7.15D-07  0.00D+00 EMaxC= 1.00D-01 BMatC= 8.55D-11 BMatP= 8.06D-10
 IDIUse=1 WtCom= 1.00D+00 WtEn= 0.00D+00
 Coeff-Com:  0.252D-05-0.441D-04-0.961D-04 0.132D-03 0.112D-02-0.768D-03
 Coeff-Com: -0.704D-02 0.567D-02 0.415D-01-0.115D+00-0.176D+00 0.125D+01
 Coeff:      0.252D-05-0.441D-04-0.961D-04 0.132D-03 0.112D-02-0.768D-03
 Coeff:     -0.704D-02 0.567D-02 0.415D-01-0.115D+00-0.176D+00 0.125D+01
 Gap=     0.535 Goal=   None    Shift=    0.000
 RMSDP=8.38D-08 MaxDP=2.69D-06 DE=-2.90D-09 OVMax= 9.58D-06

 Cycle  13  Pass 1  IDiag  1:
 E= -279.505602154542     Delta-E=       -0.000000000300 Rises=F Damp=F
 DIIS: error= 1.61D-07 at cycle  13 NSaved=  13.
 NSaved=13 IEnMin=13 EnMin= -279.505602154542     IErMin=13 ErrMin= 1.61D-07
 ErrMax= 1.61D-07  0.00D+00 EMaxC= 1.00D-01 BMatC= 7.28D-12 BMatP= 8.55D-11
 IDIUse=1 WtCom= 1.00D+00 WtEn= 0.00D+00
 Coeff-Com:  0.124D-05-0.115D-04-0.159D-04-0.116D-03 0.180D-04 0.934D-03
 Coeff-Com: -0.895D-03-0.261D-02-0.274D-02 0.578D-01-0.133D+00-0.155D+00
 Coeff-Com:  0.124D+01
 Coeff:      0.124D-05-0.115D-04-0.159D-04-0.116D-03 0.180D-04 0.934D-03
 Coeff:     -0.895D-03-0.261D-02-0.274D-02 0.578D-01-0.133D+00-0.155D+00
 Coeff:      0.124D+01
 Gap=     0.535 Goal=   None    Shift=    0.000
 RMSDP=2.28D-08 MaxDP=6.69D-07 DE=-3.00D-10 OVMax= 2.05D-06

 Cycle  14  Pass 1  IDiag  1:
 E= -279.505602154563     Delta-E=       -0.000000000021 Rises=F Damp=F
 DIIS: error= 4.05D-08 at cycle  14 NSaved=  14.
 NSaved=14 IEnMin=14 EnMin= -279.505602154563     IErMin=14 ErrMin= 4.05D-08
 ErrMax= 4.05D-08  0.00D+00 EMaxC= 1.00D-01 BMatC= 5.16D-13 BMatP= 7.28D-12
 IDIUse=1 WtCom= 1.00D+00 WtEn= 0.00D+00
 Coeff-Com: -0.312D-06 0.460D-05 0.908D-05-0.266D-05-0.113D-03 0.523D-04
 Coeff-Com:  0.639D-03-0.231D-03-0.366D-02 0.768D-02 0.182D-01-0.899D-01
 Coeff-Com: -0.342D-01 0.110D+01
 Coeff:     -0.312D-06 0.460D-05 0.908D-05-0.266D-05-0.113D-03 0.523D-04
 Coeff:      0.639D-03-0.231D-03-0.366D-02 0.768D-02 0.182D-01-0.899D-01
 Coeff:     -0.342D-01 0.110D+01
 Gap=     0.535 Goal=   None    Shift=    0.000
 RMSDP=4.55D-09 MaxDP=1.20D-07 DE=-2.10D-11 OVMax= 4.75D-07

 SCF Done:  E(RHF) =  -279.505602155     A.U. after   14 cycles
            NFock= 14  Conv=0.45D-08     -V/T= 2.0023
 KE= 2.788745590412D+02 PE=-9.056741062217D+02 EE= 2.248891214583D+02
 Leave Link  502 at Sun Mar  6 18:00:54 2022, MaxMem= 16106127360 cpu:              51.5 elap:               3.2
 (Enter /sw/contrib/gaussian/g16/B01/g16/l801.exe)
 ExpMin= 2.53D-02 ExpMax= 1.53D+04 ExpMxC= 5.22D+02 IAcc=3 IRadAn=         5 AccDes= 0.00D+00
 HarFok:  IExCor=  205 AccDes= 0.00D+00 IRadAn=         5 IDoV=-2 UseB2=F ITyADJ=14
 ICtDFT= 12500011 ScaDFX=  1.000000  1.000000  1.000000  1.000000
 Largest valence mixing into a core orbital is  2.07D-04
 Largest core mixing into a valence orbital is  3.16D-05
 Range of M.O.s used for correlation:     5   207
 NBasis=   207 NAE=    16 NBE=    16 NFC=     4 NFV=     0
 NROrb=    203 NOA=    12 NOB=    12 NVA=   191 NVB=   191

 **** Warning!!: The largest alpha MO coefficient is  0.16304764D+02

 Leave Link  801 at Sun Mar  6 18:00:54 2022, MaxMem= 16106127360 cpu:               1.5 elap:               0.1
 (Enter /sw/contrib/gaussian/g16/B01/g16/l906.exe)
 Frozen-core derivative calculation, NFC=   4 NFV=   0.
 FulOut=F Deriv=T AODrv=T NAtomX=     5
   MMem=          75  MDisk=          12 MDiskD=          12
  W3Min=      811440 MinDsk=     1524655 NBas6D=         245
 NBas2D=       30762    NTT=       30135    LW2=     3500000
    MDV= 16105574265 MDiskM=      328644 NBas2p=       30759
 Fully direct method using O(ONN) memory.
 IMap=   1   2   3   4   5   6   7   8   9  10  11  12  13  14  15  16
 JobTyp=1 Pass  1:  I=   5 to  16 NPSUse= 28 ParTrn=T ParDer=T DoDerP=T.
 Spin components of T(2) and E(2):
     alpha-alpha T2 =       0.3487902988D-01 E2=     -0.1245527801D+00
     alpha-beta  T2 =       0.1852881137D+00 E2=     -0.7004091717D+00
     beta-beta   T2 =       0.3487902988D-01 E2=     -0.1245527801D+00
 The integrals were generated   1 times.
 ANorm=    0.1120288433D+01
 E2 =    -0.9495147319D+00 EUMP2 =    -0.28045511688643D+03
 Leave Link  906 at Sun Mar  6 18:01:16 2022, MaxMem= 16106127360 cpu:             616.2 elap:              22.1
 (Enter /sw/contrib/gaussian/g16/B01/g16/l1002.exe)
 Minotr:  Closed shell wavefunction.
          Computing MP2/KS-MP2 derivatives.
          Using Z-Vector for PSCF gradient.
          Skipping F1 and S1 gradient terms here.
          IDoAtm=11111
          Frozen-core window.
          Direct CPHF calculation.
          Differentiating once with respect to electric field.
                with respect to dipole field.
          Differentiating once with respect to nuclear coordinates.
          Using symmetry in CPHF.
          Requested convergence is 1.0D-10 RMS, and 1.0D-09 maximum.
          NewPWx=F KeepS1=T KeepF1=T KeepIn=T MapXYZ=F SortEE=F KeepMc=T.
 Keep R1 ints in memory in symmetry-blocked form, NReq=348888983.
 FoFCou: FMM=F IPFlag=           0 FMFlag=           0 FMFlg1=           0
         NFxFlg=           0 DoJE=F BraDBF=F KetDBF=F FulRan=T
         wScrn=  0.000000 ICntrl=       600 IOpCl=  0 I1Cent=           0 NGrid=           0
         NMat0=    1 NMatS0=  21528 NMatT0=    0 NMatD0=    1 NMtDS0=    0 NMtDT0=    0
 Petite list used in FoFCou.
          MDV=   16106127360 using IRadAn=       5.
          Solving linear equations separately, MaxMat=       0.
          There are     1 degrees of freedom in the 1st order CPHF.  IDoFFX=0 NUNeed=     1.
 LinEq1:  Iter=  0 NonCon=     1 RMS=6.60D-03 Max=1.69D-01 NDo=     1
 AX will form     1 AO Fock derivatives at one time.
 LinEq1:  Iter=  1 NonCon=     1 RMS=1.99D-03 Max=3.05D-02 NDo=     1
 LinEq1:  Iter=  2 NonCon=     1 RMS=8.84D-04 Max=1.46D-02 NDo=     1
 LinEq1:  Iter=  3 NonCon=     1 RMS=3.76D-04 Max=7.83D-03 NDo=     1
 LinEq1:  Iter=  4 NonCon=     1 RMS=1.36D-04 Max=1.61D-03 NDo=     1
 LinEq1:  Iter=  5 NonCon=     1 RMS=7.56D-05 Max=1.37D-03 NDo=     1
 LinEq1:  Iter=  6 NonCon=     1 RMS=2.43D-05 Max=2.89D-04 NDo=     1
 LinEq1:  Iter=  7 NonCon=     1 RMS=8.27D-06 Max=1.08D-04 NDo=     1
 LinEq1:  Iter=  8 NonCon=     1 RMS=4.02D-06 Max=6.42D-05 NDo=     1
 LinEq1:  Iter=  9 NonCon=     1 RMS=1.03D-06 Max=1.15D-05 NDo=     1
 LinEq1:  Iter= 10 NonCon=     1 RMS=2.32D-07 Max=2.80D-06 NDo=     1
 LinEq1:  Iter= 11 NonCon=     1 RMS=5.06D-08 Max=8.06D-07 NDo=     1
 LinEq1:  Iter= 12 NonCon=     1 RMS=1.20D-08 Max=1.66D-07 NDo=     1
 LinEq1:  Iter= 13 NonCon=     1 RMS=2.12D-09 Max=2.68D-08 NDo=     1
 LinEq1:  Iter= 14 NonCon=     1 RMS=4.34D-10 Max=5.51D-09 NDo=     1
 LinEq1:  Iter= 15 NonCon=     0 RMS=8.91D-11 Max=8.13D-10 NDo=     1
 Linear equations converged to 1.000D-10 1.000D-09 after    15 iterations.
 End of Minotr F.D. properties file   721 does not exist.
 End of Minotr F.D. properties file   722 does not exist.
 End of Minotr F.D. properties file   788 does not exist.
 Leave Link 1002 at Sun Mar  6 18:01:20 2022, MaxMem= 16106127360 cpu:              51.5 elap:               3.8
 (Enter /sw/contrib/gaussian/g16/B01/g16/l601.exe)
 Copying SCF densities to generalized density rwf, IOpCl= 0 IROHF=0.

 **********************************************************************

            Population analysis using the MP2 Density.

 **********************************************************************

 Orbital symmetries:
       Occupied  (A') (A') (A') (A') (A') (A') (A') (A') (A') (A')
                 (A") (A') (A") (A') (A') (A")
       Virtual   (A') (A") (A') (A') (A") (A') (A') (A') (A") (A')
                 (A") (A') (A') (A') (A") (A') (A') (A") (A') (A')
                 (A') (A') (A') (A') (A") (A') (A') (A") (A') (A')
                 (A') (A") (A") (A') (A') (A') (A") (A') (A") (A')
                 (A") (A") (A') (A') (A") (A') (A') (A") (A') (A')
                 (A') (A") (A') (A') (A") (A') (A") (A') (A") (A')
                 (A') (A') (A") (A') (A') (A') (A") (A") (A') (A')
                 (A") (A') (A") (A") (A') (A') (A") (A') (A') (A')
                 (A") (A') (A') (A") (A') (A") (A") (A') (A') (A')
                 (A') (A') (A") (A") (A') (A') (A") (A") (A') (A")
                 (A') (A') (A") (A') (A") (A') (A') (A') (A") (A")
                 (A') (A') (A') (A') (A") (A') (A') (A') (A") (A')
                 (A") (A") (A') (A') (A") (A") (A') (A") (A') (A')
                 (A') (A') (A") (A') (A') (A") (A") (A') (A') (A')
                 (A") (A") (A') (A') (A') (A") (A') (A') (A') (A")
                 (A') (A') (A') (A") (A") (A') (A") (A') (A') (A")
                 (A') (A") (A') (A") (A") (A') (A") (A') (A") (A')
                 (A") (A") (A") (A') (A') (A") (A') (A') (A") (A')
                 (A') (A') (A') (A') (A') (A') (A') (A') (A') (A')
                 (A')
 The electronic state is 1-A'.
 Alpha  occ. eigenvalues --  -20.71866 -20.68855 -20.66917 -15.82649  -1.64384
 Alpha  occ. eigenvalues --   -1.50148  -1.29484  -0.95952  -0.83334  -0.75859
 Alpha  occ. eigenvalues --   -0.73814  -0.64026  -0.61824  -0.61572  -0.50402
 Alpha  occ. eigenvalues --   -0.49979
 Alpha virt. eigenvalues --    0.03509   0.06043   0.09501   0.10013   0.11958
 Alpha virt. eigenvalues --    0.12222   0.14883   0.15136   0.17755   0.18016
 Alpha virt. eigenvalues --    0.18979   0.21084   0.21674   0.23578   0.24633
 Alpha virt. eigenvalues --    0.26894   0.31240   0.31699   0.33741   0.34242
 Alpha virt. eigenvalues --    0.34600   0.39252   0.44955   0.48949   0.50511
 Alpha virt. eigenvalues --    0.51813   0.54471   0.56061   0.59897   0.62073
 Alpha virt. eigenvalues --    0.63883   0.68936   0.71689   0.72450   0.74158
 Alpha virt. eigenvalues --    0.76358   0.76559   0.79675   0.80637   0.84019
 Alpha virt. eigenvalues --    0.84315   0.85249   0.88457   0.90663   0.92775
 Alpha virt. eigenvalues --    0.94860   0.95500   1.01820   1.03258   1.06301
 Alpha virt. eigenvalues --    1.06707   1.09447   1.14406   1.15528   1.16993
 Alpha virt. eigenvalues --    1.22132   1.22800   1.24609   1.35419   1.35796
 Alpha virt. eigenvalues --    1.37051   1.46906   1.48680   1.50419   1.54371
 Alpha virt. eigenvalues --    1.59630   1.59681   1.60397   1.62750   1.69457
 Alpha virt. eigenvalues --    1.74234   1.80116   1.82855   1.88839   1.89878
 Alpha virt. eigenvalues --    1.92780   1.97660   1.99014   2.05113   2.12286
 Alpha virt. eigenvalues --    2.13171   2.16487   2.18893   2.24284   2.25344
 Alpha virt. eigenvalues --    2.29374   2.35129   2.36586   2.38780   2.40522
 Alpha virt. eigenvalues --    2.42642   2.46725   2.47754   2.52989   2.53874
 Alpha virt. eigenvalues --    2.54615   2.55900   2.61557   2.62584   2.66823
 Alpha virt. eigenvalues --    2.67113   2.74697   2.80244   2.81281   2.84222
 Alpha virt. eigenvalues --    2.91357   2.98296   3.04346   3.04773   3.11471
 Alpha virt. eigenvalues --    3.11607   3.17233   3.20851   3.30345   3.32743
 Alpha virt. eigenvalues --    3.35812   3.46837   3.67711   3.86724   3.93425
 Alpha virt. eigenvalues --    4.18504   4.22117   4.22160   4.27006   4.36745
 Alpha virt. eigenvalues --    4.48432   4.52433   4.55527   4.60115   4.69407
 Alpha virt. eigenvalues --    4.81167   4.89490   4.91271   4.94176   4.99616
 Alpha virt. eigenvalues --    5.00472   5.10640   5.13382   5.18246   5.25558
 Alpha virt. eigenvalues --    5.26255   5.31652   5.34856   5.35501   5.54542
 Alpha virt. eigenvalues --    5.64806   5.70433   5.86773   5.99487   6.29083
 Alpha virt. eigenvalues --    6.29303   6.34682   6.38221   6.60545   6.65873
 Alpha virt. eigenvalues --    6.66775   6.69041   6.72743   6.79768   6.80263
 Alpha virt. eigenvalues --    6.85328   6.96468   7.01829   7.05628   7.07236
 Alpha virt. eigenvalues --    7.12960   7.16644   7.17070   7.19843   7.23824
 Alpha virt. eigenvalues --    7.24578   7.27374   7.34601   7.38850   7.42327
 Alpha virt. eigenvalues --    7.44184   7.45965   7.55947   7.65191   7.66193
 Alpha virt. eigenvalues --    7.78667   7.87107   7.94262   8.06330   8.29036
 Alpha virt. eigenvalues --    8.49199   8.63665  13.55358  14.76166  15.12693
 Alpha virt. eigenvalues --   15.83245
          Condensed to atoms (all electrons):
               1          2          3          4          5
     1  H    0.582935   0.122875   0.023342   0.000851  -0.005617
     2  O    0.122875   8.369128  -0.210181   0.000829  -0.008585
     3  O    0.023342  -0.210181   8.360198  -0.170310  -0.033677
     4  N    0.000851   0.000829  -0.170310   7.129548  -0.119977
     5  O   -0.005617  -0.008585  -0.033677  -0.119977   8.359093
 Mulliken charges:
               1
     1  H    0.275614
     2  O   -0.274065
     3  O    0.030628
     4  N    0.159059
     5  O   -0.191236
 Sum of Mulliken charges =  -0.00000
 Mulliken charges with hydrogens summed into heavy atoms:
               1
     2  O    0.001549
     3  O    0.030628
     4  N    0.159059
     5  O   -0.191236
 Electronic spatial extent (au):  <R**2>=            208.2212
 Charge=             -0.0000 electrons
 Dipole moment (field-independent basis, Debye):
    X=             -0.0122    Y=             -1.1312    Z=              0.0000  Tot=              1.1313
 Quadrupole moment (field-independent basis, Debye-Ang):
   XX=            -23.4032   YY=            -22.9181   ZZ=            -21.9454
   XY=             -1.9496   XZ=             -0.0000   YZ=             -0.0000
 Traceless Quadrupole moment (field-independent basis, Debye-Ang):
   XX=             -0.6476   YY=             -0.1625   ZZ=              0.8101
   XY=             -1.9496   XZ=             -0.0000   YZ=             -0.0000
 Octapole moment (field-independent basis, Debye-Ang**2):
  XXX=              2.3856  YYY=              0.1407  ZZZ=             -0.0000  XYY=              2.3407
  XXY=             -2.8105  XXZ=              0.0000  XZZ=             -0.6301  YZZ=             -0.7474
  YYZ=              0.0000  XYZ=             -0.0000
 Hexadecapole moment (field-independent basis, Debye-Ang**3):
 XXXX=           -128.5953 YYYY=            -94.4269 ZZZZ=            -18.0654 XXXY=            -21.4763
 XXXZ=             -0.0000 YYYX=            -19.7639 YYYZ=             -0.0000 ZZZX=             -0.0000
 ZZZY=             -0.0000 XXYY=            -35.8013 XXZZ=            -24.5981 YYZZ=            -18.5339
 XXYZ=             -0.0000 YYXZ=             -0.0000 ZZXY=             -5.9046
 N-N= 1.224048235676D+02 E-N=-9.063684387025D+02  KE= 2.801951029938D+02
 Symmetry A'   KE= 2.663478937401D+02
 Symmetry A"   KE= 1.384720925368D+01
 No NMR shielding tensors so no spin-rotation constants.
 Leave Link  601 at Sun Mar  6 18:01:20 2022, MaxMem= 16106127360 cpu:               3.9 elap:               0.2
 (Enter /sw/contrib/gaussian/g16/B01/g16/l701.exe)
 ... and contract with generalized density number  2.
 Compute integral first derivatives.
 Leave Link  701 at Sun Mar  6 18:01:21 2022, MaxMem= 16106127360 cpu:               5.0 elap:               0.2
 (Enter /sw/contrib/gaussian/g16/B01/g16/l702.exe)
 L702 exits ... SP integral derivatives will be done elsewhere.
 Leave Link  702 at Sun Mar  6 18:01:21 2022, MaxMem= 16106127360 cpu:               1.3 elap:               0.1
 (Enter /sw/contrib/gaussian/g16/B01/g16/l703.exe)
 Integral derivatives from FoFJK, PRISM(SPDF).
 Compute integral first derivatives, UseDBF=F ICtDFT=           0.
 Calling FoFJK, ICntrl=  10002127 FMM=F ISym2X=1 I1Cent= 0 IOpClX= 0 NMat=1 NMatS=1 NMatT=0.
 FoFJK:  IHMeth= 1 ICntrl=10002127 DoSepK=F KAlg= 0 I1Cent=           0 FoldK=F
 IRaf=         0 NMat=       1 IRICut=       1 DoRegI=T DoRafI=F ISym2E= 1 IDoP0=0 IntGTp=1.
 FoFCou: FMM=F IPFlag=           0 FMFlag=      100000 FMFlg1=         800
         NFxFlg=           0 DoJE=F BraDBF=F KetDBF=F FulRan=T
         wScrn=  0.000000 ICntrl=  10002127 IOpCl=  0 I1Cent=           0 NGrid=           0
         NMat0=    1 NMatS0=      1 NMatT0=    0 NMatD0=    1 NMtDS0=    0 NMtDT0=    0
 Petite list used in FoFCou.
 Leave Link  703 at Sun Mar  6 18:01:23 2022, MaxMem= 16106127360 cpu:              57.3 elap:               2.1
 (Enter /sw/contrib/gaussian/g16/B01/g16/l716.exe)
 Dipole        =-4.80860525D-03-4.45052944D-01 2.59280854D-33
 ***** Axes restored to original set *****
 -------------------------------------------------------------------
 Center     Atomic                   Forces (Hartrees/Bohr)
 Number     Number              X              Y              Z
 -------------------------------------------------------------------
      1        1          -0.001347495   -0.000000000   -0.002535883
      2        8           0.007239195    0.000000000    0.002763316
      3        8          -0.004964485   -0.000000000   -0.001253812
      4        7           0.000384541    0.000000000    0.003850427
      5        8          -0.001311755   -0.000000000   -0.002824048
 -------------------------------------------------------------------
 Cartesian Forces:  Max     0.007239195 RMS     0.002818700
 -----------------------------------------------------------------------------------------------
                       Internal Coordinate Forces (Hartree/Bohr or radian)
  Cent   Atom   N1       Length/X         N2         Alpha/Y        N3         Beta/Z          J
 -----------------------------------------------------------------------------------------------
      1  H 
      2  O        1   0.002536(     1)
      3  O        2  -0.005844(     2)      1   0.002501(     5)
      4  N        3  -0.001365(     3)      2   0.000378(     6)      1  -0.000000(     8)     0
      5  O        4   0.003084(     4)      3   0.000964(     7)      2  -0.000000(     9)     0
 -----------------------------------------------------------------------------------------------
 Internal  Forces:  Max     0.005844384 RMS     0.002566685
 Force constants in Cartesian coordinates: 
                1             2             3             4             5 
      1  0.464338D-01
      2  0.000000D+00  0.221728D-02
      3  0.000000D+00  0.000000D+00  0.509407D+00
      4 -0.518206D-01  0.000000D+00  0.000000D+00  0.440798D+00
      5  0.000000D+00 -0.310585D-02  0.000000D+00  0.000000D+00  0.673435D-02
      6  0.311734D-01  0.000000D+00 -0.509407D+00  0.255680D-01  0.000000D+00
      7  0.538682D-02  0.000000D+00  0.000000D+00 -0.383957D+00  0.000000D+00
      8  0.000000D+00  0.257241D-02  0.000000D+00  0.000000D+00 -0.799316D-02
      9 -0.311734D-01  0.000000D+00  0.000000D+00 -0.223341D-01  0.000000D+00
     10  0.000000D+00  0.000000D+00  0.000000D+00 -0.502041D-02  0.000000D+00
     11  0.000000D+00 -0.168384D-02  0.000000D+00  0.000000D+00  0.728026D-02
     12  0.000000D+00  0.000000D+00  0.000000D+00 -0.323382D-02  0.000000D+00
     13  0.000000D+00  0.000000D+00  0.000000D+00  0.000000D+00  0.000000D+00
     14  0.000000D+00  0.000000D+00  0.000000D+00  0.000000D+00 -0.291559D-02
     15  0.000000D+00  0.000000D+00  0.000000D+00  0.000000D+00  0.000000D+00
                6             7             8             9            10 
      6  0.574442D+00
      7 -0.857943D-01  0.566777D+00
      8  0.000000D+00  0.000000D+00  0.110684D-01
      9 -0.837492D-01 -0.104020D+00  0.000000D+00  0.465168D+00
     10  0.290530D-01 -0.218187D+00  0.000000D+00  0.138217D+00  0.608403D+00
     11  0.000000D+00  0.000000D+00 -0.110168D-01  0.000000D+00  0.000000D+00
     12  0.187140D-01  0.209144D+00  0.000000D+00 -0.368968D+00  0.287860D+00
     13  0.000000D+00  0.299797D-01  0.000000D+00  0.193109D-01 -0.385196D+00
     14  0.000000D+00  0.000000D+00  0.536911D-02  0.000000D+00  0.000000D+00
     15  0.000000D+00 -0.193302D-01  0.000000D+00 -0.124513D-01 -0.455130D+00
               11            12            13            14            15 
     11  0.114398D-01
     12  0.000000D+00  0.112295D+01
     13  0.000000D+00 -0.493771D+00  0.355216D+00
     14 -0.601949D-02  0.000000D+00  0.000000D+00  0.356598D-02
     15  0.000000D+00 -0.772695D+00  0.474460D+00  0.000000D+00  0.785146D+00
 Force constants in internal coordinates: 
                1             2             3             4             5 
      1  0.509407D+00
      2  0.000000D+00  0.393396D+00
      3  0.000000D+00  0.000000D+00  0.482888D+00
      4  0.000000D+00  0.000000D+00  0.000000D+00  0.109107D+01
      5  0.000000D+00  0.000000D+00  0.000000D+00  0.000000D+00  0.160000D+00
      6  0.000000D+00  0.000000D+00  0.000000D+00  0.000000D+00  0.000000D+00
      7  0.000000D+00  0.000000D+00  0.000000D+00  0.000000D+00  0.000000D+00
      8  0.000000D+00  0.000000D+00  0.000000D+00  0.000000D+00  0.000000D+00
      9  0.000000D+00  0.000000D+00  0.000000D+00  0.000000D+00  0.000000D+00
                6             7             8             9 
      6  0.250000D+00
      7  0.000000D+00  0.250000D+00
      8  0.000000D+00  0.000000D+00  0.741871D-02
      9  0.000000D+00  0.000000D+00  0.000000D+00  0.149984D-01
 Leave Link  716 at Sun Mar  6 18:01:23 2022, MaxMem= 16106127360 cpu:               3.9 elap:               0.2
 (Enter /sw/contrib/gaussian/g16/B01/g16/l103.exe)

 GradGradGradGradGradGradGradGradGradGradGradGradGradGradGradGradGradGrad
 Berny optimization.
 Search for a local minimum.
 Step number   1 out of a maximum of   20
 All quantities printed in internal units (Hartrees-Bohrs-Radians)
 Second derivative matrix not updated -- first step.
 The second derivative matrix:
                          r1        r2        r3        r4        a1
           r1           0.50941
           r2           0.00000   0.39340
           r3           0.00000  -0.00000   0.48289
           r4           0.00000   0.00000  -0.00000   1.09107
           a1          -0.00000  -0.00000   0.00000   0.00000   0.16000
           a2          -0.00000  -0.00000   0.00000   0.00000  -0.00000
           a3          -0.00000  -0.00000   0.00000   0.00000  -0.00000
           d1           0.00000   0.00000   0.00000  -0.00000  -0.00000
           d2           0.00000  -0.00000   0.00000  -0.00000   0.00000
                          a2        a3        d1        d2
           a2           0.25000
           a3          -0.00000   0.25000
           d1           0.00000  -0.00000   0.00742
           d2          -0.00000   0.00000  -0.00000   0.01500
 ITU=  0
     Eigenvalues ---    0.00742   0.01500   0.16000   0.25000   0.25000
     Eigenvalues ---    0.39340   0.48289   0.50941   1.09107
 RFO step:  Lambda=-1.55330052D-04 EMin= 7.41871098D-03
 Linear search not attempted -- first point.
 Variable       Old X    -DE/DX   Delta X   Delta X   Delta X     New X
                                 (Linear)    (Quad)   (Total)
    r1        1.85628   0.00254   0.00000   0.00498   0.00498   1.86125
    r2        2.72461  -0.00584   0.00000  -0.01485  -0.01485   2.70976
    r3        2.61633  -0.00136   0.00000  -0.00283  -0.00283   2.61350
    r4        2.25199   0.00308   0.00000   0.00283   0.00283   2.25481
    a1        1.74191   0.00250   0.00000   0.01562   0.01562   1.75753
    a2        1.97193   0.00038   0.00000   0.00151   0.00151   1.97344
    a3        1.99666   0.00096   0.00000   0.00385   0.00385   2.00051
    d1        0.00000  -0.00000   0.00000  -0.00000  -0.00000  -0.00000
    d2        0.00000  -0.00000   0.00000  -0.00000  -0.00000  -0.00000
         Item               Value     Threshold  Converged?
 Maximum Force            0.005844     0.000450     NO 
 RMS     Force            0.002567     0.000300     NO 
 Maximum Displacement     0.015617     0.001800     NO 
 RMS     Displacement     0.007618     0.001200     NO 
 Predicted change in Energy=-7.770561D-05
 Lowest energy point so far.  Saving SCF results.
 GradGradGradGradGradGradGradGradGradGradGradGradGradGradGradGradGradGrad

 Leave Link  103 at Sun Mar  6 18:01:23 2022, MaxMem= 16106127360 cpu:               1.0 elap:               0.1
 (Enter /sw/contrib/gaussian/g16/B01/g16/l202.exe)
 ---------------------------------------------------------------------------------------------------
                            Z-MATRIX (ANGSTROMS AND DEGREES)
   CD    Cent   Atom    N1       Length/X        N2       Alpha/Y        N3        Beta/Z          J
 ---------------------------------------------------------------------------------------------------
      1      1  H 
      2      2  O        1   0.984933(     1)
      3      3  O        2   1.433942(     2)      1  100.699(     5)
      4      4  N        3   1.383005(     3)      2  113.070(     6)      1   -0.000(     8)      0
      5      5  O        4   1.193196(     4)      3  114.621(     7)      2   -0.000(     9)      0
 ---------------------------------------------------------------------------------------------------
                         Z-Matrix orientation:                         
 ---------------------------------------------------------------------
 Center     Atomic      Atomic             Coordinates (Angstroms)
 Number     Number       Type             X           Y           Z
 ---------------------------------------------------------------------
      1          1           0        0.000000    0.000000    0.000000
      2          8           0        0.000000    0.000000    0.984933
      3          8           0        1.409015    0.000000    1.251139
      4          7           0        2.177741   -0.000000    0.101460
      5          8           0        1.552331   -0.000000   -0.914699
 ---------------------------------------------------------------------
                    Distance matrix (angstroms):
                    1          2          3          4          5
     1  H    0.000000
     2  O    0.984933   0.000000
     3  O    1.884322   1.433942   0.000000
     4  N    2.180103   2.350124   1.383005   0.000000
     5  O    1.801778   2.453229   2.170574   1.193196   0.000000
 Stoichiometry    HNO3
 Framework group  CS[SG(HNO3)]
 Deg. of freedom     7
 Full point group                 CS      NOp   2
 RotChk:  IX=0 Diff= 2.69D-02
 Largest Abelian subgroup         CS      NOp   2
 Largest concise Abelian subgroup C1      NOp   1
                         Standard orientation:                         
 ---------------------------------------------------------------------
 Center     Atomic      Atomic             Coordinates (Angstroms)
 Number     Number       Type             X           Y           Z
 ---------------------------------------------------------------------
      1          1           0        1.116008   -0.599341   -0.000000
      2          8           0        1.322114    0.363786    0.000000
      3          8           0       -0.000000    0.918946    0.000000
      4          7           0       -0.992287   -0.044417   -0.000000
      5          8           0       -0.593364   -1.168950   -0.000000
 ---------------------------------------------------------------------
 Rotational constants (GHZ):          21.2857897           8.0557333           5.8440267
 Leave Link  202 at Sun Mar  6 18:01:23 2022, MaxMem= 16106127360 cpu:               0.4 elap:               0.0
 (Enter /sw/contrib/gaussian/g16/B01/g16/l301.exe)
 Standard basis: Aug-CC-pVTZ (5D, 7F)
 Ernie: Thresh=  0.10000D-02 Tol=  0.10000D-05 Strict=F.
 Ernie:  12 primitive shells out of 131 were deleted.
 There are   166 symmetry adapted cartesian basis functions of A'  symmetry.
 There are    79 symmetry adapted cartesian basis functions of A"  symmetry.
 There are   136 symmetry adapted basis functions of A'  symmetry.
 There are    71 symmetry adapted basis functions of A"  symmetry.
   207 basis functions,   315 primitive gaussians,   245 cartesian basis functions
    16 alpha electrons       16 beta electrons
       nuclear repulsion energy       122.4925065371 Hartrees.
 IExCor=    0 DFT=F Ex=HF Corr=None ExCW=0 ScaHFX=  1.000000
 ScaDFX=  1.000000  1.000000  1.000000  1.000000 ScalE2=  1.000000  1.000000
 IRadAn=      5 IRanWt=     -1 IRanGd=            0 ICorTp=0 IEmpDi=  4
 NAtoms=    5 NActive=    5 NUniq=    5 SFac= 1.00D+00 NAtFMM=   60 NAOKFM=F Big=F
 Integral buffers will be    131072 words long.
 Raffenetti 1 integral format.
 Two-electron integral symmetry is turned on.
 Leave Link  301 at Sun Mar  6 18:01:23 2022, MaxMem= 16106127360 cpu:               1.4 elap:               0.1
 (Enter /sw/contrib/gaussian/g16/B01/g16/l302.exe)
 NPDir=0 NMtPBC=     1 NCelOv=     1 NCel=       1 NClECP=     1 NCelD=      1
         NCelK=      1 NCelE2=     1 NClLst=     1 CellRange=     0.0.
 One-electron integrals computed using PRISM.
 One-electron integral symmetry used in STVInt
 NBasis=   207 RedAO= T EigKep=  1.32D-04  NBF=   136    71
 NBsUse=   207 1.00D-06 EigRej= -1.00D+00 NBFU=   136    71
 Leave Link  302 at Sun Mar  6 18:01:23 2022, MaxMem= 16106127360 cpu:               4.6 elap:               0.2
 (Enter /sw/contrib/gaussian/g16/B01/g16/l303.exe)
 DipDrv:  MaxL=1.
 Leave Link  303 at Sun Mar  6 18:01:23 2022, MaxMem= 16106127360 cpu:               1.8 elap:               0.1
 (Enter /sw/contrib/gaussian/g16/B01/g16/l401.exe)
 Initial guess from the checkpoint file:  "hoono_eq.chk"
 B after Tr=    -0.000000    0.000000    0.000000
         Rot=    0.999999   -0.000000   -0.000000   -0.001555 Ang=  -0.18 deg.
 Guess basis will be translated and rotated to current coordinates.
 JPrj=2 DoOrth=T DoCkMO=T.
 Initial guess orbital symmetries:
       Occupied  (A') (A') (A') (A') (A') (A') (A') (A') (A') (A')
                 (A") (A') (A") (A') (A') (A")
       Virtual   (A') (A") (A') (A') (A") (A') (A') (A') (A") (A')
                 (A") (A') (A') (A') (A") (A') (A') (A") (A') (A')
                 (A') (A') (A') (A') (A") (A') (A') (A") (A') (A')
                 (A') (A") (A") (A') (A') (A') (A") (A') (A") (A')
                 (A") (A") (A') (A') (A") (A') (A') (A") (A') (A')
                 (A') (A") (A') (A') (A") (A') (A") (A') (A") (A')
                 (A') (A') (A") (A') (A') (A') (A") (A") (A') (A')
                 (A") (A') (A") (A") (A') (A') (A") (A') (A') (A')
                 (A") (A') (A') (A") (A') (A") (A") (A') (A') (A')
                 (A') (A') (A") (A") (A') (A') (A") (A") (A') (A")
                 (A') (A') (A") (A') (A") (A') (A') (A') (A") (A")
                 (A') (A') (A') (A') (A") (A') (A') (A') (A") (A')
                 (A") (A") (A') (A') (A") (A") (A') (A") (A') (A')
                 (A') (A') (A") (A') (A') (A") (A") (A') (A') (A')
                 (A") (A") (A') (A') (A') (A") (A') (A') (A') (A")
                 (A') (A') (A') (A") (A") (A') (A") (A') (A') (A")
                 (A') (A") (A') (A") (A") (A') (A") (A') (A") (A')
                 (A") (A") (A") (A') (A') (A") (A') (A') (A") (A')
                 (A') (A') (A') (A') (A') (A') (A') (A') (A') (A')
                 (A')
 The electronic state of the initial guess is 1-A'.
 Leave Link  401 at Sun Mar  6 18:01:24 2022, MaxMem= 16106127360 cpu:               4.5 elap:               0.2
 (Enter /sw/contrib/gaussian/g16/B01/g16/l502.exe)
 Keep R1 ints in memory in symmetry-blocked form, NReq=348887737.
 FoFCou: FMM=F IPFlag=           0 FMFlag=           0 FMFlg1=           0
         NFxFlg=           0 DoJE=F BraDBF=F KetDBF=F FulRan=T
         wScrn=  0.000000 ICntrl=       600 IOpCl=  0 I1Cent=           0 NGrid=           0
         NMat0=    1 NMatS0=  21528 NMatT0=    0 NMatD0=    1 NMtDS0=    0 NMtDT0=    0
 Petite list used in FoFCou.
 Closed shell SCF:
 Using DIIS extrapolation, IDIIS=  1040.
 NGot= 16106127360 LenX= 15988850015 LenY= 15988789549
 Requested convergence on RMS density matrix=1.00D-08 within 128 cycles.
 Requested convergence on MAX density matrix=1.00D-06.
 Requested convergence on             energy=1.00D-06.
 No special actions if energy rises.

 Cycle   1  Pass 1  IDiag  1:
 E= -279.506026164022    
 DIIS: error= 4.29D-04 at cycle   1 NSaved=   1.
 NSaved= 1 IEnMin= 1 EnMin= -279.506026164022     IErMin= 1 ErrMin= 4.29D-04
 ErrMax= 4.29D-04  0.00D+00 EMaxC= 1.00D-01 BMatC= 7.50D-05 BMatP= 7.50D-05
 IDIUse=3 WtCom= 9.96D-01 WtEn= 4.29D-03
 Coeff-Com:  0.100D+01
 Coeff-En:   0.100D+01
 Coeff:      0.100D+01
 Gap=     0.541 Goal=   None    Shift=    0.000
 RMSDP=4.49D-05 MaxDP=1.26D-03              OVMax= 1.67D-03

 Cycle   2  Pass 1  IDiag  1:
 E= -279.506099039116     Delta-E=       -0.000072875094 Rises=F Damp=F
 DIIS: error= 1.35D-04 at cycle   2 NSaved=   2.
 NSaved= 2 IEnMin= 2 EnMin= -279.506099039116     IErMin= 2 ErrMin= 1.35D-04
 ErrMax= 1.35D-04  0.00D+00 EMaxC= 1.00D-01 BMatC= 3.78D-06 BMatP= 7.50D-05
 IDIUse=3 WtCom= 9.99D-01 WtEn= 1.35D-03
 Coeff-Com: -0.188D+00 0.119D+01
 Coeff-En:   0.000D+00 0.100D+01
 Coeff:     -0.187D+00 0.119D+01
 Gap=     0.534 Goal=   None    Shift=    0.000
 RMSDP=1.04D-05 MaxDP=2.59D-04 DE=-7.29D-05 OVMax= 7.02D-04

 Cycle   3  Pass 1  IDiag  1:
 E= -279.506105098818     Delta-E=       -0.000006059702 Rises=F Damp=F
 DIIS: error= 2.90D-05 at cycle   3 NSaved=   3.
 NSaved= 3 IEnMin= 3 EnMin= -279.506105098818     IErMin= 3 ErrMin= 2.90D-05
 ErrMax= 2.90D-05  0.00D+00 EMaxC= 1.00D-01 BMatC= 4.01D-07 BMatP= 3.78D-06
 IDIUse=1 WtCom= 1.00D+00 WtEn= 0.00D+00
 Coeff-Com: -0.486D-01 0.148D+00 0.901D+00
 Coeff:     -0.486D-01 0.148D+00 0.901D+00
 Gap=     0.534 Goal=   None    Shift=    0.000
 RMSDP=2.62D-06 MaxDP=6.31D-05 DE=-6.06D-06 OVMax= 1.97D-04

 Cycle   4  Pass 1  IDiag  1:
 E= -279.506105527084     Delta-E=       -0.000000428266 Rises=F Damp=F
 DIIS: error= 2.13D-05 at cycle   4 NSaved=   4.
 NSaved= 4 IEnMin= 4 EnMin= -279.506105527084     IErMin= 4 ErrMin= 2.13D-05
 ErrMax= 2.13D-05  0.00D+00 EMaxC= 1.00D-01 BMatC= 1.11D-07 BMatP= 4.01D-07
 IDIUse=1 WtCom= 1.00D+00 WtEn= 0.00D+00
 Coeff-Com:  0.154D-01-0.146D+00 0.304D+00 0.826D+00
 Coeff:      0.154D-01-0.146D+00 0.304D+00 0.826D+00
 Gap=     0.534 Goal=   None    Shift=    0.000
 RMSDP=1.30D-06 MaxDP=3.28D-05 DE=-4.28D-07 OVMax= 1.36D-04

 Cycle   5  Pass 1  IDiag  1:
 E= -279.506105661404     Delta-E=       -0.000000134320 Rises=F Damp=F
 DIIS: error= 5.63D-06 at cycle   5 NSaved=   5.
 NSaved= 5 IEnMin= 5 EnMin= -279.506105661404     IErMin= 5 ErrMin= 5.63D-06
 ErrMax= 5.63D-06  0.00D+00 EMaxC= 1.00D-01 BMatC= 1.08D-08 BMatP= 1.11D-07
 IDIUse=1 WtCom= 1.00D+00 WtEn= 0.00D+00
 Coeff-Com:  0.497D-02-0.206D-01-0.942D-01 0.795D-01 0.103D+01
 Coeff:      0.497D-02-0.206D-01-0.942D-01 0.795D-01 0.103D+01
 Gap=     0.534 Goal=   None    Shift=    0.000
 RMSDP=5.82D-07 MaxDP=1.23D-05 DE=-1.34D-07 OVMax= 4.76D-05

 Cycle   6  Pass 1  IDiag  1:
 E= -279.506105681676     Delta-E=       -0.000000020272 Rises=F Damp=F
 DIIS: error= 2.42D-06 at cycle   6 NSaved=   6.
 NSaved= 6 IEnMin= 6 EnMin= -279.506105681676     IErMin= 6 ErrMin= 2.42D-06
 ErrMax= 2.42D-06  0.00D+00 EMaxC= 1.00D-01 BMatC= 1.91D-09 BMatP= 1.08D-08
 IDIUse=1 WtCom= 1.00D+00 WtEn= 0.00D+00
 Coeff-Com: -0.127D-02 0.185D-01-0.701D-01-0.966D-01 0.168D+00 0.981D+00
 Coeff:     -0.127D-02 0.185D-01-0.701D-01-0.966D-01 0.168D+00 0.981D+00
 Gap=     0.534 Goal=   None    Shift=    0.000
 RMSDP=2.74D-07 MaxDP=8.49D-06 DE=-2.03D-08 OVMax= 2.52D-05

 Cycle   7  Pass 1  IDiag  1:
 E= -279.506105685935     Delta-E=       -0.000000004259 Rises=F Damp=F
 DIIS: error= 1.38D-06 at cycle   7 NSaved=   7.
 NSaved= 7 IEnMin= 7 EnMin= -279.506105685935     IErMin= 7 ErrMin= 1.38D-06
 ErrMax= 1.38D-06  0.00D+00 EMaxC= 1.00D-01 BMatC= 4.94D-10 BMatP= 1.91D-09
 IDIUse=1 WtCom= 1.00D+00 WtEn= 0.00D+00
 Coeff-Com: -0.142D-02 0.960D-02 0.218D-02-0.376D-01-0.207D+00 0.293D+00
 Coeff-Com:  0.942D+00
 Coeff:     -0.142D-02 0.960D-02 0.218D-02-0.376D-01-0.207D+00 0.293D+00
 Coeff:      0.942D+00
 Gap=     0.534 Goal=   None    Shift=    0.000
 RMSDP=1.34D-07 MaxDP=3.62D-06 DE=-4.26D-09 OVMax= 1.26D-05

 Cycle   8  Pass 1  IDiag  1:
 E= -279.506105686840     Delta-E=       -0.000000000906 Rises=F Damp=F
 DIIS: error= 3.14D-07 at cycle   8 NSaved=   8.
 NSaved= 8 IEnMin= 8 EnMin= -279.506105686840     IErMin= 8 ErrMin= 3.14D-07
 ErrMax= 3.14D-07  0.00D+00 EMaxC= 1.00D-01 BMatC= 3.15D-11 BMatP= 4.94D-10
 IDIUse=1 WtCom= 1.00D+00 WtEn= 0.00D+00
 Coeff-Com:  0.190D-03-0.265D-02 0.106D-01 0.139D-01-0.424D-01-0.107D+00
 Coeff-Com:  0.307D-01 0.110D+01
 Coeff:      0.190D-03-0.265D-02 0.106D-01 0.139D-01-0.424D-01-0.107D+00
 Coeff:      0.307D-01 0.110D+01
 Gap=     0.534 Goal=   None    Shift=    0.000
 RMSDP=4.57D-08 MaxDP=1.23D-06 DE=-9.06D-10 OVMax= 4.40D-06

 Cycle   9  Pass 1  IDiag  1:
 E= -279.506105686925     Delta-E=       -0.000000000085 Rises=F Damp=F
 DIIS: error= 9.96D-08 at cycle   9 NSaved=   9.
 NSaved= 9 IEnMin= 9 EnMin= -279.506105686925     IErMin= 9 ErrMin= 9.96D-08
 ErrMax= 9.96D-08  0.00D+00 EMaxC= 1.00D-01 BMatC= 2.53D-12 BMatP= 3.15D-11
 IDIUse=1 WtCom= 1.00D+00 WtEn= 0.00D+00
 Coeff-Com:  0.104D-03-0.543D-03-0.159D-02 0.204D-02 0.235D-01-0.992D-02
 Coeff-Com: -0.884D-01-0.168D+00 0.124D+01
 Coeff:      0.104D-03-0.543D-03-0.159D-02 0.204D-02 0.235D-01-0.992D-02
 Coeff:     -0.884D-01-0.168D+00 0.124D+01
 Gap=     0.534 Goal=   None    Shift=    0.000
 RMSDP=1.53D-08 MaxDP=3.31D-07 DE=-8.52D-11 OVMax= 1.54D-06

 Cycle  10  Pass 1  IDiag  1:
 E= -279.506105686934     Delta-E=       -0.000000000008 Rises=F Damp=F
 DIIS: error= 3.18D-08 at cycle  10 NSaved=  10.
 NSaved=10 IEnMin=10 EnMin= -279.506105686934     IErMin=10 ErrMin= 3.18D-08
 ErrMax= 3.18D-08  0.00D+00 EMaxC= 1.00D-01 BMatC= 3.04D-13 BMatP= 2.53D-12
 IDIUse=1 WtCom= 1.00D+00 WtEn= 0.00D+00
 Coeff-Com: -0.520D-04 0.469D-03-0.795D-03-0.193D-02-0.261D-02 0.155D-01
 Coeff-Com:  0.194D-01-0.614D-01-0.340D+00 0.137D+01
 Coeff:     -0.520D-04 0.469D-03-0.795D-03-0.193D-02-0.261D-02 0.155D-01
 Coeff:      0.194D-01-0.614D-01-0.340D+00 0.137D+01
 Gap=     0.534 Goal=   None    Shift=    0.000
 RMSDP=5.65D-09 MaxDP=1.41D-07 DE=-8.19D-12 OVMax= 6.10D-07

 SCF Done:  E(RHF) =  -279.506105687     A.U. after   10 cycles
            NFock= 10  Conv=0.56D-08     -V/T= 2.0023
 KE= 2.788740260930D+02 PE=-9.058511696343D+02 EE= 2.249785313173D+02
 Leave Link  502 at Sun Mar  6 18:01:26 2022, MaxMem= 16106127360 cpu:              47.6 elap:               2.7
 (Enter /sw/contrib/gaussian/g16/B01/g16/l801.exe)
 ExpMin= 2.53D-02 ExpMax= 1.53D+04 ExpMxC= 5.22D+02 IAcc=3 IRadAn=         5 AccDes= 0.00D+00
 HarFok:  IExCor=  205 AccDes= 0.00D+00 IRadAn=         5 IDoV=-2 UseB2=F ITyADJ=14
 ICtDFT= 12500011 ScaDFX=  1.000000  1.000000  1.000000  1.000000
 Largest valence mixing into a core orbital is  2.07D-04
 Largest core mixing into a valence orbital is  3.12D-05
 Range of M.O.s used for correlation:     5   207
 NBasis=   207 NAE=    16 NBE=    16 NFC=     4 NFV=     0
 NROrb=    203 NOA=    12 NOB=    12 NVA=   191 NVB=   191

 **** Warning!!: The largest alpha MO coefficient is  0.16463163D+02

 Leave Link  801 at Sun Mar  6 18:01:27 2022, MaxMem= 16106127360 cpu:               4.2 elap:               0.2
 (Enter /sw/contrib/gaussian/g16/B01/g16/l906.exe)
 Frozen-core derivative calculation, NFC=   4 NFV=   0.
 FulOut=F Deriv=T AODrv=T NAtomX=     5
   MMem=          75  MDisk=          12 MDiskD=          12
  W3Min=      811440 MinDsk=     1524655 NBas6D=         245
 NBas2D=       30762    NTT=       30135    LW2=     3500000
    MDV= 16105574251 MDiskM=      328644 NBas2p=       30759
 Fully direct method using O(ONN) memory.
 IMap=   1   2   3   4   5   6   7   8   9  10  11  12  13  14  15  16
 JobTyp=1 Pass  1:  I=   5 to  16 NPSUse= 28 ParTrn=T ParDer=T DoDerP=T.
 Spin components of T(2) and E(2):
     alpha-alpha T2 =       0.3483727057D-01 E2=     -0.1245301196D+00
     alpha-beta  T2 =       0.1849218658D+00 E2=     -0.7000430814D+00
     beta-beta   T2 =       0.3483727057D-01 E2=     -0.1245301196D+00
 The integrals were generated   1 times.
 ANorm=    0.1120087678D+01
 E2 =    -0.9491033205D+00 EUMP2 =    -0.28045520900748D+03
 Leave Link  906 at Sun Mar  6 18:01:49 2022, MaxMem= 16106127360 cpu:             631.4 elap:              22.6
 (Enter /sw/contrib/gaussian/g16/B01/g16/l1002.exe)
 Minotr:  Closed shell wavefunction.
          Computing MP2/KS-MP2 derivatives.
          Using Z-Vector for PSCF gradient.
          Skipping F1 and S1 gradient terms here.
          IDoAtm=11111
          Frozen-core window.
          Direct CPHF calculation.
          Differentiating once with respect to electric field.
                with respect to dipole field.
          Differentiating once with respect to nuclear coordinates.
          Using symmetry in CPHF.
          Requested convergence is 1.0D-10 RMS, and 1.0D-09 maximum.
          NewPWx=F KeepS1=T KeepF1=T KeepIn=T MapXYZ=F SortEE=F KeepMc=T.
 Keep R1 ints in memory in symmetry-blocked form, NReq=348888983.
 FoFCou: FMM=F IPFlag=           0 FMFlag=           0 FMFlg1=           0
         NFxFlg=           0 DoJE=F BraDBF=F KetDBF=F FulRan=T
         wScrn=  0.000000 ICntrl=       600 IOpCl=  0 I1Cent=           0 NGrid=           0
         NMat0=    1 NMatS0=  21528 NMatT0=    0 NMatD0=    1 NMtDS0=    0 NMtDT0=    0
 Petite list used in FoFCou.
          MDV=   16106127360 using IRadAn=       5.
          Solving linear equations separately, MaxMat=       0.
          There are     1 degrees of freedom in the 1st order CPHF.  IDoFFX=0 NUNeed=     1.
 LinEq1:  Iter=  0 NonCon=     1 RMS=6.59D-03 Max=1.69D-01 NDo=     1
 AX will form     1 AO Fock derivatives at one time.
 LinEq1:  Iter=  1 NonCon=     1 RMS=1.99D-03 Max=3.07D-02 NDo=     1
 LinEq1:  Iter=  2 NonCon=     1 RMS=8.86D-04 Max=1.45D-02 NDo=     1
 LinEq1:  Iter=  3 NonCon=     1 RMS=3.79D-04 Max=8.02D-03 NDo=     1
 LinEq1:  Iter=  4 NonCon=     1 RMS=1.37D-04 Max=1.64D-03 NDo=     1
 LinEq1:  Iter=  5 NonCon=     1 RMS=7.62D-05 Max=1.37D-03 NDo=     1
 LinEq1:  Iter=  6 NonCon=     1 RMS=2.43D-05 Max=2.84D-04 NDo=     1
 LinEq1:  Iter=  7 NonCon=     1 RMS=8.20D-06 Max=1.08D-04 NDo=     1
 LinEq1:  Iter=  8 NonCon=     1 RMS=3.99D-06 Max=6.26D-05 NDo=     1
 LinEq1:  Iter=  9 NonCon=     1 RMS=1.04D-06 Max=1.15D-05 NDo=     1
 LinEq1:  Iter= 10 NonCon=     1 RMS=2.32D-07 Max=2.82D-06 NDo=     1
 LinEq1:  Iter= 11 NonCon=     1 RMS=5.01D-08 Max=7.92D-07 NDo=     1
 LinEq1:  Iter= 12 NonCon=     1 RMS=1.18D-08 Max=1.65D-07 NDo=     1
 LinEq1:  Iter= 13 NonCon=     1 RMS=2.09D-09 Max=2.57D-08 NDo=     1
 LinEq1:  Iter= 14 NonCon=     1 RMS=4.30D-10 Max=5.66D-09 NDo=     1
 LinEq1:  Iter= 15 NonCon=     0 RMS=8.83D-11 Max=8.40D-10 NDo=     1
 Linear equations converged to 1.000D-10 1.000D-09 after    15 iterations.
 End of Minotr F.D. properties file   721 does not exist.
 End of Minotr F.D. properties file   722 does not exist.
 End of Minotr F.D. properties file   788 does not exist.
 Leave Link 1002 at Sun Mar  6 18:01:53 2022, MaxMem= 16106127360 cpu:              51.1 elap:               3.7
 (Enter /sw/contrib/gaussian/g16/B01/g16/l701.exe)
 ... and contract with generalized density number  2.
 Compute integral first derivatives.
 Leave Link  701 at Sun Mar  6 18:01:53 2022, MaxMem= 16106127360 cpu:               4.9 elap:               0.2
 (Enter /sw/contrib/gaussian/g16/B01/g16/l702.exe)
 L702 exits ... SP integral derivatives will be done elsewhere.
 Leave Link  702 at Sun Mar  6 18:01:53 2022, MaxMem= 16106127360 cpu:               0.6 elap:               0.0
 (Enter /sw/contrib/gaussian/g16/B01/g16/l703.exe)
 Integral derivatives from FoFJK, PRISM(SPDF).
 Compute integral first derivatives, UseDBF=F ICtDFT=           0.
 Calling FoFJK, ICntrl=  10002127 FMM=F ISym2X=1 I1Cent= 0 IOpClX= 0 NMat=1 NMatS=1 NMatT=0.
 FoFJK:  IHMeth= 1 ICntrl=10002127 DoSepK=F KAlg= 0 I1Cent=           0 FoldK=F
 IRaf=         0 NMat=       1 IRICut=       1 DoRegI=T DoRafI=F ISym2E= 1 IDoP0=0 IntGTp=1.
 FoFCou: FMM=F IPFlag=           0 FMFlag=      100000 FMFlg1=         800
         NFxFlg=           0 DoJE=F BraDBF=F KetDBF=F FulRan=T
         wScrn=  0.000000 ICntrl=  10002127 IOpCl=  0 I1Cent=           0 NGrid=           0
         NMat0=    1 NMatS0=      1 NMatT0=    0 NMatD0=    1 NMtDS0=    0 NMtDT0=    0
 Petite list used in FoFCou.
 Leave Link  703 at Sun Mar  6 18:01:55 2022, MaxMem= 16106127360 cpu:              60.8 elap:               2.2
 (Enter /sw/contrib/gaussian/g16/B01/g16/l716.exe)
 Dipole        = 1.46705090D-02-4.40287282D-01-3.80504517D-33
 ***** Axes restored to original set *****
 -------------------------------------------------------------------
 Center     Atomic                   Forces (Hartrees/Bohr)
 Number     Number              X              Y              Z
 -------------------------------------------------------------------
      1        1           0.000425715    0.000000000    0.000034563
      2        8           0.002441347    0.000000000    0.000804960
      3        8          -0.002959415   -0.000000000   -0.002366217
      4        7           0.001549399    0.000000000    0.001848334
      5        8          -0.001457045   -0.000000000   -0.000321640
 -------------------------------------------------------------------
 Cartesian Forces:  Max     0.002959415 RMS     0.001395017
 -----------------------------------------------------------------------------------------------
                       Internal Coordinate Forces (Hartree/Bohr or radian)
  Cent   Atom   N1       Length/X         N2         Alpha/Y        N3         Beta/Z          J
 -----------------------------------------------------------------------------------------------
      1  H 
      2  O        1  -0.000035(     1)
      3  O        2  -0.002973(     2)      1  -0.000792(     5)
      4  N        3  -0.001218(     3)      2   0.000001(     6)      1  -0.000000(     8)     0
      5  O        4   0.001038(     4)      3  -0.002418(     7)      2  -0.000000(     9)     0
 -----------------------------------------------------------------------------------------------
 Internal  Forces:  Max     0.002973076 RMS     0.001409239
 Leave Link  716 at Sun Mar  6 18:01:56 2022, MaxMem= 16106127360 cpu:               1.9 elap:               0.1
 (Enter /sw/contrib/gaussian/g16/B01/g16/l103.exe)

 GradGradGradGradGradGradGradGradGradGradGradGradGradGradGradGradGradGrad
 Berny optimization.
 Search for a local minimum.
 Step number   2 out of a maximum of   20
 All quantities printed in internal units (Hartrees-Bohrs-Radians)
 Update second derivatives using D2CorN and points    1    2
 DE= -9.21D-05 DEPred=-7.77D-05 R= 1.19D+00
 TightC=F SS=  1.41D+00  RLast= 2.29D-02 DXNew= 5.0454D-01 6.8561D-02
 Trust test= 1.19D+00 RLast= 2.29D-02 DXMaxT set to 3.00D-01
 The second derivative matrix:
                          r1        r2        r3        r4        a1
           r1           0.50974
           r2           0.01365   0.30893
           r3           0.00570  -0.02534   0.47630
           r4          -0.00485   0.02278   0.00610   1.08545
           a1           0.00432   0.03311   0.01605  -0.01336   0.18377
           a2           0.00005   0.00431   0.00176  -0.00150   0.00114
           a3           0.01165  -0.02343  -0.00205   0.00272   0.03909
           d1           0.00000  -0.00000  -0.00000   0.00000  -0.00000
           d2           0.00000  -0.00000  -0.00000  -0.00000  -0.00000
                          a2        a3        d1        d2
           a2           0.25000
           a3           0.00350   0.26784
           d1           0.00000  -0.00000   0.00742
           d2           0.00000  -0.00000  -0.00000   0.01500
 ITU=  1  0
     Eigenvalues ---    0.00742   0.01500   0.15612   0.24918   0.28061
     Eigenvalues ---    0.31789   0.47998   0.51186   1.08638
 RFO step:  Lambda=-6.76559259D-05 EMin= 7.41871098D-03
 Quartic linear search produced a step of  0.22471.
 Variable       Old X    -DE/DX   Delta X   Delta X   Delta X     New X
                                 (Linear)    (Quad)   (Total)
    r1        1.86125  -0.00003   0.00112  -0.00064   0.00048   1.86174
    r2        2.70976  -0.00297  -0.00334  -0.00825  -0.01159   2.69817
    r3        2.61350  -0.00122  -0.00063  -0.00284  -0.00348   2.61002
    r4        2.25481   0.00104   0.00064   0.00070   0.00133   2.25615
    a1        1.75753  -0.00079   0.00351  -0.00402  -0.00051   1.75702
    a2        1.97344   0.00000   0.00034   0.00001   0.00035   1.97379
    a3        2.00051  -0.00242   0.00087  -0.01200  -0.01114   1.98937
    d1       -0.00000  -0.00000  -0.00000  -0.00000  -0.00000  -0.00000
    d2       -0.00000  -0.00000  -0.00000  -0.00000  -0.00000  -0.00000
         Item               Value     Threshold  Converged?
 Maximum Force            0.002973     0.000450     NO 
 RMS     Force            0.001409     0.000300     NO 
 Maximum Displacement     0.011588     0.001800     NO 
 RMS     Displacement     0.005506     0.001200     NO 
 Predicted change in Energy=-3.036622D-05
 Lowest energy point so far.  Saving SCF results.
 GradGradGradGradGradGradGradGradGradGradGradGradGradGradGradGradGradGrad

 Leave Link  103 at Sun Mar  6 18:01:56 2022, MaxMem= 16106127360 cpu:               0.9 elap:               0.1
 (Enter /sw/contrib/gaussian/g16/B01/g16/l202.exe)
 ---------------------------------------------------------------------------------------------------
                            Z-MATRIX (ANGSTROMS AND DEGREES)
   CD    Cent   Atom    N1       Length/X        N2       Alpha/Y        N3        Beta/Z          J
 ---------------------------------------------------------------------------------------------------
      1      1  H 
      2      2  O        1   0.985188(     1)
      3      3  O        2   1.427809(     2)      1  100.670(     5)
      4      4  N        3   1.381165(     3)      2  113.090(     6)      1   -0.000(     8)      0
      5      5  O        4   1.193901(     4)      3  113.983(     7)      2   -0.000(     9)      0
 ---------------------------------------------------------------------------------------------------
                         Z-Matrix orientation:                         
 ---------------------------------------------------------------------
 Center     Atomic      Atomic             Coordinates (Angstroms)
 Number     Number       Type             X           Y           Z
 ---------------------------------------------------------------------
      1          1           0        0.000000    0.000000    0.000000
      2          8           0        0.000000    0.000000    0.985188
      3          8           0        1.403124    0.000000    1.249542
      4          7           0        2.170650   -0.000000    0.101274
      5          8           0        1.533429   -0.000000   -0.908354
 ---------------------------------------------------------------------
                    Distance matrix (angstroms):
                    1          2          3          4          5
     1  H    0.000000
     2  O    0.985188   0.000000
     3  O    1.878859   1.427809   0.000000
     4  N    2.173012   2.343721   1.381165   0.000000
     5  O    1.782277   2.436577   2.161827   1.193901   0.000000
 Stoichiometry    HNO3
 Framework group  CS[SG(HNO3)]
 Deg. of freedom     7
 Full point group                 CS      NOp   2
 RotChk:  IX=0 Diff= 3.71D-03
 Largest Abelian subgroup         CS      NOp   2
 Largest concise Abelian subgroup C1      NOp   1
                         Standard orientation:                         
 ---------------------------------------------------------------------
 Center     Atomic      Atomic             Coordinates (Angstroms)
 Number     Number       Type             X           Y           Z
 ---------------------------------------------------------------------
      1          1           0        1.106602   -0.601808    0.000000
      2          8           0        1.315288    0.361024    0.000000
      3          8           0       -0.000000    0.916594    0.000000
      4          7           0       -0.993340   -0.043038    0.000000
      5          8           0       -0.584441   -1.164734    0.000000
 ---------------------------------------------------------------------
 Rotational constants (GHZ):          21.3026830           8.1447832           5.8920429
 Leave Link  202 at Sun Mar  6 18:01:56 2022, MaxMem= 16106127360 cpu:               4.3 elap:               0.2
 (Enter /sw/contrib/gaussian/g16/B01/g16/l301.exe)
 Standard basis: Aug-CC-pVTZ (5D, 7F)
 Ernie: Thresh=  0.10000D-02 Tol=  0.10000D-05 Strict=F.
 Ernie:  12 primitive shells out of 131 were deleted.
 There are   166 symmetry adapted cartesian basis functions of A'  symmetry.
 There are    79 symmetry adapted cartesian basis functions of A"  symmetry.
 There are   136 symmetry adapted basis functions of A'  symmetry.
 There are    71 symmetry adapted basis functions of A"  symmetry.
   207 basis functions,   315 primitive gaussians,   245 cartesian basis functions
    16 alpha electrons       16 beta electrons
       nuclear repulsion energy       122.8364070126 Hartrees.
 IExCor=    0 DFT=F Ex=HF Corr=None ExCW=0 ScaHFX=  1.000000
 ScaDFX=  1.000000  1.000000  1.000000  1.000000 ScalE2=  1.000000  1.000000
 IRadAn=      5 IRanWt=     -1 IRanGd=            0 ICorTp=0 IEmpDi=  4
 NAtoms=    5 NActive=    5 NUniq=    5 SFac= 1.00D+00 NAtFMM=   60 NAOKFM=F Big=F
 Integral buffers will be    131072 words long.
 Raffenetti 1 integral format.
 Two-electron integral symmetry is turned on.
 Leave Link  301 at Sun Mar  6 18:01:56 2022, MaxMem= 16106127360 cpu:               1.8 elap:               0.1
 (Enter /sw/contrib/gaussian/g16/B01/g16/l302.exe)
 NPDir=0 NMtPBC=     1 NCelOv=     1 NCel=       1 NClECP=     1 NCelD=      1
         NCelK=      1 NCelE2=     1 NClLst=     1 CellRange=     0.0.
 One-electron integrals computed using PRISM.
 One-electron integral symmetry used in STVInt
 NBasis=   207 RedAO= T EigKep=  1.31D-04  NBF=   136    71
 NBsUse=   207 1.00D-06 EigRej= -1.00D+00 NBFU=   136    71
 Leave Link  302 at Sun Mar  6 18:01:56 2022, MaxMem= 16106127360 cpu:               5.9 elap:               0.3
 (Enter /sw/contrib/gaussian/g16/B01/g16/l303.exe)
 DipDrv:  MaxL=1.
 Leave Link  303 at Sun Mar  6 18:01:56 2022, MaxMem= 16106127360 cpu:               0.8 elap:               0.1
 (Enter /sw/contrib/gaussian/g16/B01/g16/l401.exe)
 Initial guess from the checkpoint file:  "hoono_eq.chk"
 B after Tr=    -0.000000    0.000000    0.000000
         Rot=    1.000000   -0.000000   -0.000000   -0.000408 Ang=  -0.05 deg.
 Guess basis will be translated and rotated to current coordinates.
 JPrj=2 DoOrth=T DoCkMO=T.
 Initial guess orbital symmetries:
       Occupied  (A') (A') (A') (A') (A') (A') (A') (A') (A') (A')
                 (A") (A') (A") (A') (A') (A")
       Virtual   (A') (A") (A') (A') (A") (A') (A') (A') (A") (A')
                 (A") (A') (A') (A') (A") (A') (A') (A") (A') (A')
                 (A') (A') (A') (A') (A") (A') (A') (A") (A') (A')
                 (A') (A") (A") (A') (A') (A') (A") (A') (A") (A')
                 (A") (A") (A') (A') (A") (A') (A') (A") (A') (A')
                 (A') (A") (A') (A') (A") (A') (A") (A') (A") (A')
                 (A') (A') (A") (A') (A') (A') (A") (A") (A') (A')
                 (A") (A') (A") (A") (A') (A') (A") (A') (A') (A')
                 (A") (A') (A') (A") (A') (A") (A") (A') (A') (A')
                 (A') (A') (A") (A") (A') (A') (A") (A") (A') (A")
                 (A') (A') (A") (A') (A") (A') (A') (A') (A") (A')
                 (A") (A') (A') (A') (A") (A') (A') (A') (A") (A')
                 (A") (A") (A') (A') (A") (A") (A') (A") (A') (A')
                 (A') (A') (A") (A') (A') (A") (A") (A') (A') (A')
                 (A") (A") (A') (A') (A') (A") (A') (A') (A') (A")
                 (A') (A') (A') (A") (A") (A') (A") (A') (A') (A")
                 (A') (A") (A') (A") (A") (A') (A') (A") (A") (A')
                 (A") (A") (A") (A') (A') (A") (A') (A') (A") (A')
                 (A') (A') (A') (A') (A') (A') (A') (A') (A') (A')
                 (A')
 The electronic state of the initial guess is 1-A'.
 Leave Link  401 at Sun Mar  6 18:01:56 2022, MaxMem= 16106127360 cpu:               3.5 elap:               0.1
 (Enter /sw/contrib/gaussian/g16/B01/g16/l502.exe)
 Keep R1 ints in memory in symmetry-blocked form, NReq=348887737.
 FoFCou: FMM=F IPFlag=           0 FMFlag=           0 FMFlg1=           0
         NFxFlg=           0 DoJE=F BraDBF=F KetDBF=F FulRan=T
[...]
 
 Zero-point correction=                           0.023432 (Hartree/Particle)
 Thermal correction to Energy=                    0.027369
 Thermal correction to Enthalpy=                  0.028313
 Thermal correction to Gibbs Free Energy=        -0.002542
 Sum of electronic and zero-point Energies=           -280.431808
 Sum of electronic and thermal Energies=              -280.427871
 Sum of electronic and thermal Enthalpies=            -280.426927
 Sum of electronic and thermal Free Energies=         -280.457782
 
                     E (Thermal)             CV                S
                      KCal/Mol        Cal/Mol-Kelvin    Cal/Mol-Kelvin
 Total                   17.174             12.166             64.940
 Electronic               0.000              0.000              0.000
 Translational            0.889              2.981             38.341
 Rotational               0.889              2.981             23.273
 Vibrational             15.397              6.204              3.326
 Vibration     1          0.730              1.568              1.150
 Vibration     2          0.764              1.476              0.973
 Vibration     3          0.878              1.198              0.602
                       Q            Log10(Q)             Ln(Q)
 Total Bot       0.147578D+02          1.169020          2.691769
 Total V=0       0.885288D+12         11.947085         27.509179
 Vib (Bot)       0.275942D-10        -10.559182        -24.313414
 Vib (Bot)    1  0.520345D+00         -0.283709         -0.653264
 Vib (Bot)    2  0.449653D+00         -0.347122         -0.799279
 Vib (Bot)    3  0.307353D+00         -0.512363         -1.179760
 Vib (V=0)       0.165532D+01          0.218883          0.503996
 Vib (V=0)    1  0.122164D+01          0.086942          0.200191
 Vib (V=0)    2  0.117245D+01          0.069094          0.159095
 Vib (V=0)    3  0.108691D+01          0.036194          0.083341
 Electronic      0.100000D+01          0.000000          0.000000
 Translational   0.196526D+08          7.293420         16.793719
 Rotational      0.272134D+05          4.434782         10.211463
 
                                                                title
                                                             IR Spectrum
 
     3                                                                     1    1                                                    
     4                                                                     5    4                9    8    7     5    3 3            
     8                                                                     7    3                7    3    1     2    9 5            
     8                                                                     0    4                1    7    1     3    7 4            
 
     X                                                                     X    X                X    X    X     X    X X            
     X                                                                     X    X                     X    X     X      X            
     X                                                                     X    X                     X    X            X            
     X                                                                     X    X                          X            X            
                                                                           X    X                          X            X            
                                                                           X    X                          X            X            
                                                                           X    X                          X                         
                                                                           X                               X                         
                                                                           X                               X                         
                                                                           X                               X                         
                                                                           X                               X                         
                                                                           X                               X                         
                                                                           X                               X                         
                                                                           X                               X                         
                                                                                                           X                         
                                                                                                           X                         
                                                                                                           X                         
                                                                                                           X                         
                                                                                                           X                         
                                                                                                           X                         
 
 ***** Axes restored to original set *****
 -------------------------------------------------------------------
 Center     Atomic                   Forces (Hartrees/Bohr)
 Number     Number              X              Y              Z
 -------------------------------------------------------------------
      1        1           0.000025261    0.000000000   -0.000025589
      2        8          -0.000171447   -0.000000000    0.000112012
      3        8           0.000150704    0.000000000   -0.000366426
      4        7           0.000205422    0.000000000    0.000498678
      5        8          -0.000209939   -0.000000000   -0.000218674
 -------------------------------------------------------------------
 Cartesian Forces:  Max     0.000498678 RMS     0.000197144
 -----------------------------------------------------------------------------------------------
                       Internal Coordinate Forces (Hartree/Bohr or radian)
  Cent   Atom   N1       Length/X         N2         Alpha/Y        N3         Beta/Z          J
 -----------------------------------------------------------------------------------------------
      1  H 
      2  O        1   0.000026(     1)
      3  O        2   0.000128(     2)      1  -0.000047(     5)
      4  N        3  -0.000235(     3)      2   0.000255(     6)      1  -0.000000(     8)     0
      5  O        4   0.000297(     4)      3  -0.000142(     7)      2   0.000000(     9)     0
 -----------------------------------------------------------------------------------------------
 Internal  Forces:  Max     0.000296580 RMS     0.000165823
 Force constants in Cartesian coordinates: 
                1             2             3             4             5 
      1  0.721501D-01
      2  0.000000D+00  0.609662D-02
      3  0.242239D-01  0.000000D+00  0.436660D+00
      4 -0.519340D-01  0.000000D+00 -0.471064D-02  0.280852D+00
      5  0.000000D+00 -0.241534D-02  0.000000D+00  0.000000D+00  0.122276D-01
      6  0.321007D-01  0.000000D+00 -0.420420D+00 -0.125177D-01  0.000000D+00
      7 -0.251038D-01  0.000000D+00 -0.159163D-01 -0.170523D+00  0.000000D+00
      8  0.000000D+00 -0.422019D-02  0.000000D+00  0.000000D+00 -0.190959D-01
      9 -0.439441D-01  0.000000D+00 -0.199108D-01  0.105972D-01  0.000000D+00
     10 -0.571761D-02  0.000000D+00  0.640601D-02 -0.841427D-01  0.000000D+00
     11  0.000000D+00  0.803982D-02  0.000000D+00  0.000000D+00  0.199326D-01
     12 -0.192181D-01  0.000000D+00  0.119245D-01  0.107900D-01  0.000000D+00
     13  0.106053D-01  0.000000D+00 -0.100029D-01  0.257484D-01  0.000000D+00
     14  0.000000D+00 -0.750090D-02  0.000000D+00  0.000000D+00 -0.106489D-01
     15  0.683761D-02  0.000000D+00 -0.825427D-02 -0.415886D-02  0.000000D+00
                6             7             8             9            10 
      6  0.522460D+00
      7 -0.910841D-01  0.303590D+00
      8  0.000000D+00  0.000000D+00  0.411867D-01
      9 -0.965448D-01  0.814982D-01  0.000000D+00  0.316549D+00
     10  0.403217D-01 -0.143830D+00  0.000000D+00 -0.356206D-01  0.554457D+00
     11  0.000000D+00  0.000000D+00 -0.480556D-01  0.000000D+00  0.000000D+00
     12 -0.104222D-01  0.159910D-01  0.000000D+00 -0.253248D-01  0.243496D+00
     13  0.311794D-01  0.358679D-01  0.000000D+00 -0.125307D-01 -0.320766D+00
     14  0.000000D+00  0.000000D+00  0.301850D-01  0.000000D+00  0.000000D+00
     15  0.492724D-02  0.951126D-02  0.000000D+00 -0.174769D+00 -0.254604D+00
               11            12            13            14            15 
     11  0.576222D-01
     12  0.000000D+00  0.448739D+00
     13  0.000000D+00 -0.251059D+00  0.248545D+00
     14 -0.375391D-01  0.000000D+00  0.000000D+00  0.255039D-01
     15  0.000000D+00 -0.424916D+00  0.242414D+00  0.000000D+00  0.603012D+00
 Force constants in internal coordinates: 
                1             2             3             4             5 
      1  0.436660D+00
      2  0.221754D-01  0.258860D+00
      3  0.505039D-02  0.172900D-01  0.207674D+00
      4 -0.122930D-01  0.226557D-01  0.148861D+00  0.721549D+00
      5  0.451322D-01  0.563546D-01 -0.242223D-01  0.212434D-01  0.250219D+00
      6  0.118073D-01  0.220091D-01  0.922469D-01  0.977082D-02 -0.896618D-02
      7  0.932895D-02 -0.735762D-01  0.121492D+00  0.117296D+00 -0.226692D-01
      8  0.000000D+00  0.000000D+00  0.000000D+00  0.000000D+00  0.000000D+00
      9  0.000000D+00  0.000000D+00  0.000000D+00  0.000000D+00  0.000000D+00
                6             7             8             9 
      6  0.521293D+00
      7  0.623294D-01  0.663420D+00
      8  0.000000D+00  0.000000D+00  0.204739D-01
      9  0.000000D+00  0.000000D+00  0.282407D-01  0.108547D+00
 Leave Link  716 at Sun Mar  6 18:07:56 2022, MaxMem= 16106127360 cpu:               0.8 elap:               0.1
 (Enter /sw/contrib/gaussian/g16/B01/g16/l103.exe)

 GradGradGradGradGradGradGradGradGradGradGradGradGradGradGradGradGradGrad
 Berny optimization.
 Search for a local minimum.
 Step number   1 out of a maximum of    2
 All quantities printed in internal units (Hartrees-Bohrs-Radians)
 Second derivative matrix not updated -- analytic derivatives used.
 The second derivative matrix:
                          r1        r2        r3        r4        a1
           r1           0.43666
           r2           0.02218   0.25886
           r3           0.00505   0.01729   0.20767
           r4          -0.01229   0.02266   0.14886   0.72155
           a1           0.04513   0.05635  -0.02422   0.02124   0.25022
           a2           0.01181   0.02201   0.09225   0.00977  -0.00897
           a3           0.00933  -0.07358   0.12149   0.11730  -0.02267
           d1          -0.00000  -0.00000   0.00000   0.00000  -0.00000
           d2          -0.00000  -0.00000   0.00000   0.00000   0.00000
                          a2        a3        d1        d2
           a2           0.52129
           a3           0.06233   0.66342
           d1           0.00000   0.00000   0.02047
           d2          -0.00000   0.00000   0.02824   0.10855
 ITU=  0
     Eigenvalues ---    0.01220   0.11682   0.12439   0.20348   0.27507
     Eigenvalues ---    0.44942   0.51532   0.60802   0.88397
 Angle between quadratic step and forces=  34.51 degrees.
 Linear search not attempted -- first point.
 Variable       Old X    -DE/DX   Delta X   Delta X   Delta X     New X
                                 (Linear)    (Quad)   (Total)
    r1        1.86209   0.00003   0.00000   0.00012   0.00012   1.86221
    r2        2.69614   0.00013   0.00000   0.00063   0.00063   2.69677
    r3        2.60992  -0.00024   0.00000  -0.00226  -0.00226   2.60766
    r4        2.25782   0.00030   0.00000   0.00086   0.00086   2.25869
    a1        1.75642  -0.00005   0.00000  -0.00061  -0.00061   1.75581
    a2        1.97463   0.00025   0.00000   0.00083   0.00083   1.97546
    a3        1.99550  -0.00014   0.00000   0.00002   0.00002   1.99552
    d1       -0.00000  -0.00000   0.00000  -0.00000  -0.00000  -0.00000
    d2       -0.00000   0.00000   0.00000   0.00000   0.00000  -0.00000
         Item               Value     Threshold  Converged?
 Maximum Force            0.000297     0.000450     YES
 RMS     Force            0.000166     0.000300     YES
 Maximum Displacement     0.002256     0.001800     NO 
 RMS     Displacement     0.000901     0.001200     YES
 Predicted change in Energy=-5.536913D-07
                       ----------------------------
                       ! Non-Optimized Parameters !
                       ! (Angstroms and Degrees)  !
 ----------------------                            ----------------------
 !      Name          Value   Derivative information (Atomic Units)     !
 ------------------------------------------------------------------------
 !       r1          0.9854   -DE/DX =    0.0                           !
 !       r2          1.4271   -DE/DX =    0.0001                        !
 !       r3          1.3799   -DE/DX =   -0.0002                        !
 !       r4          1.1952   -DE/DX =    0.0003                        !
 !       a1        100.6006   -DE/DX =    0.0                           !
 !       a2        113.1853   -DE/DX =    0.0003                        !
 !       a3        114.3348   -DE/DX =   -0.0001                        !
 !       d1          0.0      -DE/DX =    0.0                           !
 !       d2          0.0      -DE/DX =    0.0                           !
 ------------------------------------------------------------------------
 GradGradGradGradGradGradGradGradGradGradGradGradGradGradGradGradGradGrad

 Leave Link  103 at Sun Mar  6 18:07:56 2022, MaxMem= 16106127360 cpu:               1.9 elap:               0.1
 (Enter /sw/contrib/gaussian/g16/B01/g16/l9999.exe)

 ----------------------------------------------------------------------

 Electric dipole moment (input orientation):
 (Debye = 10**-18 statcoulomb cm , SI units = C m)
                  (au)            (Debye)         (10**-30 SI)
   Tot        0.430893D+00      0.109522D+01      0.365326D+01
   x         -0.110177D+00     -0.280042D+00     -0.934119D+00
   y          0.000000D+00      0.000000D+00      0.000000D+00
   z         -0.416569D+00     -0.105881D+01     -0.353182D+01

 Dipole polarizability, Alpha (input orientation).
 (esu units = cm**3 , SI units = C**2 m**2 J**-1)
 Alpha(0;0):
               (au)            (10**-24 esu)      (10**-40 SI)
   iso        0.261321D+02      0.387238D+01      0.430860D+01
   aniso      0.146759D+02      0.217474D+01      0.241972D+01
   xx         0.291761D+02      0.432345D+01      0.481048D+01
   yx         0.000000D+00      0.000000D+00      0.000000D+00
   yy         0.176192D+02      0.261089D+01      0.290501D+01
   zx        -0.399641D+01     -0.592206D+00     -0.658918D+00
   zy         0.000000D+00      0.000000D+00      0.000000D+00
   zz         0.316010D+02      0.468279D+01      0.521031D+01

 ----------------------------------------------------------------------

 Dipole orientation:
     1          0.00000000          0.00000000          0.00000000
     8         -0.47612655          0.00000000         -1.80019167
     8          1.95837821          0.00000000         -2.95879678
     7          3.91574337         -0.00000000         -1.23241937
     8          3.25267854         -0.00000000          0.92584604

 Electric dipole moment (dipole orientation):
 (Debye = 10**-18 statcoulomb cm , SI units = C m)
                  (au)            (Debye)         (10**-30 SI)
   Tot        0.430893D+00      0.109522D+01      0.365326D+01
   x          0.000000D+00      0.000000D+00      0.000000D+00
   y          0.000000D+00      0.000000D+00      0.000000D+00
   z          0.430893D+00      0.109522D+01      0.365326D+01

 Dipole polarizability, Alpha (dipole orientation).
 (esu units = cm**3 , SI units = C**2 m**2 J**-1)
 Alpha(0;0):
               (au)            (10**-24 esu)      (10**-40 SI)
   iso        0.261321D+02      0.387238D+01      0.430860D+01
   aniso      0.146759D+02      0.217474D+01      0.241972D+01
   xx         0.313104D+02      0.463972D+01      0.516238D+01
   yx         0.000000D+00      0.000000D+00      0.000000D+00
   yy         0.176192D+02      0.261089D+01      0.290501D+01
   zx         0.407328D+01      0.603598D+00      0.671593D+00
   zy         0.000000D+00      0.000000D+00      0.000000D+00
   zz         0.294667D+02      0.436652D+01      0.485841D+01

 ----------------------------------------------------------------------
 1\1\GINC-N2398\Freq\RMP2-FC\Aug-CC-pVTZ\H1N1O3\CGAVINH\06-Mar-2022\1\\
 #P Geom=AllCheck Guess=TCheck SCRF=Check GenChk RMP2(FC)/Aug-CC-pVTZ F
 req\\title\\0,1\H\O,1,r1\O,2,r2,1,a1\N,3,r3,2,a2,1,d1,0\O,4,r4,3,a3,2,
 d2,0\\r1=0.98537664\r2=1.42673666\r3=1.38110764\r4=1.19478846\a1=100.6
 355057\a2=113.13777052\a3=114.33392022\d1=0.\d2=0.\\Version=ES64L-G16R
 evB.01\State=1-A'\HF=-279.506429\MP2=-280.4552402\RMSD=1.607e-09\RMSF=
 1.971e-04\ZeroPoint=0.0234322\Thermal=0.0273692\Dipole=-0.1101769,0.,-
 0.4165689\DipoleDeriv=0.3169111,0.,0.0378764,0.,0.2980665,0.,-0.024452
 7,0.,0.1998987,-0.5282601,0.,0.2814594,0.,-0.2542168,0.,-0.1048129,0.,
 -0.1257184,0.0043197,0.,0.3358278,0.,-0.010389,0.,0.4416875,0.,-0.9208
 695,0.1992727,0.,-0.1393331,0.,0.012281,0.,-0.6658882,0.,1.7174527,0.0
 077566,0.,-0.5158305,0.,-0.0457417,0.,0.3534663,0.,-0.8707634\Polar=29
 .176059,0.,17.6191927,-3.9964051,0.,31.6010421\Quadrupole=0.1498341,0.
 6081424,-0.7579764,0.,1.4052395,0.\PG=CS [SG(H1N1O3)]\NImag=0\\0.07215
 009,0.,0.00609662,0.02422385,0.,0.43666050,-0.05193399,0.,-0.00471064,
 0.28085179,0.,-0.00241534,0.,0.,0.01222755,0.03210067,0.,-0.42041990,-
 0.01251768,0.,0.52245964,-0.02510377,0.,-0.01591634,-0.17052347,0.,-0.
 09108410,0.30358968,0.,-0.00422019,0.,0.,-0.01909592,0.,0.,0.04118670,
 -0.04394406,0.,-0.01991083,0.01059719,0.,-0.09654478,0.08149815,0.,0.3
 1654919,-0.00571761,0.,0.00640601,-0.08414272,0.,0.04032172,-0.1438303
 8,0.,-0.03562058,0.55445713,0.,0.00803982,0.,0.,0.01993261,0.,0.,-0.04
 805558,0.,0.,0.05762223,-0.01921807,0.,0.01192451,0.01078999,0.,-0.010
 42221,0.01599102,0.,-0.02532478,0.24349647,0.,0.44873885,0.01060528,0.
 ,-0.01000289,0.02574840,0.,0.03117940,0.03586794,0.,-0.01253070,-0.320
 76642,0.,-0.25105942,0.24854480,0.,-0.00750090,0.,0.,-0.01064890,0.,0.
 ,0.03018500,0.,0.,-0.03753907,0.,0.,0.02550387,0.00683761,0.,-0.008254
 27,-0.00415886,0.,0.00492724,0.00951126,0.,-0.17476880,-0.25460362,0.,
 -0.42491637,0.24241361,0.,0.60301221\\-0.00002526,0.,0.00002559,0.0001
 7145,0.,-0.00011201,-0.00015070,0.,0.00036643,-0.00020542,0.,-0.000498
 68,0.00020994,0.,0.00021867\\\@


            ARSENIC

 FOR SMELTER FUMES HAVE I BEEN NAMED,
    I AM AN EVIL POISONOUS SMOKE...
 BUT WHEN FROM POISON I AM FREED,
    THROUGH ART AND SLEIGHT OF HAND,
 THEN CAN I CURE BOTH MAN AND BEAST,
    FROM DIRE DISEASE OFTTIMES DIRECT THEM;
 BUT PREPARE ME CORRECTLY, AND TAKE GREAT CARE
    THAT YOU FAITHFULLY KEEP WATCHFUL GUARD OVER ME;
 FOR ELSE I AM POISON, AND POISON REMAIN,
    THAT PIERCES THE HEART OF MANY A ONE.

 ATTRIBUTED TO THE PROBABLY MYTHICAL 15TH
 CENTURY MONK, BASILIUS VALENTINUS
 Job cpu time:       0 days  2 hours  1 minutes 49.9 seconds.
 Elapsed time:       0 days  0 hours  4 minutes 23.1 seconds.
 File lengths (MBytes):  RWF=   7239 Int=      0 D2E=      0 Chk=     12 Scr=      1
 Normal termination of Gaussian 16 at Sun Mar  6 18:07:57 2022.
