title                                                                   
Freq      RMP2-FC                                                     Aug-CC-pVTZ         
Number of atoms                            I                5
Info1-9                                    I   N=           9
          64          24        1002           0           0         100
           6           2           1
Full Title                                 C   N=           1
title       
Route                                      C   N=           5
#p freq opt=(z-matrix) mp2/aug-cc-pvtz density=current      
Charge                                     I                0
Multiplicity                               I                1
Number of electrons                        I               32
Number of alpha electrons                  I               16
Number of beta electrons                   I               16
Number of basis functions                  I              207
Number of independent functions            I              207
Number of point charges in /Mol/           I                0
Number of translation vectors              I                0
Atomic numbers                             I   N=           5
           1           8           8           7           8
Nuclear charges                            R   N=           5
  1.00000000E+00  8.00000000E+00  8.00000000E+00  7.00000000E+00  8.00000000E+00
Current cartesian coordinates              R   N=          15
  2.09606964E+00 -1.13004633E+00 -1.47911420E-31  2.48655726E+00  6.90641990E-01
 -4.93038066E-32 -1.19562353E-18  1.73285704E+00  3.69778549E-32 -1.87355966E+00
 -8.41271470E-02  9.86076132E-32 -1.10920127E+00 -2.20863199E+00  0.00000000E+00
Number of symbols in /Mol/                 I                0
Force Field                                I                0
Atom Types                                 C   N=           5
                                                            
Int Atom Types                             I   N=           5
           0           0           0           0           0
MM charges                                 R   N=           5
  0.00000000E+00  0.00000000E+00  0.00000000E+00  0.00000000E+00  0.00000000E+00
Integer atomic weights                     I   N=           5
           1          16          16          14          16
Real atomic weights                        R   N=           5
  1.00782504E+00  1.59949146E+01  1.59949146E+01  1.40030740E+01  1.59949146E+01
Atom fragment info                         I   N=           5
           0           0           0           0           0
Atom residue num                           I   N=           5
           0           0           0           0           0
Nuclear spins                              I   N=           5
           1           0           0           2           0
Nuclear ZEff                               R   N=           5
 -1.00000000E+00 -5.60000000E+00 -5.60000000E+00 -4.55000000E+00 -5.60000000E+00
Nuclear ZNuc                               R   N=           5
  1.00000000E+00  8.00000000E+00  8.00000000E+00  7.00000000E+00  8.00000000E+00
Nuclear QMom                               R   N=           5
  0.00000000E+00  0.00000000E+00  0.00000000E+00  2.04400000E+00  0.00000000E+00
Nuclear GFac                               R   N=           5
  2.79284600E+00  0.00000000E+00  0.00000000E+00  4.03761000E-01  0.00000000E+00
MicOpt                                     I   N=           5
          -1          -1          -1          -1          -1
Number of residues                         I                0
Number of secondary structures             I                0
SymInf integers                            I   N=          26
           1           2           1           1           1           1
           1          -1           0           0           0           0
           0           0           0           0           0           0
           0           0           0           0           0           0
           0           0
RotTr to input orientation                 R   N=          12
 -9.77764975E-01 -1.24241971E-16  2.09703727E-01  2.09703727E-01  2.66464896E-17
  9.77764975E-01 -1.27067315E-16  1.00000000E+00  0.00000000E+00  2.28643840E+00
  0.00000000E+00  6.65366105E-01
Number of contracted shells                I               65
Number of primitive shells                 I              119
Pure/Cartesian d shells                    I                0
Pure/Cartesian f shells                    I                0
Highest angular momentum                   I                3
Largest degree of contraction              I                7
Shell types                                I   N=          65
           0           0           0           0           1           1
           1          -2          -2           0           0           0
           0           0           1           1           1           1
          -2          -2          -2          -3          -3           0
           0           0           0           0           1           1
           1           1          -2          -2          -2          -3
          -3           0           0           0           0           0
           1           1           1           1          -2          -2
          -2          -3          -3           0           0           0
           0           0           1           1           1           1
          -2          -2          -2          -3          -3
Number of primitives per shell             I   N=          65
           3           1           1           1           1           1
           1           1           1           7           6           1
           1           1           3           1           1           1
           1           1           1           1           1           7
           6           1           1           1           3           1
           1           1           1           1           1           1
           1           7           6           1           1           1
           3           1           1           1           1           1
           1           1           1           7           6           1
           1           1           3           1           1           1
           1           1           1           1           1
Shell to atom map                          I   N=          65
           1           1           1           1           1           1
           1           1           1           2           2           2
           2           2           2           2           2           2
           2           2           2           2           2           3
           3           3           3           3           3           3
           3           3           3           3           3           3
           3           4           4           4           4           4
           4           4           4           4           4           4
           4           4           4           5           5           5
           5           5           5           5           5           5
           5           5           5           5           5
Primitive exponents                        R   N=         119
  3.38700000E+01  5.09500000E+00  1.15900000E+00  3.25800000E-01  1.02700000E-01
  2.52600000E-02  1.40700000E+00  3.88000000E-01  1.02000000E-01  1.05700000E+00
  2.47000000E-01  1.53300000E+04  2.29900000E+03  5.22400000E+02  1.47300000E+02
  4.75500000E+01  1.67600000E+01  6.20700000E+00  5.22400000E+02  1.47300000E+02
  4.75500000E+01  1.67600000E+01  6.20700000E+00  6.88200000E-01  1.75200000E+00
  2.38400000E-01  7.37600000E-02  3.44600000E+01  7.74900000E+00  2.28000000E+00
  7.15600000E-01  2.14000000E-01  5.97400000E-02  2.31400000E+00  6.45000000E-01
  2.14000000E-01  1.42800000E+00  5.00000000E-01  1.53300000E+04  2.29900000E+03
  5.22400000E+02  1.47300000E+02  4.75500000E+01  1.67600000E+01  6.20700000E+00
  5.22400000E+02  1.47300000E+02  4.75500000E+01  1.67600000E+01  6.20700000E+00
  6.88200000E-01  1.75200000E+00  2.38400000E-01  7.37600000E-02  3.44600000E+01
  7.74900000E+00  2.28000000E+00  7.15600000E-01  2.14000000E-01  5.97400000E-02
  2.31400000E+00  6.45000000E-01  2.14000000E-01  1.42800000E+00  5.00000000E-01
  1.14200000E+04  1.71200000E+03  3.89300000E+02  1.10000000E+02  3.55700000E+01
  1.25400000E+01  4.64400000E+00  3.89300000E+02  1.10000000E+02  3.55700000E+01
  1.25400000E+01  4.64400000E+00  5.11800000E-01  1.29300000E+00  1.78700000E-01
  5.76000000E-02  2.66300000E+01  5.94800000E+00  1.74200000E+00  5.55000000E-01
  1.72500000E-01  4.91000000E-02  1.65400000E+00  4.69000000E-01  1.51000000E-01
  1.09300000E+00  3.64000000E-01  1.53300000E+04  2.29900000E+03  5.22400000E+02
  1.47300000E+02  4.75500000E+01  1.67600000E+01  6.20700000E+00  5.22400000E+02
  1.47300000E+02  4.75500000E+01  1.67600000E+01  6.20700000E+00  6.88200000E-01
  1.75200000E+00  2.38400000E-01  7.37600000E-02  3.44600000E+01  7.74900000E+00
  2.28000000E+00  7.15600000E-01  2.14000000E-01  5.97400000E-02  2.31400000E+00
  6.45000000E-01  2.14000000E-01  1.42800000E+00  5.00000000E-01
Contraction coefficients                   R   N=         119
  2.54948632E-02  1.90362766E-01  8.52162022E-01  1.00000000E+00  1.00000000E+00
  1.00000000E+00  1.00000000E+00  1.00000000E+00  1.00000000E+00  1.00000000E+00
  1.00000000E+00  5.19808943E-04  4.02025621E-03  2.07128267E-02  8.10105536E-02
  2.35962985E-01  4.42653446E-01  3.57064423E-01 -4.42115008E-05 -1.22591041E-03
 -1.05517725E-02 -6.74452633E-02 -1.71198607E-01  1.07329856E+00  1.00000000E+00
  1.00000000E+00  1.00000000E+00  4.11634896E-02  2.57762836E-01  8.02419274E-01
  1.00000000E+00  1.00000000E+00  1.00000000E+00  1.00000000E+00  1.00000000E+00
  1.00000000E+00  1.00000000E+00  1.00000000E+00  5.19808943E-04  4.02025621E-03
  2.07128267E-02  8.10105536E-02  2.35962985E-01  4.42653446E-01  3.57064423E-01
 -4.42115008E-05 -1.22591041E-03 -1.05517725E-02 -6.74452633E-02 -1.71198607E-01
  1.07329856E+00  1.00000000E+00  1.00000000E+00  1.00000000E+00  4.11634896E-02
  2.57762836E-01  8.02419274E-01  1.00000000E+00  1.00000000E+00  1.00000000E+00
  1.00000000E+00  1.00000000E+00  1.00000000E+00  1.00000000E+00  1.00000000E+00
  5.34563860E-04  4.13435660E-03  2.12335358E-02  8.25006224E-02  2.38138871E-01
  4.42551547E-01  3.53757422E-01 -4.89867350E-05 -1.19527323E-03 -1.03490714E-02
 -6.48680190E-02 -1.71552477E-01  1.07289568E+00  1.00000000E+00  1.00000000E+00
  1.00000000E+00  3.98072123E-02  2.49002660E-01  8.10479727E-01  1.00000000E+00
  1.00000000E+00  1.00000000E+00  1.00000000E+00  1.00000000E+00  1.00000000E+00
  1.00000000E+00  1.00000000E+00  5.19808943E-04  4.02025621E-03  2.07128267E-02
  8.10105536E-02  2.35962985E-01  4.42653446E-01  3.57064423E-01 -4.42115008E-05
 -1.22591041E-03 -1.05517725E-02 -6.74452633E-02 -1.71198607E-01  1.07329856E+00
  1.00000000E+00  1.00000000E+00  1.00000000E+00  4.11634896E-02  2.57762836E-01
  8.02419274E-01  1.00000000E+00  1.00000000E+00  1.00000000E+00  1.00000000E+00
  1.00000000E+00  1.00000000E+00  1.00000000E+00  1.00000000E+00
Coordinates of each shell                  R   N=         195
  2.09606964E+00 -1.13004633E+00 -9.02503680E-32  2.09606964E+00 -1.13004633E+00
 -9.02503680E-32  2.09606964E+00 -1.13004633E+00 -9.02503680E-32  2.09606964E+00
 -1.13004633E+00 -9.02503680E-32  2.09606964E+00 -1.13004633E+00 -9.02503680E-32
  2.09606964E+00 -1.13004633E+00 -9.02503680E-32  2.09606964E+00 -1.13004633E+00
 -9.02503680E-32  2.09606964E+00 -1.13004633E+00 -9.02503680E-32  2.09606964E+00
 -1.13004633E+00 -9.02503680E-32  2.48655726E+00  6.90641990E-01 -7.93667346E-32
  2.48655726E+00  6.90641990E-01 -7.93667346E-32  2.48655726E+00  6.90641990E-01
 -7.93667346E-32  2.48655726E+00  6.90641990E-01 -7.93667346E-32  2.48655726E+00
  6.90641990E-01 -7.93667346E-32  2.48655726E+00  6.90641990E-01 -7.93667346E-32
  2.48655726E+00  6.90641990E-01 -7.93667346E-32  2.48655726E+00  6.90641990E-01
 -7.93667346E-32  2.48655726E+00  6.90641990E-01 -7.93667346E-32  2.48655726E+00
  6.90641990E-01 -7.93667346E-32  2.48655726E+00  6.90641990E-01 -7.93667346E-32
  2.48655726E+00  6.90641990E-01 -7.93667346E-32  2.48655726E+00  6.90641990E-01
 -7.93667346E-32  2.48655726E+00  6.90641990E-01 -7.93667346E-32 -2.36343904E-19
  1.73285704E+00  2.36286023E-32 -2.36343904E-19  1.73285704E+00  2.36286023E-32
 -2.36343904E-19  1.73285704E+00  2.36286023E-32 -2.36343904E-19  1.73285704E+00
  2.36286023E-32 -2.36343904E-19  1.73285704E+00  2.36286023E-32 -2.36343904E-19
  1.73285704E+00  2.36286023E-32 -2.36343904E-19  1.73285704E+00  2.36286023E-32
 -2.36343904E-19  1.73285704E+00  2.36286023E-32 -2.36343904E-19  1.73285704E+00
  2.36286023E-32 -2.36343904E-19  1.73285704E+00  2.36286023E-32 -2.36343904E-19
  1.73285704E+00  2.36286023E-32 -2.36343904E-19  1.73285704E+00  2.36286023E-32
 -2.36343904E-19  1.73285704E+00  2.36286023E-32 -2.36343904E-19  1.73285704E+00
  2.36286023E-32 -1.87355966E+00 -8.41271470E-02  6.57494871E-32 -1.87355966E+00
 -8.41271470E-02  6.57494871E-32 -1.87355966E+00 -8.41271470E-02  6.57494871E-32
 -1.87355966E+00 -8.41271470E-02  6.57494871E-32 -1.87355966E+00 -8.41271470E-02
  6.57494871E-32 -1.87355966E+00 -8.41271470E-02  6.57494871E-32 -1.87355966E+00
 -8.41271470E-02  6.57494871E-32 -1.87355966E+00 -8.41271470E-02  6.57494871E-32
 -1.87355966E+00 -8.41271470E-02  6.57494871E-32 -1.87355966E+00 -8.41271470E-02
  6.57494871E-32 -1.87355966E+00 -8.41271470E-02  6.57494871E-32 -1.87355966E+00
 -8.41271470E-02  6.57494871E-32 -1.87355966E+00 -8.41271470E-02  6.57494871E-32
 -1.87355966E+00 -8.41271470E-02  6.57494871E-32 -1.10920127E+00 -2.20863199E+00
  9.48862714E-33 -1.10920127E+00 -2.20863199E+00  9.48862714E-33 -1.10920127E+00
 -2.20863199E+00  9.48862714E-33 -1.10920127E+00 -2.20863199E+00  9.48862714E-33
 -1.10920127E+00 -2.20863199E+00  9.48862714E-33 -1.10920127E+00 -2.20863199E+00
  9.48862714E-33 -1.10920127E+00 -2.20863199E+00  9.48862714E-33 -1.10920127E+00
 -2.20863199E+00  9.48862714E-33 -1.10920127E+00 -2.20863199E+00  9.48862714E-33
 -1.10920127E+00 -2.20863199E+00  9.48862714E-33 -1.10920127E+00 -2.20863199E+00
  9.48862714E-33 -1.10920127E+00 -2.20863199E+00  9.48862714E-33 -1.10920127E+00
 -2.20863199E+00  9.48862714E-33 -1.10920127E+00 -2.20863199E+00  9.48862714E-33
Num ILSW                                   I              100
ILSW                                       I   N=         100
           0           0           0           0           2           0
           0           0           0           0           0          -1
           5           0           0           0           2           0
           0           0           0           0           1           0
           1           0           0           0           0           0
           0           0      100000           0          -1           0
           0           0           0           0           0           0
           0           0           0           1           1           0
           0 -2000000000           1           0           0           0
           0           0           4          52           0           0
           0           0           0           0           0           0
           0           0           0           5           4           1
           0           0           0           0           0           0
           0           0           0           0           0           0
           0           0           0           0           0           0
           0           0           0           0           0           0
           0           0           0           0
Num RLSW                                   I               52
RLSW                                       R   N=          52
  1.00000000E+00  1.00000000E+00  1.00000000E+00  1.00000000E+00  1.00000000E+00
  0.00000000E+00  0.00000000E+00  1.00000000E+00  0.00000000E+00  0.00000000E+00
  0.00000000E+00  0.00000000E+00  1.00000000E+00  0.00000000E+00  0.00000000E+00
  0.00000000E+00  0.00000000E+00  1.00000000E+00  0.00000000E+00  0.00000000E+00
  0.00000000E+00  0.00000000E+00  1.00000000E+00  0.00000000E+00  0.00000000E+00
  0.00000000E+00  0.00000000E+00  1.00000000E+00  0.00000000E+00  0.00000000E+00
  0.00000000E+00  0.00000000E+00  1.00000000E+00  0.00000000E+00  0.00000000E+00
  0.00000000E+00  0.00000000E+00  0.00000000E+00  1.00000000E+00  1.00000000E+00
  0.00000000E+00  1.00000000E+00  0.00000000E+00  0.00000000E+00  0.00000000E+00
  0.00000000E+00  0.00000000E+00  0.00000000E+00  0.00000000E+00  0.00000000E+00
  0.00000000E+00  0.00000000E+00
MxBond                                     I                2
NBond                                      I   N=           5
           1           2           2           2           1
IBond                                      I   N=          10
           2           0           1           3           2           4
           3           5           4           0
RBond                                      R   N=          10
  1.00000000E+00  0.00000000E+00  1.00000000E+00  1.00000000E+00  1.00000000E+00
  1.00000000E+00  1.00000000E+00  2.00000000E+00  2.00000000E+00  0.00000000E+00
Virial Ratio                               R      2.002227723132431E+00
SCF Energy                                 R     -2.795064289942706E+02
MP2 Energy                                 R     -2.804552402495414E+02
Total Energy                               R     -2.804552402495414E+02
Post-SCF wavefunction norm                 R      1.583731924272742E+00
RMS Force                                  R      1.971437039009505E-04
RMS Density                                R      1.606940473665656E-09
NImag                                      I                0
Job Status                                 I                1
Nuclear derivative order                   I                2
External E-field                           R   N=          35
  0.00000000E+00  0.00000000E+00  0.00000000E+00  0.00000000E+00  0.00000000E+00
  0.00000000E+00  0.00000000E+00  0.00000000E+00  0.00000000E+00  0.00000000E+00
  0.00000000E+00  0.00000000E+00  0.00000000E+00  0.00000000E+00  0.00000000E+00
  0.00000000E+00  0.00000000E+00  0.00000000E+00  0.00000000E+00  0.00000000E+00
  0.00000000E+00  0.00000000E+00  0.00000000E+00  0.00000000E+00  0.00000000E+00
  0.00000000E+00  0.00000000E+00  0.00000000E+00  0.00000000E+00  0.00000000E+00
  0.00000000E+00  0.00000000E+00  0.00000000E+00  0.00000000E+00  0.00000000E+00
IOpCl                                      I                0
IROHF                                      I                0
Alpha Orbital Energies                     R   N=         207
 -2.07198043E+01 -2.06872595E+01 -2.06682858E+01 -1.58260246E+01 -1.64429434E+00
 -1.50515543E+00 -1.29377578E+00 -9.60353198E-01 -8.34711089E-01 -7.58925800E-01
 -7.39973680E-01 -6.37369010E-01 -6.18747750E-01 -6.18383954E-01 -5.04705506E-01
 -4.97514279E-01  3.50683581E-02  6.02519382E-02  9.51177213E-02  1.00380566E-01
  1.19717763E-01  1.22603065E-01  1.49323829E-01  1.52043986E-01  1.77528471E-01
  1.80340475E-01  1.89780088E-01  2.11010535E-01  2.16705715E-01  2.42536151E-01
  2.46352058E-01  2.69028038E-01  3.12698654E-01  3.16772970E-01  3.38059776E-01
  3.43846709E-01  3.46776735E-01  3.92601189E-01  4.48990204E-01  4.88676940E-01
  5.05088094E-01  5.18442486E-01  5.45007439E-01  5.61133444E-01  5.99103073E-01
  6.20222541E-01  6.38722075E-01  6.89584500E-01  7.17053761E-01  7.24220032E-01
  7.43210489E-01  7.63713751E-01  7.67253593E-01  7.95721553E-01  8.06489047E-01
  8.39768405E-01  8.43154379E-01  8.51671865E-01  8.85288774E-01  9.07815696E-01
  9.30739096E-01  9.47858362E-01  9.54118634E-01  1.01836374E+00  1.03221410E+00
  1.06311183E+00  1.06605615E+00  1.09525912E+00  1.14432617E+00  1.15629888E+00
  1.16951871E+00  1.22252053E+00  1.22730680E+00  1.24594084E+00  1.35356632E+00
  1.36092562E+00  1.37172166E+00  1.46849910E+00  1.48528068E+00  1.50481915E+00
  1.54213846E+00  1.59678059E+00  1.59733929E+00  1.60565615E+00  1.62890902E+00
  1.69574417E+00  1.74071849E+00  1.80102335E+00  1.82980483E+00  1.88827414E+00
  1.89607178E+00  1.92925709E+00  1.97922197E+00  1.98975245E+00  2.05198927E+00
  2.12400010E+00  2.13038028E+00  2.16565986E+00  2.18782577E+00  2.24362112E+00
  2.25956077E+00  2.29425470E+00  2.35222988E+00  2.36647036E+00  2.38648129E+00
  2.40229180E+00  2.43368835E+00  2.46939721E+00  2.47938897E+00  2.52946857E+00
  2.53830777E+00  2.54967026E+00  2.55868624E+00  2.61603001E+00  2.63000353E+00
  2.67291295E+00  2.67411454E+00  2.75487388E+00  2.80977145E+00  2.81742592E+00
  2.84032188E+00  2.91879869E+00  2.98552783E+00  3.04730897E+00  3.05105716E+00
  3.11553869E+00  3.11813133E+00  3.17389782E+00  3.21341198E+00  3.30864260E+00
  3.33222130E+00  3.36105498E+00  3.47788715E+00  3.67831980E+00  3.86951732E+00
  3.93075685E+00  4.18459589E+00  4.22362554E+00  4.22497202E+00  4.26827028E+00
  4.36975044E+00  4.50008768E+00  4.52868531E+00  4.55602981E+00  4.59891604E+00
  4.69400993E+00  4.81025128E+00  4.89859932E+00  4.91418875E+00  4.94117999E+00
  4.99905260E+00  5.00557430E+00  5.10718241E+00  5.13320489E+00  5.17972555E+00
  5.25056973E+00  5.25853516E+00  5.31827393E+00  5.34706765E+00  5.35640951E+00
  5.54722577E+00  5.64488656E+00  5.70598424E+00  5.88916107E+00  5.99756897E+00
  6.26483831E+00  6.29605316E+00  6.36122982E+00  6.37688655E+00  6.59820754E+00
  6.65940238E+00  6.65969470E+00  6.68987910E+00  6.72643000E+00  6.79745240E+00
  6.80450415E+00  6.85117306E+00  6.96801851E+00  7.02062936E+00  7.06630499E+00
  7.08001957E+00  7.13875572E+00  7.17509828E+00  7.17627861E+00  7.20356772E+00
  7.24596466E+00  7.24751291E+00  7.27129777E+00  7.34917024E+00  7.39422522E+00
  7.42846397E+00  7.44229564E+00  7.46333090E+00  7.55962362E+00  7.66354315E+00
  7.66785229E+00  7.79467002E+00  7.88364759E+00  7.95286574E+00  8.06567314E+00
  8.30690329E+00  8.50051985E+00  8.65227777E+00  1.36192111E+01  1.47619625E+01
  1.51062269E+01  1.57659817E+01
Alpha MO coefficients                      R   N=       42849
  6.43558084E-05 -2.11197796E-05 -1.11577629E-03  1.27642026E-05 -5.14910944E-05
  4.20868543E-05  0.00000000E+00 -9.00362167E-05 -2.88298809E-04  0.00000000E+00
 -1.01367906E-06 -3.50829788E-04  0.00000000E+00  4.22229967E-05  0.00000000E+00
  0.00000000E+00 -2.51078257E-05  1.22871184E-05  2.28738983E-04  0.00000000E+00
  0.00000000E+00 -4.01394666E-05 -2.10002354E-04  3.07081817E-03 -9.55058847E-05
 -9.94229559E-05  3.54464028E-03  2.48352156E-03  1.02655814E-04 -5.33077710E-05
  0.00000000E+00 -7.29438419E-04  2.85937898E-04  0.00000000E+00 -1.97745173E-03
  1.11191051E-03  0.00000000E+00 -5.38404368E-04  3.86537434E-05  0.00000000E+00
  2.04831029E-05  0.00000000E+00  0.00000000E+00 -8.90529820E-06  4.41632910E-05
 -4.43366353E-04  0.00000000E+00  0.00000000E+00  4.28362750E-04 -6.62340826E-04
 -3.63990327E-04  0.00000000E+00  0.00000000E+00  5.43995395E-04 -7.42995042E-04
  0.00000000E+00  7.40733841E-05 -5.24598891E-05  0.00000000E+00  0.00000000E+00
 -2.75707670E-05  1.08154874E-04  0.00000000E+00  2.07757732E-04 -5.06541554E-05
  0.00000000E+00  0.00000000E+00 -1.70193272E-04  3.00338575E-04  9.76903902E-01
 -9.17364902E-03  4.34069610E-02  4.96296715E-04 -2.21014138E-03  4.49381219E-04
 -2.14796090E-03  0.00000000E+00 -3.19921499E-04  2.25366418E-03  0.00000000E+00
 -2.31840996E-03 -4.84916296E-04  0.00000000E+00 -2.23629482E-04  9.74604758E-05
  0.00000000E+00  7.12996072E-06  0.00000000E+00  0.00000000E+00 -4.89615153E-06
  3.78508009E-05  8.27138260E-04  0.00000000E+00  0.00000000E+00 -4.74875189E-04
 -1.71236280E-04 -1.38831623E-04  0.00000000E+00  0.00000000E+00 -5.51224061E-04
  3.54895312E-04  0.00000000E+00 -6.41356979E-06 -7.93441281E-05  0.00000000E+00
  0.00000000E+00 -9.03390482E-06  4.81018543E-05  0.00000000E+00  9.23033738E-05
  7.64759838E-07  0.00000000E+00  0.00000000E+00 -3.36724320E-04  3.80376493E-04
  1.04455286E-04  4.58056376E-04 -3.23578724E-04 -8.30781288E-04  3.52798867E-04
 -4.42209291E-05 -1.00011710E-04  0.00000000E+00  6.97936435E-04  1.11124463E-03
  0.00000000E+00 -7.67662304E-04 -6.58927765E-04  0.00000000E+00  1.95070045E-04
  2.12201748E-04  0.00000000E+00 -5.24989494E-05  0.00000000E+00  0.00000000E+00
  1.91741378E-05  9.32505168E-05 -4.15842080E-04  0.00000000E+00  0.00000000E+00
  4.05246095E-05  1.08094982E-03  2.71562298E-05  0.00000000E+00  0.00000000E+00
 -3.17572842E-04  2.83023158E-05  0.00000000E+00 -7.86388001E-05 -1.13598935E-04
  0.00000000E+00  0.00000000E+00 -9.65018888E-05  1.06151154E-04  0.00000000E+00
 -1.24293822E-04  4.69030647E-05  0.00000000E+00  0.00000000E+00  1.52829649E-05
  5.20857437E-04 -7.06171591E-04  4.56403300E-05 -7.03228040E-05  2.13408734E-04
 -1.78853958E-04 -2.89686288E-05 -4.14708195E-05  0.00000000E+00  1.68992785E-04
  2.53632756E-04  0.00000000E+00  5.32080607E-04  3.25355693E-04  0.00000000E+00
 -2.18515917E-04 -6.26491568E-05  0.00000000E+00 -1.29669218E-05  0.00000000E+00
  0.00000000E+00  3.34223644E-06  1.52267989E-05 -2.14393567E-06  0.00000000E+00
  0.00000000E+00 -1.64213665E-04  1.02627389E-05 -2.20679938E-05  0.00000000E+00
  0.00000000E+00 -1.70488316E-04 -4.17293197E-05  0.00000000E+00 -5.89713430E-06
 -9.08612123E-06  0.00000000E+00  0.00000000E+00 -2.14980368E-05  9.46644948E-06
  0.00000000E+00  4.01123105E-05  6.09171755E-05  0.00000000E+00  0.00000000E+00
  1.57216343E-04 -1.03832109E-04  3.99172486E-05  6.37477402E-05 -1.13211690E-04
 -2.98988835E-05  1.89589674E-05  1.12682467E-05  0.00000000E+00  2.38872248E-04
  5.96130191E-05  0.00000000E+00  1.24959093E-04  2.36260211E-05  0.00000000E+00
  1.31836929E-05  0.00000000E+00  0.00000000E+00 -1.21024637E-05  1.66019291E-05
  2.14407548E-05  0.00000000E+00  0.00000000E+00 -9.56082145E-05  6.43177328E-05
 -2.59181839E-04  2.63455270E-05 -1.51742693E-05 -5.53472794E-04  1.57776489E-04
  7.39352502E-06  1.36292647E-05  0.00000000E+00 -5.83561425E-07 -4.19771246E-05
  0.00000000E+00  1.84061605E-04  1.31920134E-04  0.00000000E+00 -4.57388432E-05
  4.92868919E-05  0.00000000E+00 -1.47513751E-06  0.00000000E+00  0.00000000E+00
 -8.36337393E-06 -1.16937455E-05  2.14537363E-05  0.00000000E+00  0.00000000E+00
  5.00950321E-05  1.08944616E-04  6.20030896E-05  0.00000000E+00  0.00000000E+00
 -2.92619569E-05 -7.77353345E-05  0.00000000E+00  7.74937675E-06  1.02429837E-05
  0.00000000E+00  0.00000000E+00 -1.02059319E-06 -2.49661176E-05  0.00000000E+00
 -1.40065347E-05 -3.61222220E-05  0.00000000E+00  0.00000000E+00 -2.56927414E-06
 -1.95841549E-05  7.34144348E-04  2.26362343E-05 -1.90015113E-05  3.00140078E-04
 -3.92745687E-04  1.65171212E-05  2.72608842E-05  0.00000000E+00 -6.60074368E-05
 -1.53532605E-04  0.00000000E+00  1.53742849E-04 -2.05491160E-04  0.00000000E+00
 -1.56797955E-04  1.42292767E-04  0.00000000E+00 -4.04688009E-06  0.00000000E+00
  0.00000000E+00 -2.95370709E-05 -9.87630425E-06 -5.15600493E-05  0.00000000E+00
  0.00000000E+00  7.99631853E-05  1.22056099E-04 -6.50643116E-05  0.00000000E+00
  0.00000000E+00  4.12394465E-05  2.74500468E-05  0.00000000E+00  2.99528498E-06
  3.32232993E-06  0.00000000E+00  0.00000000E+00 -7.87302976E-06 -2.32797619E-06
  0.00000000E+00  3.81580035E-06 -2.50086122E-05  0.00000000E+00  0.00000000E+00
  9.60835924E-05 -1.54696497E-04  2.37112730E-04  1.35779200E-03 -1.47067815E-04
 -6.97133262E-04  9.05134727E-04  6.31982770E-05 -7.10331538E-05  0.00000000E+00
  5.71647214E-04 -2.08334574E-03  0.00000000E+00  1.09773504E-04  4.99965265E-04
  0.00000000E+00  1.85788420E-04 -3.07073853E-04  0.00000000E+00 -1.27808068E-04
  0.00000000E+00  0.00000000E+00 -2.04036991E-04 -1.58416732E-04 -4.60154989E-04
  0.00000000E+00  0.00000000E+00 -6.02511629E-04 -9.20795834E-04 -4.19529121E-05
  0.00000000E+00  0.00000000E+00  5.91024374E-05  1.17677003E-04  0.00000000E+00
  8.40736586E-06  3.68828445E-05  0.00000000E+00  0.00000000E+00 -2.44496788E-05
 -4.21309001E-06  0.00000000E+00 -1.35325152E-04  1.58092304E-04  0.00000000E+00
  0.00000000E+00 -3.15433388E-04 -3.41552818E-05  9.76645977E-01 -9.88626191E-03
  4.35754515E-02  3.69091399E-03 -8.94969692E-04 -4.47778088E-04  2.13173893E-03
  0.00000000E+00  5.12560444E-04 -2.50608623E-03  0.00000000E+00 -7.21317997E-05
  8.18015887E-04  0.00000000E+00  1.04808541E-04 -6.46399069E-05  0.00000000E+00
 -1.93892870E-04  0.00000000E+00  0.00000000E+00 -7.43826123E-05 -4.34986295E-05
  4.08931192E-04  0.00000000E+00  0.00000000E+00  8.59279165E-04  4.83630444E-04
 -2.05871520E-04  0.00000000E+00  0.00000000E+00 -1.41150461E-04 -3.66748880E-05
  0.00000000E+00 -4.80602142E-06  7.03547377E-05  0.00000000E+00  0.00000000E+00
 -2.89510870E-05  1.05717565E-05  0.00000000E+00 -8.90760240E-05  9.16228059E-05
  0.00000000E+00  0.00000000E+00 -1.66214870E-04  2.05318632E-04  3.74940352E-04
  1.99621691E-03  1.37848469E-03 -1.86417848E-05  5.09558325E-05  2.68526609E-04
  0.00000000E+00  3.80803152E-04  1.02780516E-03  0.00000000E+00 -1.26857917E-04
  2.38003660E-04  0.00000000E+00 -2.37164234E-05  0.00000000E+00  0.00000000E+00
  3.26423288E-05 -2.89728223E-05 -2.16867347E-04  0.00000000E+00  0.00000000E+00
 -3.47838177E-04  4.05870276E-04  9.76834420E-01 -9.18705092E-03  4.34654545E-02
  1.33976770E-04 -1.91193446E-03 -2.04418792E-03 -8.35123545E-04  0.00000000E+00
  2.08225946E-03  7.71451584E-04  0.00000000E+00 -4.02281055E-04  6.47733420E-04
  0.00000000E+00  2.25059632E-04 -2.99035217E-04  0.00000000E+00  3.07084114E-05
  0.00000000E+00  0.00000000E+00 -7.44867526E-05  6.32570630E-05  7.66073207E-04
  0.00000000E+00  0.00000000E+00 -2.08968530E-04  3.52760971E-04 -2.37957956E-04
  0.00000000E+00  0.00000000E+00  3.35187926E-04  1.96784739E-06  0.00000000E+00
 -8.06458568E-05  1.62264129E-06  0.00000000E+00  0.00000000E+00  1.59301115E-05