 Entering Gaussian System, Link 0=g16
 Input=hono_r1_m_005.gjf
 Output=hono_r1_m_005.log
 Initial command:
 /sw/contrib/gaussian/g16/B01/g16/l1.exe "/scr/Gau-5297.inp" -scrdir="/scr/"
 Entering Link 1 = /sw/contrib/gaussian/g16/B01/g16/l1.exe PID=      5298.
  
 Copyright (c) 1988-2017, Gaussian, Inc.  All Rights Reserved.
  
 This is part of the Gaussian(R) 16 program.  It is based on
 the Gaussian(R) 09 system (copyright 2009, Gaussian, Inc.),
 the Gaussian(R) 03 system (copyright 2003, Gaussian, Inc.),
 the Gaussian(R) 98 system (copyright 1998, Gaussian, Inc.),
 the Gaussian(R) 94 system (copyright 1995, Gaussian, Inc.),
 the Gaussian 92(TM) system (copyright 1992, Gaussian, Inc.),
 the Gaussian 90(TM) system (copyright 1990, Gaussian, Inc.),
 the Gaussian 88(TM) system (copyright 1988, Gaussian, Inc.),
 the Gaussian 86(TM) system (copyright 1986, Carnegie Mellon
 University), and the Gaussian 82(TM) system (copyright 1983,
 Carnegie Mellon University). Gaussian is a federally registered
 trademark of Gaussian, Inc.
  
 This software contains proprietary and confidential information,
 including trade secrets, belonging to Gaussian, Inc.
  
 This software is provided under written license and may be
 used, copied, transmitted, or stored only in accord with that
 written license.
  
 The following legend is applicable only to US Government
 contracts under FAR:
  
                    RESTRICTED RIGHTS LEGEND
  
 Use, reproduction and disclosure by the US Government is
 subject to restrictions as set forth in subparagraphs (a)
 and (c) of the Commercial Computer Software - Restricted
 Rights clause in FAR 52.227-19.
  
 Gaussian, Inc.
 340 Quinnipiac St., Bldg. 40, Wallingford CT 06492
  
  
 ---------------------------------------------------------------
 Warning -- This program may not be used in any manner that
 competes with the business of Gaussian, Inc. or will provide
 assistance to any competitor of Gaussian, Inc.  The licensee
 of this program is prohibited from giving any competitor of
 Gaussian, Inc. access to this program.  By using this program,
 the user acknowledges that Gaussian, Inc. is engaged in the
 business of creating and licensing software in the field of
 computational chemistry and represents and warrants to the
 licensee that it is not a competitor of Gaussian, Inc. and that
 it will not use this program in any manner prohibited above.
 ---------------------------------------------------------------
  

 Cite this work as:
 Gaussian 16, Revision B.01,
 M. J. Frisch, G. W. Trucks, H. B. Schlegel, G. E. Scuseria, 
 M. A. Robb, J. R. Cheeseman, G. Scalmani, V. Barone, 
 G. A. Petersson, H. Nakatsuji, X. Li, M. Caricato, A. V. Marenich, 
 J. Bloino, B. G. Janesko, R. Gomperts, B. Mennucci, H. P. Hratchian, 
 J. V. Ortiz, A. F. Izmaylov, J. L. Sonnenberg, D. Williams-Young, 
 F. Ding, F. Lipparini, F. Egidi, J. Goings, B. Peng, A. Petrone, 
 T. Henderson, D. Ranasinghe, V. G. Zakrzewski, J. Gao, N. Rega, 
 G. Zheng, W. Liang, M. Hada, M. Ehara, K. Toyota, R. Fukuda, 
 J. Hasegawa, M. Ishida, T. Nakajima, Y. Honda, O. Kitao, H. Nakai, 
 T. Vreven, K. Throssell, J. A. Montgomery, Jr., J. E. Peralta, 
 F. Ogliaro, M. J. Bearpark, J. J. Heyd, E. N. Brothers, K. N. Kudin, 
 V. N. Staroverov, T. A. Keith, R. Kobayashi, J. Normand, 
 K. Raghavachari, A. P. Rendell, J. C. Burant, S. S. Iyengar, 
 J. Tomasi, M. Cossi, J. M. Millam, M. Klene, C. Adamo, R. Cammi, 
 J. W. Ochterski, R. L. Martin, K. Morokuma, O. Farkas, 
 J. B. Foresman, and D. J. Fox, Gaussian, Inc., Wallingford CT, 2016.
 
 ******************************************
 Gaussian 16:  ES64L-G16RevB.01 20-Dec-2017
                24-Jan-2022 
 ******************************************
 %nproc=28
 Will use up to   28 processors via shared memory.
 %mem=120GB
 %chk=/gscratch/ilahie/mccoygrp/coire_hoono/hono/hono_r1_m_005.chk
 -------------------------------------
 #p SP mp2/aug-cc-pvtz density=current
 -------------------------------------
 1/30=1,38=1,172=1/1;
 2/12=2,17=6,18=5,40=1/2;
 3/5=16,6=1,7=10,11=9,25=1,30=1,71=1/1,2,3;
 4//1;
 5/5=2,38=5/2;
 8/6=4,10=1/1;
 9/15=1,16=-3/6;
 10/5=1,13=10/2;
 6/7=2,8=2,9=2,10=2,22=-1/1;
 99/5=1,9=1/99;
 Leave Link    1 at Mon Jan 24 13:32:04 2022, MaxMem= 16106127360 cpu:               1.7 elap:               0.1
 (Enter /sw/contrib/gaussian/g16/B01/g16/l101.exe)
 -----
 title
 -----
 Symbolic Z-matrix:
 Charge =  0 Multiplicity = 1
 H
 O                    1    r1
 N                    2    r2       1    a1
 O                    3    r3       2    a2       1    d1       0
       Variables:
  r1                    0.96526                  
  r2                    1.42776                  
  r3                    1.1768                   
  a1                  101.62779                  
  a2                  110.70859                  
  d1                  180.                       
 
 ITRead=  0  0  0  0
 MicOpt= -1 -1 -1 -1
 NAtoms=      4 NQM=        4 NQMF=       0 NMMI=      0 NMMIF=      0
                NMic=       0 NMicF=      0.
                    Isotopes and Nuclear Properties:
 (Nuclear quadrupole moments (NQMom) in fm**2, nuclear magnetic moments (NMagM)
  in nuclear magnetons)

  Atom         1           2           3           4
 IAtWgt=           1          16          14          16
 AtmWgt=   1.0078250  15.9949146  14.0030740  15.9949146
 NucSpn=           1           0           2           0
 AtZEff=  -0.0000000  -0.0000000  -0.0000000  -0.0000000
 NQMom=    0.0000000   0.0000000   2.0440000   0.0000000
 NMagM=    2.7928460   0.0000000   0.4037610   0.0000000
 AtZNuc=   1.0000000   8.0000000   7.0000000   8.0000000
 Leave Link  101 at Mon Jan 24 13:32:05 2022, MaxMem= 16106127360 cpu:               2.9 elap:               0.1
 (Enter /sw/contrib/gaussian/g16/B01/g16/l202.exe)
                          Input orientation:                          
 ---------------------------------------------------------------------
 Center     Atomic      Atomic             Coordinates (Angstroms)
 Number     Number       Type             X           Y           Z
 ---------------------------------------------------------------------
      1          1           0        0.000000    0.000000    0.000000
      2          8           0        0.000000    0.000000    0.965263
      3          7           0        1.398463    0.000000    1.253033
      4          8           0        1.584195    0.000000    2.415086
 ---------------------------------------------------------------------
                    Distance matrix (angstroms):
                    1          2          3          4
     1  H    0.000000
     2  O    0.965263   0.000000
     3  N    1.877709   1.427764   0.000000
     4  O    2.888306   2.147478   1.176802   0.000000
 Stoichiometry    HNO2
 Framework group  CS[SG(HNO2)]
 Deg. of freedom     5
 Full point group                 CS      NOp   2
 Largest Abelian subgroup         CS      NOp   2
 Largest concise Abelian subgroup C1      NOp   1
                         Standard orientation:                         
 ---------------------------------------------------------------------
 Center     Atomic      Atomic             Coordinates (Angstroms)
 Number     Number       Type             X           Y           Z
 ---------------------------------------------------------------------
      1          1           0        1.755437   -0.145792    0.000000
      2          8           0        0.898064   -0.589237    0.000000
      3          7           0       -0.000000    0.520715   -0.000000
      4          8           0       -1.117493    0.151836   -0.000000
 ---------------------------------------------------------------------
 Rotational constants (GHZ):          92.7093375          12.5702134          11.0693496
 Leave Link  202 at Mon Jan 24 13:32:05 2022, MaxMem= 16106127360 cpu:               0.8 elap:               0.1
 (Enter /sw/contrib/gaussian/g16/B01/g16/l301.exe)
 Standard basis: Aug-CC-pVTZ (5D, 7F)
 Ernie: Thresh=  0.10000D-02 Tol=  0.10000D-05 Strict=F.
 Ernie:  9 primitive shells out of 101 were deleted.
 There are   129 symmetry adapted cartesian basis functions of A'  symmetry.
 There are    61 symmetry adapted cartesian basis functions of A"  symmetry.
 There are   106 symmetry adapted basis functions of A'  symmetry.
 There are    55 symmetry adapted basis functions of A"  symmetry.
   161 basis functions,   243 primitive gaussians,   190 cartesian basis functions
    12 alpha electrons       12 beta electrons
       nuclear repulsion energy        69.5321864755 Hartrees.
 IExCor=    0 DFT=F Ex=HF Corr=None ExCW=0 ScaHFX=  1.000000
 ScaDFX=  1.000000  1.000000  1.000000  1.000000 ScalE2=  1.000000  1.000000
 IRadAn=      5 IRanWt=     -1 IRanGd=            0 ICorTp=0 IEmpDi=  4
 NAtoms=    4 NActive=    4 NUniq=    4 SFac= 1.00D+00 NAtFMM=   60 NAOKFM=F Big=F
 Integral buffers will be    131072 words long.
 Raffenetti 1 integral format.
 Two-electron integral symmetry is turned on.
 Leave Link  301 at Mon Jan 24 13:32:05 2022, MaxMem= 16106127360 cpu:               2.0 elap:               0.1
 (Enter /sw/contrib/gaussian/g16/B01/g16/l302.exe)
 NPDir=0 NMtPBC=     1 NCelOv=     1 NCel=       1 NClECP=     1 NCelD=      1
         NCelK=      1 NCelE2=     1 NClLst=     1 CellRange=     0.0.
 One-electron integrals computed using PRISM.
 One-electron integral symmetry used in STVInt
 NBasis=   161 RedAO= T EigKep=  1.97D-04  NBF=   106    55
 NBsUse=   161 1.00D-06 EigRej= -1.00D+00 NBFU=   106    55
 Leave Link  302 at Mon Jan 24 13:32:05 2022, MaxMem= 16106127360 cpu:               8.5 elap:               0.4
 (Enter /sw/contrib/gaussian/g16/B01/g16/l303.exe)
 DipDrv:  MaxL=1.
 Leave Link  303 at Mon Jan 24 13:32:06 2022, MaxMem= 16106127360 cpu:               2.1 elap:               0.1
 (Enter /sw/contrib/gaussian/g16/B01/g16/l401.exe)
 ExpMin= 2.53D-02 ExpMax= 1.53D+04 ExpMxC= 5.22D+02 IAcc=3 IRadAn=         5 AccDes= 0.00D+00
 Harris functional with IExCor=  205 and IRadAn=       5 diagonalized for initial guess.
 HarFok:  IExCor=  205 AccDes= 0.00D+00 IRadAn=         5 IDoV= 1 UseB2=F ITyADJ=14
 ICtDFT=  3500011 ScaDFX=  1.000000  1.000000  1.000000  1.000000
 FoFCou: FMM=F IPFlag=           0 FMFlag=      100000 FMFlg1=           0
         NFxFlg=           0 DoJE=T BraDBF=F KetDBF=T FulRan=T
         wScrn=  0.000000 ICntrl=       500 IOpCl=  0 I1Cent=   200000004 NGrid=           0
         NMat0=    1 NMatS0=      1 NMatT0=    0 NMatD0=    1 NMtDS0=    0 NMtDT0=    0
 Petite list used in FoFCou.
 Harris En= -204.818550549814    
 JPrj=0 DoOrth=F DoCkMO=F.
 Initial guess orbital symmetries:
       Occupied  (A') (A') (A') (A') (A') (A') (A') (A') (A") (A')
                 (A") (A')
       Virtual   (A") (A') (A') (A') (A') (A") (A') (A') (A') (A")
                 (A') (A") (A') (A') (A") (A') (A') (A') (A') (A')
                 (A") (A') (A") (A') (A') (A') (A") (A") (A') (A')
                 (A") (A') (A') (A") (A") (A') (A') (A') (A") (A')
                 (A') (A') (A") (A') (A") (A') (A') (A") (A') (A')
                 (A") (A') (A") (A') (A') (A") (A') (A") (A') (A")
                 (A') (A') (A") (A') (A') (A') (A") (A') (A") (A")
                 (A') (A') (A') (A") (A') (A") (A') (A') (A") (A")
                 (A') (A') (A') (A") (A') (A') (A") (A") (A') (A')
                 (A') (A') (A") (A') (A') (A") (A') (A") (A') (A")
                 (A") (A') (A') (A') (A') (A") (A') (A") (A') (A")
                 (A') (A') (A") (A') (A') (A") (A') (A") (A') (A')
                 (A') (A') (A") (A') (A") (A") (A') (A') (A") (A')
                 (A") (A") (A') (A") (A') (A") (A') (A") (A") (A')
                 (A') (A') (A') (A') (A') (A') (A') (A') (A')
 The electronic state of the initial guess is 1-A'.
 Leave Link  401 at Mon Jan 24 13:32:06 2022, MaxMem= 16106127360 cpu:               8.2 elap:               0.4
 (Enter /sw/contrib/gaussian/g16/B01/g16/l502.exe)
 Keep R1 ints in memory in symmetry-blocked form, NReq=128070121.
 FoFCou: FMM=F IPFlag=           0 FMFlag=           0 FMFlg1=           0
         NFxFlg=           0 DoJE=F BraDBF=F KetDBF=F FulRan=T
         wScrn=  0.000000 ICntrl=       600 IOpCl=  0 I1Cent=           0 NGrid=           0
         NMat0=    1 NMatS0=  13041 NMatT0=    0 NMatD0=    1 NMtDS0=    0 NMtDT0=    0
 Petite list used in FoFCou.
 Closed shell SCF:
 Using DIIS extrapolation, IDIIS=  1040.
 NGot= 16106127360 LenX= 16063019402 LenY= 16062982861
 Requested convergence on RMS density matrix=1.00D-08 within 128 cycles.
 Requested convergence on MAX density matrix=1.00D-06.
 Requested convergence on             energy=1.00D-06.
 No special actions if energy rises.

 Cycle   1  Pass 1  IDiag  1:
 E= -204.613550932129    
 DIIS: error= 3.02D-02 at cycle   1 NSaved=   1.
 NSaved= 1 IEnMin= 1 EnMin= -204.613550932129     IErMin= 1 ErrMin= 3.02D-02
 ErrMax= 3.02D-02  0.00D+00 EMaxC= 1.00D-01 BMatC= 3.56D-01 BMatP= 3.56D-01
 IDIUse=3 WtCom= 6.98D-01 WtEn= 3.02D-01
 Coeff-Com:  0.100D+01
 Coeff-En:   0.100D+01
 Coeff:      0.100D+01
 Gap=     0.509 Goal=   None    Shift=    0.000
 GapD=    0.509 DampG=2.000 DampE=0.500 DampFc=1.0000 IDamp=-1.
 RMSDP=2.05D-03 MaxDP=1.22D-01              OVMax= 1.02D-01

 Cycle   2  Pass 1  IDiag  1:
 E= -204.678431574084     Delta-E=       -0.064880641955 Rises=F Damp=F
 DIIS: error= 2.10D-02 at cycle   2 NSaved=   2.
 NSaved= 2 IEnMin= 2 EnMin= -204.678431574084     IErMin= 2 ErrMin= 2.10D-02
 ErrMax= 2.10D-02  0.00D+00 EMaxC= 1.00D-01 BMatC= 6.87D-02 BMatP= 3.56D-01
 IDIUse=3 WtCom= 7.90D-01 WtEn= 2.10D-01
 Coeff-Com:  0.235D+00 0.765D+00
 Coeff-En:   0.112D+00 0.888D+00
 Coeff:      0.209D+00 0.791D+00
 Gap=     0.511 Goal=   None    Shift=    0.000
 RMSDP=9.99D-04 MaxDP=3.63D-02 DE=-6.49D-02 OVMax= 8.83D-02

 Cycle   3  Pass 1  IDiag  1:
 E= -204.712881911523     Delta-E=       -0.034450337439 Rises=F Damp=F
 DIIS: error= 7.27D-03 at cycle   3 NSaved=   3.
 NSaved= 3 IEnMin= 3 EnMin= -204.712881911523     IErMin= 3 ErrMin= 7.27D-03
 ErrMax= 7.27D-03  0.00D+00 EMaxC= 1.00D-01 BMatC= 1.53D-02 BMatP= 6.87D-02
 IDIUse=3 WtCom= 9.27D-01 WtEn= 7.27D-02
 Coeff-Com: -0.362D-01 0.301D+00 0.735D+00
 Coeff-En:   0.000D+00 0.817D-01 0.918D+00
 Coeff:     -0.335D-01 0.285D+00 0.748D+00
 Gap=     0.494 Goal=   None    Shift=    0.000
 RMSDP=4.08D-04 MaxDP=2.24D-02 DE=-3.45D-02 OVMax= 2.65D-02

 Cycle   4  Pass 1  IDiag  1:
 E= -204.723040410240     Delta-E=       -0.010158498717 Rises=F Damp=F
 DIIS: error= 1.55D-03 at cycle   4 NSaved=   4.
 NSaved= 4 IEnMin= 4 EnMin= -204.723040410240     IErMin= 4 ErrMin= 1.55D-03
 ErrMax= 1.55D-03  0.00D+00 EMaxC= 1.00D-01 BMatC= 2.45D-04 BMatP= 1.53D-02
 IDIUse=3 WtCom= 9.85D-01 WtEn= 1.55D-02
 Coeff-Com: -0.756D-02 0.238D-01 0.122D+00 0.862D+00
 Coeff-En:   0.000D+00 0.000D+00 0.000D+00 0.100D+01
 Coeff:     -0.745D-02 0.234D-01 0.120D+00 0.864D+00
 Gap=     0.489 Goal=   None    Shift=    0.000
 RMSDP=8.31D-05 MaxDP=1.84D-03 DE=-1.02D-02 OVMax= 8.17D-03

 Cycle   5  Pass 1  IDiag  1:
 E= -204.723407545489     Delta-E=       -0.000367135249 Rises=F Damp=F
 DIIS: error= 1.04D-03 at cycle   5 NSaved=   5.
 NSaved= 5 IEnMin= 5 EnMin= -204.723407545489     IErMin= 5 ErrMin= 1.04D-03
 ErrMax= 1.04D-03  0.00D+00 EMaxC= 1.00D-01 BMatC= 6.24D-05 BMatP= 2.45D-04
 IDIUse=3 WtCom= 9.90D-01 WtEn= 1.04D-02
 Coeff-Com:  0.702D-02-0.719D-01-0.155D+00 0.217D+00 0.100D+01
 Coeff-En:   0.000D+00 0.000D+00 0.000D+00 0.000D+00 0.100D+01
 Coeff:      0.694D-02-0.711D-01-0.153D+00 0.215D+00 0.100D+01
 Gap=     0.489 Goal=   None    Shift=    0.000
 RMSDP=6.77D-05 MaxDP=1.63D-03 DE=-3.67D-04 OVMax= 8.90D-03

 Cycle   6  Pass 1  IDiag  1:
 E= -204.723580657923     Delta-E=       -0.000173112434 Rises=F Damp=F
 DIIS: error= 2.31D-04 at cycle   6 NSaved=   6.
 NSaved= 6 IEnMin= 6 EnMin= -204.723580657923     IErMin= 6 ErrMin= 2.31D-04
 ErrMax= 2.31D-04  0.00D+00 EMaxC= 1.00D-01 BMatC= 1.12D-05 BMatP= 6.24D-05
 IDIUse=3 WtCom= 9.98D-01 WtEn= 2.31D-03
 Coeff-Com:  0.576D-03 0.900D-03-0.267D-02-0.205D+00-0.532D-02 0.121D+01
 Coeff-En:   0.000D+00 0.000D+00 0.000D+00 0.000D+00 0.000D+00 0.100D+01
 Coeff:      0.574D-03 0.898D-03-0.266D-02-0.204D+00-0.531D-02 0.121D+01
 Gap=     0.490 Goal=   None    Shift=    0.000
 RMSDP=3.81D-05 MaxDP=7.13D-04 DE=-1.73D-04 OVMax= 4.05D-03

 Cycle   7  Pass 1  IDiag  1:
 E= -204.723619363430     Delta-E=       -0.000038705507 Rises=F Damp=F
 DIIS: error= 1.16D-04 at cycle   7 NSaved=   7.
 NSaved= 7 IEnMin= 7 EnMin= -204.723619363430     IErMin= 7 ErrMin= 1.16D-04
 ErrMax= 1.16D-04  0.00D+00 EMaxC= 1.00D-01 BMatC= 1.76D-06 BMatP= 1.12D-05
 IDIUse=3 WtCom= 9.99D-01 WtEn= 1.16D-03
 Coeff-Com: -0.123D-02 0.125D-01 0.315D-01-0.489D-01-0.136D+00-0.785D-01
 Coeff-Com:  0.122D+01
 Coeff-En:   0.000D+00 0.000D+00 0.000D+00 0.000D+00 0.000D+00 0.000D+00
 Coeff-En:   0.100D+01
 Coeff:     -0.122D-02 0.124D-01 0.315D-01-0.488D-01-0.136D+00-0.784D-01
 Coeff:      0.122D+01
 Gap=     0.490 Goal=   None    Shift=    0.000
 RMSDP=1.50D-05 MaxDP=3.26D-04 DE=-3.87D-05 OVMax= 1.77D-03

 Cycle   8  Pass 1  IDiag  1:
 E= -204.723624853843     Delta-E=       -0.000005490414 Rises=F Damp=F
 DIIS: error= 4.40D-05 at cycle   8 NSaved=   8.
 NSaved= 8 IEnMin= 8 EnMin= -204.723624853843     IErMin= 8 ErrMin= 4.40D-05
 ErrMax= 4.40D-05  0.00D+00 EMaxC= 1.00D-01 BMatC= 1.85D-07 BMatP= 1.76D-06
 IDIUse=1 WtCom= 1.00D+00 WtEn= 0.00D+00
 Coeff-Com: -0.370D-04-0.777D-03-0.630D-03 0.199D-01 0.249D-01-0.150D+00
 Coeff-Com: -0.133D+00 0.124D+01
 Coeff:     -0.370D-04-0.777D-03-0.630D-03 0.199D-01 0.249D-01-0.150D+00
 Coeff:     -0.133D+00 0.124D+01
 Gap=     0.490 Goal=   None    Shift=    0.000
 RMSDP=4.89D-06 MaxDP=9.84D-05 DE=-5.49D-06 OVMax= 4.75D-04

 Cycle   9  Pass 1  IDiag  1:
 E= -204.723625390053     Delta-E=       -0.000000536210 Rises=F Damp=F
 DIIS: error= 1.15D-05 at cycle   9 NSaved=   9.
 NSaved= 9 IEnMin= 9 EnMin= -204.723625390053     IErMin= 9 ErrMin= 1.15D-05
 ErrMax= 1.15D-05  0.00D+00 EMaxC= 1.00D-01 BMatC= 1.54D-08 BMatP= 1.85D-07
 IDIUse=1 WtCom= 1.00D+00 WtEn= 0.00D+00
 Coeff-Com:  0.107D-03-0.991D-03-0.242D-02-0.133D-02 0.119D-01 0.385D-01
 Coeff-Com: -0.861D-01-0.281D+00 0.132D+01
 Coeff:      0.107D-03-0.991D-03-0.242D-02-0.133D-02 0.119D-01 0.385D-01
 Coeff:     -0.861D-01-0.281D+00 0.132D+01
 Gap=     0.490 Goal=   None    Shift=    0.000
 RMSDP=1.28D-06 MaxDP=3.46D-05 DE=-5.36D-07 OVMax= 9.73D-05

 Cycle  10  Pass 1  IDiag  1:
 E= -204.723625431736     Delta-E=       -0.000000041683 Rises=F Damp=F
 DIIS: error= 2.75D-06 at cycle  10 NSaved=  10.
 NSaved=10 IEnMin=10 EnMin= -204.723625431736     IErMin=10 ErrMin= 2.75D-06
 ErrMax= 2.75D-06  0.00D+00 EMaxC= 1.00D-01 BMatC= 1.29D-09 BMatP= 1.54D-08
 IDIUse=1 WtCom= 1.00D+00 WtEn= 0.00D+00
 Coeff-Com: -0.263D-04 0.318D-03 0.800D-03-0.203D-02-0.448D-02 0.193D-02
 Coeff-Com:  0.380D-01-0.517D-01-0.282D+00 0.130D+01
 Coeff:     -0.263D-04 0.318D-03 0.800D-03-0.203D-02-0.448D-02 0.193D-02
 Coeff:      0.380D-01-0.517D-01-0.282D+00 0.130D+01
 Gap=     0.490 Goal=   None    Shift=    0.000
 RMSDP=3.37D-07 MaxDP=1.15D-05 DE=-4.17D-08 OVMax= 3.06D-05

 Cycle  11  Pass 1  IDiag  1:
 E= -204.723625435211     Delta-E=       -0.000000003476 Rises=F Damp=F
 DIIS: error= 1.13D-06 at cycle  11 NSaved=  11.
 NSaved=11 IEnMin=11 EnMin= -204.723625435211     IErMin=11 ErrMin= 1.13D-06
 ErrMax= 1.13D-06  0.00D+00 EMaxC= 1.00D-01 BMatC= 1.20D-10 BMatP= 1.29D-09
 IDIUse=1 WtCom= 1.00D+00 WtEn= 0.00D+00
 Coeff-Com: -0.477D-06-0.183D-04-0.455D-04 0.538D-03 0.108D-02-0.461D-02
 Coeff-Com: -0.553D-02 0.450D-01-0.192D-01-0.481D+00 0.146D+01
 Coeff:     -0.477D-06-0.183D-04-0.455D-04 0.538D-03 0.108D-02-0.461D-02
 Coeff:     -0.553D-02 0.450D-01-0.192D-01-0.481D+00 0.146D+01
 Gap=     0.490 Goal=   None    Shift=    0.000
 RMSDP=1.12D-07 MaxDP=4.22D-06 DE=-3.48D-09 OVMax= 1.10D-05

 Cycle  12  Pass 1  IDiag  1:
 E= -204.723625435588     Delta-E=       -0.000000000376 Rises=F Damp=F
 DIIS: error= 1.86D-07 at cycle  12 NSaved=  12.
 NSaved=12 IEnMin=12 EnMin= -204.723625435588     IErMin=12 ErrMin= 1.86D-07
 ErrMax= 1.86D-07  0.00D+00 EMaxC= 1.00D-01 BMatC= 6.80D-12 BMatP= 1.20D-10
 IDIUse=1 WtCom= 1.00D+00 WtEn= 0.00D+00
 Coeff-Com:  0.237D-05-0.228D-04-0.550D-04-0.580D-04 0.140D-03 0.160D-02
 Coeff-Com: -0.202D-02-0.122D-01 0.383D-01 0.395D-01-0.473D+00 0.141D+01
 Coeff:      0.237D-05-0.228D-04-0.550D-04-0.580D-04 0.140D-03 0.160D-02
 Coeff:     -0.202D-02-0.122D-01 0.383D-01 0.395D-01-0.473D+00 0.141D+01
 Gap=     0.490 Goal=   None    Shift=    0.000
 RMSDP=3.14D-08 MaxDP=7.21D-07 DE=-3.76D-10 OVMax= 2.59D-06

 Cycle  13  Pass 1  IDiag  1:
 E= -204.723625435610     Delta-E=       -0.000000000022 Rises=F Damp=F
 DIIS: error= 4.43D-08 at cycle  13 NSaved=  13.
 NSaved=13 IEnMin=13 EnMin= -204.723625435610     IErMin=13 ErrMin= 4.43D-08
 ErrMax= 4.43D-08  0.00D+00 EMaxC= 1.00D-01 BMatC= 2.08D-13 BMatP= 6.80D-12
 IDIUse=1 WtCom= 1.00D+00 WtEn= 0.00D+00
 Coeff-Com: -0.440D-06 0.564D-05 0.137D-04-0.214D-04-0.870D-04-0.590D-04
 Coeff-Com:  0.749D-03-0.254D-03-0.523D-02 0.123D-01 0.258D-01-0.297D+00
 Coeff-Com:  0.126D+01
 Coeff:     -0.440D-06 0.564D-05 0.137D-04-0.214D-04-0.870D-04-0.590D-04
 Coeff:      0.749D-03-0.254D-03-0.523D-02 0.123D-01 0.258D-01-0.297D+00
 Coeff:      0.126D+01
 Gap=     0.490 Goal=   None    Shift=    0.000
 RMSDP=5.44D-09 MaxDP=9.22D-08 DE=-2.19D-11 OVMax= 4.18D-07

 SCF Done:  E(RHF) =  -204.723625436     A.U. after   13 cycles
            NFock= 13  Conv=0.54D-08     -V/T= 2.0023
 KE= 2.042495747497D+02 PE=-6.230103824082D+02 EE= 1.445049957474D+02
 Leave Link  502 at Mon Jan 24 13:32:08 2022, MaxMem= 16106127360 cpu:              34.8 elap:               1.7
 (Enter /sw/contrib/gaussian/g16/B01/g16/l801.exe)
 ExpMin= 2.53D-02 ExpMax= 1.53D+04 ExpMxC= 5.22D+02 IAcc=3 IRadAn=         5 AccDes= 0.00D+00
 HarFok:  IExCor=  205 AccDes= 0.00D+00 IRadAn=         5 IDoV=-2 UseB2=F ITyADJ=14
 ICtDFT= 12500011 ScaDFX=  1.000000  1.000000  1.000000  1.000000
 Largest valence mixing into a core orbital is  2.06D-04
 Largest core mixing into a valence orbital is  3.29D-05
 Range of M.O.s used for correlation:     4   161
 NBasis=   161 NAE=    12 NBE=    12 NFC=     3 NFV=     0
 NROrb=    158 NOA=     9 NOB=     9 NVA=   149 NVB=   149

 **** Warning!!: The largest alpha MO coefficient is  0.19513448D+02

 Leave Link  801 at Mon Jan 24 13:32:08 2022, MaxMem= 16106127360 cpu:               2.3 elap:               0.2
 (Enter /sw/contrib/gaussian/g16/B01/g16/l906.exe)
 Frozen-core derivative calculation, NFC=   3 NFV=   0.
 FulOut=F Deriv=T AODrv=F NAtomX=     4
   MMem=         161  MDisk=           9 MDiskD=           9
  W3Min=      367080 MinDsk=      792425 NBas6D=         190
 NBas2D=       18625    NTT=       18145    LW2=     3500000
    MDV= 16105788715 MDiskM=      423783 NBas2p=       18621
 Fully in-core method, ICMem=   359292905.
 IMap=   1   2   3   4   5   6   7   8   9  10  11  12
 JobTyp=1 Pass  1 fully in-core, NPsUse= 28.
 Compute canonical integrals.
 FoFCou: FMM=F IPFlag=           0 FMFlag=           0 FMFlg1=           0
         NFxFlg=           0 DoJE=F BraDBF=F KetDBF=F FulRan=T
         wScrn=  0.000000 ICntrl=       600 IOpCl=  1 I1Cent=           0 NGrid=           0
         NMat0=    1 NMatS0=  18625 NMatT0=    0 NMatD0=    1 NMtDS0=    0 NMtDT0=    0
 Symmetry not used in FoFCou.
 Spin components of T(2) and E(2):
     alpha-alpha T2 =       0.2529111372D-01 E2=     -0.9062371329D-01
     alpha-beta  T2 =       0.1373315835D+00 E2=     -0.5164588655D+00
     beta-beta   T2 =       0.2529111372D-01 E2=     -0.9062371329D-01
 The integrals were generated   1 times.
 ANorm=    0.1089914589D+01
 E2 =    -0.6977062921D+00 EUMP2 =    -0.20542133172771D+03
 Leave Link  906 at Mon Jan 24 13:32:11 2022, MaxMem= 16106127360 cpu:              86.1 elap:               3.1
 (Enter /sw/contrib/gaussian/g16/B01/g16/l1002.exe)
 Minotr:  Closed shell wavefunction.
          Computing MP2/KS-MP2 derivatives.
          Using Z-Vector for PSCF gradient.
          Skipping F1 and S1 gradient terms here.
          Frozen-core window.
          Direct CPHF calculation.
          Differentiating once with respect to electric field.
                with respect to dipole field.
          Electric field/nuclear overlap derivatives assumed to be zero.
          Using symmetry in CPHF.
          Requested convergence is 1.0D-10 RMS, and 1.0D-09 maximum.
          NewPWx=F KeepS1=T KeepF1=T KeepIn=T MapXYZ=F SortEE=F KeepMc=T.
 Keep R1 ints in memory in symmetry-blocked form, NReq=128071053.
 FoFCou: FMM=F IPFlag=           0 FMFlag=           0 FMFlg1=           0
         NFxFlg=           0 DoJE=F BraDBF=F KetDBF=F FulRan=T
         wScrn=  0.000000 ICntrl=       600 IOpCl=  0 I1Cent=           0 NGrid=           0
         NMat0=    1 NMatS0=  13041 NMatT0=    0 NMatD0=    1 NMtDS0=    0 NMtDT0=    0
 Petite list used in FoFCou.
          MDV=   16106127360 using IRadAn=       5.
          Solving linear equations separately, MaxMat=       0.
          There are     1 degrees of freedom in the 1st order CPHF.  IDoFFX=0 NUNeed=     1.
 LinEq1:  Iter=  0 NonCon=     1 RMS=6.62D-03 Max=1.32D-01 NDo=     1
 AX will form     1 AO Fock derivatives at one time.
 LinEq1:  Iter=  1 NonCon=     1 RMS=2.26D-03 Max=4.07D-02 NDo=     1
 LinEq1:  Iter=  2 NonCon=     1 RMS=9.16D-04 Max=1.19D-02 NDo=     1
 LinEq1:  Iter=  3 NonCon=     1 RMS=4.40D-04 Max=8.66D-03 NDo=     1
 LinEq1:  Iter=  4 NonCon=     1 RMS=1.37D-04 Max=1.53D-03 NDo=     1
 LinEq1:  Iter=  5 NonCon=     1 RMS=6.12D-05 Max=9.91D-04 NDo=     1
 LinEq1:  Iter=  6 NonCon=     1 RMS=2.32D-05 Max=2.69D-04 NDo=     1
 LinEq1:  Iter=  7 NonCon=     1 RMS=5.89D-06 Max=6.08D-05 NDo=     1
 LinEq1:  Iter=  8 NonCon=     1 RMS=1.43D-06 Max=1.66D-05 NDo=     1
 LinEq1:  Iter=  9 NonCon=     1 RMS=2.64D-07 Max=1.97D-06 NDo=     1
 LinEq1:  Iter= 10 NonCon=     1 RMS=4.88D-08 Max=3.95D-07 NDo=     1
 LinEq1:  Iter= 11 NonCon=     1 RMS=7.95D-09 Max=8.19D-08 NDo=     1
 LinEq1:  Iter= 12 NonCon=     1 RMS=1.07D-09 Max=7.04D-09 NDo=     1
 LinEq1:  Iter= 13 NonCon=     1 RMS=2.23D-10 Max=2.29D-09 NDo=     1
 LinEq1:  Iter= 14 NonCon=     0 RMS=4.27D-11 Max=3.69D-10 NDo=     1
 Linear equations converged to 1.000D-10 1.000D-09 after    14 iterations.
 End of Minotr F.D. properties file   721 does not exist.
 End of Minotr F.D. properties file   722 does not exist.
 End of Minotr F.D. properties file   788 does not exist.
 Leave Link 1002 at Mon Jan 24 13:32:13 2022, MaxMem= 16106127360 cpu:              36.2 elap:               1.9
 (Enter /sw/contrib/gaussian/g16/B01/g16/l601.exe)
 Copying SCF densities to generalized density rwf, IOpCl= 0 IROHF=0.

 **********************************************************************

            Population analysis using the MP2 Density.

 **********************************************************************

 Orbital symmetries:
       Occupied  (A') (A') (A') (A') (A') (A') (A') (A') (A") (A')
                 (A") (A')
       Virtual   (A') (A") (A') (A') (A") (A') (A') (A') (A") (A')
                 (A") (A') (A') (A") (A') (A') (A') (A') (A') (A")
                 (A') (A') (A") (A') (A') (A') (A") (A") (A') (A')
                 (A') (A") (A") (A') (A") (A') (A') (A") (A') (A')
                 (A') (A') (A') (A") (A") (A') (A') (A") (A') (A')
                 (A") (A') (A") (A') (A') (A") (A') (A") (A') (A")
                 (A') (A') (A") (A') (A') (A") (A') (A') (A") (A")
                 (A') (A') (A') (A") (A') (A") (A') (A') (A") (A')
                 (A") (A') (A') (A") (A') (A") (A') (A") (A') (A')
                 (A') (A') (A') (A") (A') (A") (A') (A") (A') (A")
                 (A') (A") (A') (A') (A') (A") (A') (A") (A") (A')
                 (A') (A") (A') (A') (A") (A') (A') (A") (A') (A')
                 (A') (A') (A") (A') (A") (A") (A') (A') (A") (A')
                 (A") (A") (A') (A") (A') (A") (A') (A") (A") (A')
                 (A') (A') (A') (A') (A') (A') (A') (A') (A')
 The electronic state is 1-A'.
 Alpha  occ. eigenvalues --  -20.66542 -20.64198 -15.79888  -1.60297  -1.40376
 Alpha  occ. eigenvalues --   -0.94905  -0.78496  -0.72995  -0.68168  -0.62612
 Alpha  occ. eigenvalues --   -0.52876  -0.46189
 Alpha virt. eigenvalues --    0.02808   0.08036   0.09394   0.09753   0.12886
 Alpha virt. eigenvalues --    0.14396   0.15686   0.17214   0.18715   0.19656
 Alpha virt. eigenvalues --    0.20556   0.23350   0.25823   0.29653   0.30775
 Alpha virt. eigenvalues --    0.32977   0.36558   0.38269   0.42521   0.52523
 Alpha virt. eigenvalues --    0.52630   0.54806   0.57330   0.61287   0.63124
 Alpha virt. eigenvalues --    0.64852   0.68018   0.71436   0.71806   0.74808
 Alpha virt. eigenvalues --    0.77492   0.78151   0.81145   0.81175   0.86119
 Alpha virt. eigenvalues --    0.87898   0.92646   0.93921   0.94536   0.99569
 Alpha virt. eigenvalues --    1.04993   1.06389   1.08170   1.10630   1.16124
 Alpha virt. eigenvalues --    1.19620   1.25215   1.26870   1.36228   1.43423
 Alpha virt. eigenvalues --    1.49039   1.52285   1.52430   1.54451   1.55503
 Alpha virt. eigenvalues --    1.60990   1.65814   1.72907   1.75428   1.82247
 Alpha virt. eigenvalues --    1.85607   1.96299   1.97651   1.99840   2.07519
 Alpha virt. eigenvalues --    2.13296   2.13321   2.18939   2.27126   2.30932
 Alpha virt. eigenvalues --    2.32926   2.38134   2.45168   2.46950   2.49822
 Alpha virt. eigenvalues --    2.50255   2.52168   2.54514   2.56999   2.60661
 Alpha virt. eigenvalues --    2.60826   2.66277   2.77081   2.77842   2.83697
 Alpha virt. eigenvalues --    2.93846   2.95152   3.11571   3.14738   3.18238
 Alpha virt. eigenvalues --    3.24766   3.46227   3.83772   3.85488   4.03035
 Alpha virt. eigenvalues --    4.17463   4.18377   4.21478   4.36807   4.37433
 Alpha virt. eigenvalues --    4.58278   4.63393   4.75324   4.81863   4.87368
 Alpha virt. eigenvalues --    4.88770   4.98388   5.00241   5.07480   5.09241
 Alpha virt. eigenvalues --    5.17419   5.25026   5.25868   5.33749   5.37796
 Alpha virt. eigenvalues --    5.37959   5.58154   5.66769   5.79620   5.98910
 Alpha virt. eigenvalues --    6.11838   6.43538   6.50710   6.51030   6.67440
 Alpha virt. eigenvalues --    6.71633   6.74562   6.84846   6.91658   7.07304
 Alpha virt. eigenvalues --    7.11921   7.18920   7.23491   7.25826   7.26253
 Alpha virt. eigenvalues --    7.33164   7.38225   7.43308   7.47870   7.60909
 Alpha virt. eigenvalues --    7.65002   7.70233   7.79269   7.98512   8.07244
 Alpha virt. eigenvalues --    8.43266  14.22034  15.18484  15.97806
          Condensed to atoms (all electrons):
               1          2          3          4
     1  H    0.591423   0.172054  -0.044608   0.012851
     2  O    0.172054   8.289151  -0.136879  -0.057441
     3  N   -0.044608  -0.136879   7.043730  -0.042073
     4  O    0.012851  -0.057441  -0.042073   8.267889
 Mulliken charges:
               1
     1  H    0.268280
     2  O   -0.266884
     3  N    0.179831
     4  O   -0.181227
 Sum of Mulliken charges =  -0.00000
 Mulliken charges with hydrogens summed into heavy atoms:
               1
     2  O    0.001396
     3  N    0.179831
     4  O   -0.181227
 Electronic spatial extent (au):  <R**2>=            123.4450
 Charge=              0.0000 electrons
 Dipole moment (field-independent basis, Debye):
    X=              1.7492    Y=              0.6552    Z=              0.0000  Tot=              1.8679
 Quadrupole moment (field-independent basis, Debye-Ang):
   XX=            -13.6689   YY=            -18.6936   ZZ=            -16.4514
   XY=              0.5772   XZ=             -0.0000   YZ=              0.0000
 Traceless Quadrupole moment (field-independent basis, Debye-Ang):
   XX=              2.6024   YY=             -2.4223   ZZ=             -0.1801
   XY=              0.5772   XZ=             -0.0000   YZ=              0.0000
 Octapole moment (field-independent basis, Debye-Ang**2):
  XXX=             10.1103  YYY=             -1.0259  ZZZ=             -0.0000  XYY=             -0.9646
  XXY=             -0.3557  XXZ=              0.0000  XZZ=             -0.9973  YZZ=              0.2071
  YYZ=             -0.0000  XYZ=             -0.0000
 Hexadecapole moment (field-independent basis, Debye-Ang**3):
 XXXX=            -71.6498 YYYY=            -39.4593 ZZZZ=            -13.9154 XXXY=             12.0315
 XXXZ=             -0.0000 YYYX=             11.8307 YYYZ=              0.0000 ZZZX=             -0.0000
 ZZZY=              0.0000 XXYY=            -22.1759 XXZZ=            -17.4463 YYZZ=             -8.7286
 XXYZ=              0.0000 YYXZ=             -0.0000 ZZXY=              4.1834
 N-N= 6.953218647551D+01 E-N=-6.236096881346D+02  KE= 2.052473962028D+02
 Symmetry A'   KE= 1.964215324254D+02
 Symmetry A"   KE= 8.825863777407D+00
 No NMR shielding tensors so no spin-rotation constants.
 Leave Link  601 at Mon Jan 24 13:32:14 2022, MaxMem= 16106127360 cpu:               6.0 elap:               0.3
 (Enter /sw/contrib/gaussian/g16/B01/g16/l9999.exe)
 1\1\GINC-N2097\SP\RMP2-FC\Aug-CC-pVTZ\H1N1O2\CGAVINH\24-Jan-2022\0\\#p
  SP mp2/aug-cc-pvtz density=current\\title\\0,1\H\O,1,0.96526274\N,2,1
 .42776435,1,101.62778538\O,3,1.17680217,2,110.70859147,1,180.,0\\Versi
 on=ES64L-G16RevB.01\State=1-A'\HF=-204.7236254\MP2=-205.4213317\RMSD=5
 .444e-09\Dipole=-0.0872036,0.,-0.7296842\Quadrupole=-1.3627112,-0.1339
 282,1.4966393,0.,1.276394,0.\PG=CS [SG(H1N1O2)]\\@


 Boundary, n.  In political geography, an imaginary
 line between two nations, separating the imaginary
 rights of one from the imaginary rights of another.
                               -- Ambrose Bierce
 Job cpu time:       0 days  0 hours  3 minutes 13.1 seconds.
 Elapsed time:       0 days  0 hours  0 minutes  8.6 seconds.
 File lengths (MBytes):  RWF=     16 Int=      0 D2E=      0 Chk=      8 Scr=      1
 Normal termination of Gaussian 16 at Mon Jan 24 13:32:14 2022.
