 Entering Gaussian System, Link 0=g16
 Input=hono_r2_p_005.gjf
 Output=hono_r2_p_005.log
 Initial command:
 /sw/contrib/gaussian/g16/B01/g16/l1.exe "/scr/Gau-8464.inp" -scrdir="/scr/"
 Entering Link 1 = /sw/contrib/gaussian/g16/B01/g16/l1.exe PID=      8465.
  
 Copyright (c) 1988-2017, Gaussian, Inc.  All Rights Reserved.
  
 This is part of the Gaussian(R) 16 program.  It is based on
 the Gaussian(R) 09 system (copyright 2009, Gaussian, Inc.),
 the Gaussian(R) 03 system (copyright 2003, Gaussian, Inc.),
 the Gaussian(R) 98 system (copyright 1998, Gaussian, Inc.),
 the Gaussian(R) 94 system (copyright 1995, Gaussian, Inc.),
 the Gaussian 92(TM) system (copyright 1992, Gaussian, Inc.),
 the Gaussian 90(TM) system (copyright 1990, Gaussian, Inc.),
 the Gaussian 88(TM) system (copyright 1988, Gaussian, Inc.),
 the Gaussian 86(TM) system (copyright 1986, Carnegie Mellon
 University), and the Gaussian 82(TM) system (copyright 1983,
 Carnegie Mellon University). Gaussian is a federally registered
 trademark of Gaussian, Inc.
  
 This software contains proprietary and confidential information,
 including trade secrets, belonging to Gaussian, Inc.
  
 This software is provided under written license and may be
 used, copied, transmitted, or stored only in accord with that
 written license.
  
 The following legend is applicable only to US Government
 contracts under FAR:
  
                    RESTRICTED RIGHTS LEGEND
  
 Use, reproduction and disclosure by the US Government is
 subject to restrictions as set forth in subparagraphs (a)
 and (c) of the Commercial Computer Software - Restricted
 Rights clause in FAR 52.227-19.
  
 Gaussian, Inc.
 340 Quinnipiac St., Bldg. 40, Wallingford CT 06492
  
  
 ---------------------------------------------------------------
 Warning -- This program may not be used in any manner that
 competes with the business of Gaussian, Inc. or will provide
 assistance to any competitor of Gaussian, Inc.  The licensee
 of this program is prohibited from giving any competitor of
 Gaussian, Inc. access to this program.  By using this program,
 the user acknowledges that Gaussian, Inc. is engaged in the
 business of creating and licensing software in the field of
 computational chemistry and represents and warrants to the
 licensee that it is not a competitor of Gaussian, Inc. and that
 it will not use this program in any manner prohibited above.
 ---------------------------------------------------------------
  

 Cite this work as:
 Gaussian 16, Revision B.01,
 M. J. Frisch, G. W. Trucks, H. B. Schlegel, G. E. Scuseria, 
 M. A. Robb, J. R. Cheeseman, G. Scalmani, V. Barone, 
 G. A. Petersson, H. Nakatsuji, X. Li, M. Caricato, A. V. Marenich, 
 J. Bloino, B. G. Janesko, R. Gomperts, B. Mennucci, H. P. Hratchian, 
 J. V. Ortiz, A. F. Izmaylov, J. L. Sonnenberg, D. Williams-Young, 
 F. Ding, F. Lipparini, F. Egidi, J. Goings, B. Peng, A. Petrone, 
 T. Henderson, D. Ranasinghe, V. G. Zakrzewski, J. Gao, N. Rega, 
 G. Zheng, W. Liang, M. Hada, M. Ehara, K. Toyota, R. Fukuda, 
 J. Hasegawa, M. Ishida, T. Nakajima, Y. Honda, O. Kitao, H. Nakai, 
 T. Vreven, K. Throssell, J. A. Montgomery, Jr., J. E. Peralta, 
 F. Ogliaro, M. J. Bearpark, J. J. Heyd, E. N. Brothers, K. N. Kudin, 
 V. N. Staroverov, T. A. Keith, R. Kobayashi, J. Normand, 
 K. Raghavachari, A. P. Rendell, J. C. Burant, S. S. Iyengar, 
 J. Tomasi, M. Cossi, J. M. Millam, M. Klene, C. Adamo, R. Cammi, 
 J. W. Ochterski, R. L. Martin, K. Morokuma, O. Farkas, 
 J. B. Foresman, and D. J. Fox, Gaussian, Inc., Wallingford CT, 2016.
 
 ******************************************
 Gaussian 16:  ES64L-G16RevB.01 20-Dec-2017
                24-Jan-2022 
 ******************************************
 %nproc=28
 Will use up to   28 processors via shared memory.
 %mem=120GB
 %chk=/gscratch/ilahie/mccoygrp/coire_hoono/hono/hono_r2_p_005.chk
 -------------------------------------
 #p SP mp2/aug-cc-pvtz density=current
 -------------------------------------
 1/30=1,38=1,172=1/1;
 2/12=2,17=6,18=5,40=1/2;
 3/5=16,6=1,7=10,11=9,25=1,30=1,71=1/1,2,3;
 4//1;
 5/5=2,38=5/2;
 8/6=4,10=1/1;
 9/15=1,16=-3/6;
 10/5=1,13=10/2;
 6/7=2,8=2,9=2,10=2,22=-1/1;
 99/5=1,9=1/99;
 Leave Link    1 at Mon Jan 24 13:49:07 2022, MaxMem= 16106127360 cpu:               1.9 elap:               0.1
 (Enter /sw/contrib/gaussian/g16/B01/g16/l101.exe)
 -----
 title
 -----
 Symbolic Z-matrix:
 Charge =  0 Multiplicity = 1
 H
 O                    1    r1
 N                    2    r2       1    a1
 O                    3    r3       2    a2       1    d1       0
       Variables:
  r1                    0.97026                  
  r2                    1.43276                  
  r3                    1.1768                   
  a1                  101.62779                  
  a2                  110.70859                  
  d1                  180.                       
 
 ITRead=  0  0  0  0
 MicOpt= -1 -1 -1 -1
 NAtoms=      4 NQM=        4 NQMF=       0 NMMI=      0 NMMIF=      0
                NMic=       0 NMicF=      0.
                    Isotopes and Nuclear Properties:
 (Nuclear quadrupole moments (NQMom) in fm**2, nuclear magnetic moments (NMagM)
  in nuclear magnetons)

  Atom         1           2           3           4
 IAtWgt=           1          16          14          16
 AtmWgt=   1.0078250  15.9949146  14.0030740  15.9949146
 NucSpn=           1           0           2           0
 AtZEff=  -0.0000000  -0.0000000  -0.0000000  -0.0000000
 NQMom=    0.0000000   0.0000000   2.0440000   0.0000000
 NMagM=    2.7928460   0.0000000   0.4037610   0.0000000
 AtZNuc=   1.0000000   8.0000000   7.0000000   8.0000000
 Leave Link  101 at Mon Jan 24 13:49:07 2022, MaxMem= 16106127360 cpu:               2.7 elap:               0.1
 (Enter /sw/contrib/gaussian/g16/B01/g16/l202.exe)
                          Input orientation:                          
 ---------------------------------------------------------------------
 Center     Atomic      Atomic             Coordinates (Angstroms)
 Number     Number       Type             X           Y           Z
 ---------------------------------------------------------------------
      1          1           0        0.000000    0.000000    0.000000
      2          8           0        0.000000    0.000000    0.970263
      3          7           0        1.403361    0.000000    1.259041
      4          8           0        1.589092    0.000000    2.421094
 ---------------------------------------------------------------------
                    Distance matrix (angstroms):
                    1          2          3          4
     1  H    0.000000
     2  O    0.970263   0.000000
     3  N    1.885366   1.432764   0.000000
     4  O    2.896016   2.151772   1.176802   0.000000
 Stoichiometry    HNO2
 Framework group  CS[SG(HNO2)]
 Deg. of freedom     5
 Full point group                 CS      NOp   2
 Largest Abelian subgroup         CS      NOp   2
 Largest concise Abelian subgroup C1      NOp   1
                         Standard orientation:                         
 ---------------------------------------------------------------------
 Center     Atomic      Atomic             Coordinates (Angstroms)
 Number     Number       Type             X           Y           Z
 ---------------------------------------------------------------------
      1          1           0        1.761271   -0.150624   -0.000000
      2          8           0        0.898295   -0.594112   -0.000000
      3          7           0        0.000000    0.522078    0.000000
      4          8           0       -1.118454    0.156121    0.000000
 ---------------------------------------------------------------------
 Rotational constants (GHZ):          92.3791153          12.5152885          11.0220492
 Leave Link  202 at Mon Jan 24 13:49:07 2022, MaxMem= 16106127360 cpu:               0.3 elap:               0.0
 (Enter /sw/contrib/gaussian/g16/B01/g16/l301.exe)
 Standard basis: Aug-CC-pVTZ (5D, 7F)
 Ernie: Thresh=  0.10000D-02 Tol=  0.10000D-05 Strict=F.
 Ernie:  9 primitive shells out of 101 were deleted.
 There are   129 symmetry adapted cartesian basis functions of A'  symmetry.
 There are    61 symmetry adapted cartesian basis functions of A"  symmetry.
 There are   106 symmetry adapted basis functions of A'  symmetry.
 There are    55 symmetry adapted basis functions of A"  symmetry.
   161 basis functions,   243 primitive gaussians,   190 cartesian basis functions
    12 alpha electrons       12 beta electrons
       nuclear repulsion energy        69.3937635233 Hartrees.
 IExCor=    0 DFT=F Ex=HF Corr=None ExCW=0 ScaHFX=  1.000000
 ScaDFX=  1.000000  1.000000  1.000000  1.000000 ScalE2=  1.000000  1.000000
 IRadAn=      5 IRanWt=     -1 IRanGd=            0 ICorTp=0 IEmpDi=  4
 NAtoms=    4 NActive=    4 NUniq=    4 SFac= 1.00D+00 NAtFMM=   60 NAOKFM=F Big=F
 Integral buffers will be    131072 words long.
 Raffenetti 1 integral format.
 Two-electron integral symmetry is turned on.
 Leave Link  301 at Mon Jan 24 13:49:07 2022, MaxMem= 16106127360 cpu:               2.6 elap:               0.1
 (Enter /sw/contrib/gaussian/g16/B01/g16/l302.exe)
 NPDir=0 NMtPBC=     1 NCelOv=     1 NCel=       1 NClECP=     1 NCelD=      1
         NCelK=      1 NCelE2=     1 NClLst=     1 CellRange=     0.0.
 One-electron integrals computed using PRISM.
 One-electron integral symmetry used in STVInt
 NBasis=   161 RedAO= T EigKep=  1.98D-04  NBF=   106    55
 NBsUse=   161 1.00D-06 EigRej= -1.00D+00 NBFU=   106    55
 Leave Link  302 at Mon Jan 24 13:49:07 2022, MaxMem= 16106127360 cpu:               5.2 elap:               0.2
 (Enter /sw/contrib/gaussian/g16/B01/g16/l303.exe)
 DipDrv:  MaxL=1.
 Leave Link  303 at Mon Jan 24 13:49:08 2022, MaxMem= 16106127360 cpu:               0.8 elap:               0.1
 (Enter /sw/contrib/gaussian/g16/B01/g16/l401.exe)
 ExpMin= 2.53D-02 ExpMax= 1.53D+04 ExpMxC= 5.22D+02 IAcc=3 IRadAn=         5 AccDes= 0.00D+00
 Harris functional with IExCor=  205 and IRadAn=       5 diagonalized for initial guess.
 HarFok:  IExCor=  205 AccDes= 0.00D+00 IRadAn=         5 IDoV= 1 UseB2=F ITyADJ=14
 ICtDFT=  3500011 ScaDFX=  1.000000  1.000000  1.000000  1.000000
 FoFCou: FMM=F IPFlag=           0 FMFlag=      100000 FMFlg1=           0
         NFxFlg=           0 DoJE=T BraDBF=F KetDBF=T FulRan=T
         wScrn=  0.000000 ICntrl=       500 IOpCl=  0 I1Cent=   200000004 NGrid=           0
         NMat0=    1 NMatS0=      1 NMatT0=    0 NMatD0=    1 NMtDS0=    0 NMtDT0=    0
 Petite list used in FoFCou.
 Harris En= -204.818461098870    
 JPrj=0 DoOrth=F DoCkMO=F.
 Initial guess orbital symmetries:
       Occupied  (A') (A') (A') (A') (A') (A') (A') (A') (A") (A')
                 (A") (A')
       Virtual   (A") (A') (A') (A') (A') (A") (A') (A') (A') (A")
                 (A') (A") (A') (A') (A") (A') (A') (A') (A') (A')
                 (A") (A') (A") (A') (A') (A') (A") (A") (A') (A')
                 (A") (A') (A') (A") (A") (A') (A') (A') (A") (A')
                 (A') (A') (A") (A') (A") (A') (A') (A") (A') (A')
                 (A") (A') (A") (A') (A') (A") (A') (A") (A') (A")
                 (A') (A') (A") (A') (A') (A') (A") (A') (A") (A")
                 (A') (A') (A') (A") (A') (A") (A') (A') (A") (A")
                 (A') (A') (A') (A") (A') (A') (A") (A") (A') (A')
                 (A') (A') (A") (A') (A') (A") (A') (A") (A') (A")
                 (A") (A') (A') (A') (A') (A") (A') (A") (A') (A")
                 (A') (A') (A") (A') (A') (A") (A') (A") (A') (A')
                 (A') (A') (A") (A') (A") (A") (A') (A') (A") (A')
                 (A") (A") (A') (A") (A') (A") (A') (A") (A") (A')
                 (A') (A') (A') (A') (A') (A') (A') (A') (A')
 The electronic state of the initial guess is 1-A'.
 Leave Link  401 at Mon Jan 24 13:49:08 2022, MaxMem= 16106127360 cpu:              11.8 elap:               0.5
 (Enter /sw/contrib/gaussian/g16/B01/g16/l502.exe)
 Keep R1 ints in memory in symmetry-blocked form, NReq=128070121.
 FoFCou: FMM=F IPFlag=           0 FMFlag=           0 FMFlg1=           0
         NFxFlg=           0 DoJE=F BraDBF=F KetDBF=F FulRan=T
         wScrn=  0.000000 ICntrl=       600 IOpCl=  0 I1Cent=           0 NGrid=           0
         NMat0=    1 NMatS0=  13041 NMatT0=    0 NMatD0=    1 NMtDS0=    0 NMtDT0=    0
 Petite list used in FoFCou.
 Closed shell SCF:
 Using DIIS extrapolation, IDIIS=  1040.
 NGot= 16106127360 LenX= 16063019402 LenY= 16062982861
 Requested convergence on RMS density matrix=1.00D-08 within 128 cycles.
 Requested convergence on MAX density matrix=1.00D-06.
 Requested convergence on             energy=1.00D-06.
 No special actions if energy rises.

 Cycle   1  Pass 1  IDiag  1:
 E= -204.612721166451    
 DIIS: error= 3.20D-02 at cycle   1 NSaved=   1.
 NSaved= 1 IEnMin= 1 EnMin= -204.612721166451     IErMin= 1 ErrMin= 3.20D-02
 ErrMax= 3.20D-02  0.00D+00 EMaxC= 1.00D-01 BMatC= 3.55D-01 BMatP= 3.55D-01
 IDIUse=3 WtCom= 6.80D-01 WtEn= 3.20D-01
 Coeff-Com:  0.100D+01
 Coeff-En:   0.100D+01
 Coeff:      0.100D+01
 Gap=     0.507 Goal=   None    Shift=    0.000
 GapD=    0.507 DampG=2.000 DampE=0.500 DampFc=1.0000 IDamp=-1.
 RMSDP=2.06D-03 MaxDP=1.22D-01              OVMax= 1.03D-01

 Cycle   2  Pass 1  IDiag  1:
 E= -204.677321585867     Delta-E=       -0.064600419416 Rises=F Damp=F
 DIIS: error= 2.11D-02 at cycle   2 NSaved=   2.
 NSaved= 2 IEnMin= 2 EnMin= -204.677321585867     IErMin= 2 ErrMin= 2.11D-02
 ErrMax= 2.11D-02  0.00D+00 EMaxC= 1.00D-01 BMatC= 6.91D-02 BMatP= 3.55D-01
 IDIUse=3 WtCom= 7.89D-01 WtEn= 2.11D-01
 Coeff-Com:  0.236D+00 0.764D+00
 Coeff-En:   0.116D+00 0.884D+00
 Coeff:      0.211D+00 0.789D+00
 Gap=     0.511 Goal=   None    Shift=    0.000
 RMSDP=1.00D-03 MaxDP=3.65D-02 DE=-6.46D-02 OVMax= 8.84D-02

 Cycle   3  Pass 1  IDiag  1:
 E= -204.712130240610     Delta-E=       -0.034808654742 Rises=F Damp=F
 DIIS: error= 7.29D-03 at cycle   3 NSaved=   3.
 NSaved= 3 IEnMin= 3 EnMin= -204.712130240610     IErMin= 3 ErrMin= 7.29D-03
 ErrMax= 7.29D-03  0.00D+00 EMaxC= 1.00D-01 BMatC= 1.54D-02 BMatP= 6.91D-02
 IDIUse=3 WtCom= 9.27D-01 WtEn= 7.29D-02
 Coeff-Com: -0.364D-01 0.301D+00 0.736D+00
 Coeff-En:   0.000D+00 0.809D-01 0.919D+00
 Coeff:     -0.337D-01 0.285D+00 0.749D+00
 Gap=     0.493 Goal=   None    Shift=    0.000
 RMSDP=4.09D-04 MaxDP=2.25D-02 DE=-3.48D-02 OVMax= 2.66D-02

 Cycle   4  Pass 1  IDiag  1:
 E= -204.722335817356     Delta-E=       -0.010205576746 Rises=F Damp=F
 DIIS: error= 1.54D-03 at cycle   4 NSaved=   4.
 NSaved= 4 IEnMin= 4 EnMin= -204.722335817356     IErMin= 4 ErrMin= 1.54D-03
 ErrMax= 1.54D-03  0.00D+00 EMaxC= 1.00D-01 BMatC= 2.42D-04 BMatP= 1.54D-02
 IDIUse=3 WtCom= 9.85D-01 WtEn= 1.54D-02
 Coeff-Com: -0.708D-02 0.196D-01 0.113D+00 0.875D+00
 Coeff-En:   0.000D+00 0.000D+00 0.000D+00 0.100D+01
 Coeff:     -0.697D-02 0.193D-01 0.111D+00 0.877D+00
 Gap=     0.489 Goal=   None    Shift=    0.000
 RMSDP=8.44D-05 MaxDP=1.87D-03 DE=-1.02D-02 OVMax= 8.31D-03

 Cycle   5  Pass 1  IDiag  1:
 E= -204.722709642049     Delta-E=       -0.000373824694 Rises=F Damp=F
 DIIS: error= 1.05D-03 at cycle   5 NSaved=   5.
 NSaved= 5 IEnMin= 5 EnMin= -204.722709642049     IErMin= 5 ErrMin= 1.05D-03
 ErrMax= 1.05D-03  0.00D+00 EMaxC= 1.00D-01 BMatC= 6.35D-05 BMatP= 2.42D-04
 IDIUse=3 WtCom= 9.89D-01 WtEn= 1.05D-02
 Coeff-Com:  0.710D-02-0.725D-01-0.156D+00 0.230D+00 0.991D+00
 Coeff-En:   0.000D+00 0.000D+00 0.000D+00 0.000D+00 0.100D+01
 Coeff:      0.702D-02-0.717D-01-0.154D+00 0.228D+00 0.991D+00
 Gap=     0.489 Goal=   None    Shift=    0.000
 RMSDP=6.78D-05 MaxDP=1.64D-03 DE=-3.74D-04 OVMax= 8.94D-03

 Cycle   6  Pass 1  IDiag  1:
 E= -204.722884604251     Delta-E=       -0.000174962202 Rises=F Damp=F
 DIIS: error= 2.34D-04 at cycle   6 NSaved=   6.
 NSaved= 6 IEnMin= 6 EnMin= -204.722884604251     IErMin= 6 ErrMin= 2.34D-04
 ErrMax= 2.34D-04  0.00D+00 EMaxC= 1.00D-01 BMatC= 1.15D-05 BMatP= 6.35D-05
 IDIUse=3 WtCom= 9.98D-01 WtEn= 2.34D-03
 Coeff-Com:  0.532D-03 0.141D-02-0.162D-02-0.211D+00-0.276D-02 0.121D+01
 Coeff-En:   0.000D+00 0.000D+00 0.000D+00 0.000D+00 0.000D+00 0.100D+01
 Coeff:      0.531D-03 0.141D-02-0.162D-02-0.210D+00-0.275D-02 0.121D+01
 Gap=     0.490 Goal=   None    Shift=    0.000
 RMSDP=3.88D-05 MaxDP=7.27D-04 DE=-1.75D-04 OVMax= 4.13D-03

 Cycle   7  Pass 1  IDiag  1:
 E= -204.722924474134     Delta-E=       -0.000039869883 Rises=F Damp=F
 DIIS: error= 1.17D-04 at cycle   7 NSaved=   7.
 NSaved= 7 IEnMin= 7 EnMin= -204.722924474134     IErMin= 7 ErrMin= 1.17D-04
 ErrMax= 1.17D-04  0.00D+00 EMaxC= 1.00D-01 BMatC= 1.79D-06 BMatP= 1.15D-05
 IDIUse=3 WtCom= 9.99D-01 WtEn= 1.17D-03
 Coeff-Com: -0.124D-02 0.126D-01 0.318D-01-0.511D-01-0.133D+00-0.796D-01
 Coeff-Com:  0.122D+01
 Coeff-En:   0.000D+00 0.000D+00 0.000D+00 0.000D+00 0.000D+00 0.000D+00
 Coeff-En:   0.100D+01
 Coeff:     -0.124D-02 0.126D-01 0.317D-01-0.511D-01-0.133D+00-0.795D-01
 Coeff:      0.122D+01
 Gap=     0.490 Goal=   None    Shift=    0.000
 RMSDP=1.52D-05 MaxDP=3.32D-04 DE=-3.99D-05 OVMax= 1.79D-03

 Cycle   8  Pass 1  IDiag  1:
 E= -204.722930082943     Delta-E=       -0.000005608809 Rises=F Damp=F
 DIIS: error= 4.45D-05 at cycle   8 NSaved=   8.
 NSaved= 8 IEnMin= 8 EnMin= -204.722930082943     IErMin= 8 ErrMin= 4.45D-05
 ErrMax= 4.45D-05  0.00D+00 EMaxC= 1.00D-01 BMatC= 1.89D-07 BMatP= 1.79D-06
 IDIUse=1 WtCom= 1.00D+00 WtEn= 0.00D+00
 Coeff-Com: -0.330D-04-0.830D-03-0.734D-03 0.207D-01 0.248D-01-0.152D+00
 Coeff-Com: -0.130D+00 0.124D+01
 Coeff:     -0.330D-04-0.830D-03-0.734D-03 0.207D-01 0.248D-01-0.152D+00
 Coeff:     -0.130D+00 0.124D+01
 Gap=     0.490 Goal=   None    Shift=    0.000
 RMSDP=4.94D-06 MaxDP=9.89D-05 DE=-5.61D-06 OVMax= 4.75D-04

 Cycle   9  Pass 1  IDiag  1:
 E= -204.722930628783     Delta-E=       -0.000000545841 Rises=F Damp=F
 DIIS: error= 1.15D-05 at cycle   9 NSaved=   9.
 NSaved= 9 IEnMin= 9 EnMin= -204.722930628783     IErMin= 9 ErrMin= 1.15D-05
 ErrMax= 1.15D-05  0.00D+00 EMaxC= 1.00D-01 BMatC= 1.57D-08 BMatP= 1.89D-07
 IDIUse=1 WtCom= 1.00D+00 WtEn= 0.00D+00
 Coeff-Com:  0.107D-03-0.987D-03-0.241D-02-0.125D-02 0.117D-01 0.386D-01
 Coeff-Com: -0.868D-01-0.280D+00 0.132D+01
 Coeff:      0.107D-03-0.987D-03-0.241D-02-0.125D-02 0.117D-01 0.386D-01
 Coeff:     -0.868D-01-0.280D+00 0.132D+01
 Gap=     0.490 Goal=   None    Shift=    0.000
 RMSDP=1.29D-06 MaxDP=3.48D-05 DE=-5.46D-07 OVMax= 9.82D-05

 Cycle  10  Pass 1  IDiag  1:
 E= -204.722930671100     Delta-E=       -0.000000042317 Rises=F Damp=F
 DIIS: error= 2.82D-06 at cycle  10 NSaved=  10.
 NSaved=10 IEnMin=10 EnMin= -204.722930671100     IErMin=10 ErrMin= 2.82D-06
 ErrMax= 2.82D-06  0.00D+00 EMaxC= 1.00D-01 BMatC= 1.30D-09 BMatP= 1.57D-08
 IDIUse=1 WtCom= 1.00D+00 WtEn= 0.00D+00
 Coeff-Com: -0.264D-04 0.319D-03 0.799D-03-0.213D-02-0.436D-02 0.207D-02
 Coeff-Com:  0.376D-01-0.523D-01-0.278D+00 0.130D+01
 Coeff:     -0.264D-04 0.319D-03 0.799D-03-0.213D-02-0.436D-02 0.207D-02
 Coeff:      0.376D-01-0.523D-01-0.278D+00 0.130D+01
 Gap=     0.490 Goal=   None    Shift=    0.000
 RMSDP=3.38D-07 MaxDP=1.15D-05 DE=-4.23D-08 OVMax= 3.07D-05

 Cycle  11  Pass 1  IDiag  1:
 E= -204.722930674613     Delta-E=       -0.000000003513 Rises=F Damp=F
 DIIS: error= 1.15D-06 at cycle  11 NSaved=  11.
 NSaved=11 IEnMin=11 EnMin= -204.722930674613     IErMin=11 ErrMin= 1.15D-06
 ErrMax= 1.15D-06  0.00D+00 EMaxC= 1.00D-01 BMatC= 1.24D-10 BMatP= 1.30D-09
 IDIUse=1 WtCom= 1.00D+00 WtEn= 0.00D+00
 Coeff-Com: -0.473D-06-0.186D-04-0.458D-04 0.559D-03 0.108D-02-0.473D-02
 Coeff-Com: -0.522D-02 0.450D-01-0.210D-01-0.479D+00 0.146D+01
 Coeff:     -0.473D-06-0.186D-04-0.458D-04 0.559D-03 0.108D-02-0.473D-02
 Coeff:     -0.522D-02 0.450D-01-0.210D-01-0.479D+00 0.146D+01
 Gap=     0.490 Goal=   None    Shift=    0.000
 RMSDP=1.14D-07 MaxDP=4.25D-06 DE=-3.51D-09 OVMax= 1.12D-05

 Cycle  12  Pass 1  IDiag  1:
 E= -204.722930675001     Delta-E=       -0.000000000388 Rises=F Damp=F
 DIIS: error= 1.90D-07 at cycle  12 NSaved=  12.
 NSaved=12 IEnMin=12 EnMin= -204.722930675001     IErMin=12 ErrMin= 1.90D-07
 ErrMax= 1.90D-07  0.00D+00 EMaxC= 1.00D-01 BMatC= 7.11D-12 BMatP= 1.24D-10
 IDIUse=1 WtCom= 1.00D+00 WtEn= 0.00D+00
 Coeff-Com:  0.241D-05-0.232D-04-0.556D-04-0.563D-04 0.131D-03 0.163D-02
 Coeff-Com: -0.212D-02-0.122D-01 0.389D-01 0.394D-01-0.479D+00 0.141D+01
 Coeff:      0.241D-05-0.232D-04-0.556D-04-0.563D-04 0.131D-03 0.163D-02
 Coeff:     -0.212D-02-0.122D-01 0.389D-01 0.394D-01-0.479D+00 0.141D+01
 Gap=     0.490 Goal=   None    Shift=    0.000
 RMSDP=3.21D-08 MaxDP=7.46D-07 DE=-3.88D-10 OVMax= 2.69D-06

 Cycle  13  Pass 1  IDiag  1:
 E= -204.722930675024     Delta-E=       -0.000000000024 Rises=F Damp=F
 DIIS: error= 4.60D-08 at cycle  13 NSaved=  13.
 NSaved=13 IEnMin=13 EnMin= -204.722930675024     IErMin=13 ErrMin= 4.60D-08
 ErrMax= 4.60D-08  0.00D+00 EMaxC= 1.00D-01 BMatC= 2.22D-13 BMatP= 7.11D-12
 IDIUse=1 WtCom= 1.00D+00 WtEn= 0.00D+00
 Coeff-Com: -0.450D-06 0.575D-05 0.139D-04-0.233D-04-0.856D-04-0.598D-04
 Coeff-Com:  0.757D-03-0.257D-03-0.529D-02 0.123D-01 0.270D-01-0.301D+00
 Coeff-Com:  0.127D+01
 Coeff:     -0.450D-06 0.575D-05 0.139D-04-0.233D-04-0.856D-04-0.598D-04
 Coeff:      0.757D-03-0.257D-03-0.529D-02 0.123D-01 0.270D-01-0.301D+00
 Coeff:      0.127D+01
 Gap=     0.490 Goal=   None    Shift=    0.000
 RMSDP=5.63D-09 MaxDP=9.70D-08 DE=-2.37D-11 OVMax= 4.36D-07

 SCF Done:  E(RHF) =  -204.722930675     A.U. after   13 cycles
            NFock= 13  Conv=0.56D-08     -V/T= 2.0024
 KE= 2.042310973791D+02 PE=-6.227256208322D+02 EE= 1.443778292548D+02
 Leave Link  502 at Mon Jan 24 13:49:10 2022, MaxMem= 16106127360 cpu:              32.5 elap:               1.6
 (Enter /sw/contrib/gaussian/g16/B01/g16/l801.exe)
 ExpMin= 2.53D-02 ExpMax= 1.53D+04 ExpMxC= 5.22D+02 IAcc=3 IRadAn=         5 AccDes= 0.00D+00
 HarFok:  IExCor=  205 AccDes= 0.00D+00 IRadAn=         5 IDoV=-2 UseB2=F ITyADJ=14
 ICtDFT= 12500011 ScaDFX=  1.000000  1.000000  1.000000  1.000000
 Largest valence mixing into a core orbital is  2.06D-04
 Largest core mixing into a valence orbital is  3.33D-05
 Range of M.O.s used for correlation:     4   161
 NBasis=   161 NAE=    12 NBE=    12 NFC=     3 NFV=     0
 NROrb=    158 NOA=     9 NOB=     9 NVA=   149 NVB=   149

 **** Warning!!: The largest alpha MO coefficient is  0.19444103D+02

 Leave Link  801 at Mon Jan 24 13:49:10 2022, MaxMem= 16106127360 cpu:               2.7 elap:               0.1
 (Enter /sw/contrib/gaussian/g16/B01/g16/l906.exe)
 Frozen-core derivative calculation, NFC=   3 NFV=   0.
 FulOut=F Deriv=T AODrv=F NAtomX=     4
   MMem=         161  MDisk=           9 MDiskD=           9
  W3Min=      367080 MinDsk=      792425 NBas6D=         190
 NBas2D=       18625    NTT=       18145    LW2=     3500000
    MDV= 16105788771 MDiskM=      423783 NBas2p=       18621
 Fully in-core method, ICMem=   359292905.
 IMap=   1   2   3   4   5   6   7   8   9  10  11  12
 JobTyp=1 Pass  1 fully in-core, NPsUse= 28.
 Compute canonical integrals.
 FoFCou: FMM=F IPFlag=           0 FMFlag=           0 FMFlg1=           0
         NFxFlg=           0 DoJE=F BraDBF=F KetDBF=F FulRan=T
         wScrn=  0.000000 ICntrl=       600 IOpCl=  1 I1Cent=           0 NGrid=           0
         NMat0=    1 NMatS0=  18625 NMatT0=    0 NMatD0=    1 NMtDS0=    0 NMtDT0=    0
 Symmetry not used in FoFCou.
 Spin components of T(2) and E(2):
     alpha-alpha T2 =       0.2537519414D-01 E2=     -0.9070928913D-01
     alpha-beta  T2 =       0.1378207837D+00 E2=     -0.5169978703D+00
     beta-beta   T2 =       0.2537519414D-01 E2=     -0.9070928913D-01
 The integrals were generated   1 times.
 ANorm=    0.1090216113D+01
 E2 =    -0.6984164485D+00 EUMP2 =    -0.20542134712354D+03
 Leave Link  906 at Mon Jan 24 13:49:13 2022, MaxMem= 16106127360 cpu:              84.3 elap:               3.0
 (Enter /sw/contrib/gaussian/g16/B01/g16/l1002.exe)
 Minotr:  Closed shell wavefunction.
          Computing MP2/KS-MP2 derivatives.
          Using Z-Vector for PSCF gradient.
          Skipping F1 and S1 gradient terms here.
          Frozen-core window.
          Direct CPHF calculation.
          Differentiating once with respect to electric field.
                with respect to dipole field.
          Electric field/nuclear overlap derivatives assumed to be zero.
          Using symmetry in CPHF.
          Requested convergence is 1.0D-10 RMS, and 1.0D-09 maximum.
          NewPWx=F KeepS1=T KeepF1=T KeepIn=T MapXYZ=F SortEE=F KeepMc=T.
 Keep R1 ints in memory in symmetry-blocked form, NReq=128071053.
 FoFCou: FMM=F IPFlag=           0 FMFlag=           0 FMFlg1=           0
         NFxFlg=           0 DoJE=F BraDBF=F KetDBF=F FulRan=T
         wScrn=  0.000000 ICntrl=       600 IOpCl=  0 I1Cent=           0 NGrid=           0
         NMat0=    1 NMatS0=  13041 NMatT0=    0 NMatD0=    1 NMtDS0=    0 NMtDT0=    0
 Petite list used in FoFCou.
          MDV=   16106127360 using IRadAn=       5.
          Solving linear equations separately, MaxMat=       0.
          There are     1 degrees of freedom in the 1st order CPHF.  IDoFFX=0 NUNeed=     1.
 LinEq1:  Iter=  0 NonCon=     1 RMS=6.66D-03 Max=1.32D-01 NDo=     1
 AX will form     1 AO Fock derivatives at one time.
 LinEq1:  Iter=  1 NonCon=     1 RMS=2.28D-03 Max=4.10D-02 NDo=     1
 LinEq1:  Iter=  2 NonCon=     1 RMS=9.26D-04 Max=1.22D-02 NDo=     1
 LinEq1:  Iter=  3 NonCon=     1 RMS=4.45D-04 Max=8.69D-03 NDo=     1
 LinEq1:  Iter=  4 NonCon=     1 RMS=1.38D-04 Max=1.57D-03 NDo=     1
 LinEq1:  Iter=  5 NonCon=     1 RMS=6.18D-05 Max=9.97D-04 NDo=     1
 LinEq1:  Iter=  6 NonCon=     1 RMS=2.35D-05 Max=2.72D-04 NDo=     1
 LinEq1:  Iter=  7 NonCon=     1 RMS=5.98D-06 Max=6.32D-05 NDo=     1
 LinEq1:  Iter=  8 NonCon=     1 RMS=1.45D-06 Max=1.70D-05 NDo=     1
 LinEq1:  Iter=  9 NonCon=     1 RMS=2.70D-07 Max=2.02D-06 NDo=     1
 LinEq1:  Iter= 10 NonCon=     1 RMS=5.00D-08 Max=4.15D-07 NDo=     1
 LinEq1:  Iter= 11 NonCon=     1 RMS=8.19D-09 Max=8.54D-08 NDo=     1
 LinEq1:  Iter= 12 NonCon=     1 RMS=1.10D-09 Max=7.18D-09 NDo=     1
 LinEq1:  Iter= 13 NonCon=     1 RMS=2.31D-10 Max=2.34D-09 NDo=     1
 LinEq1:  Iter= 14 NonCon=     0 RMS=4.43D-11 Max=3.80D-10 NDo=     1
 Linear equations converged to 1.000D-10 1.000D-09 after    14 iterations.
 End of Minotr F.D. properties file   721 does not exist.
 End of Minotr F.D. properties file   722 does not exist.
 End of Minotr F.D. properties file   788 does not exist.
 Leave Link 1002 at Mon Jan 24 13:49:15 2022, MaxMem= 16106127360 cpu:              33.9 elap:               1.8
 (Enter /sw/contrib/gaussian/g16/B01/g16/l601.exe)
 Copying SCF densities to generalized density rwf, IOpCl= 0 IROHF=0.

 **********************************************************************

            Population analysis using the MP2 Density.

 **********************************************************************

 Orbital symmetries:
       Occupied  (A') (A') (A') (A') (A') (A') (A') (A') (A") (A')
                 (A") (A')
       Virtual   (A') (A") (A') (A') (A") (A') (A') (A') (A") (A')
                 (A") (A') (A') (A") (A') (A') (A') (A') (A') (A")
                 (A') (A') (A") (A') (A') (A') (A") (A") (A') (A')
                 (A') (A") (A') (A") (A") (A') (A') (A") (A') (A')
                 (A') (A') (A') (A") (A") (A') (A') (A") (A') (A')
                 (A") (A') (A") (A') (A') (A") (A') (A") (A') (A")
                 (A') (A') (A") (A') (A') (A") (A') (A') (A") (A")
                 (A') (A') (A') (A") (A') (A") (A') (A') (A") (A')
                 (A") (A') (A') (A") (A') (A") (A') (A") (A') (A')
                 (A') (A') (A') (A") (A') (A") (A') (A") (A') (A")
                 (A') (A") (A') (A') (A') (A") (A') (A") (A") (A')
                 (A') (A") (A') (A') (A") (A') (A') (A") (A') (A')
                 (A') (A') (A") (A') (A") (A") (A') (A') (A") (A')
                 (A") (A") (A') (A") (A') (A") (A') (A") (A") (A')
                 (A') (A') (A') (A') (A') (A') (A') (A') (A')
 The electronic state is 1-A'.
 Alpha  occ. eigenvalues --  -20.66648 -20.64158 -15.79948  -1.60250  -1.40109
 Alpha  occ. eigenvalues --   -0.94866  -0.78321  -0.72952  -0.68091  -0.62578
 Alpha  occ. eigenvalues --   -0.52856  -0.46167
 Alpha virt. eigenvalues --    0.02811   0.07983   0.09383   0.09754   0.12894
 Alpha virt. eigenvalues --    0.14384   0.15683   0.17222   0.18732   0.19656
 Alpha virt. eigenvalues --    0.20542   0.23322   0.25787   0.29645   0.30572
 Alpha virt. eigenvalues --    0.32960   0.36526   0.38205   0.42404   0.52499
 Alpha virt. eigenvalues --    0.52610   0.54753   0.57319   0.61273   0.63100
 Alpha virt. eigenvalues --    0.64806   0.68018   0.71443   0.71773   0.74810
 Alpha virt. eigenvalues --    0.77459   0.78227   0.81135   0.81146   0.86056
 Alpha virt. eigenvalues --    0.87863   0.92570   0.93908   0.94553   0.99546
 Alpha virt. eigenvalues --    1.04922   1.06245   1.08075   1.10521   1.16065
 Alpha virt. eigenvalues --    1.19562   1.25211   1.26801   1.36223   1.43334
 Alpha virt. eigenvalues --    1.48902   1.52289   1.52385   1.54367   1.55377
 Alpha virt. eigenvalues --    1.60902   1.65777   1.72817   1.75396   1.82141
 Alpha virt. eigenvalues --    1.85474   1.96126   1.97538   1.99722   2.07330
 Alpha virt. eigenvalues --    2.13260   2.13268   2.18725   2.27007   2.30802
 Alpha virt. eigenvalues --    2.32778   2.38150   2.45011   2.46950   2.49856
 Alpha virt. eigenvalues --    2.50222   2.52034   2.54350   2.56863   2.60697
 Alpha virt. eigenvalues --    2.60744   2.66103   2.77081   2.77729   2.83706
 Alpha virt. eigenvalues --    2.93629   2.94584   3.11347   3.14451   3.18327
 Alpha virt. eigenvalues --    3.24504   3.45854   3.83038   3.85218   4.02832
 Alpha virt. eigenvalues --    4.17022   4.18184   4.21157   4.36285   4.37171
 Alpha virt. eigenvalues --    4.57977   4.63199   4.74763   4.81339   4.87163
 Alpha virt. eigenvalues --    4.88726   4.98021   5.00081   5.07291   5.08690
 Alpha virt. eigenvalues --    5.16880   5.24611   5.25681   5.33230   5.36637
 Alpha virt. eigenvalues --    5.37012   5.57719   5.66705   5.79411   5.98977
 Alpha virt. eigenvalues --    6.11415   6.43124   6.50575   6.50910   6.67361
 Alpha virt. eigenvalues --    6.71452   6.74532   6.84514   6.91410   7.06655
 Alpha virt. eigenvalues --    7.11836   7.18023   7.23079   7.25558   7.25840
 Alpha virt. eigenvalues --    7.33041   7.38011   7.43014   7.47764   7.60418
 Alpha virt. eigenvalues --    7.64629   7.69556   7.78536   7.97323   8.06521
 Alpha virt. eigenvalues --    8.42263  14.18264  15.10391  15.96031
          Condensed to atoms (all electrons):
               1          2          3          4
     1  H    0.586246   0.172400  -0.042835   0.012513
     2  O    0.172400   8.292999  -0.135391  -0.056112
     3  N   -0.042835  -0.135391   7.038211  -0.041514
     4  O    0.012513  -0.056112  -0.041514   8.264421
 Mulliken charges:
               1
     1  H    0.271676
     2  O   -0.273897
     3  N    0.181528
     4  O   -0.179308
 Sum of Mulliken charges =  -0.00000
 Mulliken charges with hydrogens summed into heavy atoms:
               1
     2  O   -0.002220
     3  N    0.181528
     4  O   -0.179308
 Electronic spatial extent (au):  <R**2>=            123.8380
 Charge=             -0.0000 electrons
 Dipole moment (field-independent basis, Debye):
    X=              1.7268    Y=              0.6683    Z=             -0.0000  Tot=              1.8516
 Quadrupole moment (field-independent basis, Debye-Ang):
   XX=            -13.6504   YY=            -18.7024   ZZ=            -16.4656
   XY=              0.5747   XZ=             -0.0000   YZ=              0.0000
 Traceless Quadrupole moment (field-independent basis, Debye-Ang):
   XX=              2.6224   YY=             -2.4296   ZZ=             -0.1928
   XY=              0.5747   XZ=             -0.0000   YZ=              0.0000
 Octapole moment (field-independent basis, Debye-Ang**2):
  XXX=             10.1053  YYY=             -0.9835  ZZZ=              0.0000  XYY=             -0.9929
  XXY=             -0.3671  XXZ=             -0.0000  XZZ=             -1.0244  YZZ=              0.2238
  YYZ=             -0.0000  XYZ=              0.0000
 Hexadecapole moment (field-independent basis, Debye-Ang**3):
 XXXX=            -71.6602 YYYY=            -39.7599 ZZZZ=            -13.9432 XXXY=             12.1567
 XXXZ=              0.0000 YYYX=             12.0284 YYYZ=             -0.0000 ZZZX=              0.0000
 ZZZY=             -0.0000 XXYY=            -22.2722 XXZZ=            -17.4975 YYZZ=             -8.7854
 XXYZ=             -0.0000 YYXZ=              0.0000 ZZXY=              4.2482
 N-N= 6.939376352330D+01 E-N=-6.233284558656D+02  KE= 2.052314403436D+02
 Symmetry A'   KE= 1.964079034858D+02
 Symmetry A"   KE= 8.823536857786D+00
 No NMR shielding tensors so no spin-rotation constants.
 Leave Link  601 at Mon Jan 24 13:49:15 2022, MaxMem= 16106127360 cpu:               4.2 elap:               0.2
 (Enter /sw/contrib/gaussian/g16/B01/g16/l9999.exe)
 1\1\GINC-N2097\SP\RMP2-FC\Aug-CC-pVTZ\H1N1O2\CGAVINH\24-Jan-2022\0\\#p
  SP mp2/aug-cc-pvtz density=current\\title\\0,1\H\O,1,0.97026274\N,2,1
 .43276435,1,101.62778538\O,3,1.17680217,2,110.70859147,1,180.,0\\Versi
 on=ES64L-G16RevB.01\State=1-A'\HF=-204.7229307\MP2=-205.4213471\RMSD=5
 .630e-09\Dipole=-0.0766626,0.,-0.7244407\Quadrupole=-1.3690626,-0.1433
 716,1.5124342,0.,1.2782324,0.\PG=CS [SG(H1N1O2)]\\@


 WOE UNTO THEM THAT CALL EVIL GOOD, AND GOOD EVIL      
 Job cpu time:       0 days  0 hours  3 minutes  3.6 seconds.
 Elapsed time:       0 days  0 hours  0 minutes  7.9 seconds.
 File lengths (MBytes):  RWF=     16 Int=      0 D2E=      0 Chk=      8 Scr=      1
 Normal termination of Gaussian 16 at Mon Jan 24 13:49:15 2022.
