 Entering Gaussian System, Link 0=g16
 Input=hono_r3_m_005.gjf
 Output=hono_r3_m_005.log
 Initial command:
 /sw/contrib/gaussian/g16/B01/g16/l1.exe "/scr/Gau-3550.inp" -scrdir="/scr/"
 Entering Link 1 = /sw/contrib/gaussian/g16/B01/g16/l1.exe PID=      3551.
  
 Copyright (c) 1988-2017, Gaussian, Inc.  All Rights Reserved.
  
 This is part of the Gaussian(R) 16 program.  It is based on
 the Gaussian(R) 09 system (copyright 2009, Gaussian, Inc.),
 the Gaussian(R) 03 system (copyright 2003, Gaussian, Inc.),
 the Gaussian(R) 98 system (copyright 1998, Gaussian, Inc.),
 the Gaussian(R) 94 system (copyright 1995, Gaussian, Inc.),
 the Gaussian 92(TM) system (copyright 1992, Gaussian, Inc.),
 the Gaussian 90(TM) system (copyright 1990, Gaussian, Inc.),
 the Gaussian 88(TM) system (copyright 1988, Gaussian, Inc.),
 the Gaussian 86(TM) system (copyright 1986, Carnegie Mellon
 University), and the Gaussian 82(TM) system (copyright 1983,
 Carnegie Mellon University). Gaussian is a federally registered
 trademark of Gaussian, Inc.
  
 This software contains proprietary and confidential information,
 including trade secrets, belonging to Gaussian, Inc.
  
 This software is provided under written license and may be
 used, copied, transmitted, or stored only in accord with that
 written license.
  
 The following legend is applicable only to US Government
 contracts under FAR:
  
                    RESTRICTED RIGHTS LEGEND
  
 Use, reproduction and disclosure by the US Government is
 subject to restrictions as set forth in subparagraphs (a)
 and (c) of the Commercial Computer Software - Restricted
 Rights clause in FAR 52.227-19.
  
 Gaussian, Inc.
 340 Quinnipiac St., Bldg. 40, Wallingford CT 06492
  
  
 ---------------------------------------------------------------
 Warning -- This program may not be used in any manner that
 competes with the business of Gaussian, Inc. or will provide
 assistance to any competitor of Gaussian, Inc.  The licensee
 of this program is prohibited from giving any competitor of
 Gaussian, Inc. access to this program.  By using this program,
 the user acknowledges that Gaussian, Inc. is engaged in the
 business of creating and licensing software in the field of
 computational chemistry and represents and warrants to the
 licensee that it is not a competitor of Gaussian, Inc. and that
 it will not use this program in any manner prohibited above.
 ---------------------------------------------------------------
  

 Cite this work as:
 Gaussian 16, Revision B.01,
 M. J. Frisch, G. W. Trucks, H. B. Schlegel, G. E. Scuseria, 
 M. A. Robb, J. R. Cheeseman, G. Scalmani, V. Barone, 
 G. A. Petersson, H. Nakatsuji, X. Li, M. Caricato, A. V. Marenich, 
 J. Bloino, B. G. Janesko, R. Gomperts, B. Mennucci, H. P. Hratchian, 
 J. V. Ortiz, A. F. Izmaylov, J. L. Sonnenberg, D. Williams-Young, 
 F. Ding, F. Lipparini, F. Egidi, J. Goings, B. Peng, A. Petrone, 
 T. Henderson, D. Ranasinghe, V. G. Zakrzewski, J. Gao, N. Rega, 
 G. Zheng, W. Liang, M. Hada, M. Ehara, K. Toyota, R. Fukuda, 
 J. Hasegawa, M. Ishida, T. Nakajima, Y. Honda, O. Kitao, H. Nakai, 
 T. Vreven, K. Throssell, J. A. Montgomery, Jr., J. E. Peralta, 
 F. Ogliaro, M. J. Bearpark, J. J. Heyd, E. N. Brothers, K. N. Kudin, 
 V. N. Staroverov, T. A. Keith, R. Kobayashi, J. Normand, 
 K. Raghavachari, A. P. Rendell, J. C. Burant, S. S. Iyengar, 
 J. Tomasi, M. Cossi, J. M. Millam, M. Klene, C. Adamo, R. Cammi, 
 J. W. Ochterski, R. L. Martin, K. Morokuma, O. Farkas, 
 J. B. Foresman, and D. J. Fox, Gaussian, Inc., Wallingford CT, 2016.
 
 ******************************************
 Gaussian 16:  ES64L-G16RevB.01 20-Dec-2017
                24-Jan-2022 
 ******************************************
 %nproc=28
 Will use up to   28 processors via shared memory.
 %mem=120GB
 %chk=/gscratch/ilahie/mccoygrp/coire_hoono/hono/hono_r3_m_005.chk
 -------------------------------------
 #p SP mp2/aug-cc-pvtz density=current
 -------------------------------------
 1/30=1,38=1,172=1/1;
 2/12=2,17=6,18=5,40=1/2;
 3/5=16,6=1,7=10,11=9,25=1,30=1,71=1/1,2,3;
 4//1;
 5/5=2,38=5/2;
 8/6=4,10=1/1;
 9/15=1,16=-3/6;
 10/5=1,13=10/2;
 6/7=2,8=2,9=2,10=2,22=-1/1;
 99/5=1,9=1/99;
 Leave Link    1 at Mon Jan 24 13:55:53 2022, MaxMem= 16106127360 cpu:               2.6 elap:               0.1
 (Enter /sw/contrib/gaussian/g16/B01/g16/l101.exe)
 -----
 title
 -----
 Symbolic Z-matrix:
 Charge =  0 Multiplicity = 1
 H
 O                    1    r1
 N                    2    r2       1    a1
 O                    3    r3       2    a2       1    d1       0
       Variables:
  r1                    0.97026                  
  r2                    1.42776                  
  r3                    1.1718                   
  a1                  101.62779                  
  a2                  110.70859                  
  d1                  180.                       
 
 ITRead=  0  0  0  0
 MicOpt= -1 -1 -1 -1
 NAtoms=      4 NQM=        4 NQMF=       0 NMMI=      0 NMMIF=      0
                NMic=       0 NMicF=      0.
                    Isotopes and Nuclear Properties:
 (Nuclear quadrupole moments (NQMom) in fm**2, nuclear magnetic moments (NMagM)
  in nuclear magnetons)

  Atom         1           2           3           4
 IAtWgt=           1          16          14          16
 AtmWgt=   1.0078250  15.9949146  14.0030740  15.9949146
 NucSpn=           1           0           2           0
 AtZEff=  -0.0000000  -0.0000000  -0.0000000  -0.0000000
 NQMom=    0.0000000   0.0000000   2.0440000   0.0000000
 NMagM=    2.7928460   0.0000000   0.4037610   0.0000000
 AtZNuc=   1.0000000   8.0000000   7.0000000   8.0000000
 Leave Link  101 at Mon Jan 24 13:55:53 2022, MaxMem= 16106127360 cpu:               2.4 elap:               0.1
 (Enter /sw/contrib/gaussian/g16/B01/g16/l202.exe)
                          Input orientation:                          
 ---------------------------------------------------------------------
 Center     Atomic      Atomic             Coordinates (Angstroms)
 Number     Number       Type             X           Y           Z
 ---------------------------------------------------------------------
      1          1           0        0.000000    0.000000    0.000000
      2          8           0        0.000000    0.000000    0.970263
      3          7           0        1.398463    0.000000    1.258033
      4          8           0        1.583406    0.000000    2.415149
 ---------------------------------------------------------------------
                    Distance matrix (angstroms):
                    1          2          3          4
     1  H    0.000000
     2  O    0.970263   0.000000
     3  N    1.881049   1.427764   0.000000
     4  O    2.887926   2.143564   1.171802   0.000000
 Stoichiometry    HNO2
 Framework group  CS[SG(HNO2)]
 Deg. of freedom     5
 Full point group                 CS      NOp   2
 Largest Abelian subgroup         CS      NOp   2
 Largest concise Abelian subgroup C1      NOp   1
                         Standard orientation:                         
 ---------------------------------------------------------------------
 Center     Atomic      Atomic             Coordinates (Angstroms)
 Number     Number       Type             X           Y           Z
 ---------------------------------------------------------------------
      1          1           0        1.757611   -0.150088   -0.000000
      2          8           0        0.894286   -0.592898   -0.000000
      3          7           0       -0.000000    0.520099    0.000000
      4          8           0       -1.113987    0.156572    0.000000
 ---------------------------------------------------------------------
 Rotational constants (GHZ):          93.0581953          12.6080306          11.1036479
 Leave Link  202 at Mon Jan 24 13:55:53 2022, MaxMem= 16106127360 cpu:               1.0 elap:               0.1
 (Enter /sw/contrib/gaussian/g16/B01/g16/l301.exe)
 Standard basis: Aug-CC-pVTZ (5D, 7F)
 Ernie: Thresh=  0.10000D-02 Tol=  0.10000D-05 Strict=F.
 Ernie:  9 primitive shells out of 101 were deleted.
 There are   129 symmetry adapted cartesian basis functions of A'  symmetry.
 There are    61 symmetry adapted cartesian basis functions of A"  symmetry.
 There are   106 symmetry adapted basis functions of A'  symmetry.
 There are    55 symmetry adapted basis functions of A"  symmetry.
   161 basis functions,   243 primitive gaussians,   190 cartesian basis functions
    12 alpha electrons       12 beta electrons
       nuclear repulsion energy        69.6425148344 Hartrees.
 IExCor=    0 DFT=F Ex=HF Corr=None ExCW=0 ScaHFX=  1.000000
 ScaDFX=  1.000000  1.000000  1.000000  1.000000 ScalE2=  1.000000  1.000000
 IRadAn=      5 IRanWt=     -1 IRanGd=            0 ICorTp=0 IEmpDi=  4
 NAtoms=    4 NActive=    4 NUniq=    4 SFac= 1.00D+00 NAtFMM=   60 NAOKFM=F Big=F
 Integral buffers will be    131072 words long.
 Raffenetti 1 integral format.
 Two-electron integral symmetry is turned on.
 Leave Link  301 at Mon Jan 24 13:55:53 2022, MaxMem= 16106127360 cpu:               1.5 elap:               0.1
 (Enter /sw/contrib/gaussian/g16/B01/g16/l302.exe)
 NPDir=0 NMtPBC=     1 NCelOv=     1 NCel=       1 NClECP=     1 NCelD=      1
         NCelK=      1 NCelE2=     1 NClLst=     1 CellRange=     0.0.
 One-electron integrals computed using PRISM.
 One-electron integral symmetry used in STVInt
 NBasis=   161 RedAO= T EigKep=  1.96D-04  NBF=   106    55
 NBsUse=   161 1.00D-06 EigRej= -1.00D+00 NBFU=   106    55
 Leave Link  302 at Mon Jan 24 13:55:53 2022, MaxMem= 16106127360 cpu:               4.3 elap:               0.2
 (Enter /sw/contrib/gaussian/g16/B01/g16/l303.exe)
 DipDrv:  MaxL=1.
 Leave Link  303 at Mon Jan 24 13:55:53 2022, MaxMem= 16106127360 cpu:               1.7 elap:               0.1
 (Enter /sw/contrib/gaussian/g16/B01/g16/l401.exe)
 ExpMin= 2.53D-02 ExpMax= 1.53D+04 ExpMxC= 5.22D+02 IAcc=3 IRadAn=         5 AccDes= 0.00D+00
 Harris functional with IExCor=  205 and IRadAn=       5 diagonalized for initial guess.
 HarFok:  IExCor=  205 AccDes= 0.00D+00 IRadAn=         5 IDoV= 1 UseB2=F ITyADJ=14
 ICtDFT=  3500011 ScaDFX=  1.000000  1.000000  1.000000  1.000000
 FoFCou: FMM=F IPFlag=           0 FMFlag=      100000 FMFlg1=           0
         NFxFlg=           0 DoJE=T BraDBF=F KetDBF=T FulRan=T
         wScrn=  0.000000 ICntrl=       500 IOpCl=  0 I1Cent=   200000004 NGrid=           0
         NMat0=    1 NMatS0=      1 NMatT0=    0 NMatD0=    1 NMtDS0=    0 NMtDT0=    0
 Petite list used in FoFCou.
 Harris En= -204.818517256703    
 JPrj=0 DoOrth=F DoCkMO=F.
 Initial guess orbital symmetries:
       Occupied  (A') (A') (A') (A') (A') (A') (A') (A') (A") (A')
                 (A") (A')
       Virtual   (A") (A') (A') (A') (A') (A") (A') (A') (A') (A")
                 (A') (A") (A') (A') (A") (A') (A') (A') (A') (A')
                 (A") (A') (A") (A') (A') (A') (A") (A") (A') (A')
                 (A") (A') (A') (A") (A") (A') (A') (A') (A") (A')
                 (A') (A') (A") (A') (A") (A') (A') (A") (A') (A')
                 (A") (A') (A") (A') (A') (A") (A') (A") (A') (A")
                 (A') (A') (A") (A') (A') (A') (A") (A') (A") (A")
                 (A') (A') (A') (A") (A') (A") (A') (A') (A") (A")
                 (A') (A') (A') (A") (A') (A') (A") (A") (A') (A')
                 (A') (A') (A") (A') (A') (A") (A') (A") (A') (A")
                 (A") (A') (A') (A') (A') (A") (A') (A") (A') (A")
                 (A') (A') (A") (A') (A') (A") (A') (A") (A') (A')
                 (A') (A') (A") (A') (A") (A") (A') (A') (A") (A')
                 (A") (A") (A') (A") (A') (A") (A') (A") (A") (A')
                 (A') (A') (A') (A') (A') (A') (A') (A') (A')
 The electronic state of the initial guess is 1-A'.
 Leave Link  401 at Mon Jan 24 13:55:54 2022, MaxMem= 16106127360 cpu:               6.2 elap:               0.3
 (Enter /sw/contrib/gaussian/g16/B01/g16/l502.exe)
 Keep R1 ints in memory in symmetry-blocked form, NReq=128070121.
 FoFCou: FMM=F IPFlag=           0 FMFlag=           0 FMFlg1=           0
         NFxFlg=           0 DoJE=F BraDBF=F KetDBF=F FulRan=T
         wScrn=  0.000000 ICntrl=       600 IOpCl=  0 I1Cent=           0 NGrid=           0
         NMat0=    1 NMatS0=  13041 NMatT0=    0 NMatD0=    1 NMtDS0=    0 NMtDT0=    0
 Petite list used in FoFCou.
 Closed shell SCF:
 Using DIIS extrapolation, IDIIS=  1040.
 NGot= 16106127360 LenX= 16063019402 LenY= 16062982861
 Requested convergence on RMS density matrix=1.00D-08 within 128 cycles.
 Requested convergence on MAX density matrix=1.00D-06.
 Requested convergence on             energy=1.00D-06.
 No special actions if energy rises.

 Cycle   1  Pass 1  IDiag  1:
 E= -204.614959111943    
 DIIS: error= 3.09D-02 at cycle   1 NSaved=   1.
 NSaved= 1 IEnMin= 1 EnMin= -204.614959111943     IErMin= 1 ErrMin= 3.09D-02
 ErrMax= 3.09D-02  0.00D+00 EMaxC= 1.00D-01 BMatC= 3.54D-01 BMatP= 3.54D-01
 IDIUse=3 WtCom= 6.91D-01 WtEn= 3.09D-01
 Coeff-Com:  0.100D+01
 Coeff-En:   0.100D+01
 Coeff:      0.100D+01
 Gap=     0.510 Goal=   None    Shift=    0.000
 GapD=    0.510 DampG=2.000 DampE=0.500 DampFc=1.0000 IDamp=-1.
 RMSDP=2.04D-03 MaxDP=1.22D-01              OVMax= 1.01D-01

 Cycle   2  Pass 1  IDiag  1:
 E= -204.680091018879     Delta-E=       -0.065131906936 Rises=F Damp=F
 DIIS: error= 2.07D-02 at cycle   2 NSaved=   2.
 NSaved= 2 IEnMin= 2 EnMin= -204.680091018879     IErMin= 2 ErrMin= 2.07D-02
 ErrMax= 2.07D-02  0.00D+00 EMaxC= 1.00D-01 BMatC= 6.70D-02 BMatP= 3.54D-01
 IDIUse=3 WtCom= 7.93D-01 WtEn= 2.07D-01
 Coeff-Com:  0.232D+00 0.768D+00
 Coeff-En:   0.101D+00 0.899D+00
 Coeff:      0.205D+00 0.795D+00
 Gap=     0.510 Goal=   None    Shift=    0.000
 RMSDP=9.91D-04 MaxDP=3.64D-02 DE=-6.51D-02 OVMax= 8.69D-02

 Cycle   3  Pass 1  IDiag  1:
 E= -204.713550492984     Delta-E=       -0.033459474105 Rises=F Damp=F
 DIIS: error= 7.30D-03 at cycle   3 NSaved=   3.
 NSaved= 3 IEnMin= 3 EnMin= -204.713550492984     IErMin= 3 ErrMin= 7.30D-03
 ErrMax= 7.30D-03  0.00D+00 EMaxC= 1.00D-01 BMatC= 1.52D-02 BMatP= 6.70D-02
 IDIUse=3 WtCom= 9.27D-01 WtEn= 7.30D-02
 Coeff-Com: -0.361D-01 0.303D+00 0.733D+00
 Coeff-En:   0.000D+00 0.838D-01 0.916D+00
 Coeff:     -0.335D-01 0.287D+00 0.746D+00
 Gap=     0.493 Goal=   None    Shift=    0.000
 RMSDP=4.06D-04 MaxDP=2.23D-02 DE=-3.35D-02 OVMax= 2.63D-02

 Cycle   4  Pass 1  IDiag  1:
 E= -204.723614267806     Delta-E=       -0.010063774822 Rises=F Damp=F
 DIIS: error= 1.53D-03 at cycle   4 NSaved=   4.
 NSaved= 4 IEnMin= 4 EnMin= -204.723614267806     IErMin= 4 ErrMin= 1.53D-03
 ErrMax= 1.53D-03  0.00D+00 EMaxC= 1.00D-01 BMatC= 2.32D-04 BMatP= 1.52D-02
 IDIUse=3 WtCom= 9.85D-01 WtEn= 1.53D-02
 Coeff-Com: -0.667D-02 0.171D-01 0.106D+00 0.884D+00
 Coeff-En:   0.000D+00 0.000D+00 0.000D+00 0.100D+01
 Coeff:     -0.657D-02 0.169D-01 0.104D+00 0.886D+00
 Gap=     0.488 Goal=   None    Shift=    0.000
 RMSDP=8.36D-05 MaxDP=1.83D-03 DE=-1.01D-02 OVMax= 8.13D-03

 Cycle   5  Pass 1  IDiag  1:
 E= -204.723976458629     Delta-E=       -0.000362190822 Rises=F Damp=F
 DIIS: error= 1.03D-03 at cycle   5 NSaved=   5.
 NSaved= 5 IEnMin= 5 EnMin= -204.723976458629     IErMin= 5 ErrMin= 1.03D-03
 ErrMax= 1.03D-03  0.00D+00 EMaxC= 1.00D-01 BMatC= 6.05D-05 BMatP= 2.32D-04
 IDIUse=3 WtCom= 9.90D-01 WtEn= 1.03D-02
 Coeff-Com:  0.690D-02-0.716D-01-0.152D+00 0.229D+00 0.988D+00
 Coeff-En:   0.000D+00 0.000D+00 0.000D+00 0.000D+00 0.100D+01
 Coeff:      0.683D-02-0.709D-01-0.151D+00 0.226D+00 0.988D+00
 Gap=     0.488 Goal=   None    Shift=    0.000
 RMSDP=6.59D-05 MaxDP=1.60D-03 DE=-3.62D-04 OVMax= 8.71D-03

 Cycle   6  Pass 1  IDiag  1:
 E= -204.724142278940     Delta-E=       -0.000165820311 Rises=F Damp=F
 DIIS: error= 2.29D-04 at cycle   6 NSaved=   6.
 NSaved= 6 IEnMin= 6 EnMin= -204.724142278940     IErMin= 6 ErrMin= 2.29D-04
 ErrMax= 2.29D-04  0.00D+00 EMaxC= 1.00D-01 BMatC= 1.13D-05 BMatP= 6.05D-05
 IDIUse=3 WtCom= 9.98D-01 WtEn= 2.29D-03
 Coeff-Com:  0.642D-03 0.278D-03-0.436D-02-0.210D+00 0.202D-01 0.119D+01
 Coeff-En:   0.000D+00 0.000D+00 0.000D+00 0.000D+00 0.000D+00 0.100D+01
 Coeff:      0.641D-03 0.277D-03-0.435D-02-0.209D+00 0.202D-01 0.119D+01
 Gap=     0.489 Goal=   None    Shift=    0.000
 RMSDP=3.77D-05 MaxDP=6.98D-04 DE=-1.66D-04 OVMax= 3.98D-03

 Cycle   7  Pass 1  IDiag  1:
 E= -204.724180243040     Delta-E=       -0.000037964100 Rises=F Damp=F
 DIIS: error= 1.16D-04 at cycle   7 NSaved=   7.
 NSaved= 7 IEnMin= 7 EnMin= -204.724180243040     IErMin= 7 ErrMin= 1.16D-04
 ErrMax= 1.16D-04  0.00D+00 EMaxC= 1.00D-01 BMatC= 1.74D-06 BMatP= 1.13D-05
 IDIUse=3 WtCom= 9.99D-01 WtEn= 1.16D-03
 Coeff-Com: -0.122D-02 0.126D-01 0.315D-01-0.523D-01-0.135D+00-0.739D-01
 Coeff-Com:  0.122D+01
 Coeff-En:   0.000D+00 0.000D+00 0.000D+00 0.000D+00 0.000D+00 0.000D+00
 Coeff-En:   0.100D+01
 Coeff:     -0.122D-02 0.126D-01 0.314D-01-0.523D-01-0.135D+00-0.738D-01
 Coeff:      0.122D+01
 Gap=     0.489 Goal=   None    Shift=    0.000
 RMSDP=1.50D-05 MaxDP=3.25D-04 DE=-3.80D-05 OVMax= 1.76D-03

 Cycle   8  Pass 1  IDiag  1:
 E= -204.724185663368     Delta-E=       -0.000005420328 Rises=F Damp=F
 DIIS: error= 4.29D-05 at cycle   8 NSaved=   8.
 NSaved= 8 IEnMin= 8 EnMin= -204.724185663368     IErMin= 8 ErrMin= 4.29D-05
 ErrMax= 4.29D-05  0.00D+00 EMaxC= 1.00D-01 BMatC= 1.81D-07 BMatP= 1.74D-06
 IDIUse=1 WtCom= 1.00D+00 WtEn= 0.00D+00
 Coeff-Com: -0.412D-04-0.729D-03-0.499D-03 0.205D-01 0.227D-01-0.149D+00
 Coeff-Com: -0.132D+00 0.124D+01
 Coeff:     -0.412D-04-0.729D-03-0.499D-03 0.205D-01 0.227D-01-0.149D+00
 Coeff:     -0.132D+00 0.124D+01
 Gap=     0.489 Goal=   None    Shift=    0.000
 RMSDP=4.84D-06 MaxDP=9.63D-05 DE=-5.42D-06 OVMax= 4.63D-04

 Cycle   9  Pass 1  IDiag  1:
 E= -204.724186182145     Delta-E=       -0.000000518777 Rises=F Damp=F
 DIIS: error= 1.09D-05 at cycle   9 NSaved=   9.
 NSaved= 9 IEnMin= 9 EnMin= -204.724186182145     IErMin= 9 ErrMin= 1.09D-05
 ErrMax= 1.09D-05  0.00D+00 EMaxC= 1.00D-01 BMatC= 1.45D-08 BMatP= 1.81D-07
 IDIUse=1 WtCom= 1.00D+00 WtEn= 0.00D+00
 Coeff-Com:  0.105D-03-0.996D-03-0.240D-02-0.106D-02 0.122D-01 0.367D-01
 Coeff-Com: -0.839D-01-0.275D+00 0.131D+01
 Coeff:      0.105D-03-0.996D-03-0.240D-02-0.106D-02 0.122D-01 0.367D-01
 Coeff:     -0.839D-01-0.275D+00 0.131D+01
 Gap=     0.489 Goal=   None    Shift=    0.000
 RMSDP=1.24D-06 MaxDP=3.43D-05 DE=-5.19D-07 OVMax= 9.38D-05

 Cycle  10  Pass 1  IDiag  1:
 E= -204.724186220755     Delta-E=       -0.000000038610 Rises=F Damp=F
 DIIS: error= 2.65D-06 at cycle  10 NSaved=  10.
 NSaved=10 IEnMin=10 EnMin= -204.724186220755     IErMin=10 ErrMin= 2.65D-06
 ErrMax= 2.65D-06  0.00D+00 EMaxC= 1.00D-01 BMatC= 1.18D-09 BMatP= 1.45D-08
 IDIUse=1 WtCom= 1.00D+00 WtEn= 0.00D+00
 Coeff-Com: -0.247D-04 0.305D-03 0.758D-03-0.205D-02-0.423D-02 0.201D-02
 Coeff-Com:  0.364D-01-0.510D-01-0.275D+00 0.129D+01
 Coeff:     -0.247D-04 0.305D-03 0.758D-03-0.205D-02-0.423D-02 0.201D-02
 Coeff:      0.364D-01-0.510D-01-0.275D+00 0.129D+01
 Gap=     0.489 Goal=   None    Shift=    0.000
 RMSDP=3.21D-07 MaxDP=1.08D-05 DE=-3.86D-08 OVMax= 2.90D-05

 Cycle  11  Pass 1  IDiag  1:
 E= -204.724186223891     Delta-E=       -0.000000003136 Rises=F Damp=F
 DIIS: error= 1.08D-06 at cycle  11 NSaved=  11.
 NSaved=11 IEnMin=11 EnMin= -204.724186223891     IErMin=11 ErrMin= 1.08D-06
 ErrMax= 1.08D-06  0.00D+00 EMaxC= 1.00D-01 BMatC= 1.09D-10 BMatP= 1.18D-09
 IDIUse=1 WtCom= 1.00D+00 WtEn= 0.00D+00
 Coeff-Com: -0.711D-06-0.150D-04-0.374D-04 0.526D-03 0.982D-03-0.446D-02
 Coeff-Com: -0.513D-02 0.434D-01-0.189D-01-0.474D+00 0.146D+01
 Coeff:     -0.711D-06-0.150D-04-0.374D-04 0.526D-03 0.982D-03-0.446D-02
 Coeff:     -0.513D-02 0.434D-01-0.189D-01-0.474D+00 0.146D+01
 Gap=     0.489 Goal=   None    Shift=    0.000
 RMSDP=1.06D-07 MaxDP=3.99D-06 DE=-3.14D-09 OVMax= 1.04D-05

 Cycle  12  Pass 1  IDiag  1:
 E= -204.724186224229     Delta-E=       -0.000000000338 Rises=F Damp=F
 DIIS: error= 1.82D-07 at cycle  12 NSaved=  12.
 NSaved=12 IEnMin=12 EnMin= -204.724186224229     IErMin=12 ErrMin= 1.82D-07
 ErrMax= 1.82D-07  0.00D+00 EMaxC= 1.00D-01 BMatC= 6.32D-12 BMatP= 1.09D-10
 IDIUse=1 WtCom= 1.00D+00 WtEn= 0.00D+00
 Coeff-Com:  0.231D-05-0.226D-04-0.537D-04-0.538D-04 0.148D-03 0.153D-02
 Coeff-Com: -0.193D-02-0.118D-01 0.374D-01 0.403D-01-0.478D+00 0.141D+01
 Coeff:      0.231D-05-0.226D-04-0.537D-04-0.538D-04 0.148D-03 0.153D-02
 Coeff:     -0.193D-02-0.118D-01 0.374D-01 0.403D-01-0.478D+00 0.141D+01
 Gap=     0.489 Goal=   None    Shift=    0.000
 RMSDP=3.02D-08 MaxDP=6.92D-07 DE=-3.38D-10 OVMax= 2.50D-06

 Cycle  13  Pass 1  IDiag  1:
 E= -204.724186224250     Delta-E=       -0.000000000021 Rises=F Damp=F
 DIIS: error= 4.34D-08 at cycle  13 NSaved=  13.
 NSaved=13 IEnMin=13 EnMin= -204.724186224250     IErMin=13 ErrMin= 4.34D-08
 ErrMax= 4.34D-08  0.00D+00 EMaxC= 1.00D-01 BMatC= 2.04D-13 BMatP= 6.32D-12
 IDIUse=1 WtCom= 1.00D+00 WtEn= 0.00D+00
 Coeff-Com: -0.427D-06 0.556D-05 0.133D-04-0.223D-04-0.852D-04-0.569D-04
 Coeff-Com:  0.728D-03-0.237D-03-0.522D-02 0.122D-01 0.274D-01-0.306D+00
 Coeff-Com:  0.127D+01
 Coeff:     -0.427D-06 0.556D-05 0.133D-04-0.223D-04-0.852D-04-0.569D-04
 Coeff:      0.728D-03-0.237D-03-0.522D-02 0.122D-01 0.274D-01-0.306D+00
 Coeff:      0.127D+01
 Gap=     0.489 Goal=   None    Shift=    0.000
 RMSDP=5.41D-09 MaxDP=9.25D-08 DE=-2.11D-11 OVMax= 4.15D-07

 SCF Done:  E(RHF) =  -204.724186224     A.U. after   13 cycles
            NFock= 13  Conv=0.54D-08     -V/T= 2.0023
 KE= 2.042640232585D+02 PE=-6.232444541292D+02 EE= 1.446137298120D+02
 Leave Link  502 at Mon Jan 24 13:55:56 2022, MaxMem= 16106127360 cpu:              35.0 elap:               1.9
 (Enter /sw/contrib/gaussian/g16/B01/g16/l801.exe)
 ExpMin= 2.53D-02 ExpMax= 1.53D+04 ExpMxC= 5.22D+02 IAcc=3 IRadAn=         5 AccDes= 0.00D+00
 HarFok:  IExCor=  205 AccDes= 0.00D+00 IRadAn=         5 IDoV=-2 UseB2=F ITyADJ=14
 ICtDFT= 12500011 ScaDFX=  1.000000  1.000000  1.000000  1.000000
 Largest valence mixing into a core orbital is  2.06D-04
 Largest core mixing into a valence orbital is  3.28D-05
 Range of M.O.s used for correlation:     4   161
 NBasis=   161 NAE=    12 NBE=    12 NFC=     3 NFV=     0
 NROrb=    158 NOA=     9 NOB=     9 NVA=   149 NVB=   149

 **** Warning!!: The largest alpha MO coefficient is  0.19462197D+02

 Leave Link  801 at Mon Jan 24 13:55:56 2022, MaxMem= 16106127360 cpu:               2.2 elap:               0.1
 (Enter /sw/contrib/gaussian/g16/B01/g16/l906.exe)
 Frozen-core derivative calculation, NFC=   3 NFV=   0.
 FulOut=F Deriv=T AODrv=F NAtomX=     4
   MMem=         161  MDisk=           9 MDiskD=           9
  W3Min=      367080 MinDsk=      792425 NBas6D=         190
 NBas2D=       18625    NTT=       18145    LW2=     3500000
    MDV= 16105788701 MDiskM=      423783 NBas2p=       18621
 Fully in-core method, ICMem=   359292905.
 IMap=   1   2   3   4   5   6   7   8   9  10  11  12
 JobTyp=1 Pass  1 fully in-core, NPsUse= 28.
 Compute canonical integrals.
 FoFCou: FMM=F IPFlag=           0 FMFlag=           0 FMFlg1=           0
         NFxFlg=           0 DoJE=F BraDBF=F KetDBF=F FulRan=T
         wScrn=  0.000000 ICntrl=       600 IOpCl=  1 I1Cent=           0 NGrid=           0
         NMat0=    1 NMatS0=  18625 NMatT0=    0 NMatD0=    1 NMtDS0=    0 NMtDT0=    0
 Symmetry not used in FoFCou.
 Spin components of T(2) and E(2):
     alpha-alpha T2 =       0.2521813510D-01 E2=     -0.9055335082D-01
     alpha-beta  T2 =       0.1369229263D+00 E2=     -0.5160225196D+00
     beta-beta   T2 =       0.2521813510D-01 E2=     -0.9055335082D-01
 The integrals were generated   1 times.
 ANorm=    0.1089660129D+01
 E2 =    -0.6971292212D+00 EUMP2 =    -0.20542131544546D+03
 Leave Link  906 at Mon Jan 24 13:55:59 2022, MaxMem= 16106127360 cpu:              88.0 elap:               3.2
 (Enter /sw/contrib/gaussian/g16/B01/g16/l1002.exe)
 Minotr:  Closed shell wavefunction.
          Computing MP2/KS-MP2 derivatives.
          Using Z-Vector for PSCF gradient.
          Skipping F1 and S1 gradient terms here.
          Frozen-core window.
          Direct CPHF calculation.
          Differentiating once with respect to electric field.
                with respect to dipole field.
          Electric field/nuclear overlap derivatives assumed to be zero.
          Using symmetry in CPHF.
          Requested convergence is 1.0D-10 RMS, and 1.0D-09 maximum.
          NewPWx=F KeepS1=T KeepF1=T KeepIn=T MapXYZ=F SortEE=F KeepMc=T.
 Keep R1 ints in memory in symmetry-blocked form, NReq=128071053.
 FoFCou: FMM=F IPFlag=           0 FMFlag=           0 FMFlg1=           0
         NFxFlg=           0 DoJE=F BraDBF=F KetDBF=F FulRan=T
         wScrn=  0.000000 ICntrl=       600 IOpCl=  0 I1Cent=           0 NGrid=           0
         NMat0=    1 NMatS0=  13041 NMatT0=    0 NMatD0=    1 NMtDS0=    0 NMtDT0=    0
 Petite list used in FoFCou.
          MDV=   16106127360 using IRadAn=       5.
          Solving linear equations separately, MaxMat=       0.
          There are     1 degrees of freedom in the 1st order CPHF.  IDoFFX=0 NUNeed=     1.
 LinEq1:  Iter=  0 NonCon=     1 RMS=6.60D-03 Max=1.30D-01 NDo=     1
 AX will form     1 AO Fock derivatives at one time.
 LinEq1:  Iter=  1 NonCon=     1 RMS=2.24D-03 Max=4.00D-02 NDo=     1
 LinEq1:  Iter=  2 NonCon=     1 RMS=9.06D-04 Max=1.18D-02 NDo=     1
 LinEq1:  Iter=  3 NonCon=     1 RMS=4.33D-04 Max=8.44D-03 NDo=     1
 LinEq1:  Iter=  4 NonCon=     1 RMS=1.35D-04 Max=1.50D-03 NDo=     1
 LinEq1:  Iter=  5 NonCon=     1 RMS=5.97D-05 Max=9.56D-04 NDo=     1
 LinEq1:  Iter=  6 NonCon=     1 RMS=2.28D-05 Max=2.64D-04 NDo=     1
 LinEq1:  Iter=  7 NonCon=     1 RMS=5.77D-06 Max=6.08D-05 NDo=     1
 LinEq1:  Iter=  8 NonCon=     1 RMS=1.40D-06 Max=1.64D-05 NDo=     1
 LinEq1:  Iter=  9 NonCon=     1 RMS=2.59D-07 Max=1.98D-06 NDo=     1
 LinEq1:  Iter= 10 NonCon=     1 RMS=4.80D-08 Max=3.88D-07 NDo=     1
 LinEq1:  Iter= 11 NonCon=     1 RMS=7.80D-09 Max=7.96D-08 NDo=     1
 LinEq1:  Iter= 12 NonCon=     1 RMS=1.05D-09 Max=7.44D-09 NDo=     1
 LinEq1:  Iter= 13 NonCon=     1 RMS=2.17D-10 Max=2.21D-09 NDo=     1
 LinEq1:  Iter= 14 NonCon=     0 RMS=4.12D-11 Max=3.60D-10 NDo=     1
 Linear equations converged to 1.000D-10 1.000D-09 after    14 iterations.
 End of Minotr F.D. properties file   721 does not exist.
 End of Minotr F.D. properties file   722 does not exist.
 End of Minotr F.D. properties file   788 does not exist.
 Leave Link 1002 at Mon Jan 24 13:56:01 2022, MaxMem= 16106127360 cpu:              34.7 elap:               1.9
 (Enter /sw/contrib/gaussian/g16/B01/g16/l601.exe)
 Copying SCF densities to generalized density rwf, IOpCl= 0 IROHF=0.

 **********************************************************************

            Population analysis using the MP2 Density.

 **********************************************************************

 Orbital symmetries:
       Occupied  (A') (A') (A') (A') (A') (A') (A') (A') (A") (A')
                 (A") (A')
       Virtual   (A') (A") (A') (A') (A") (A') (A') (A') (A") (A')
                 (A") (A') (A') (A") (A') (A') (A') (A') (A') (A")
                 (A') (A') (A") (A') (A') (A') (A") (A") (A') (A')
                 (A') (A") (A") (A') (A") (A') (A') (A") (A') (A')
                 (A') (A') (A') (A") (A") (A') (A') (A") (A') (A')
                 (A") (A') (A") (A') (A') (A") (A') (A") (A') (A")
                 (A') (A') (A") (A') (A') (A') (A") (A') (A") (A")
                 (A') (A') (A') (A") (A') (A") (A') (A') (A") (A')
                 (A") (A') (A') (A") (A') (A") (A') (A") (A') (A')
                 (A') (A') (A') (A") (A') (A") (A') (A") (A') (A")
                 (A') (A") (A') (A') (A') (A") (A') (A") (A") (A')
                 (A') (A") (A') (A') (A") (A') (A') (A") (A') (A')
                 (A') (A') (A") (A') (A") (A") (A') (A') (A") (A')
                 (A") (A") (A') (A") (A') (A") (A') (A") (A") (A')
                 (A') (A') (A') (A') (A') (A') (A') (A') (A')
 The electronic state is 1-A'.
 Alpha  occ. eigenvalues --  -20.66540 -20.64121 -15.79797  -1.60687  -1.40259
 Alpha  occ. eigenvalues --   -0.94763  -0.78517  -0.73083  -0.68333  -0.62593
 Alpha  occ. eigenvalues --   -0.52884  -0.46072
 Alpha virt. eigenvalues --    0.02813   0.08192   0.09384   0.09759   0.12889
 Alpha virt. eigenvalues --    0.14385   0.15688   0.17220   0.18729   0.19651
 Alpha virt. eigenvalues --    0.20573   0.23341   0.25807   0.29658   0.30844
 Alpha virt. eigenvalues --    0.32984   0.36587   0.38272   0.42424   0.52514
 Alpha virt. eigenvalues --    0.52696   0.54831   0.57345   0.61347   0.63375
 Alpha virt. eigenvalues --    0.64841   0.67903   0.71410   0.71781   0.74828
 Alpha virt. eigenvalues --    0.77494   0.78194   0.81188   0.81256   0.86187
 Alpha virt. eigenvalues --    0.87963   0.92612   0.93928   0.94589   0.99597
 Alpha virt. eigenvalues --    1.04985   1.06380   1.08198   1.10648   1.16125
 Alpha virt. eigenvalues --    1.19675   1.25288   1.26958   1.36202   1.43442
 Alpha virt. eigenvalues --    1.48889   1.52290   1.52458   1.54455   1.55474
 Alpha virt. eigenvalues --    1.61007   1.65875   1.72883   1.75493   1.82263
 Alpha virt. eigenvalues --    1.85637   1.96058   1.97814   1.99541   2.07458
 Alpha virt. eigenvalues --    2.13281   2.13360   2.19075   2.27140   2.30906
 Alpha virt. eigenvalues --    2.33009   2.38185   2.45185   2.47071   2.49918
 Alpha virt. eigenvalues --    2.50306   2.52354   2.54440   2.57181   2.60838
 Alpha virt. eigenvalues --    2.60967   2.66532   2.77669   2.77947   2.83942
 Alpha virt. eigenvalues --    2.94040   2.95261   3.11529   3.14788   3.18336
 Alpha virt. eigenvalues --    3.25097   3.46202   3.83290   3.85525   4.02999
 Alpha virt. eigenvalues --    4.17089   4.19269   4.21423   4.36541   4.37413
 Alpha virt. eigenvalues --    4.58470   4.63977   4.74798   4.81825   4.87306
 Alpha virt. eigenvalues --    4.88709   4.98013   5.00156   5.07412   5.08892
 Alpha virt. eigenvalues --    5.17295   5.24760   5.25801   5.34001   5.36979
 Alpha virt. eigenvalues --    5.37746   5.57352   5.67618   5.79747   5.99193
 Alpha virt. eigenvalues --    6.12055   6.43655   6.50703   6.50985   6.67599
 Alpha virt. eigenvalues --    6.71727   6.74655   6.85173   6.91885   7.07060
 Alpha virt. eigenvalues --    7.12167   7.18066   7.23715   7.25796   7.25960
 Alpha virt. eigenvalues --    7.34461   7.38551   7.43461   7.48013   7.61943
 Alpha virt. eigenvalues --    7.65012   7.70345   7.79977   7.98683   8.07220
 Alpha virt. eigenvalues --    8.42660  14.24063  15.14446  16.11593
          Condensed to atoms (all electrons):
               1          2          3          4
     1  H    0.586564   0.172930  -0.044099   0.012712
     2  O    0.172930   8.296100  -0.139021  -0.058283
     3  N   -0.044099  -0.139021   7.046374  -0.043253
     4  O    0.012712  -0.058283  -0.043253   8.268990
 Mulliken charges:
               1
     1  H    0.271892
     2  O   -0.271725
     3  N    0.179999
     4  O   -0.180166
 Sum of Mulliken charges =  -0.00000
 Mulliken charges with hydrogens summed into heavy atoms:
               1
     2  O    0.000167
     3  N    0.179999
     4  O   -0.180166
 Electronic spatial extent (au):  <R**2>=            123.2004
 Charge=             -0.0000 electrons
 Dipole moment (field-independent basis, Debye):
    X=              1.7324    Y=              0.6591    Z=             -0.0000  Tot=              1.8536
 Quadrupole moment (field-independent basis, Debye-Ang):
   XX=            -13.6536   YY=            -18.6986   ZZ=            -16.4499
   XY=              0.5642   XZ=              0.0000   YZ=             -0.0000
 Traceless Quadrupole moment (field-independent basis, Debye-Ang):
   XX=              2.6138   YY=             -2.4312   ZZ=             -0.1826
   XY=              0.5642   XZ=              0.0000   YZ=             -0.0000
 Octapole moment (field-independent basis, Debye-Ang**2):
  XXX=             10.0767  YYY=             -0.9883  ZZZ=              0.0000  XYY=             -0.9978
  XXY=             -0.3692  XXZ=             -0.0000  XZZ=             -1.0199  YZZ=              0.2222
  YYZ=              0.0000  XYZ=             -0.0000
 Hexadecapole moment (field-independent basis, Debye-Ang**3):
 XXXX=            -71.1868 YYYY=            -39.6517 ZZZZ=            -13.9198 XXXY=             12.0765
 XXXZ=              0.0000 YYYX=             11.9373 YYYZ=             -0.0000 ZZZX=              0.0000
 ZZZY=             -0.0000 XXYY=            -22.1387 XXZZ=            -17.3845 YYZZ=             -8.7626
 XXYZ=             -0.0000 YYXZ=              0.0000 ZZXY=              4.2182
 N-N= 6.964251483443D+01 E-N=-6.238382163058D+02  KE= 2.052593653297D+02
 Symmetry A'   KE= 1.964316191694D+02
 Symmetry A"   KE= 8.827746160268D+00
 No NMR shielding tensors so no spin-rotation constants.
 Leave Link  601 at Mon Jan 24 13:56:01 2022, MaxMem= 16106127360 cpu:               4.3 elap:               0.2
 (Enter /sw/contrib/gaussian/g16/B01/g16/l9999.exe)
 1\1\GINC-N2095\SP\RMP2-FC\Aug-CC-pVTZ\H1N1O2\CGAVINH\24-Jan-2022\0\\#p
  SP mp2/aug-cc-pvtz density=current\\title\\0,1\H\O,1,0.97026274\N,2,1
 .42776435,1,101.62778538\O,3,1.17180217,2,110.70859147,1,180.,0\\Versi
 on=ES64L-G16RevB.01\State=1-A'\HF=-204.7241862\MP2=-205.4213154\RMSD=5
 .406e-09\Dipole=-0.0803528,0.,-0.7248119\Quadrupole=-1.3669925,-0.1357
 265,1.502719,0.,1.2784047,0.\PG=CS [SG(H1N1O2)]\\@


 THE SCIENTIFIC THEORIST IS NOT TO BE ENVIED. FOR NATURE, OR MORE
 PRECISELY EXPERIMENT, IS AN INEXORABLE AND NOT VERY FRIENDLY JUDGE OF HIS
 WORK.  IT NEVER SAYS "YES" TO A THEORY. IN THE MOST FAVORABLE CASES
 IT SAYS "MAYBE", AND IN THE GREAT MAJORITY OF CASES SIMPLY "NO"...
 PROBABLY EVERY THEORY WILL SOME DAY EXPERIENCE ITS "NO" - MOST
 THEORIES, SOON AFTER CONCEPTION.  -- A.EINSTEIN, NOV 11, 1922.
 Job cpu time:       0 days  0 hours  3 minutes  5.6 seconds.
 Elapsed time:       0 days  0 hours  0 minutes  8.4 seconds.
 File lengths (MBytes):  RWF=     16 Int=      0 D2E=      0 Chk=      8 Scr=      1
 Normal termination of Gaussian 16 at Mon Jan 24 13:56:01 2022.
