 Entering Gaussian System, Link 0=g16
 Input=hono_r3_p_005.gjf
 Output=hono_r3_p_005.log
 Initial command:
 /sw/contrib/gaussian/g16/B01/g16/l1.exe "/scr/Gau-3932.inp" -scrdir="/scr/"
 Entering Link 1 = /sw/contrib/gaussian/g16/B01/g16/l1.exe PID=      3933.
  
 Copyright (c) 1988-2017, Gaussian, Inc.  All Rights Reserved.
  
 This is part of the Gaussian(R) 16 program.  It is based on
 the Gaussian(R) 09 system (copyright 2009, Gaussian, Inc.),
 the Gaussian(R) 03 system (copyright 2003, Gaussian, Inc.),
 the Gaussian(R) 98 system (copyright 1998, Gaussian, Inc.),
 the Gaussian(R) 94 system (copyright 1995, Gaussian, Inc.),
 the Gaussian 92(TM) system (copyright 1992, Gaussian, Inc.),
 the Gaussian 90(TM) system (copyright 1990, Gaussian, Inc.),
 the Gaussian 88(TM) system (copyright 1988, Gaussian, Inc.),
 the Gaussian 86(TM) system (copyright 1986, Carnegie Mellon
 University), and the Gaussian 82(TM) system (copyright 1983,
 Carnegie Mellon University). Gaussian is a federally registered
 trademark of Gaussian, Inc.
  
 This software contains proprietary and confidential information,
 including trade secrets, belonging to Gaussian, Inc.
  
 This software is provided under written license and may be
 used, copied, transmitted, or stored only in accord with that
 written license.
  
 The following legend is applicable only to US Government
 contracts under FAR:
  
                    RESTRICTED RIGHTS LEGEND
  
 Use, reproduction and disclosure by the US Government is
 subject to restrictions as set forth in subparagraphs (a)
 and (c) of the Commercial Computer Software - Restricted
 Rights clause in FAR 52.227-19.
  
 Gaussian, Inc.
 340 Quinnipiac St., Bldg. 40, Wallingford CT 06492
  
  
 ---------------------------------------------------------------
 Warning -- This program may not be used in any manner that
 competes with the business of Gaussian, Inc. or will provide
 assistance to any competitor of Gaussian, Inc.  The licensee
 of this program is prohibited from giving any competitor of
 Gaussian, Inc. access to this program.  By using this program,
 the user acknowledges that Gaussian, Inc. is engaged in the
 business of creating and licensing software in the field of
 computational chemistry and represents and warrants to the
 licensee that it is not a competitor of Gaussian, Inc. and that
 it will not use this program in any manner prohibited above.
 ---------------------------------------------------------------
  

 Cite this work as:
 Gaussian 16, Revision B.01,
 M. J. Frisch, G. W. Trucks, H. B. Schlegel, G. E. Scuseria, 
 M. A. Robb, J. R. Cheeseman, G. Scalmani, V. Barone, 
 G. A. Petersson, H. Nakatsuji, X. Li, M. Caricato, A. V. Marenich, 
 J. Bloino, B. G. Janesko, R. Gomperts, B. Mennucci, H. P. Hratchian, 
 J. V. Ortiz, A. F. Izmaylov, J. L. Sonnenberg, D. Williams-Young, 
 F. Ding, F. Lipparini, F. Egidi, J. Goings, B. Peng, A. Petrone, 
 T. Henderson, D. Ranasinghe, V. G. Zakrzewski, J. Gao, N. Rega, 
 G. Zheng, W. Liang, M. Hada, M. Ehara, K. Toyota, R. Fukuda, 
 J. Hasegawa, M. Ishida, T. Nakajima, Y. Honda, O. Kitao, H. Nakai, 
 T. Vreven, K. Throssell, J. A. Montgomery, Jr., J. E. Peralta, 
 F. Ogliaro, M. J. Bearpark, J. J. Heyd, E. N. Brothers, K. N. Kudin, 
 V. N. Staroverov, T. A. Keith, R. Kobayashi, J. Normand, 
 K. Raghavachari, A. P. Rendell, J. C. Burant, S. S. Iyengar, 
 J. Tomasi, M. Cossi, J. M. Millam, M. Klene, C. Adamo, R. Cammi, 
 J. W. Ochterski, R. L. Martin, K. Morokuma, O. Farkas, 
 J. B. Foresman, and D. J. Fox, Gaussian, Inc., Wallingford CT, 2016.
 
 ******************************************
 Gaussian 16:  ES64L-G16RevB.01 20-Dec-2017
                24-Jan-2022 
 ******************************************
 %nproc=28
 Will use up to   28 processors via shared memory.
 %mem=120GB
 %chk=/gscratch/ilahie/mccoygrp/coire_hoono/hono/hono_r3_p_005.chk
 -------------------------------------
 #p SP mp2/aug-cc-pvtz density=current
 -------------------------------------
 1/30=1,38=1,172=1/1;
 2/12=2,17=6,18=5,40=1/2;
 3/5=16,6=1,7=10,11=9,25=1,30=1,71=1/1,2,3;
 4//1;
 5/5=2,38=5/2;
 8/6=4,10=1/1;
 9/15=1,16=-3/6;
 10/5=1,13=10/2;
 6/7=2,8=2,9=2,10=2,22=-1/1;
 99/5=1,9=1/99;
 Leave Link    1 at Mon Jan 24 13:56:02 2022, MaxMem= 16106127360 cpu:              24.5 elap:               0.9
 (Enter /sw/contrib/gaussian/g16/B01/g16/l101.exe)
 -----
 title
 -----
 Symbolic Z-matrix:
 Charge =  0 Multiplicity = 1
 H
 O                    1    r1
 N                    2    r2       1    a1
 O                    3    r3       2    a2       1    d1       0
       Variables:
  r1                    0.97026                  
  r2                    1.42776                  
  r3                    1.1818                   
  a1                  101.62779                  
  a2                  110.70859                  
  d1                  180.                       
 
 ITRead=  0  0  0  0
 MicOpt= -1 -1 -1 -1
 NAtoms=      4 NQM=        4 NQMF=       0 NMMI=      0 NMMIF=      0
                NMic=       0 NMicF=      0.
                    Isotopes and Nuclear Properties:
 (Nuclear quadrupole moments (NQMom) in fm**2, nuclear magnetic moments (NMagM)
  in nuclear magnetons)

  Atom         1           2           3           4
 IAtWgt=           1          16          14          16
 AtmWgt=   1.0078250  15.9949146  14.0030740  15.9949146
 NucSpn=           1           0           2           0
 AtZEff=  -0.0000000  -0.0000000  -0.0000000  -0.0000000
 NQMom=    0.0000000   0.0000000   2.0440000   0.0000000
 NMagM=    2.7928460   0.0000000   0.4037610   0.0000000
 AtZNuc=   1.0000000   8.0000000   7.0000000   8.0000000
 Leave Link  101 at Mon Jan 24 13:56:02 2022, MaxMem= 16106127360 cpu:               2.9 elap:               0.1
 (Enter /sw/contrib/gaussian/g16/B01/g16/l202.exe)
                          Input orientation:                          
 ---------------------------------------------------------------------
 Center     Atomic      Atomic             Coordinates (Angstroms)
 Number     Number       Type             X           Y           Z
 ---------------------------------------------------------------------
      1          1           0        0.000000    0.000000    0.000000
      2          8           0        0.000000    0.000000    0.970263
      3          7           0        1.398463    0.000000    1.258033
      4          8           0        1.584984    0.000000    2.425023
 ---------------------------------------------------------------------
                    Distance matrix (angstroms):
                    1          2          3          4
     1  H    0.000000
     2  O    0.970263   0.000000
     3  N    1.881049   1.427764   0.000000
     4  O    2.897052   2.151395   1.181802   0.000000
 Stoichiometry    HNO2
 Framework group  CS[SG(HNO2)]
 Deg. of freedom     5
 Full point group                 CS      NOp   2
 Largest Abelian subgroup         CS      NOp   2
 Largest concise Abelian subgroup C1      NOp   1
                         Standard orientation:                         
 ---------------------------------------------------------------------
 Center     Atomic      Atomic             Coordinates (Angstroms)
 Number     Number       Type             X           Y           Z
 ---------------------------------------------------------------------
      1          1           0        1.761653   -0.138344    0.000000
      2          8           0        0.901037   -0.586396    0.000000
      3          7           0        0.000000    0.521143   -0.000000
      4          8           0       -1.121244    0.147689   -0.000000
 ---------------------------------------------------------------------
 Rotational constants (GHZ):          92.2400986          12.5251699          11.0277282
 Leave Link  202 at Mon Jan 24 13:56:03 2022, MaxMem= 16106127360 cpu:               0.5 elap:               0.0
 (Enter /sw/contrib/gaussian/g16/B01/g16/l301.exe)
 Standard basis: Aug-CC-pVTZ (5D, 7F)
 Ernie: Thresh=  0.10000D-02 Tol=  0.10000D-05 Strict=F.
 Ernie:  9 primitive shells out of 101 were deleted.
 There are   129 symmetry adapted cartesian basis functions of A'  symmetry.
 There are    61 symmetry adapted cartesian basis functions of A"  symmetry.
 There are   106 symmetry adapted basis functions of A'  symmetry.
 There are    55 symmetry adapted basis functions of A"  symmetry.
   161 basis functions,   243 primitive gaussians,   190 cartesian basis functions
    12 alpha electrons       12 beta electrons
       nuclear repulsion energy        69.3663991857 Hartrees.
 IExCor=    0 DFT=F Ex=HF Corr=None ExCW=0 ScaHFX=  1.000000
 ScaDFX=  1.000000  1.000000  1.000000  1.000000 ScalE2=  1.000000  1.000000
 IRadAn=      5 IRanWt=     -1 IRanGd=            0 ICorTp=0 IEmpDi=  4
 NAtoms=    4 NActive=    4 NUniq=    4 SFac= 1.00D+00 NAtFMM=   60 NAOKFM=F Big=F
 Integral buffers will be    131072 words long.
 Raffenetti 1 integral format.
 Two-electron integral symmetry is turned on.
 Leave Link  301 at Mon Jan 24 13:56:03 2022, MaxMem= 16106127360 cpu:               2.1 elap:               0.1
 (Enter /sw/contrib/gaussian/g16/B01/g16/l302.exe)
 NPDir=0 NMtPBC=     1 NCelOv=     1 NCel=       1 NClECP=     1 NCelD=      1
         NCelK=      1 NCelE2=     1 NClLst=     1 CellRange=     0.0.
 One-electron integrals computed using PRISM.
 One-electron integral symmetry used in STVInt
 NBasis=   161 RedAO= T EigKep=  1.99D-04  NBF=   106    55
 NBsUse=   161 1.00D-06 EigRej= -1.00D+00 NBFU=   106    55
 Leave Link  302 at Mon Jan 24 13:56:03 2022, MaxMem= 16106127360 cpu:               4.4 elap:               0.2
 (Enter /sw/contrib/gaussian/g16/B01/g16/l303.exe)
 DipDrv:  MaxL=1.
 Leave Link  303 at Mon Jan 24 13:56:03 2022, MaxMem= 16106127360 cpu:               0.7 elap:               0.1
 (Enter /sw/contrib/gaussian/g16/B01/g16/l401.exe)
 ExpMin= 2.53D-02 ExpMax= 1.53D+04 ExpMxC= 5.22D+02 IAcc=3 IRadAn=         5 AccDes= 0.00D+00
 Harris functional with IExCor=  205 and IRadAn=       5 diagonalized for initial guess.
 HarFok:  IExCor=  205 AccDes= 0.00D+00 IRadAn=         5 IDoV= 1 UseB2=F ITyADJ=14
 ICtDFT=  3500011 ScaDFX=  1.000000  1.000000  1.000000  1.000000
 FoFCou: FMM=F IPFlag=           0 FMFlag=      100000 FMFlg1=           0
         NFxFlg=           0 DoJE=T BraDBF=F KetDBF=T FulRan=T
         wScrn=  0.000000 ICntrl=       500 IOpCl=  0 I1Cent=   200000004 NGrid=           0
         NMat0=    1 NMatS0=      1 NMatT0=    0 NMatD0=    1 NMtDS0=    0 NMtDT0=    0
 Petite list used in FoFCou.
 Harris En= -204.818349713922    
 JPrj=0 DoOrth=F DoCkMO=F.
 Initial guess orbital symmetries:
       Occupied  (A') (A') (A') (A') (A') (A') (A') (A') (A") (A')
                 (A") (A')
       Virtual   (A") (A') (A') (A') (A') (A") (A') (A') (A') (A")
                 (A') (A") (A') (A') (A") (A') (A') (A') (A') (A')
                 (A") (A') (A") (A') (A') (A') (A") (A') (A") (A')
                 (A") (A') (A') (A") (A") (A') (A') (A') (A") (A')
                 (A') (A') (A") (A') (A") (A') (A') (A") (A') (A')
                 (A") (A') (A") (A') (A') (A") (A') (A") (A') (A")
                 (A') (A') (A") (A') (A') (A') (A") (A') (A") (A")
                 (A') (A') (A') (A") (A') (A") (A') (A') (A") (A")
                 (A') (A') (A') (A") (A') (A') (A") (A") (A') (A')
                 (A') (A') (A") (A') (A') (A") (A') (A") (A') (A")
                 (A") (A') (A') (A') (A') (A") (A') (A") (A') (A")
                 (A') (A') (A") (A') (A') (A") (A') (A") (A') (A')
                 (A') (A') (A") (A') (A") (A") (A') (A') (A") (A')
                 (A") (A") (A') (A") (A') (A") (A') (A") (A") (A')
                 (A') (A') (A') (A') (A') (A') (A') (A') (A')
 The electronic state of the initial guess is 1-A'.
 Leave Link  401 at Mon Jan 24 13:56:03 2022, MaxMem= 16106127360 cpu:               6.1 elap:               0.3
 (Enter /sw/contrib/gaussian/g16/B01/g16/l502.exe)
 Keep R1 ints in memory in symmetry-blocked form, NReq=128070121.
 FoFCou: FMM=F IPFlag=           0 FMFlag=           0 FMFlg1=           0
         NFxFlg=           0 DoJE=F BraDBF=F KetDBF=F FulRan=T
         wScrn=  0.000000 ICntrl=       600 IOpCl=  0 I1Cent=           0 NGrid=           0
         NMat0=    1 NMatS0=  13041 NMatT0=    0 NMatD0=    1 NMtDS0=    0 NMtDT0=    0
 Petite list used in FoFCou.
 Closed shell SCF:
 Using DIIS extrapolation, IDIIS=  1040.
 NGot= 16106127360 LenX= 16063019402 LenY= 16062982861
 Requested convergence on RMS density matrix=1.00D-08 within 128 cycles.
 Requested convergence on MAX density matrix=1.00D-06.
 Requested convergence on             energy=1.00D-06.
 No special actions if energy rises.

 Cycle   1  Pass 1  IDiag  1:
 E= -204.612246322771    
 DIIS: error= 3.07D-02 at cycle   1 NSaved=   1.
 NSaved= 1 IEnMin= 1 EnMin= -204.612246322771     IErMin= 1 ErrMin= 3.07D-02
 ErrMax= 3.07D-02  0.00D+00 EMaxC= 1.00D-01 BMatC= 3.55D-01 BMatP= 3.55D-01
 IDIUse=3 WtCom= 6.93D-01 WtEn= 3.07D-01
 Coeff-Com:  0.100D+01
 Coeff-En:   0.100D+01
 Coeff:      0.100D+01
 Gap=     0.507 Goal=   None    Shift=    0.000
 GapD=    0.507 DampG=2.000 DampE=0.500 DampFc=1.0000 IDamp=-1.
 RMSDP=2.06D-03 MaxDP=1.22D-01              OVMax= 1.04D-01

 Cycle   2  Pass 1  IDiag  1:
 E= -204.676579430011     Delta-E=       -0.064333107240 Rises=F Damp=F
 DIIS: error= 2.11D-02 at cycle   2 NSaved=   2.
 NSaved= 2 IEnMin= 2 EnMin= -204.676579430011     IErMin= 2 ErrMin= 2.11D-02
 ErrMax= 2.11D-02  0.00D+00 EMaxC= 1.00D-01 BMatC= 6.97D-02 BMatP= 3.55D-01
 IDIUse=3 WtCom= 7.89D-01 WtEn= 2.11D-01
 Coeff-Com:  0.237D+00 0.763D+00
 Coeff-En:   0.120D+00 0.880D+00
 Coeff:      0.212D+00 0.788D+00
 Gap=     0.512 Goal=   None    Shift=    0.000
 RMSDP=1.00D-03 MaxDP=3.59D-02 DE=-6.43D-02 OVMax= 8.96D-02

 Cycle   3  Pass 1  IDiag  1:
 E= -204.711612699563     Delta-E=       -0.035033269553 Rises=F Damp=F
 DIIS: error= 7.29D-03 at cycle   3 NSaved=   3.
 NSaved= 3 IEnMin= 3 EnMin= -204.711612699563     IErMin= 3 ErrMin= 7.29D-03
 ErrMax= 7.29D-03  0.00D+00 EMaxC= 1.00D-01 BMatC= 1.55D-02 BMatP= 6.97D-02
 IDIUse=3 WtCom= 9.27D-01 WtEn= 7.29D-02
 Coeff-Com: -0.363D-01 0.301D+00 0.735D+00
 Coeff-En:   0.000D+00 0.836D-01 0.916D+00
 Coeff:     -0.336D-01 0.285D+00 0.748D+00
 Gap=     0.494 Goal=   None    Shift=    0.000
 RMSDP=4.11D-04 MaxDP=2.26D-02 DE=-3.50D-02 OVMax= 2.66D-02

 Cycle   4  Pass 1  IDiag  1:
 E= -204.721932968796     Delta-E=       -0.010320269232 Rises=F Damp=F
 DIIS: error= 1.56D-03 at cycle   4 NSaved=   4.
 NSaved= 4 IEnMin= 4 EnMin= -204.721932968796     IErMin= 4 ErrMin= 1.56D-03
 ErrMax= 1.56D-03  0.00D+00 EMaxC= 1.00D-01 BMatC= 2.57D-04 BMatP= 1.55D-02
 IDIUse=3 WtCom= 9.84D-01 WtEn= 1.56D-02
 Coeff-Com: -0.819D-02 0.283D-01 0.133D+00 0.847D+00
 Coeff-En:   0.000D+00 0.000D+00 0.000D+00 0.100D+01
 Coeff:     -0.807D-02 0.278D-01 0.131D+00 0.849D+00
 Gap=     0.490 Goal=   None    Shift=    0.000
 RMSDP=8.33D-05 MaxDP=1.86D-03 DE=-1.03D-02 OVMax= 8.24D-03

 Cycle   5  Pass 1  IDiag  1:
 E= -204.722307292772     Delta-E=       -0.000374323976 Rises=F Damp=F
 DIIS: error= 1.06D-03 at cycle   5 NSaved=   5.
 NSaved= 5 IEnMin= 5 EnMin= -204.722307292772     IErMin= 5 ErrMin= 1.06D-03
 ErrMax= 1.06D-03  0.00D+00 EMaxC= 1.00D-01 BMatC= 6.41D-05 BMatP= 2.57D-04
 IDIUse=3 WtCom= 9.89D-01 WtEn= 1.06D-02
 Coeff-Com:  0.715D-02-0.726D-01-0.157D+00 0.208D+00 0.101D+01
 Coeff-En:   0.000D+00 0.000D+00 0.000D+00 0.000D+00 0.100D+01
 Coeff:      0.708D-02-0.718D-01-0.155D+00 0.206D+00 0.101D+01
 Gap=     0.490 Goal=   None    Shift=    0.000
 RMSDP=6.92D-05 MaxDP=1.66D-03 DE=-3.74D-04 OVMax= 9.09D-03

 Cycle   6  Pass 1  IDiag  1:
 E= -204.722487023511     Delta-E=       -0.000179730739 Rises=F Damp=F
 DIIS: error= 2.33D-04 at cycle   6 NSaved=   6.
 NSaved= 6 IEnMin= 6 EnMin= -204.722487023511     IErMin= 6 ErrMin= 2.33D-04
 ErrMax= 2.33D-04  0.00D+00 EMaxC= 1.00D-01 BMatC= 1.13D-05 BMatP= 6.41D-05
 IDIUse=3 WtCom= 9.98D-01 WtEn= 2.33D-03
 Coeff-Com:  0.496D-03 0.163D-02-0.707D-03-0.202D+00-0.247D-01 0.123D+01
 Coeff-En:   0.000D+00 0.000D+00 0.000D+00 0.000D+00 0.000D+00 0.100D+01
 Coeff:      0.495D-03 0.163D-02-0.705D-03-0.202D+00-0.247D-01 0.122D+01
 Gap=     0.491 Goal=   None    Shift=    0.000
 RMSDP=3.85D-05 MaxDP=7.28D-04 DE=-1.80D-04 OVMax= 4.13D-03

 Cycle   7  Pass 1  IDiag  1:
 E= -204.722526475862     Delta-E=       -0.000039452351 Rises=F Damp=F
 DIIS: error= 1.16D-04 at cycle   7 NSaved=   7.
 NSaved= 7 IEnMin= 7 EnMin= -204.722526475862     IErMin= 7 ErrMin= 1.16D-04
 ErrMax= 1.16D-04  0.00D+00 EMaxC= 1.00D-01 BMatC= 1.79D-06 BMatP= 1.13D-05
 IDIUse=3 WtCom= 9.99D-01 WtEn= 1.16D-03
 Coeff-Com: -0.123D-02 0.124D-01 0.316D-01-0.464D-01-0.137D+00-0.784D-01
 Coeff-Com:  0.122D+01
 Coeff-En:   0.000D+00 0.000D+00 0.000D+00 0.000D+00 0.000D+00 0.000D+00
 Coeff-En:   0.100D+01
 Coeff:     -0.123D-02 0.124D-01 0.315D-01-0.464D-01-0.137D+00-0.784D-01
 Coeff:      0.122D+01
 Gap=     0.491 Goal=   None    Shift=    0.000
 RMSDP=1.51D-05 MaxDP=3.27D-04 DE=-3.95D-05 OVMax= 1.79D-03

 Cycle   8  Pass 1  IDiag  1:
 E= -204.722532059228     Delta-E=       -0.000005583366 Rises=F Damp=F
 DIIS: error= 4.52D-05 at cycle   8 NSaved=   8.
 NSaved= 8 IEnMin= 8 EnMin= -204.722532059228     IErMin= 8 ErrMin= 4.52D-05
 ErrMax= 4.52D-05  0.00D+00 EMaxC= 1.00D-01 BMatC= 1.91D-07 BMatP= 1.79D-06
 IDIUse=1 WtCom= 1.00D+00 WtEn= 0.00D+00
 Coeff-Com: -0.331D-04-0.838D-03-0.748D-03 0.199D-01 0.263D-01-0.153D+00
 Coeff-Com: -0.134D+00 0.124D+01
 Coeff:     -0.331D-04-0.838D-03-0.748D-03 0.199D-01 0.263D-01-0.153D+00
 Coeff:     -0.134D+00 0.124D+01
 Gap=     0.491 Goal=   None    Shift=    0.000
 RMSDP=4.99D-06 MaxDP=1.02D-04 DE=-5.58D-06 OVMax= 4.91D-04

 Cycle   9  Pass 1  IDiag  1:
 E= -204.722532622059     Delta-E=       -0.000000562831 Rises=F Damp=F
 DIIS: error= 1.21D-05 at cycle   9 NSaved=   9.
 NSaved= 9 IEnMin= 9 EnMin= -204.722532622059     IErMin= 9 ErrMin= 1.21D-05
 ErrMax= 1.21D-05  0.00D+00 EMaxC= 1.00D-01 BMatC= 1.66D-08 BMatP= 1.91D-07
 IDIUse=1 WtCom= 1.00D+00 WtEn= 0.00D+00
 Coeff-Com:  0.108D-03-0.991D-03-0.243D-02-0.166D-02 0.119D-01 0.402D-01
 Coeff-Com: -0.877D-01-0.289D+00 0.133D+01
 Coeff:      0.108D-03-0.991D-03-0.243D-02-0.166D-02 0.119D-01 0.402D-01
 Coeff:     -0.877D-01-0.289D+00 0.133D+01
 Gap=     0.491 Goal=   None    Shift=    0.000
 RMSDP=1.33D-06 MaxDP=3.49D-05 DE=-5.63D-07 OVMax= 1.01D-04

 Cycle  10  Pass 1  IDiag  1:
 E= -204.722532667446     Delta-E=       -0.000000045387 Rises=F Damp=F
 DIIS: error= 2.88D-06 at cycle  10 NSaved=  10.
 NSaved=10 IEnMin=10 EnMin= -204.722532667446     IErMin=10 ErrMin= 2.88D-06
 ErrMax= 2.88D-06  0.00D+00 EMaxC= 1.00D-01 BMatC= 1.40D-09 BMatP= 1.66D-08
 IDIUse=1 WtCom= 1.00D+00 WtEn= 0.00D+00
 Coeff-Com: -0.278D-04 0.332D-03 0.836D-03-0.203D-02-0.471D-02 0.191D-02
 Coeff-Com:  0.392D-01-0.512D-01-0.289D+00 0.130D+01
 Coeff:     -0.278D-04 0.332D-03 0.836D-03-0.203D-02-0.471D-02 0.191D-02
 Coeff:      0.392D-01-0.512D-01-0.289D+00 0.130D+01
 Gap=     0.491 Goal=   None    Shift=    0.000
 RMSDP=3.53D-07 MaxDP=1.22D-05 DE=-4.54D-08 OVMax= 3.22D-05

 Cycle  11  Pass 1  IDiag  1:
 E= -204.722532671292     Delta-E=       -0.000000003846 Rises=F Damp=F
 DIIS: error= 1.19D-06 at cycle  11 NSaved=  11.
 NSaved=11 IEnMin=11 EnMin= -204.722532671292     IErMin=11 ErrMin= 1.19D-06
 ErrMax= 1.19D-06  0.00D+00 EMaxC= 1.00D-01 BMatC= 1.32D-10 BMatP= 1.40D-09
 IDIUse=1 WtCom= 1.00D+00 WtEn= 0.00D+00
 Coeff-Com: -0.297D-06-0.215D-04-0.516D-04 0.566D-03 0.113D-02-0.480D-02
 Coeff-Com: -0.582D-02 0.465D-01-0.205D-01-0.484D+00 0.147D+01
 Coeff:     -0.297D-06-0.215D-04-0.516D-04 0.566D-03 0.113D-02-0.480D-02
 Coeff:     -0.582D-02 0.465D-01-0.205D-01-0.484D+00 0.147D+01
 Gap=     0.491 Goal=   None    Shift=    0.000
 RMSDP=1.19D-07 MaxDP=4.44D-06 DE=-3.85D-09 OVMax= 1.17D-05

 Cycle  12  Pass 1  IDiag  1:
 E= -204.722532671711     Delta-E=       -0.000000000419 Rises=F Damp=F
 DIIS: error= 1.91D-07 at cycle  12 NSaved=  12.
 NSaved=12 IEnMin=12 EnMin= -204.722532671711     IErMin=12 ErrMin= 1.91D-07
 ErrMax= 1.91D-07  0.00D+00 EMaxC= 1.00D-01 BMatC= 7.42D-12 BMatP= 1.32D-10
 IDIUse=1 WtCom= 1.00D+00 WtEn= 0.00D+00
 Coeff-Com:  0.249D-05-0.237D-04-0.576D-04-0.648D-04 0.153D-03 0.164D-02
 Coeff-Com: -0.213D-02-0.125D-01 0.396D-01 0.369D-01-0.467D+00 0.140D+01
 Coeff:      0.249D-05-0.237D-04-0.576D-04-0.648D-04 0.153D-03 0.164D-02
 Coeff:     -0.213D-02-0.125D-01 0.396D-01 0.369D-01-0.467D+00 0.140D+01
 Gap=     0.491 Goal=   None    Shift=    0.000
 RMSDP=3.28D-08 MaxDP=7.56D-07 DE=-4.19D-10 OVMax= 2.70D-06

 Cycle  13  Pass 1  IDiag  1:
 E= -204.722532671736     Delta-E=       -0.000000000025 Rises=F Damp=F
 DIIS: error= 4.59D-08 at cycle  13 NSaved=  13.
 NSaved=13 IEnMin=13 EnMin= -204.722532671736     IErMin=13 ErrMin= 4.59D-08
 ErrMax= 4.59D-08  0.00D+00 EMaxC= 1.00D-01 BMatC= 2.20D-13 BMatP= 7.42D-12
 IDIUse=1 WtCom= 1.00D+00 WtEn= 0.00D+00
 Coeff-Com: -0.459D-06 0.582D-05 0.141D-04-0.210D-04-0.916D-04-0.544D-04
 Coeff-Com:  0.772D-03-0.294D-03-0.526D-02 0.128D-01 0.233D-01-0.288D+00
 Coeff-Com:  0.126D+01
 Coeff:     -0.459D-06 0.582D-05 0.141D-04-0.210D-04-0.916D-04-0.544D-04
 Coeff:      0.772D-03-0.294D-03-0.526D-02 0.128D-01 0.233D-01-0.288D+00
 Coeff:      0.126D+01
 Gap=     0.491 Goal=   None    Shift=    0.000
 RMSDP=5.56D-09 MaxDP=9.41D-08 DE=-2.51D-11 OVMax= 4.27D-07

 SCF Done:  E(RHF) =  -204.722532672     A.U. after   13 cycles
            NFock= 13  Conv=0.56D-08     -V/T= 2.0025
 KE= 2.042165799003D+02 PE=-6.226606307493D+02 EE= 1.443551189916D+02
 Leave Link  502 at Mon Jan 24 13:56:05 2022, MaxMem= 16106127360 cpu:              33.9 elap:               1.7
 (Enter /sw/contrib/gaussian/g16/B01/g16/l801.exe)
 ExpMin= 2.53D-02 ExpMax= 1.53D+04 ExpMxC= 5.22D+02 IAcc=3 IRadAn=         5 AccDes= 0.00D+00
 HarFok:  IExCor=  205 AccDes= 0.00D+00 IRadAn=         5 IDoV=-2 UseB2=F ITyADJ=14
 ICtDFT= 12500011 ScaDFX=  1.000000  1.000000  1.000000  1.000000
 Largest valence mixing into a core orbital is  2.07D-04
 Largest core mixing into a valence orbital is  3.32D-05
 Range of M.O.s used for correlation:     4   161
 NBasis=   161 NAE=    12 NBE=    12 NFC=     3 NFV=     0
 NROrb=    158 NOA=     9 NOB=     9 NVA=   149 NVB=   149

 **** Warning!!: The largest alpha MO coefficient is  0.19533471D+02

 Leave Link  801 at Mon Jan 24 13:56:05 2022, MaxMem= 16106127360 cpu:               2.2 elap:               0.1
 (Enter /sw/contrib/gaussian/g16/B01/g16/l906.exe)
 Frozen-core derivative calculation, NFC=   3 NFV=   0.
 FulOut=F Deriv=T AODrv=F NAtomX=     4
   MMem=         161  MDisk=           9 MDiskD=           9
  W3Min=      367080 MinDsk=      792425 NBas6D=         190
 NBas2D=       18625    NTT=       18145    LW2=     3500000
    MDV= 16105788743 MDiskM=      423783 NBas2p=       18621
 Fully in-core method, ICMem=   359292905.
 IMap=   1   2   3   4   5   6   7   8   9  10  11  12
 JobTyp=1 Pass  1 fully in-core, NPsUse= 28.
 Compute canonical integrals.
 FoFCou: FMM=F IPFlag=           0 FMFlag=           0 FMFlg1=           0
         NFxFlg=           0 DoJE=F BraDBF=F KetDBF=F FulRan=T
         wScrn=  0.000000 ICntrl=       600 IOpCl=  1 I1Cent=           0 NGrid=           0
         NMat0=    1 NMatS0=  18625 NMatT0=    0 NMatD0=    1 NMtDS0=    0 NMtDT0=    0
 Symmetry not used in FoFCou.
 Spin components of T(2) and E(2):
     alpha-alpha T2 =       0.2541857328D-01 E2=     -0.9076324585D-01
     alpha-beta  T2 =       0.1380491762D+00 E2=     -0.5172635043D+00
     beta-beta   T2 =       0.2541857328D-01 E2=     -0.9076324585D-01
 The integrals were generated   1 times.
 ANorm=    0.1090360639D+01
 E2 =    -0.6987899960D+00 EUMP2 =    -0.20542132266771D+03
 Leave Link  906 at Mon Jan 24 13:56:08 2022, MaxMem= 16106127360 cpu:              84.4 elap:               3.1
 (Enter /sw/contrib/gaussian/g16/B01/g16/l1002.exe)
 Minotr:  Closed shell wavefunction.
          Computing MP2/KS-MP2 derivatives.
          Using Z-Vector for PSCF gradient.
          Skipping F1 and S1 gradient terms here.
          Frozen-core window.
          Direct CPHF calculation.
          Differentiating once with respect to electric field.
                with respect to dipole field.
          Electric field/nuclear overlap derivatives assumed to be zero.
          Using symmetry in CPHF.
          Requested convergence is 1.0D-10 RMS, and 1.0D-09 maximum.
          NewPWx=F KeepS1=T KeepF1=T KeepIn=T MapXYZ=F SortEE=F KeepMc=T.
 Keep R1 ints in memory in symmetry-blocked form, NReq=128071053.
 FoFCou: FMM=F IPFlag=           0 FMFlag=           0 FMFlg1=           0
         NFxFlg=           0 DoJE=F BraDBF=F KetDBF=F FulRan=T
         wScrn=  0.000000 ICntrl=       600 IOpCl=  0 I1Cent=           0 NGrid=           0
         NMat0=    1 NMatS0=  13041 NMatT0=    0 NMatD0=    1 NMtDS0=    0 NMtDT0=    0
 Petite list used in FoFCou.
          MDV=   16106127360 using IRadAn=       5.
          Solving linear equations separately, MaxMat=       0.
          There are     1 degrees of freedom in the 1st order CPHF.  IDoFFX=0 NUNeed=     1.
 LinEq1:  Iter=  0 NonCon=     1 RMS=6.67D-03 Max=1.35D-01 NDo=     1
 AX will form     1 AO Fock derivatives at one time.
 LinEq1:  Iter=  1 NonCon=     1 RMS=2.28D-03 Max=4.15D-02 NDo=     1
 LinEq1:  Iter=  2 NonCon=     1 RMS=9.28D-04 Max=1.20D-02 NDo=     1
 LinEq1:  Iter=  3 NonCon=     1 RMS=4.48D-04 Max=8.86D-03 NDo=     1
 LinEq1:  Iter=  4 NonCon=     1 RMS=1.39D-04 Max=1.56D-03 NDo=     1
 LinEq1:  Iter=  5 NonCon=     1 RMS=6.28D-05 Max=1.02D-03 NDo=     1
 LinEq1:  Iter=  6 NonCon=     1 RMS=2.37D-05 Max=2.74D-04 NDo=     1
 LinEq1:  Iter=  7 NonCon=     1 RMS=6.06D-06 Max=6.18D-05 NDo=     1
 LinEq1:  Iter=  8 NonCon=     1 RMS=1.47D-06 Max=1.69D-05 NDo=     1
 LinEq1:  Iter=  9 NonCon=     1 RMS=2.73D-07 Max=1.95D-06 NDo=     1
 LinEq1:  Iter= 10 NonCon=     1 RMS=5.02D-08 Max=4.06D-07 NDo=     1
 LinEq1:  Iter= 11 NonCon=     1 RMS=8.19D-09 Max=8.43D-08 NDo=     1
 LinEq1:  Iter= 12 NonCon=     1 RMS=1.10D-09 Max=7.22D-09 NDo=     1
 LinEq1:  Iter= 13 NonCon=     1 RMS=2.31D-10 Max=2.39D-09 NDo=     1
 LinEq1:  Iter= 14 NonCon=     0 RMS=4.46D-11 Max=3.89D-10 NDo=     1
 Linear equations converged to 1.000D-10 1.000D-09 after    14 iterations.
 End of Minotr F.D. properties file   721 does not exist.
 End of Minotr F.D. properties file   722 does not exist.
 End of Minotr F.D. properties file   788 does not exist.
 Leave Link 1002 at Mon Jan 24 13:56:10 2022, MaxMem= 16106127360 cpu:              33.3 elap:               1.8
 (Enter /sw/contrib/gaussian/g16/B01/g16/l601.exe)
 Copying SCF densities to generalized density rwf, IOpCl= 0 IROHF=0.

 **********************************************************************

            Population analysis using the MP2 Density.

 **********************************************************************

 Orbital symmetries:
       Occupied  (A') (A') (A') (A') (A') (A') (A') (A') (A") (A')
                 (A") (A')
       Virtual   (A') (A") (A') (A') (A") (A') (A') (A') (A") (A')
                 (A") (A') (A') (A") (A') (A') (A') (A') (A') (A")
                 (A') (A') (A") (A') (A') (A') (A") (A") (A') (A')
                 (A') (A") (A') (A") (A") (A') (A') (A") (A') (A')
                 (A') (A') (A') (A") (A") (A') (A') (A") (A') (A')
                 (A") (A') (A") (A') (A') (A") (A') (A") (A') (A")
                 (A') (A') (A") (A') (A') (A") (A') (A') (A") (A")
                 (A') (A') (A') (A") (A') (A") (A') (A') (A") (A')
                 (A") (A') (A') (A") (A') (A") (A') (A") (A') (A')
                 (A') (A') (A') (A") (A') (A") (A') (A") (A') (A")
                 (A') (A") (A') (A') (A') (A") (A') (A") (A") (A')
                 (A') (A") (A') (A') (A") (A') (A') (A") (A') (A')
                 (A') (A') (A") (A') (A") (A") (A') (A') (A") (A')
                 (A") (A") (A') (A") (A') (A") (A') (A") (A") (A')
                 (A') (A') (A') (A') (A') (A') (A') (A') (A')
 The electronic state is 1-A'.
 Alpha  occ. eigenvalues --  -20.66522 -20.64354 -15.79954  -1.59878  -1.40265
 Alpha  occ. eigenvalues --   -0.94944  -0.78314  -0.72878  -0.67983  -0.62493
 Alpha  occ. eigenvalues --   -0.52826  -0.46278
 Alpha virt. eigenvalues --    0.02785   0.07897   0.09408   0.09752   0.12890
 Alpha virt. eigenvalues --    0.14344   0.15690   0.17205   0.18717   0.19669
 Alpha virt. eigenvalues --    0.20544   0.23352   0.25774   0.29610   0.30724
 Alpha virt. eigenvalues --    0.32973   0.36564   0.38224   0.42358   0.52545
 Alpha virt. eigenvalues --    0.52560   0.54777   0.57317   0.61236   0.62901
 Alpha virt. eigenvalues --    0.64772   0.68136   0.71443   0.71808   0.74768
 Alpha virt. eigenvalues --    0.77475   0.78123   0.81109   0.81122   0.86043
 Alpha virt. eigenvalues --    0.87800   0.92531   0.93874   0.94430   0.99443
 Alpha virt. eigenvalues --    1.04931   1.06218   1.08056   1.10523   1.16050
 Alpha virt. eigenvalues --    1.19586   1.25155   1.26766   1.36124   1.43299
 Alpha virt. eigenvalues --    1.48869   1.52315   1.52416   1.54377   1.55374
 Alpha virt. eigenvalues --    1.60900   1.65761   1.72868   1.75433   1.82243
 Alpha virt. eigenvalues --    1.85546   1.96119   1.97460   2.00032   2.07449
 Alpha virt. eigenvalues --    2.13263   2.13297   2.18629   2.27022   2.30768
 Alpha virt. eigenvalues --    2.32828   2.38003   2.45073   2.46940   2.49821
 Alpha virt. eigenvalues --    2.50224   2.51923   2.54410   2.56673   2.60578
 Alpha virt. eigenvalues --    2.60669   2.65885   2.76703   2.77663   2.83903
 Alpha virt. eigenvalues --    2.93575   2.95196   3.11536   3.14556   3.18215
 Alpha virt. eigenvalues --    3.24343   3.46003   3.83022   3.85358   4.02762
 Alpha virt. eigenvalues --    4.16948   4.17301   4.21241   4.36159   4.37066
 Alpha virt. eigenvalues --    4.57836   4.62738   4.74596   4.81755   4.87083
 Alpha virt. eigenvalues --    4.88771   4.98000   5.00225   5.07341   5.08432
 Alpha virt. eigenvalues --    5.16871   5.24505   5.25745   5.32689   5.36872
 Alpha virt. eigenvalues --    5.37124   5.58596   5.65954   5.79016   5.98447
 Alpha virt. eigenvalues --    6.11855   6.43333   6.50704   6.51029   6.67273
 Alpha virt. eigenvalues --    6.71393   6.74441   6.84347   6.91459   7.06760
 Alpha virt. eigenvalues --    7.11732   7.17884   7.23045   7.25454   7.25667
 Alpha virt. eigenvalues --    7.31908   7.37442   7.43120   7.47745   7.59676
 Alpha virt. eigenvalues --    7.64544   7.69524   7.78221   7.97768   8.06958
 Alpha virt. eigenvalues --    8.42255  14.15996  15.11199  15.83353
          Condensed to atoms (all electrons):
               1          2          3          4
     1  H    0.585872   0.173061  -0.044056   0.012744
     2  O    0.173061   8.287509  -0.134944  -0.056303
     3  N   -0.044056  -0.134944   7.040525  -0.040862
     4  O    0.012744  -0.056303  -0.040862   8.266814
 Mulliken charges:
               1
     1  H    0.272380
     2  O   -0.269323
     3  N    0.179336
     4  O   -0.182393
 Sum of Mulliken charges =   0.00000
 Mulliken charges with hydrogens summed into heavy atoms:
               1
     2  O    0.003057
     3  N    0.179336
     4  O   -0.182393
 Electronic spatial extent (au):  <R**2>=            123.7887
 Charge=              0.0000 electrons
 Dipole moment (field-independent basis, Debye):
    X=              1.7795    Y=              0.6523    Z=             -0.0000  Tot=              1.8953
 Quadrupole moment (field-independent basis, Debye-Ang):
   XX=            -13.6493   YY=            -18.6989   ZZ=            -16.4660
   XY=              0.5965   XZ=              0.0000   YZ=             -0.0000
 Traceless Quadrupole moment (field-independent basis, Debye-Ang):
   XX=              2.6221   YY=             -2.4275   ZZ=             -0.1946
   XY=              0.5965   XZ=              0.0000   YZ=             -0.0000
 Octapole moment (field-independent basis, Debye-Ang**2):
  XXX=             10.2472  YYY=             -1.0575  ZZZ=             -0.0000  XYY=             -0.9428
  XXY=             -0.3260  XXZ=              0.0000  XZZ=             -0.9890  YZZ=              0.1958
  YYZ=              0.0000  XYZ=             -0.0000
 Hexadecapole moment (field-independent basis, Debye-Ang**3):
 XXXX=            -71.9726 YYYY=            -39.3219 ZZZZ=            -13.9339 XXXY=             12.0244
 XXXZ=              0.0000 YYYX=             11.7382 YYYZ=              0.0000 ZZZX=             -0.0000
 ZZZY=              0.0000 XXYY=            -22.2603 XXZZ=            -17.5508 YYZZ=             -8.7085
 XXYZ=             -0.0000 YYXZ=              0.0000 ZZXY=              4.1546
 N-N= 6.936639918566D+01 E-N=-6.232665486248D+02  KE= 2.052184620207D+02
 Symmetry A'   KE= 1.963949722036D+02
 Symmetry A"   KE= 8.823489817060D+00
 No NMR shielding tensors so no spin-rotation constants.
 Leave Link  601 at Mon Jan 24 13:56:10 2022, MaxMem= 16106127360 cpu:               4.4 elap:               0.2
 (Enter /sw/contrib/gaussian/g16/B01/g16/l9999.exe)
 1\1\GINC-N2095\SP\RMP2-FC\Aug-CC-pVTZ\H1N1O2\CGAVINH\24-Jan-2022\0\\#p
  SP mp2/aug-cc-pvtz density=current\\title\\0,1\H\O,1,0.97026274\N,2,1
 .42776435,1,101.62778538\O,3,1.18180217,2,110.70859147,1,180.,0\\Versi
 on=ES64L-G16RevB.01\State=1-A'\HF=-204.7225327\MP2=-205.4213227\RMSD=5
 .556e-09\Dipole=-0.0956436,0.,-0.7394998\Quadrupole=-1.3675331,-0.1446
 91,1.5122241,0.,1.2833747,0.\PG=CS [SG(H1N1O2)]\\@


 SIGN SEEN IN A RESTAURANT-
 WE RESERVE THE RIGHT TO SERVE REFUSE TO ANYONE.
 Job cpu time:       0 days  0 hours  3 minutes 20.8 seconds.
 Elapsed time:       0 days  0 hours  0 minutes  8.6 seconds.
 File lengths (MBytes):  RWF=     16 Int=      0 D2E=      0 Chk=      8 Scr=      1
 Normal termination of Gaussian 16 at Mon Jan 24 13:56:10 2022.
