title                                                                   
SP        RMP2-FC                                                     Aug-CC-pVTZ         
Number of atoms                            I                5
Info1-9                                    I   N=           9
          33          24           0           0           0         110
           1           2           1
Full Title                                 C   N=           1
title       
Route                                      C   N=           4
#p SP mp2/aug-cc-pvtz density=current           
Charge                                     I                0
Multiplicity                               I                1
Number of electrons                        I               32
Number of alpha electrons                  I               16
Number of beta electrons                   I               16
Number of basis functions                  I              207
Number of independent functions            I              207
Number of point charges in /Mol/           I                0
Number of translation vectors              I                0
Atomic numbers                             I   N=           5
           1           8           8           7           8
Nuclear charges                            R   N=           5
  1.00000000E+00  8.00000000E+00  8.00000000E+00  7.00000000E+00  8.00000000E+00
Current cartesian coordinates              R   N=          15
  2.94549656E+00  3.18041646E+00 -3.99830875E-33  2.76075555E+00  1.35866121E+00
  2.18049195E-32 -1.02278762E-16  1.27168493E+00  2.62568299E-32 -5.02040083E-01
 -1.43891714E+00 -2.26585359E-32 -2.68965755E+00 -1.76884569E+00 -6.57789670E-33
Number of symbols in /Mol/                 I                0
Force Field                                I                0
Atom Types                                 C   N=           5
                                                            
Int Atom Types                             I   N=           5
           0           0           0           0           0
MM charges                                 R   N=           5
  0.00000000E+00  0.00000000E+00  0.00000000E+00  0.00000000E+00  0.00000000E+00
Integer atomic weights                     I   N=           5
           1          16          16          14          16
Real atomic weights                        R   N=           5
  1.00782504E+00  1.59949146E+01  1.59949146E+01  1.40030740E+01  1.59949146E+01
Atom fragment info                         I   N=           5
           0           0           0           0           0
Atom residue num                           I   N=           5
           0           0           0           0           0
Nuclear spins                              I   N=           5
           1           0           0           2           0
Nuclear ZEff                               R   N=           5
 -1.00000000E+00 -5.60000000E+00 -5.60000000E+00 -4.55000000E+00 -5.60000000E+00
Nuclear ZNuc                               R   N=           5
  1.00000000E+00  8.00000000E+00  8.00000000E+00  7.00000000E+00  8.00000000E+00
Nuclear QMom                               R   N=           5
  0.00000000E+00  0.00000000E+00  0.00000000E+00  2.04400000E+00  0.00000000E+00
Nuclear GFac                               R   N=           5
  2.79284600E+00  0.00000000E+00  0.00000000E+00  4.03761000E-01  0.00000000E+00
MicOpt                                     I   N=           5
          -1          -1          -1          -1          -1
Number of residues                         I                0
Number of secondary structures             I                0
SymInf integers                            I   N=          26
           1           2           1           1           1           1
           1          -1           0           0           0           0
           0           0           0           0           0           0
           0           0           0           0           0           0
           0           0
RotTr to input orientation                 R   N=          12
 -9.94897504E-01 -9.87459300E-17 -1.00890815E-01  1.00890815E-01 -7.24350685E-17
 -9.94897504E-01  9.09340462E-17 -1.00000000E+00  8.20280261E-17  2.60959237E+00
  0.00000000E+00  3.46136195E+00
Number of contracted shells                I               65
Number of primitive shells                 I              119
Pure/Cartesian d shells                    I                0
Pure/Cartesian f shells                    I                0
Highest angular momentum                   I                3
Largest degree of contraction              I                7
Shell types                                I   N=          65
           0           0           0           0           1           1
           1          -2          -2           0           0           0
           0           0           1           1           1           1
          -2          -2          -2          -3          -3           0
           0           0           0           0           1           1
           1           1          -2          -2          -2          -3
          -3           0           0           0           0           0
           1           1           1           1          -2          -2
          -2          -3          -3           0           0           0
           0           0           1           1           1           1
          -2          -2          -2          -3          -3
Number of primitives per shell             I   N=          65
           3           1           1           1           1           1
           1           1           1           7           6           1
           1           1           3           1           1           1
           1           1           1           1           1           7
           6           1           1           1           3           1
           1           1           1           1           1           1
           1           7           6           1           1           1
           3           1           1           1           1           1
           1           1           1           7           6           1
           1           1           3           1           1           1
           1           1           1           1           1
Shell to atom map                          I   N=          65
           1           1           1           1           1           1
           1           1           1           2           2           2
           2           2           2           2           2           2
           2           2           2           2           2           3
           3           3           3           3           3           3
           3           3           3           3           3           3
           3           4           4           4           4           4
           4           4           4           4           4           4
           4           4           4           5           5           5
           5           5           5           5           5           5
           5           5           5           5           5
Primitive exponents                        R   N=         119
  3.38700000E+01  5.09500000E+00  1.15900000E+00  3.25800000E-01  1.02700000E-01
  2.52600000E-02  1.40700000E+00  3.88000000E-01  1.02000000E-01  1.05700000E+00
  2.47000000E-01  1.53300000E+04  2.29900000E+03  5.22400000E+02  1.47300000E+02
  4.75500000E+01  1.67600000E+01  6.20700000E+00  5.22400000E+02  1.47300000E+02
  4.75500000E+01  1.67600000E+01  6.20700000E+00  6.88200000E-01  1.75200000E+00
  2.38400000E-01  7.37600000E-02  3.44600000E+01  7.74900000E+00  2.28000000E+00
  7.15600000E-01  2.14000000E-01  5.97400000E-02  2.31400000E+00  6.45000000E-01
  2.14000000E-01  1.42800000E+00  5.00000000E-01  1.53300000E+04  2.29900000E+03
  5.22400000E+02  1.47300000E+02  4.75500000E+01  1.67600000E+01  6.20700000E+00
  5.22400000E+02  1.47300000E+02  4.75500000E+01  1.67600000E+01  6.20700000E+00
  6.88200000E-01  1.75200000E+00  2.38400000E-01  7.37600000E-02  3.44600000E+01
  7.74900000E+00  2.28000000E+00  7.15600000E-01  2.14000000E-01  5.97400000E-02
  2.31400000E+00  6.45000000E-01  2.14000000E-01  1.42800000E+00  5.00000000E-01
  1.14200000E+04  1.71200000E+03  3.89300000E+02  1.10000000E+02  3.55700000E+01
  1.25400000E+01  4.64400000E+00  3.89300000E+02  1.10000000E+02  3.55700000E+01
  1.25400000E+01  4.64400000E+00  5.11800000E-01  1.29300000E+00  1.78700000E-01
  5.76000000E-02  2.66300000E+01  5.94800000E+00  1.74200000E+00  5.55000000E-01
  1.72500000E-01  4.91000000E-02  1.65400000E+00  4.69000000E-01  1.51000000E-01
  1.09300000E+00  3.64000000E-01  1.53300000E+04  2.29900000E+03  5.22400000E+02
  1.47300000E+02  4.75500000E+01  1.67600000E+01  6.20700000E+00  5.22400000E+02
  1.47300000E+02  4.75500000E+01  1.67600000E+01  6.20700000E+00  6.88200000E-01
  1.75200000E+00  2.38400000E-01  7.37600000E-02  3.44600000E+01  7.74900000E+00
  2.28000000E+00  7.15600000E-01  2.14000000E-01  5.97400000E-02  2.31400000E+00
  6.45000000E-01  2.14000000E-01  1.42800000E+00  5.00000000E-01
Contraction coefficients                   R   N=         119
  2.54948632E-02  1.90362766E-01  8.52162022E-01  1.00000000E+00  1.00000000E+00
  1.00000000E+00  1.00000000E+00  1.00000000E+00  1.00000000E+00  1.00000000E+00
  1.00000000E+00  5.19808943E-04  4.02025621E-03  2.07128267E-02  8.10105536E-02
  2.35962985E-01  4.42653446E-01  3.57064423E-01 -4.42115008E-05 -1.22591041E-03
 -1.05517725E-02 -6.74452633E-02 -1.71198607E-01  1.07329856E+00  1.00000000E+00
  1.00000000E+00  1.00000000E+00  4.11634896E-02  2.57762836E-01  8.02419274E-01
  1.00000000E+00  1.00000000E+00  1.00000000E+00  1.00000000E+00  1.00000000E+00
  1.00000000E+00  1.00000000E+00  1.00000000E+00  5.19808943E-04  4.02025621E-03
  2.07128267E-02  8.10105536E-02  2.35962985E-01  4.42653446E-01  3.57064423E-01
 -4.42115008E-05 -1.22591041E-03 -1.05517725E-02 -6.74452633E-02 -1.71198607E-01
  1.07329856E+00  1.00000000E+00  1.00000000E+00  1.00000000E+00  4.11634896E-02
  2.57762836E-01  8.02419274E-01  1.00000000E+00  1.00000000E+00  1.00000000E+00
  1.00000000E+00  1.00000000E+00  1.00000000E+00  1.00000000E+00  1.00000000E+00
  5.34563860E-04  4.13435660E-03  2.12335358E-02  8.25006224E-02  2.38138871E-01
  4.42551547E-01  3.53757422E-01 -4.89867350E-05 -1.19527323E-03 -1.03490714E-02
 -6.48680190E-02 -1.71552477E-01  1.07289568E+00  1.00000000E+00  1.00000000E+00
  1.00000000E+00  3.98072123E-02  2.49002660E-01  8.10479727E-01  1.00000000E+00
  1.00000000E+00  1.00000000E+00  1.00000000E+00  1.00000000E+00  1.00000000E+00
  1.00000000E+00  1.00000000E+00  5.19808943E-04  4.02025621E-03  2.07128267E-02
  8.10105536E-02  2.35962985E-01  4.42653446E-01  3.57064423E-01 -4.42115008E-05
 -1.22591041E-03 -1.05517725E-02 -6.74452633E-02 -1.71198607E-01  1.07329856E+00
  1.00000000E+00  1.00000000E+00  1.00000000E+00  4.11634896E-02  2.57762836E-01
  8.02419274E-01  1.00000000E+00  1.00000000E+00  1.00000000E+00  1.00000000E+00
  1.00000000E+00  1.00000000E+00  1.00000000E+00  1.00000000E+00
Coordinates of each shell                  R   N=         195
  2.94549656E+00  3.18041646E+00  0.00000000E+00  2.94549656E+00  3.18041646E+00
  0.00000000E+00  2.94549656E+00  3.18041646E+00  0.00000000E+00  2.94549656E+00
  3.18041646E+00  0.00000000E+00  2.94549656E+00  3.18041646E+00  0.00000000E+00
  2.94549656E+00  3.18041646E+00  0.00000000E+00  2.94549656E+00  3.18041646E+00
  0.00000000E+00  2.94549656E+00  3.18041646E+00  0.00000000E+00  2.94549656E+00
  3.18041646E+00  0.00000000E+00  2.76075555E+00  1.35866121E+00  0.00000000E+00
  2.76075555E+00  1.35866121E+00  0.00000000E+00  2.76075555E+00  1.35866121E+00
  0.00000000E+00  2.76075555E+00  1.35866121E+00  0.00000000E+00  2.76075555E+00
  1.35866121E+00  0.00000000E+00  2.76075555E+00  1.35866121E+00  0.00000000E+00
  2.76075555E+00  1.35866121E+00  0.00000000E+00  2.76075555E+00  1.35866121E+00
  0.00000000E+00  2.76075555E+00  1.35866121E+00  0.00000000E+00  2.76075555E+00
  1.35866121E+00  0.00000000E+00  2.76075555E+00  1.35866121E+00  0.00000000E+00
  2.76075555E+00  1.35866121E+00  0.00000000E+00  2.76075555E+00  1.35866121E+00
  0.00000000E+00  2.76075555E+00  1.35866121E+00  0.00000000E+00  6.55343069E-18
  1.27168493E+00  0.00000000E+00  6.55343069E-18  1.27168493E+00  0.00000000E+00
  6.55343069E-18  1.27168493E+00  0.00000000E+00  6.55343069E-18  1.27168493E+00
  0.00000000E+00  6.55343069E-18  1.27168493E+00  0.00000000E+00  6.55343069E-18
  1.27168493E+00  0.00000000E+00  6.55343069E-18  1.27168493E+00  0.00000000E+00
  6.55343069E-18  1.27168493E+00  0.00000000E+00  6.55343069E-18  1.27168493E+00
  0.00000000E+00  6.55343069E-18  1.27168493E+00  0.00000000E+00  6.55343069E-18
  1.27168493E+00  0.00000000E+00  6.55343069E-18  1.27168493E+00  0.00000000E+00
  6.55343069E-18  1.27168493E+00  0.00000000E+00  6.55343069E-18  1.27168493E+00
  0.00000000E+00 -5.02040083E-01 -1.43891714E+00  0.00000000E+00 -5.02040083E-01
 -1.43891714E+00  0.00000000E+00 -5.02040083E-01 -1.43891714E+00  0.00000000E+00
 -5.02040083E-01 -1.43891714E+00  0.00000000E+00 -5.02040083E-01 -1.43891714E+00
  0.00000000E+00 -5.02040083E-01 -1.43891714E+00  0.00000000E+00 -5.02040083E-01
 -1.43891714E+00  0.00000000E+00 -5.02040083E-01 -1.43891714E+00  0.00000000E+00
 -5.02040083E-01 -1.43891714E+00  0.00000000E+00 -5.02040083E-01 -1.43891714E+00
  0.00000000E+00 -5.02040083E-01 -1.43891714E+00  0.00000000E+00 -5.02040083E-01
 -1.43891714E+00  0.00000000E+00 -5.02040083E-01 -1.43891714E+00  0.00000000E+00
 -5.02040083E-01 -1.43891714E+00  0.00000000E+00 -2.68965755E+00 -1.76884569E+00
  0.00000000E+00 -2.68965755E+00 -1.76884569E+00  0.00000000E+00 -2.68965755E+00
 -1.76884569E+00  0.00000000E+00 -2.68965755E+00 -1.76884569E+00  0.00000000E+00
 -2.68965755E+00 -1.76884569E+00  0.00000000E+00 -2.68965755E+00 -1.76884569E+00
  0.00000000E+00 -2.68965755E+00 -1.76884569E+00  0.00000000E+00 -2.68965755E+00
 -1.76884569E+00  0.00000000E+00 -2.68965755E+00 -1.76884569E+00  0.00000000E+00
 -2.68965755E+00 -1.76884569E+00  0.00000000E+00 -2.68965755E+00 -1.76884569E+00
  0.00000000E+00 -2.68965755E+00 -1.76884569E+00  0.00000000E+00 -2.68965755E+00
 -1.76884569E+00  0.00000000E+00 -2.68965755E+00 -1.76884569E+00  0.00000000E+00
Num ILSW                                   I              100
ILSW                                       I   N=         100
           0           0           0           0           2           0
           0           0           0           0           0          -1
           5           0           0           0           0           0
           0           0           0           0           0           0
           1           0           0           0           0           0
           0           0      100000           0          -1           0
           0           0           0           0           0           0
           0           0           0           1           0           0
           0 -2000000000           1           0           0           0
           0           0           4          52           0           0
           0           0           0           0           0           0
           0           0           0           5           0           1
           0           0           0           0           0           0
           0           0           0           0           0           0
           0           0           0           0           0           0
           0           0           0           0           0           0
           0           0           0           0
Num RLSW                                   I               52
RLSW                                       R   N=          52
  1.00000000E+00  1.00000000E+00  1.00000000E+00  1.00000000E+00  1.00000000E+00
  0.00000000E+00  0.00000000E+00  1.00000000E+00  0.00000000E+00  0.00000000E+00
  0.00000000E+00  0.00000000E+00  1.00000000E+00  0.00000000E+00  0.00000000E+00
  0.00000000E+00  0.00000000E+00  1.00000000E+00  0.00000000E+00  0.00000000E+00
  0.00000000E+00  0.00000000E+00  1.00000000E+00  0.00000000E+00  0.00000000E+00
  0.00000000E+00  0.00000000E+00  1.00000000E+00  0.00000000E+00  0.00000000E+00
  0.00000000E+00  0.00000000E+00  1.00000000E+00  0.00000000E+00  0.00000000E+00
  0.00000000E+00  0.00000000E+00  0.00000000E+00  1.00000000E+00  1.00000000E+00
  0.00000000E+00  1.00000000E+00  0.00000000E+00  0.00000000E+00  0.00000000E+00
  0.00000000E+00  0.00000000E+00  0.00000000E+00  0.00000000E+00  0.00000000E+00
  0.00000000E+00  0.00000000E+00
MxBond                                     I                2
NBond                                      I   N=           5
           1           2           2           2           1
IBond                                      I   N=          10
           2           0           1           3           2           4
           3           5           4           0
RBond                                      R   N=          10
  1.00000000E+00  0.00000000E+00  1.00000000E+00  1.00000000E+00  1.00000000E+00
  1.00000000E+00  1.00000000E+00  2.00000000E+00  2.00000000E+00  0.00000000E+00
Virial Ratio                               R      2.002392875948857E+00
SCF Energy                                 R     -2.795011096950749E+02
MP2 Energy                                 R     -2.804467091348285E+02
Total Energy                               R     -2.804467091348285E+02
Post-SCF wavefunction norm                 R      1.120497707316607E+00
RMS Density                                R      3.856631508510736E-09
Job Status                                 I                1
Nuclear derivative order                   I                0
External E-field                           R   N=          35
  0.00000000E+00  0.00000000E+00  0.00000000E+00  0.00000000E+00  0.00000000E+00
  0.00000000E+00  0.00000000E+00  0.00000000E+00  0.00000000E+00  0.00000000E+00
  0.00000000E+00  0.00000000E+00  0.00000000E+00  0.00000000E+00  0.00000000E+00
  0.00000000E+00  0.00000000E+00  0.00000000E+00  0.00000000E+00  0.00000000E+00
  0.00000000E+00  0.00000000E+00  0.00000000E+00  0.00000000E+00  0.00000000E+00
  0.00000000E+00  0.00000000E+00  0.00000000E+00  0.00000000E+00  0.00000000E+00
  0.00000000E+00  0.00000000E+00  0.00000000E+00  0.00000000E+00  0.00000000E+00
IOpCl                                      I                0
IROHF                                      I                0
Alpha Orbital Energies                     R   N=         207
 -2.06912631E+01 -2.06844138E+01 -2.06605604E+01 -1.58129680E+01 -1.62383710E+00
 -1.49308560E+00 -1.25560723E+00 -9.47974450E-01 -7.72078934E-01 -7.58643958E-01
 -7.11193876E-01 -6.79365057E-01 -6.19815231E-01 -5.88498287E-01 -4.86425555E-01
 -4.72653521E-01  2.96148061E-02  7.16644205E-02  8.57746456E-02  1.01688329E-01
  1.33616478E-01  1.33963154E-01  1.44043219E-01  1.54502952E-01  1.78273092E-01
  1.94236389E-01  1.99834482E-01  2.06294503E-01  2.19778023E-01  2.32784923E-01
  2.37324657E-01  2.65998920E-01  2.93377587E-01  3.03827400E-01  3.10302458E-01
  3.43036452E-01  3.49477704E-01  3.87117177E-01  4.21667307E-01  4.31531420E-01
  5.27227806E-01  5.29109307E-01  5.58390762E-01  5.81462101E-01  6.25823135E-01
  6.38339699E-01  6.74501342E-01  6.84540126E-01  7.05842553E-01  7.11331896E-01
  7.23745965E-01  7.29566273E-01  7.44726119E-01  7.91082263E-01  7.91975176E-01
  8.10316780E-01  8.12592432E-01  8.30124019E-01  8.68162242E-01  9.07617533E-01
  9.21833564E-01  9.25747863E-01  9.56874053E-01  9.77177541E-01  9.84193155E-01
  1.01643996E+00  1.05152473E+00  1.05497049E+00  1.08173554E+00  1.11693142E+00
  1.14019493E+00  1.18902881E+00  1.22077258E+00  1.23217653E+00  1.33866429E+00
  1.35004923E+00  1.38616375E+00  1.45326354E+00  1.48790582E+00  1.50944103E+00
  1.53764145E+00  1.56640115E+00  1.57930213E+00  1.61284303E+00  1.66307584E+00
  1.66921069E+00  1.70317658E+00  1.79232768E+00  1.83080570E+00  1.83456493E+00
  1.87762440E+00  1.90956737E+00  1.95611542E+00  1.99133628E+00  2.00640293E+00
  2.07731916E+00  2.11952047E+00  2.13191375E+00  2.14849926E+00  2.22412695E+00
  2.26315938E+00  2.26419620E+00  2.28917519E+00  2.31359900E+00  2.34213469E+00
  2.38691336E+00  2.42335375E+00  2.42777735E+00  2.45367643E+00  2.46292828E+00
  2.47589220E+00  2.50059331E+00  2.58862519E+00  2.59571457E+00  2.61905855E+00
  2.62351441E+00  2.63267487E+00  2.66534121E+00  2.75708707E+00  2.82446784E+00
  2.85376221E+00  2.88092898E+00  2.89065068E+00  2.92192153E+00  2.95641658E+00
  3.02063827E+00  3.06821480E+00  3.12305938E+00  3.19638421E+00  3.22439802E+00
  3.31429173E+00  3.34408382E+00  3.51462407E+00  3.64232675E+00  3.83834603E+00
  3.84288762E+00  4.14748792E+00  4.16081408E+00  4.18274830E+00  4.25678508E+00
  4.35001556E+00  4.39172871E+00  4.45689998E+00  4.52020323E+00  4.66081406E+00
  4.70706812E+00  4.80450378E+00  4.82466573E+00  4.82926618E+00  4.89518437E+00
  5.02272372E+00  5.07724895E+00  5.10206078E+00  5.14448420E+00  5.17879490E+00
  5.24158485E+00  5.27210331E+00  5.30807859E+00  5.32867807E+00  5.35353903E+00
  5.60260448E+00  5.67353039E+00  5.76757305E+00  5.81727958E+00  5.95489094E+00
  6.16712552E+00  6.31929550E+00  6.33725270E+00  6.39594295E+00  6.49413355E+00
  6.50548558E+00  6.61534131E+00  6.67237075E+00  6.70033534E+00  6.75822671E+00
  6.76039978E+00  6.83246120E+00  6.89768820E+00  7.00803675E+00  7.04768198E+00
  7.05145274E+00  7.08513349E+00  7.12352900E+00  7.14512825E+00  7.17930632E+00
  7.22329897E+00  7.23989422E+00  7.30612378E+00  7.32492585E+00  7.34737715E+00
  7.39776387E+00  7.42317001E+00  7.48384157E+00  7.60300718E+00  7.61557769E+00
  7.62364839E+00  7.66330885E+00  7.78248819E+00  7.88517047E+00  8.08179353E+00
  8.30584763E+00  8.40195309E+00  8.54433181E+00  1.33712370E+01  1.43850030E+01
  1.51541490E+01  1.61515602E+01
Alpha MO coefficients                      R   N=       42849
  9.38623824E-05 -6.46022555E-04 -7.40452531E-04 -6.06910698E-06 -2.32320655E-05
 -2.74004276E-05  0.00000000E+00 -4.56144705E-05  6.94907070E-05  0.00000000E+00
  8.86693058E-05  4.19761511E-05  0.00000000E+00  3.32564311E-05  0.00000000E+00
  0.00000000E+00 -4.86527961E-05  2.18792809E-05 -3.17499549E-06  0.00000000E+00
  0.00000000E+00 -1.36278919E-04  1.17960391E-04  4.52732569E-03 -2.89907594E-04
  1.93932170E-05  1.50420361E-03  1.78973230E-03  1.03165446E-04  7.05154777E-06
  0.00000000E+00 -5.85576340E-04 -3.14034890E-05  0.00000000E+00 -1.05374839E-03
  7.99866979E-04  0.00000000E+00 -3.94528258E-04  6.65948111E-05  0.00000000E+00
  3.05015073E-05  0.00000000E+00  0.00000000E+00 -5.72971528E-05  5.99028530E-06
 -3.70524803E-04  0.00000000E+00  0.00000000E+00  7.25187387E-04 -3.58310526E-05
 -4.41161982E-04  0.00000000E+00  0.00000000E+00  2.37010143E-04 -1.70546437E-05
  0.00000000E+00  7.81428966E-05  1.25041151E-05  0.00000000E+00  0.00000000E+00
 -1.06965452E-04 -2.42591908E-06  0.00000000E+00  2.54637386E-04 -2.87316938E-05
  0.00000000E+00  0.00000000E+00 -3.55123264E-04  5.62918463E-05  9.76916609E-01
 -9.21454376E-03  4.33068773E-02  2.10888422E-03 -8.80793147E-04  1.47484605E-03
 -1.36099481E-03  0.00000000E+00 -1.40790848E-03  1.39122675E-03  0.00000000E+00
  1.16845779E-04 -1.15964203E-03  0.00000000E+00 -1.26470092E-04 -1.13441101E-05
  0.00000000E+00  4.78685033E-05  0.00000000E+00  0.00000000E+00 -3.80250036E-05
  2.13277955E-05  7.39219780E-04  0.00000000E+00  0.00000000E+00 -2.20076350E-04
 -3.86174908E-04 -3.65310835E-04  0.00000000E+00  0.00000000E+00 -3.04426318E-04
 -3.69689666E-04  0.00000000E+00  4.61720463E-05 -4.94529414E-05  0.00000000E+00
  0.00000000E+00 -3.78570006E-05 -1.51203556E-05  0.00000000E+00  1.96050875E-05
  2.24708665E-05  0.00000000E+00  0.00000000E+00 -2.99862402E-04 -1.38275892E-04
  3.90769752E-05  4.56128216E-05 -2.65115289E-04 -6.95253125E-04 -1.33100180E-04
 -2.75604013E-05 -9.74672058E-05  0.00000000E+00  2.72635140E-04  7.07963080E-04
  0.00000000E+00 -8.39156731E-04 -4.82054568E-04  0.00000000E+00 -1.25794029E-04
 -2.64169464E-05  0.00000000E+00 -1.82259307E-05  0.00000000E+00  0.00000000E+00
 -2.95175184E-05  1.48750191E-05 -3.29290176E-04  0.00000000E+00  0.00000000E+00
 -8.27571749E-04  1.37969363E-04 -3.79168760E-05  0.00000000E+00  0.00000000E+00
  9.87602383E-05 -1.12205036E-04  0.00000000E+00 -2.11029602E-05 -1.20186219E-04
  0.00000000E+00  0.00000000E+00 -6.43474412E-05 -1.37685124E-04  0.00000000E+00
  2.41363639E-06 -1.52322879E-04  0.00000000E+00  0.00000000E+00  3.86698418E-05
 -4.20311395E-04 -2.47001215E-03  1.20090808E-04 -1.18895777E-04 -2.52432989E-04
  1.28720411E-04 -7.77128522E-06 -2.79552340E-05  0.00000000E+00  6.83968986E-05
  1.64939529E-04  0.00000000E+00  2.31491554E-04  2.04678739E-04  0.00000000E+00
  1.24984107E-04  2.39952910E-05  0.00000000E+00 -3.31469134E-06  0.00000000E+00
  0.00000000E+00 -1.78541027E-05  1.19121479E-06  5.00529541E-07  0.00000000E+00
  0.00000000E+00  7.97947405E-05  8.88474944E-05 -1.00403035E-04  0.00000000E+00
  0.00000000E+00  1.66937785E-04  1.62628398E-04  0.00000000E+00  1.58465553E-05
 -3.68424314E-06  0.00000000E+00  0.00000000E+00 -4.62103011E-06 -1.17588986E-05
  0.00000000E+00 -3.35593930E-05  4.55729974E-05  0.00000000E+00  0.00000000E+00
  8.39988247E-05  8.96682352E-05  3.85914671E-05 -9.84327720E-04 -4.86077886E-04
 -1.05218442E-05 -2.20398433E-05  1.63640636E-05  0.00000000E+00  1.29676050E-06
  2.74412937E-04  0.00000000E+00 -4.11858861E-05  1.33680299E-04  0.00000000E+00
  2.58471759E-05  0.00000000E+00  0.00000000E+00  1.30065648E-05  1.08589688E-05
 -2.68811048E-05  0.00000000E+00  0.00000000E+00  1.13746216E-05  3.41113458E-05
  1.12449631E-04  8.24492899E-05 -2.78975387E-05  7.53217459E-04  6.54503104E-04
  1.02524799E-05  2.30886175E-06  0.00000000E+00 -7.18027040E-05  1.83275290E-05
  0.00000000E+00  3.30737363E-04  8.87794880E-04  0.00000000E+00  2.46199594E-06
  8.00964652E-05  0.00000000E+00 -2.13980907E-06  0.00000000E+00  0.00000000E+00
 -2.31176355E-07 -6.33460285E-06 -3.62659271E-05  0.00000000E+00  0.00000000E+00
 -2.02695084E-05  8.39424687E-05 -2.35468375E-05  0.00000000E+00  0.00000000E+00
 -2.67605473E-04 -1.55633694E-04  0.00000000E+00  9.25957005E-06  5.82883357E-06
  0.00000000E+00  0.00000000E+00  2.40409367E-06 -1.87437706E-05  0.00000000E+00
 -4.03230491E-05 -3.73421726E-05  0.00000000E+00  0.00000000E+00 -7.49636620E-05
  1.94992919E-05  2.50898359E-03  4.10643522E-05  8.62181411E-05 -7.16403505E-05
 -4.67618731E-04  6.85506983E-06  1.59105091E-05  0.00000000E+00 -6.07379755E-05
 -5.52639727E-05  0.00000000E+00  2.32528728E-04 -1.81953324E-04  0.00000000E+00
 -1.88725252E-04 -6.34390724E-05  0.00000000E+00 -8.74808148E-06  0.00000000E+00
  0.00000000E+00  2.23844518E-05  1.96555846E-05  4.18715083E-06  0.00000000E+00
  0.00000000E+00 -1.16658409E-04 -4.56125475E-05 -4.03163202E-06  0.00000000E+00
  0.00000000E+00 -2.22375627E-04 -2.00673368E-04  0.00000000E+00  3.03509198E-06
 -5.77558981E-07  0.00000000E+00  0.00000000E+00  1.57348092E-06 -1.35777244E-05
  0.00000000E+00 -4.58973436E-05  3.75277066E-06  0.00000000E+00  0.00000000E+00
 -7.36932096E-05  1.88308817E-04  2.58744274E-04  1.46535570E-03 -7.82194935E-05
 -1.54002260E-03  3.94826553E-04 -1.44635417E-04  5.17835981E-07  0.00000000E+00
 -2.08855160E-03 -3.97286369E-04  0.00000000E+00  1.03537017E-03  7.55116208E-04
  0.00000000E+00 -1.71387536E-04  5.52372509E-05  0.00000000E+00 -1.23378351E-04
  0.00000000E+00  0.00000000E+00  2.43578352E-04  9.26708596E-05 -4.42005194E-04
  0.00000000E+00  0.00000000E+00  8.98485644E-04 -7.04905899E-05  1.21388441E-05
  0.00000000E+00  0.00000000E+00 -3.38130360E-04 -1.21564057E-04  0.00000000E+00
 -1.43011031E-06  1.52187969E-05  0.00000000E+00  0.00000000E+00  1.89676501E-05
  1.34314387E-05  0.00000000E+00  1.65247061E-04 -7.15757015E-05  0.00000000E+00
  0.00000000E+00 -2.40610356E-04  4.26442045E-05  9.76649652E-01 -9.84850966E-03
  4.35676160E-02  4.49824585E-03 -4.46302786E-04  2.14936415E-03  4.75269396E-04
  0.00000000E+00 -2.38552362E-03 -5.96594065E-04  0.00000000E+00  1.13972610E-03
 -5.87537566E-06  0.00000000E+00  4.81830997E-06 -4.23654369E-05  0.00000000E+00
 -2.32297839E-04  0.00000000E+00  0.00000000E+00  1.02953470E-04  3.11670226E-05
  3.90477939E-04  0.00000000E+00  0.00000000E+00 -8.36015144E-04 -4.14107838E-04
 -1.54101772E-04  0.00000000E+00  0.00000000E+00  2.56913573E-04  1.61163846E-05
  0.00000000E+00  5.22953774E-05  1.75297016E-05  0.00000000E+00  0.00000000E+00
 -2.22347105E-05 -1.31242164E-05  0.00000000E+00  1.38206269E-04  8.90645455E-06
  0.00000000E+00  0.00000000E+00 -1.90653443E-04 -1.38857826E-04  4.76128073E-04
  2.07701715E-03  1.27717489E-04  1.55692533E-05 -4.23645094E-05 -2.48980321E-04
  0.00000000E+00  1.05353962E-04 -1.28225334E-03  0.00000000E+00  3.04380495E-04
 -3.42677346E-04  0.00000000E+00 -2.89791263E-06  0.00000000E+00  0.00000000E+00
  7.41418710E-05  1.54751551E-05 -1.60764896E-04  0.00000000E+00  0.00000000E+00
 -5.37836365E-04 -1.82624521E-05  9.76835127E-01 -9.16380729E-03  4.34382038E-02
  2.19405130E-04 -1.10598840E-03 -1.54274956E-03  1.45026291E-03  0.00000000E+00
  1.54682855E-03 -1.29743008E-03  0.00000000E+00 -6.19380806E-04 -8.70766341E-04
  0.00000000E+00  4.99252071E-05 -2.86684719E-05  0.00000000E+00  3.12972564E-05
  0.00000000E+00  0.00000000E+00 -1.21050957E-04 -1.96362641E-06  7.50584726E-04
  0.00000000E+00  0.00000000E+00 -1.86968112E-04 -2.34229903E-04 -2.72172318E-04
  0.00000000E+00  0.00000000E+00  1.85792470E-04  1.26771874E-04  0.00000000E+00
 -6.30356429E-05  2.09424478E-06  0.00000000E+00  0.00000000E+00  1.77231221E-05
  1.03436903E-05  0.00000000E+00  3.87738064E-06  1.22429605E-04  0.00000000E+00
  0.00000000E+00  2.51950575E-04  9.05352707E-05 -4.62207377E-03 -2.20429896E-04