title                                                                   
SP        RMP2-FC                                                     Aug-CC-pVTZ         
Number of atoms                            I                5
Info1-9                                    I   N=           9
          33          24           0           0           0         110
           1           2           1
Full Title                                 C   N=           1
title       
Route                                      C   N=           4
#p SP mp2/aug-cc-pvtz density=current           
Charge                                     I                0
Multiplicity                               I                1
Number of electrons                        I               32
Number of alpha electrons                  I               16
Number of beta electrons                   I               16
Number of basis functions                  I              207
Number of independent functions            I              207
Number of point charges in /Mol/           I                0
Number of translation vectors              I                0
Atomic numbers                             I   N=           5
           1           8           8           7           8
Nuclear charges                            R   N=           5
  1.00000000E+00  8.00000000E+00  8.00000000E+00  7.00000000E+00  8.00000000E+00
Current cartesian coordinates              R   N=          15
  2.92491441E+00  3.20125550E+00  2.18393980E-31  2.74765687E+00  1.37875688E+00
  5.53059778E-32 -6.63670287E-17  1.28089594E+00  3.00032282E-32 -4.94414487E-01
 -1.45114639E+00 -7.26668771E-32 -2.68065849E+00 -1.79005666E+00 -2.76558906E-32
Number of symbols in /Mol/                 I                0
Force Field                                I                0
Atom Types                                 C   N=           5
                                                            
Int Atom Types                             I   N=           5
           0           0           0           0           0
MM charges                                 R   N=           5
  0.00000000E+00  0.00000000E+00  0.00000000E+00  0.00000000E+00  0.00000000E+00
Integer atomic weights                     I   N=           5
           1          16          16          14          16
Real atomic weights                        R   N=           5
  1.00782504E+00  1.59949146E+01  1.59949146E+01  1.40030740E+01  1.59949146E+01
Atom fragment info                         I   N=           5
           0           0           0           0           0
Atom residue num                           I   N=           5
           0           0           0           0           0
Nuclear spins                              I   N=           5
           1           0           0           2           0
Nuclear ZEff                               R   N=           5
 -1.00000000E+00 -5.60000000E+00 -5.60000000E+00 -4.55000000E+00 -5.60000000E+00
Nuclear ZNuc                               R   N=           5
  1.00000000E+00  8.00000000E+00  8.00000000E+00  7.00000000E+00  8.00000000E+00
Nuclear QMom                               R   N=           5
  0.00000000E+00  0.00000000E+00  0.00000000E+00  2.04400000E+00  0.00000000E+00
Nuclear GFac                               R   N=           5
  2.79284600E+00  0.00000000E+00  0.00000000E+00  4.03761000E-01  0.00000000E+00
MicOpt                                     I   N=           5
          -1          -1          -1          -1          -1
Number of residues                         I                0
Number of secondary structures             I                0
SymInf integers                            I   N=          26
           1           2           1           1           1           1
           1          -1           0           0           0           0
           0           0           0           0           0           0
           0           0           0           0           0           0
           0           0
RotTr to input orientation                 R   N=          12
 -9.95303470E-01 -9.81201845E-17 -9.68039411E-02  9.68039411E-02 -7.32804696E-17
 -9.95303470E-01  9.05655218E-17 -1.00000000E+00  8.24347262E-17  2.60128331E+00
  0.00000000E+00  3.46936395E+00
Number of contracted shells                I               65
Number of primitive shells                 I              119
Pure/Cartesian d shells                    I                0
Pure/Cartesian f shells                    I                0
Highest angular momentum                   I                3
Largest degree of contraction              I                7
Shell types                                I   N=          65
           0           0           0           0           1           1
           1          -2          -2           0           0           0
           0           0           1           1           1           1
          -2          -2          -2          -3          -3           0
           0           0           0           0           1           1
           1           1          -2          -2          -2          -3
          -3           0           0           0           0           0
           1           1           1           1          -2          -2
          -2          -3          -3           0           0           0
           0           0           1           1           1           1
          -2          -2          -2          -3          -3
Number of primitives per shell             I   N=          65
           3           1           1           1           1           1
           1           1           1           7           6           1
           1           1           3           1           1           1
           1           1           1           1           1           7
           6           1           1           1           3           1
           1           1           1           1           1           1
           1           7           6           1           1           1
           3           1           1           1           1           1
           1           1           1           7           6           1
           1           1           3           1           1           1
           1           1           1           1           1
Shell to atom map                          I   N=          65
           1           1           1           1           1           1
           1           1           1           2           2           2
           2           2           2           2           2           2
           2           2           2           2           2           3
           3           3           3           3           3           3
           3           3           3           3           3           3
           3           4           4           4           4           4
           4           4           4           4           4           4
           4           4           4           5           5           5
           5           5           5           5           5           5
           5           5           5           5           5
Primitive exponents                        R   N=         119
  3.38700000E+01  5.09500000E+00  1.15900000E+00  3.25800000E-01  1.02700000E-01
  2.52600000E-02  1.40700000E+00  3.88000000E-01  1.02000000E-01  1.05700000E+00
  2.47000000E-01  1.53300000E+04  2.29900000E+03  5.22400000E+02  1.47300000E+02
  4.75500000E+01  1.67600000E+01  6.20700000E+00  5.22400000E+02  1.47300000E+02
  4.75500000E+01  1.67600000E+01  6.20700000E+00  6.88200000E-01  1.75200000E+00
  2.38400000E-01  7.37600000E-02  3.44600000E+01  7.74900000E+00  2.28000000E+00
  7.15600000E-01  2.14000000E-01  5.97400000E-02  2.31400000E+00  6.45000000E-01
  2.14000000E-01  1.42800000E+00  5.00000000E-01  1.53300000E+04  2.29900000E+03
  5.22400000E+02  1.47300000E+02  4.75500000E+01  1.67600000E+01  6.20700000E+00
  5.22400000E+02  1.47300000E+02  4.75500000E+01  1.67600000E+01  6.20700000E+00
  6.88200000E-01  1.75200000E+00  2.38400000E-01  7.37600000E-02  3.44600000E+01
  7.74900000E+00  2.28000000E+00  7.15600000E-01  2.14000000E-01  5.97400000E-02
  2.31400000E+00  6.45000000E-01  2.14000000E-01  1.42800000E+00  5.00000000E-01
  1.14200000E+04  1.71200000E+03  3.89300000E+02  1.10000000E+02  3.55700000E+01
  1.25400000E+01  4.64400000E+00  3.89300000E+02  1.10000000E+02  3.55700000E+01
  1.25400000E+01  4.64400000E+00  5.11800000E-01  1.29300000E+00  1.78700000E-01
  5.76000000E-02  2.66300000E+01  5.94800000E+00  1.74200000E+00  5.55000000E-01
  1.72500000E-01  4.91000000E-02  1.65400000E+00  4.69000000E-01  1.51000000E-01
  1.09300000E+00  3.64000000E-01  1.53300000E+04  2.29900000E+03  5.22400000E+02
  1.47300000E+02  4.75500000E+01  1.67600000E+01  6.20700000E+00  5.22400000E+02
  1.47300000E+02  4.75500000E+01  1.67600000E+01  6.20700000E+00  6.88200000E-01
  1.75200000E+00  2.38400000E-01  7.37600000E-02  3.44600000E+01  7.74900000E+00
  2.28000000E+00  7.15600000E-01  2.14000000E-01  5.97400000E-02  2.31400000E+00
  6.45000000E-01  2.14000000E-01  1.42800000E+00  5.00000000E-01
Contraction coefficients                   R   N=         119
  2.54948632E-02  1.90362766E-01  8.52162022E-01  1.00000000E+00  1.00000000E+00
  1.00000000E+00  1.00000000E+00  1.00000000E+00  1.00000000E+00  1.00000000E+00
  1.00000000E+00  5.19808943E-04  4.02025621E-03  2.07128267E-02  8.10105536E-02
  2.35962985E-01  4.42653446E-01  3.57064423E-01 -4.42115008E-05 -1.22591041E-03
 -1.05517725E-02 -6.74452633E-02 -1.71198607E-01  1.07329856E+00  1.00000000E+00
  1.00000000E+00  1.00000000E+00  4.11634896E-02  2.57762836E-01  8.02419274E-01
  1.00000000E+00  1.00000000E+00  1.00000000E+00  1.00000000E+00  1.00000000E+00
  1.00000000E+00  1.00000000E+00  1.00000000E+00  5.19808943E-04  4.02025621E-03
  2.07128267E-02  8.10105536E-02  2.35962985E-01  4.42653446E-01  3.57064423E-01
 -4.42115008E-05 -1.22591041E-03 -1.05517725E-02 -6.74452633E-02 -1.71198607E-01
  1.07329856E+00  1.00000000E+00  1.00000000E+00  1.00000000E+00  4.11634896E-02
  2.57762836E-01  8.02419274E-01  1.00000000E+00  1.00000000E+00  1.00000000E+00
  1.00000000E+00  1.00000000E+00  1.00000000E+00  1.00000000E+00  1.00000000E+00
  5.34563860E-04  4.13435660E-03  2.12335358E-02  8.25006224E-02  2.38138871E-01
  4.42551547E-01  3.53757422E-01 -4.89867350E-05 -1.19527323E-03 -1.03490714E-02
 -6.48680190E-02 -1.71552477E-01  1.07289568E+00  1.00000000E+00  1.00000000E+00
  1.00000000E+00  3.98072123E-02  2.49002660E-01  8.10479727E-01  1.00000000E+00
  1.00000000E+00  1.00000000E+00  1.00000000E+00  1.00000000E+00  1.00000000E+00
  1.00000000E+00  1.00000000E+00  5.19808943E-04  4.02025621E-03  2.07128267E-02
  8.10105536E-02  2.35962985E-01  4.42653446E-01  3.57064423E-01 -4.42115008E-05
 -1.22591041E-03 -1.05517725E-02 -6.74452633E-02 -1.71198607E-01  1.07329856E+00
  1.00000000E+00  1.00000000E+00  1.00000000E+00  4.11634896E-02  2.57762836E-01
  8.02419274E-01  1.00000000E+00  1.00000000E+00  1.00000000E+00  1.00000000E+00
  1.00000000E+00  1.00000000E+00  1.00000000E+00  1.00000000E+00
Coordinates of each shell                  R   N=         195
  2.92491441E+00  3.20125550E+00  7.88155658E-32  2.92491441E+00  3.20125550E+00
  7.88155658E-32  2.92491441E+00  3.20125550E+00  7.88155658E-32  2.92491441E+00
  3.20125550E+00  7.88155658E-32  2.92491441E+00  3.20125550E+00  7.88155658E-32
  2.92491441E+00  3.20125550E+00  7.88155658E-32  2.92491441E+00  3.20125550E+00
  7.88155658E-32  2.92491441E+00  3.20125550E+00  7.88155658E-32  2.92491441E+00
  3.20125550E+00  7.88155658E-32  2.74765687E+00  1.37875688E+00  5.40606672E-32
  2.74765687E+00  1.37875688E+00  5.40606672E-32  2.74765687E+00  1.37875688E+00
  5.40606672E-32  2.74765687E+00  1.37875688E+00  5.40606672E-32  2.74765687E+00
  1.37875688E+00  5.40606672E-32  2.74765687E+00  1.37875688E+00  5.40606672E-32
  2.74765687E+00  1.37875688E+00  5.40606672E-32  2.74765687E+00  1.37875688E+00
  5.40606672E-32  2.74765687E+00  1.37875688E+00  5.40606672E-32  2.74765687E+00
  1.37875688E+00  5.40606672E-32  2.74765687E+00  1.37875688E+00  5.40606672E-32
  2.74765687E+00  1.37875688E+00  5.40606672E-32  2.74765687E+00  1.37875688E+00
  5.40606672E-32  2.74765687E+00  1.37875688E+00  5.40606672E-32  1.14111911E-17
  1.28089594E+00  1.57141114E-32  1.14111911E-17  1.28089594E+00  1.57141114E-32
  1.14111911E-17  1.28089594E+00  1.57141114E-32  1.14111911E-17  1.28089594E+00
  1.57141114E-32  1.14111911E-17  1.28089594E+00  1.57141114E-32  1.14111911E-17
  1.28089594E+00  1.57141114E-32  1.14111911E-17  1.28089594E+00  1.57141114E-32
  1.14111911E-17  1.28089594E+00  1.57141114E-32  1.14111911E-17  1.28089594E+00
  1.57141114E-32  1.14111911E-17  1.28089594E+00  1.57141114E-32  1.14111911E-17
  1.28089594E+00  1.57141114E-32  1.14111911E-17  1.28089594E+00  1.57141114E-32
  1.14111911E-17  1.28089594E+00  1.57141114E-32  1.14111911E-17  1.28089594E+00
  1.57141114E-32 -4.94414487E-01 -1.45114639E+00 -2.44868193E-32 -4.94414487E-01
 -1.45114639E+00 -2.44868193E-32 -4.94414487E-01 -1.45114639E+00 -2.44868193E-32
 -4.94414487E-01 -1.45114639E+00 -2.44868193E-32 -4.94414487E-01 -1.45114639E+00
 -2.44868193E-32 -4.94414487E-01 -1.45114639E+00 -2.44868193E-32 -4.94414487E-01
 -1.45114639E+00 -2.44868193E-32 -4.94414487E-01 -1.45114639E+00 -2.44868193E-32
 -4.94414487E-01 -1.45114639E+00 -2.44868193E-32 -4.94414487E-01 -1.45114639E+00
 -2.44868193E-32 -4.94414487E-01 -1.45114639E+00 -2.44868193E-32 -4.94414487E-01
 -1.45114639E+00 -2.44868193E-32 -4.94414487E-01 -1.45114639E+00 -2.44868193E-32
 -4.94414487E-01 -1.45114639E+00 -2.44868193E-32 -2.68065849E+00 -1.79005666E+00
 -5.82007574E-32 -2.68065849E+00 -1.79005666E+00 -5.82007574E-32 -2.68065849E+00
 -1.79005666E+00 -5.82007574E-32 -2.68065849E+00 -1.79005666E+00 -5.82007574E-32
 -2.68065849E+00 -1.79005666E+00 -5.82007574E-32 -2.68065849E+00 -1.79005666E+00
 -5.82007574E-32 -2.68065849E+00 -1.79005666E+00 -5.82007574E-32 -2.68065849E+00
 -1.79005666E+00 -5.82007574E-32 -2.68065849E+00 -1.79005666E+00 -5.82007574E-32
 -2.68065849E+00 -1.79005666E+00 -5.82007574E-32 -2.68065849E+00 -1.79005666E+00
 -5.82007574E-32 -2.68065849E+00 -1.79005666E+00 -5.82007574E-32 -2.68065849E+00
 -1.79005666E+00 -5.82007574E-32 -2.68065849E+00 -1.79005666E+00 -5.82007574E-32
Num ILSW                                   I              100
ILSW                                       I   N=         100
           0           0           0           0           2           0
           0           0           0           0           0          -1
           5           0           0           0           0           0
           0           0           0           0           0           0
           1           0           0           0           0           0
           0           0      100000           0          -1           0
           0           0           0           0           0           0
           0           0           0           1           0           0
           0 -2000000000           1           0           0           0
           0           0           4          52           0           0
           0           0           0           0           0           0
           0           0           0           5           0           1
           0           0           0           0           0           0
           0           0           0           0           0           0
           0           0           0           0           0           0
           0           0           0           0           0           0
           0           0           0           0
Num RLSW                                   I               52
RLSW                                       R   N=          52
  1.00000000E+00  1.00000000E+00  1.00000000E+00  1.00000000E+00  1.00000000E+00
  0.00000000E+00  0.00000000E+00  1.00000000E+00  0.00000000E+00  0.00000000E+00
  0.00000000E+00  0.00000000E+00  1.00000000E+00  0.00000000E+00  0.00000000E+00
  0.00000000E+00  0.00000000E+00  1.00000000E+00  0.00000000E+00  0.00000000E+00
  0.00000000E+00  0.00000000E+00  1.00000000E+00  0.00000000E+00  0.00000000E+00
  0.00000000E+00  0.00000000E+00  1.00000000E+00  0.00000000E+00  0.00000000E+00
  0.00000000E+00  0.00000000E+00  1.00000000E+00  0.00000000E+00  0.00000000E+00
  0.00000000E+00  0.00000000E+00  0.00000000E+00  1.00000000E+00  1.00000000E+00
  0.00000000E+00  1.00000000E+00  0.00000000E+00  0.00000000E+00  0.00000000E+00
  0.00000000E+00  0.00000000E+00  0.00000000E+00  0.00000000E+00  0.00000000E+00
  0.00000000E+00  0.00000000E+00
MxBond                                     I                2
NBond                                      I   N=           5
           1           2           2           2           1
IBond                                      I   N=          10
           2           0           1           3           2           4
           3           5           4           0
RBond                                      R   N=          10
  1.00000000E+00  0.00000000E+00  1.00000000E+00  1.00000000E+00  1.00000000E+00
  1.00000000E+00  1.00000000E+00  2.00000000E+00  2.00000000E+00  0.00000000E+00
Virial Ratio                               R      2.002410085893198E+00
SCF Energy                                 R     -2.795006537223527E+02
MP2 Energy                                 R     -2.804467108041478E+02
Total Energy                               R     -2.804467108041478E+02
Post-SCF wavefunction norm                 R      1.120663959535166E+00
RMS Density                                R      3.938661109693409E-09
Job Status                                 I                1
Nuclear derivative order                   I                0
External E-field                           R   N=          35
  0.00000000E+00  0.00000000E+00  0.00000000E+00  0.00000000E+00  0.00000000E+00
  0.00000000E+00  0.00000000E+00  0.00000000E+00  0.00000000E+00  0.00000000E+00
  0.00000000E+00  0.00000000E+00  0.00000000E+00  0.00000000E+00  0.00000000E+00
  0.00000000E+00  0.00000000E+00  0.00000000E+00  0.00000000E+00  0.00000000E+00
  0.00000000E+00  0.00000000E+00  0.00000000E+00  0.00000000E+00  0.00000000E+00
  0.00000000E+00  0.00000000E+00  0.00000000E+00  0.00000000E+00  0.00000000E+00
  0.00000000E+00  0.00000000E+00  0.00000000E+00  0.00000000E+00  0.00000000E+00
IOpCl                                      I                0
IROHF                                      I                0
Alpha Orbital Energies                     R   N=         207
 -2.06891202E+01 -2.06867671E+01 -2.06587047E+01 -1.58145151E+01 -1.62357912E+00
 -1.49424630E+00 -1.25128490E+00 -9.48882109E-01 -7.71955921E-01 -7.57984688E-01
 -7.10061042E-01 -6.79905052E-01 -6.20975225E-01 -5.88867885E-01 -4.84127859E-01
 -4.72026396E-01  2.99140930E-02  7.03289937E-02  8.57481937E-02  1.01599063E-01
  1.33900404E-01  1.34026286E-01  1.44295160E-01  1.54737779E-01  1.78487008E-01
  1.94132485E-01  1.99754187E-01  2.04905314E-01  2.21096975E-01  2.35883383E-01
  2.37257923E-01  2.65862936E-01  2.89377776E-01  3.04111500E-01  3.10033693E-01
  3.42654447E-01  3.49355565E-01  3.86983113E-01  4.22380912E-01  4.31997959E-01
  5.26824402E-01  5.28793291E-01  5.57366663E-01  5.81079486E-01  6.25188112E-01
  6.37686348E-01  6.74103909E-01  6.84485820E-01  7.06749086E-01  7.11356854E-01
  7.24231469E-01  7.30127625E-01  7.45044748E-01  7.90896210E-01  7.92423633E-01
  8.09902174E-01  8.13450840E-01  8.30106820E-01  8.67442742E-01  9.08256089E-01
  9.22344445E-01  9.25550674E-01  9.57592290E-01  9.76062173E-01  9.85052945E-01
  1.01734497E+00  1.05155700E+00  1.05428051E+00  1.08142285E+00  1.11685860E+00
  1.14016269E+00  1.18895522E+00  1.22046243E+00  1.23240732E+00  1.33767740E+00
  1.34849518E+00  1.38735475E+00  1.45186037E+00  1.48772475E+00  1.50938689E+00
  1.53734780E+00  1.56567901E+00  1.57776858E+00  1.61272682E+00  1.66335459E+00
  1.66959612E+00  1.70227885E+00  1.79307968E+00  1.83071916E+00  1.83292981E+00
  1.87857484E+00  1.90885034E+00  1.95607527E+00  1.99007540E+00  2.00455090E+00
  2.07441709E+00  2.11977550E+00  2.13057507E+00  2.15123610E+00  2.22241623E+00
  2.26389328E+00  2.26548054E+00  2.28830835E+00  2.31405368E+00  2.34147434E+00
  2.38615609E+00  2.42287468E+00  2.42637466E+00  2.45305230E+00  2.46169583E+00
  2.47494044E+00  2.49973459E+00  2.59045434E+00  2.59579746E+00  2.61841116E+00
  2.62383009E+00  2.63542545E+00  2.66648471E+00  2.75578544E+00  2.81996030E+00
  2.85098532E+00  2.88042741E+00  2.89462104E+00  2.91540167E+00  2.95750781E+00
  3.02131439E+00  3.06391708E+00  3.11863422E+00  3.20560827E+00  3.22509591E+00
  3.31485275E+00  3.33877370E+00  3.51536397E+00  3.63957875E+00  3.83344526E+00
  3.84210630E+00  4.14858068E+00  4.16563611E+00  4.18242197E+00  4.25310629E+00
  4.35173513E+00  4.39300973E+00  4.46400752E+00  4.51787383E+00  4.65808881E+00
  4.70900725E+00  4.80285455E+00  4.81747642E+00  4.83026132E+00  4.89464869E+00
  5.01974250E+00  5.07442401E+00  5.09908501E+00  5.14488842E+00  5.17601132E+00
  5.23991233E+00  5.26839736E+00  5.30615201E+00  5.32891442E+00  5.35084647E+00
  5.60336916E+00  5.67173096E+00  5.76317706E+00  5.82973085E+00  5.95302212E+00
  6.16410540E+00  6.30861912E+00  6.33404433E+00  6.39271215E+00  6.49111389E+00
  6.50319133E+00  6.61333479E+00  6.66844900E+00  6.69620417E+00  6.75919176E+00
  6.76347020E+00  6.82953991E+00  6.89502257E+00  7.01088978E+00  7.05490799E+00
  7.05792104E+00  7.09023368E+00  7.12121559E+00  7.14686081E+00  7.18114713E+00
  7.22001409E+00  7.24237779E+00  7.30917825E+00  7.32344259E+00  7.34431768E+00
  7.39622266E+00  7.42627731E+00  7.48175524E+00  7.60618640E+00  7.61218389E+00
  7.61935800E+00  7.66069282E+00  7.78515627E+00  7.88428991E+00  8.08081473E+00
  8.30993632E+00  8.40905447E+00  8.53937857E+00  1.33684394E+01  1.43375376E+01
  1.51534006E+01  1.61326479E+01
Alpha MO coefficients                      R   N=       42849
  9.24379935E-05 -6.50627389E-04 -7.42013964E-04 -4.66750872E-06 -2.19061546E-05
 -2.70145023E-05  0.00000000E+00 -4.63003233E-05  6.40735390E-05  0.00000000E+00
  8.80498567E-05  4.10501886E-05  0.00000000E+00  3.20719448E-05  0.00000000E+00
  0.00000000E+00 -4.93066100E-05  2.14502445E-05 -4.66654854E-06  0.00000000E+00
  0.00000000E+00 -1.39617426E-04  1.17328006E-04  4.65659645E-03 -2.81176341E-04
  1.74468172E-05  1.54585940E-03  1.82366377E-03  1.06208999E-04  7.76038451E-06
  0.00000000E+00 -6.15895405E-04 -3.60236262E-05  0.00000000E+00 -1.08479482E-03
  7.97032578E-04  0.00000000E+00 -4.01370525E-04  6.39988531E-05  0.00000000E+00
  2.88148812E-05  0.00000000E+00  0.00000000E+00 -5.43980564E-05  5.30946695E-06
 -3.78420776E-04  0.00000000E+00  0.00000000E+00  7.40660560E-04 -2.76228986E-05
 -4.47448631E-04  0.00000000E+00  0.00000000E+00  2.36792192E-04 -9.49651522E-06
  0.00000000E+00  8.01575615E-05  1.28357530E-05  0.00000000E+00  0.00000000E+00
 -1.09715280E-04 -3.68845936E-06  0.00000000E+00  2.55065792E-04 -2.71479229E-05
  0.00000000E+00  0.00000000E+00 -3.55756148E-04  4.67505071E-05  9.76894160E-01
 -9.21019508E-03  4.33039146E-02  2.12314571E-03 -8.78600851E-04  1.50117463E-03
 -1.33091672E-03  0.00000000E+00 -1.44833657E-03  1.34807550E-03  0.00000000E+00
  9.40733876E-05 -1.18868490E-03  0.00000000E+00 -1.34982863E-04 -1.83157707E-05
  0.00000000E+00  4.90838942E-05  0.00000000E+00  0.00000000E+00 -3.26086091E-05
  2.03615233E-05  7.37871450E-04  0.00000000E+00  0.00000000E+00 -2.47515406E-04
 -3.82521467E-04 -3.67311691E-04  0.00000000E+00  0.00000000E+00 -3.11560242E-04
 -3.69879506E-04  0.00000000E+00  4.83808239E-05 -4.78396300E-05  0.00000000E+00
  0.00000000E+00 -3.84295330E-05 -1.52434779E-05  0.00000000E+00  2.21276282E-05
  2.64182053E-05  0.00000000E+00  0.00000000E+00 -3.01967334E-04 -1.34170977E-04
  3.39940166E-05  1.53744151E-05 -2.54584550E-04 -7.25661747E-04 -1.56267886E-04
 -2.62303692E-05 -9.53115551E-05  0.00000000E+00  2.71874930E-04  6.61330475E-04
  0.00000000E+00 -8.51815153E-04 -5.37389403E-04  0.00000000E+00 -1.25316398E-04
 -3.29561786E-05  0.00000000E+00 -1.34509954E-05  0.00000000E+00  0.00000000E+00
 -2.30770880E-05  1.24007387E-05 -3.15468578E-04  0.00000000E+00  0.00000000E+00
 -8.13754106E-04  1.24382456E-04 -3.18894383E-05  0.00000000E+00  0.00000000E+00
  1.04374229E-04 -1.11377549E-04  0.00000000E+00 -2.02580672E-05 -1.18361598E-04
  0.00000000E+00  0.00000000E+00 -6.02272437E-05 -1.37082799E-04  0.00000000E+00
  5.27610037E-06 -1.48081698E-04  0.00000000E+00  0.00000000E+00  5.47082231E-05
 -4.21788015E-04 -7.15292232E-03  1.70939406E-04 -3.28267735E-04 -2.81070654E-04
  1.23021060E-04 -1.77052243E-05 -3.12112949E-05  0.00000000E+00  7.87637526E-05
  1.71942019E-04  0.00000000E+00  2.14885621E-04  2.16807688E-04  0.00000000E+00
  1.22311284E-04  2.36984533E-05  0.00000000E+00 -2.68311405E-06  0.00000000E+00
  0.00000000E+00 -1.81252697E-05  7.34947708E-07  3.76984692E-07  0.00000000E+00
  0.00000000E+00  8.08683363E-05  9.52746742E-05 -9.71037138E-05  0.00000000E+00
  0.00000000E+00  1.61540736E-04  1.67807236E-04  0.00000000E+00  1.52484839E-05
 -4.36916286E-06  0.00000000E+00  0.00000000E+00 -5.55090480E-06 -1.10691618E-05
  0.00000000E+00 -3.22822350E-05  4.62522289E-05  0.00000000E+00  0.00000000E+00
  8.42457219E-05  9.26261781E-05  3.90446928E-05 -9.88275404E-04 -4.91397946E-04
 -1.17527748E-05 -2.25476305E-05  1.61928432E-05  0.00000000E+00  1.80326311E-06
  2.75811364E-04  0.00000000E+00 -4.03613086E-05  1.34233357E-04  0.00000000E+00
  2.60732439E-05  0.00000000E+00  0.00000000E+00  1.26375184E-05  1.07824153E-05
 -2.62423983E-05  0.00000000E+00  0.00000000E+00  9.47455874E-06  3.36870516E-05
  1.21620578E-04  8.30143180E-05 -2.83053461E-05  7.45300671E-04  6.54396630E-04
  1.04866317E-05  2.44623270E-06  0.00000000E+00 -7.36789554E-05  1.74144015E-05
  0.00000000E+00  3.30642917E-04  8.90673908E-04  0.00000000E+00  2.87869733E-06
  8.02299371E-05  0.00000000E+00 -2.13203371E-06  0.00000000E+00  0.00000000E+00
 -2.85813589E-07 -6.39271423E-06 -3.73887684E-05  0.00000000E+00  0.00000000E+00
 -1.85990705E-05  8.47392634E-05 -2.50143595E-05  0.00000000E+00  0.00000000E+00
 -2.65723503E-04 -1.55571898E-04  0.00000000E+00  9.46055383E-06  5.90815116E-06
  0.00000000E+00  0.00000000E+00  2.40528071E-06 -1.86401586E-05  0.00000000E+00
 -3.92027003E-05 -3.74688064E-05  0.00000000E+00  0.00000000E+00 -7.71712277E-05
  1.73629048E-05  7.19373602E-03 -3.75199515E-06  2.93729373E-04 -7.00716223E-05
 -4.82011518E-04  1.51606148E-05  9.65108799E-06  0.00000000E+00 -7.07930235E-05
 -4.74156053E-05  0.00000000E+00  2.44587343E-04 -1.53784344E-04  0.00000000E+00
 -1.83796060E-04 -5.76001296E-05  0.00000000E+00 -8.25165544E-06  0.00000000E+00
  0.00000000E+00  2.13496764E-05  1.90653034E-05  7.51778423E-06  0.00000000E+00
  0.00000000E+00 -1.11566431E-04 -4.34192613E-05 -4.08476826E-06  0.00000000E+00
  0.00000000E+00 -2.07376546E-04 -2.01044164E-04  0.00000000E+00  4.44089629E-06
 -1.03456994E-07  0.00000000E+00  0.00000000E+00  2.88069168E-06 -1.53340710E-05
  0.00000000E+00 -4.74695981E-05  1.41940951E-06  0.00000000E+00  0.00000000E+00
 -7.77764441E-05  1.85907190E-04  2.59552025E-04  1.46664078E-03 -8.11662104E-05
 -1.50573542E-03  4.11809793E-04 -1.45377593E-04 -9.40516850E-07  0.00000000E+00
 -2.07727762E-03 -3.96156914E-04  0.00000000E+00  1.02459860E-03  7.66463098E-04
  0.00000000E+00 -1.72524662E-04  5.66967506E-05  0.00000000E+00 -1.23465910E-04
  0.00000000E+00  0.00000000E+00  2.41929674E-04  9.41820690E-05 -4.45465651E-04
  0.00000000E+00  0.00000000E+00  8.93001227E-04 -5.32791447E-05  8.84027075E-06
  0.00000000E+00  0.00000000E+00 -3.35799243E-04 -1.19462382E-04  0.00000000E+00
 -1.96208806E-06  1.44614258E-05  0.00000000E+00  0.00000000E+00  1.78169663E-05
  1.26517069E-05  0.00000000E+00  1.66483305E-04 -7.07042689E-05  0.00000000E+00
  0.00000000E+00 -2.44342206E-04  3.42683985E-05  9.76628929E-01 -9.84966209E-03
  4.35611887E-02  4.48639016E-03 -4.49099734E-04  2.14571539E-03  4.81433462E-04
  0.00000000E+00 -2.38239901E-03 -6.02347173E-04  0.00000000E+00  1.14197369E-03
  2.67062739E-06  0.00000000E+00  4.85414282E-06 -4.11007834E-05  0.00000000E+00
 -2.32193487E-04  0.00000000E+00  0.00000000E+00  1.03285073E-04  3.15312314E-05
  3.88818567E-04  0.00000000E+00  0.00000000E+00 -8.30664164E-04 -4.17589236E-04
 -1.55724610E-04  0.00000000E+00  0.00000000E+00  2.59827916E-04  2.10393376E-05
  0.00000000E+00  5.21817107E-05  1.76486871E-05  0.00000000E+00  0.00000000E+00
 -2.23144491E-05 -1.34556072E-05  0.00000000E+00  1.36900158E-04  9.53402140E-06
  0.00000000E+00  0.00000000E+00 -1.88174365E-04 -1.39221264E-04  4.75005141E-04
  2.04486027E-03  1.02679973E-04  1.43545442E-05 -4.11387781E-05 -2.46385722E-04
  0.00000000E+00  1.13980130E-04 -1.26932444E-03  0.00000000E+00  3.10186439E-04
 -3.33294944E-04  0.00000000E+00 -2.22973796E-06  0.00000000E+00  0.00000000E+00
  7.62722656E-05  1.55282598E-05 -1.59846687E-04  0.00000000E+00  0.00000000E+00
 -5.37146567E-04 -2.50447393E-05  9.76829847E-01 -9.16129411E-03  4.34493588E-02
  1.75086109E-04 -1.12347120E-03 -1.56242723E-03  1.43905371E-03  0.00000000E+00
  1.57393435E-03 -1.28060128E-03  0.00000000E+00 -5.65668336E-04 -8.52847253E-04
  0.00000000E+00  5.50982798E-05 -2.81381073E-05  0.00000000E+00  2.94477371E-05
  0.00000000E+00  0.00000000E+00 -1.17729821E-04 -3.40367804E-06  7.56020648E-04
  0.00000000E+00  0.00000000E+00 -2.01000929E-04 -2.35431244E-04 -2.68347231E-04
  0.00000000E+00  0.00000000E+00  1.67474381E-04  1.27716809E-04  0.00000000E+00
 -6.41287813E-05  1.17979065E-06  0.00000000E+00  0.00000000E+00  1.88776524E-05
  1.00068431E-05  0.00000000E+00 -7.50366868E-07  1.22287710E-04  0.00000000E+00
  0.00000000E+00  2.55113778E-04  9.17326586E-05 -4.74837292E-03 -2.06545879E-04