title                                                                   
SP        RMP2-FC                                                     Aug-CC-pVTZ         
Number of atoms                            I                5
Info1-9                                    I   N=           9
          33          24           0           0           0         110
           1           2           1
Full Title                                 C   N=           1
title       
Route                                      C   N=           4
#p SP mp2/aug-cc-pvtz density=current           
Charge                                     I                0
Multiplicity                               I                1
Number of electrons                        I               32
Number of alpha electrons                  I               16
Number of beta electrons                   I               16
Number of basis functions                  I              207
Number of independent functions            I              207
Number of point charges in /Mol/           I                0
Number of translation vectors              I                0
Atomic numbers                             I   N=           5
           1           8           8           7           8
Nuclear charges                            R   N=           5
  1.00000000E+00  8.00000000E+00  8.00000000E+00  7.00000000E+00  8.00000000E+00
Current cartesian coordinates              R   N=          15
  2.92620018E+00  3.18488745E+00 -1.12898769E-31  2.74772181E+00  1.36250798E+00
 -1.33328847E-31  7.63118195E-17  1.26648768E+00 -8.93368625E-33 -4.92720517E-01
 -1.44582394E+00  1.46118570E-32 -2.68236638E+00 -1.76201064E+00  1.22972908E-31
Number of symbols in /Mol/                 I                0
Force Field                                I                0
Atom Types                                 C   N=           5
                                                            
Int Atom Types                             I   N=           5
           0           0           0           0           0
MM charges                                 R   N=           5
  0.00000000E+00  0.00000000E+00  0.00000000E+00  0.00000000E+00  0.00000000E+00
Integer atomic weights                     I   N=           5
           1          16          16          14          16
Real atomic weights                        R   N=           5
  1.00782504E+00  1.59949146E+01  1.59949146E+01  1.40030740E+01  1.59949146E+01
Atom fragment info                         I   N=           5
           0           0           0           0           0
Atom residue num                           I   N=           5
           0           0           0           0           0
Nuclear spins                              I   N=           5
           1           0           0           2           0
Nuclear ZEff                               R   N=           5
 -1.00000000E+00 -5.60000000E+00 -5.60000000E+00 -4.55000000E+00 -5.60000000E+00
Nuclear ZNuc                               R   N=           5
  1.00000000E+00  8.00000000E+00  8.00000000E+00  7.00000000E+00  8.00000000E+00
Nuclear QMom                               R   N=           5
  0.00000000E+00  0.00000000E+00  0.00000000E+00  2.04400000E+00  0.00000000E+00
Nuclear GFac                               R   N=           5
  2.79284600E+00  0.00000000E+00  0.00000000E+00  4.03761000E-01  0.00000000E+00
MicOpt                                     I   N=           5
          -1          -1          -1          -1          -1
Number of residues                         I                0
Number of secondary structures             I                0
SymInf integers                            I   N=          26
           1           2           1           1           1           1
           1          -1           0           0           0           0
           0           0           0           0           0           0
           0           0           0           0           0           0
           0           0
RotTr to input orientation                 R   N=          12
 -9.95238399E-01 -9.85947133E-17 -9.74706600E-02  9.74706600E-02 -7.26407622E-17
 -9.95238399E-01  9.10449016E-17 -1.00000000E+00  8.19049676E-17  2.60183370E+00
  0.00000000E+00  3.45494094E+00
Number of contracted shells                I               65
Number of primitive shells                 I              119
Pure/Cartesian d shells                    I                0
Pure/Cartesian f shells                    I                0
Highest angular momentum                   I                3
Largest degree of contraction              I                7
Shell types                                I   N=          65
           0           0           0           0           1           1
           1          -2          -2           0           0           0
           0           0           1           1           1           1
          -2          -2          -2          -3          -3           0
           0           0           0           0           1           1
           1           1          -2          -2          -2          -3
          -3           0           0           0           0           0
           1           1           1           1          -2          -2
          -2          -3          -3           0           0           0
           0           0           1           1           1           1
          -2          -2          -2          -3          -3
Number of primitives per shell             I   N=          65
           3           1           1           1           1           1
           1           1           1           7           6           1
           1           1           3           1           1           1
           1           1           1           1           1           7
           6           1           1           1           3           1
           1           1           1           1           1           1
           1           7           6           1           1           1
           3           1           1           1           1           1
           1           1           1           7           6           1
           1           1           3           1           1           1
           1           1           1           1           1
Shell to atom map                          I   N=          65
           1           1           1           1           1           1
           1           1           1           2           2           2
           2           2           2           2           2           2
           2           2           2           2           2           3
           3           3           3           3           3           3
           3           3           3           3           3           3
           3           4           4           4           4           4
           4           4           4           4           4           4
           4           4           4           5           5           5
           5           5           5           5           5           5
           5           5           5           5           5
Primitive exponents                        R   N=         119
  3.38700000E+01  5.09500000E+00  1.15900000E+00  3.25800000E-01  1.02700000E-01
  2.52600000E-02  1.40700000E+00  3.88000000E-01  1.02000000E-01  1.05700000E+00
  2.47000000E-01  1.53300000E+04  2.29900000E+03  5.22400000E+02  1.47300000E+02
  4.75500000E+01  1.67600000E+01  6.20700000E+00  5.22400000E+02  1.47300000E+02
  4.75500000E+01  1.67600000E+01  6.20700000E+00  6.88200000E-01  1.75200000E+00
  2.38400000E-01  7.37600000E-02  3.44600000E+01  7.74900000E+00  2.28000000E+00
  7.15600000E-01  2.14000000E-01  5.97400000E-02  2.31400000E+00  6.45000000E-01
  2.14000000E-01  1.42800000E+00  5.00000000E-01  1.53300000E+04  2.29900000E+03
  5.22400000E+02  1.47300000E+02  4.75500000E+01  1.67600000E+01  6.20700000E+00
  5.22400000E+02  1.47300000E+02  4.75500000E+01  1.67600000E+01  6.20700000E+00
  6.88200000E-01  1.75200000E+00  2.38400000E-01  7.37600000E-02  3.44600000E+01
  7.74900000E+00  2.28000000E+00  7.15600000E-01  2.14000000E-01  5.97400000E-02
  2.31400000E+00  6.45000000E-01  2.14000000E-01  1.42800000E+00  5.00000000E-01
  1.14200000E+04  1.71200000E+03  3.89300000E+02  1.10000000E+02  3.55700000E+01
  1.25400000E+01  4.64400000E+00  3.89300000E+02  1.10000000E+02  3.55700000E+01
  1.25400000E+01  4.64400000E+00  5.11800000E-01  1.29300000E+00  1.78700000E-01
  5.76000000E-02  2.66300000E+01  5.94800000E+00  1.74200000E+00  5.55000000E-01
  1.72500000E-01  4.91000000E-02  1.65400000E+00  4.69000000E-01  1.51000000E-01
  1.09300000E+00  3.64000000E-01  1.53300000E+04  2.29900000E+03  5.22400000E+02
  1.47300000E+02  4.75500000E+01  1.67600000E+01  6.20700000E+00  5.22400000E+02
  1.47300000E+02  4.75500000E+01  1.67600000E+01  6.20700000E+00  6.88200000E-01
  1.75200000E+00  2.38400000E-01  7.37600000E-02  3.44600000E+01  7.74900000E+00
  2.28000000E+00  7.15600000E-01  2.14000000E-01  5.97400000E-02  2.31400000E+00
  6.45000000E-01  2.14000000E-01  1.42800000E+00  5.00000000E-01
Contraction coefficients                   R   N=         119
  2.54948632E-02  1.90362766E-01  8.52162022E-01  1.00000000E+00  1.00000000E+00
  1.00000000E+00  1.00000000E+00  1.00000000E+00  1.00000000E+00  1.00000000E+00
  1.00000000E+00  5.19808943E-04  4.02025621E-03  2.07128267E-02  8.10105536E-02
  2.35962985E-01  4.42653446E-01  3.57064423E-01 -4.42115008E-05 -1.22591041E-03
 -1.05517725E-02 -6.74452633E-02 -1.71198607E-01  1.07329856E+00  1.00000000E+00
  1.00000000E+00  1.00000000E+00  4.11634896E-02  2.57762836E-01  8.02419274E-01
  1.00000000E+00  1.00000000E+00  1.00000000E+00  1.00000000E+00  1.00000000E+00
  1.00000000E+00  1.00000000E+00  1.00000000E+00  5.19808943E-04  4.02025621E-03
  2.07128267E-02  8.10105536E-02  2.35962985E-01  4.42653446E-01  3.57064423E-01
 -4.42115008E-05 -1.22591041E-03 -1.05517725E-02 -6.74452633E-02 -1.71198607E-01
  1.07329856E+00  1.00000000E+00  1.00000000E+00  1.00000000E+00  4.11634896E-02
  2.57762836E-01  8.02419274E-01  1.00000000E+00  1.00000000E+00  1.00000000E+00
  1.00000000E+00  1.00000000E+00  1.00000000E+00  1.00000000E+00  1.00000000E+00
  5.34563860E-04  4.13435660E-03  2.12335358E-02  8.25006224E-02  2.38138871E-01
  4.42551547E-01  3.53757422E-01 -4.89867350E-05 -1.19527323E-03 -1.03490714E-02
 -6.48680190E-02 -1.71552477E-01  1.07289568E+00  1.00000000E+00  1.00000000E+00
  1.00000000E+00  3.98072123E-02  2.49002660E-01  8.10479727E-01  1.00000000E+00
  1.00000000E+00  1.00000000E+00  1.00000000E+00  1.00000000E+00  1.00000000E+00
  1.00000000E+00  1.00000000E+00  5.19808943E-04  4.02025621E-03  2.07128267E-02
  8.10105536E-02  2.35962985E-01  4.42653446E-01  3.57064423E-01 -4.42115008E-05
 -1.22591041E-03 -1.05517725E-02 -6.74452633E-02 -1.71198607E-01  1.07329856E+00
  1.00000000E+00  1.00000000E+00  1.00000000E+00  4.11634896E-02  2.57762836E-01
  8.02419274E-01  1.00000000E+00  1.00000000E+00  1.00000000E+00  1.00000000E+00
  1.00000000E+00  1.00000000E+00  1.00000000E+00  1.00000000E+00
Coordinates of each shell                  R   N=         195
  2.92620018E+00  3.18488745E+00 -9.34291213E-32  2.92620018E+00  3.18488745E+00
 -9.34291213E-32  2.92620018E+00  3.18488745E+00 -9.34291213E-32  2.92620018E+00
  3.18488745E+00 -9.34291213E-32  2.92620018E+00  3.18488745E+00 -9.34291213E-32
  2.92620018E+00  3.18488745E+00 -9.34291213E-32  2.92620018E+00  3.18488745E+00
 -9.34291213E-32  2.92620018E+00  3.18488745E+00 -9.34291213E-32  2.92620018E+00
  3.18488745E+00 -9.34291213E-32  2.74772181E+00  1.36250798E+00 -7.77442744E-32
  2.74772181E+00  1.36250798E+00 -7.77442744E-32  2.74772181E+00  1.36250798E+00
 -7.77442744E-32  2.74772181E+00  1.36250798E+00 -7.77442744E-32  2.74772181E+00
  1.36250798E+00 -7.77442744E-32  2.74772181E+00  1.36250798E+00 -7.77442744E-32
  2.74772181E+00  1.36250798E+00 -7.77442744E-32  2.74772181E+00  1.36250798E+00
 -7.77442744E-32  2.74772181E+00  1.36250798E+00 -7.77442744E-32  2.74772181E+00
  1.36250798E+00 -7.77442744E-32  2.74772181E+00  1.36250798E+00 -7.77442744E-32
  2.74772181E+00  1.36250798E+00 -7.77442744E-32  2.74772181E+00  1.36250798E+00
 -7.77442744E-32  2.74772181E+00  1.36250798E+00 -7.77442744E-32  5.74553724E-19
  1.26648768E+00 -7.76816707E-33  5.74553724E-19  1.26648768E+00 -7.76816707E-33
  5.74553724E-19  1.26648768E+00 -7.76816707E-33  5.74553724E-19  1.26648768E+00
 -7.76816707E-33  5.74553724E-19  1.26648768E+00 -7.76816707E-33  5.74553724E-19
  1.26648768E+00 -7.76816707E-33  5.74553724E-19  1.26648768E+00 -7.76816707E-33
  5.74553724E-19  1.26648768E+00 -7.76816707E-33  5.74553724E-19  1.26648768E+00
 -7.76816707E-33  5.74553724E-19  1.26648768E+00 -7.76816707E-33  5.74553724E-19
  1.26648768E+00 -7.76816707E-33  5.74553724E-19  1.26648768E+00 -7.76816707E-33
  5.74553724E-19  1.26648768E+00 -7.76816707E-33  5.74553724E-19  1.26648768E+00
 -7.76816707E-33 -4.92720517E-01 -1.44582394E+00  2.13106297E-32 -4.92720517E-01
 -1.44582394E+00  2.13106297E-32 -4.92720517E-01 -1.44582394E+00  2.13106297E-32
 -4.92720517E-01 -1.44582394E+00  2.13106297E-32 -4.92720517E-01 -1.44582394E+00
  2.13106297E-32 -4.92720517E-01 -1.44582394E+00  2.13106297E-32 -4.92720517E-01
 -1.44582394E+00  2.13106297E-32 -4.92720517E-01 -1.44582394E+00  2.13106297E-32
 -4.92720517E-01 -1.44582394E+00  2.13106297E-32 -4.92720517E-01 -1.44582394E+00
  2.13106297E-32 -4.92720517E-01 -1.44582394E+00  2.13106297E-32 -4.92720517E-01
 -1.44582394E+00  2.13106297E-32 -4.92720517E-01 -1.44582394E+00  2.13106297E-32
 -4.92720517E-01 -1.44582394E+00  2.13106297E-32 -2.68236638E+00 -1.76201064E+00
  7.85442806E-32 -2.68236638E+00 -1.76201064E+00  7.85442806E-32 -2.68236638E+00
 -1.76201064E+00  7.85442806E-32 -2.68236638E+00 -1.76201064E+00  7.85442806E-32
 -2.68236638E+00 -1.76201064E+00  7.85442806E-32 -2.68236638E+00 -1.76201064E+00
  7.85442806E-32 -2.68236638E+00 -1.76201064E+00  7.85442806E-32 -2.68236638E+00
 -1.76201064E+00  7.85442806E-32 -2.68236638E+00 -1.76201064E+00  7.85442806E-32
 -2.68236638E+00 -1.76201064E+00  7.85442806E-32 -2.68236638E+00 -1.76201064E+00
  7.85442806E-32 -2.68236638E+00 -1.76201064E+00  7.85442806E-32 -2.68236638E+00
 -1.76201064E+00  7.85442806E-32 -2.68236638E+00 -1.76201064E+00  7.85442806E-32
Num ILSW                                   I              100
ILSW                                       I   N=         100
           0           0           0           0           2           0
           0           0           0           0           0          -1
           5           0           0           0           0           0
           0           0           0           0           0           0
           1           0           0           0           0           0
           0           0      100000           0          -1           0
           0           0           0           0           0           0
           0           0           0           1           0           0
           0 -2000000000           1           0           0           0
           0           0           4          52           0           0
           0           0           0           0           0           0
           0           0           0           5           0           1
           0           0           0           0           0           0
           0           0           0           0           0           0
           0           0           0           0           0           0
           0           0           0           0           0           0
           0           0           0           0
Num RLSW                                   I               52
RLSW                                       R   N=          52
  1.00000000E+00  1.00000000E+00  1.00000000E+00  1.00000000E+00  1.00000000E+00
  0.00000000E+00  0.00000000E+00  1.00000000E+00  0.00000000E+00  0.00000000E+00
  0.00000000E+00  0.00000000E+00  1.00000000E+00  0.00000000E+00  0.00000000E+00
  0.00000000E+00  0.00000000E+00  1.00000000E+00  0.00000000E+00  0.00000000E+00
  0.00000000E+00  0.00000000E+00  1.00000000E+00  0.00000000E+00  0.00000000E+00
  0.00000000E+00  0.00000000E+00  1.00000000E+00  0.00000000E+00  0.00000000E+00
  0.00000000E+00  0.00000000E+00  1.00000000E+00  0.00000000E+00  0.00000000E+00
  0.00000000E+00  0.00000000E+00  0.00000000E+00  1.00000000E+00  1.00000000E+00
  0.00000000E+00  1.00000000E+00  0.00000000E+00  0.00000000E+00  0.00000000E+00
  0.00000000E+00  0.00000000E+00  0.00000000E+00  0.00000000E+00  0.00000000E+00
  0.00000000E+00  0.00000000E+00
MxBond                                     I                2
NBond                                      I   N=           5
           1           2           2           2           1
IBond                                      I   N=          10
           2           0           1           3           2           4
           3           5           4           0
RBond                                      R   N=          10
  1.00000000E+00  0.00000000E+00  1.00000000E+00  1.00000000E+00  1.00000000E+00
  1.00000000E+00  1.00000000E+00  2.00000000E+00  2.00000000E+00  0.00000000E+00
Virial Ratio                               R      2.002339983560610E+00
SCF Energy                                 R     -2.795017002978116E+02
MP2 Energy                                 R     -2.804467123353611E+02
Total Energy                               R     -2.804467123353611E+02
Post-SCF wavefunction norm                 R      1.120198959568842E+00
RMS Density                                R      3.766022620872795E-09
Job Status                                 I                1
Nuclear derivative order                   I                0
External E-field                           R   N=          35
  0.00000000E+00  0.00000000E+00  0.00000000E+00  0.00000000E+00  0.00000000E+00
  0.00000000E+00  0.00000000E+00  0.00000000E+00  0.00000000E+00  0.00000000E+00
  0.00000000E+00  0.00000000E+00  0.00000000E+00  0.00000000E+00  0.00000000E+00
  0.00000000E+00  0.00000000E+00  0.00000000E+00  0.00000000E+00  0.00000000E+00
  0.00000000E+00  0.00000000E+00  0.00000000E+00  0.00000000E+00  0.00000000E+00
  0.00000000E+00  0.00000000E+00  0.00000000E+00  0.00000000E+00  0.00000000E+00
  0.00000000E+00  0.00000000E+00  0.00000000E+00  0.00000000E+00  0.00000000E+00
IOpCl                                      I                0
IROHF                                      I                0
Alpha Orbital Energies                     R   N=         207
 -2.06906511E+01 -2.06841003E+01 -2.06596226E+01 -1.58130263E+01 -1.62449811E+00
 -1.49533145E+00 -1.25395641E+00 -9.48214308E-01 -7.72477747E-01 -7.59372450E-01
 -7.11901737E-01 -6.79226768E-01 -6.20236464E-01 -5.88941443E-01 -4.84960388E-01
 -4.73168589E-01  2.96709206E-02  7.14366741E-02  8.60525017E-02  1.01708554E-01
  1.33919421E-01  1.33924568E-01  1.44105123E-01  1.54493679E-01  1.78317730E-01
  1.94149485E-01  1.99829034E-01  2.06467669E-01  2.20806819E-01  2.35975565E-01
  2.37455189E-01  2.66443365E-01  2.92985272E-01  3.03716507E-01  3.10365565E-01
  3.43609837E-01  3.49663389E-01  3.87406811E-01  4.22231867E-01  4.31837093E-01
  5.27847121E-01  5.28817811E-01  5.58280454E-01  5.81098983E-01  6.25634406E-01
  6.39452074E-01  6.74612513E-01  6.84552208E-01  7.05582773E-01  7.11351616E-01
  7.23876839E-01  7.29291503E-01  7.44121303E-01  7.92321306E-01  7.92513018E-01
  8.10626826E-01  8.12924678E-01  8.30841187E-01  8.68205864E-01  9.08665071E-01
  9.22121709E-01  9.27493323E-01  9.56523047E-01  9.76464633E-01  9.84762834E-01
  1.01668187E+00  1.05196060E+00  1.05489561E+00  1.08266865E+00  1.11747274E+00
  1.14153126E+00  1.18984122E+00  1.21968944E+00  1.23294847E+00  1.33912269E+00
  1.35128945E+00  1.38708977E+00  1.45435160E+00  1.48770023E+00  1.50837440E+00
  1.53781664E+00  1.56748659E+00  1.57960766E+00  1.61293017E+00  1.66441995E+00
  1.67041822E+00  1.70271990E+00  1.79283089E+00  1.83061802E+00  1.83493680E+00
  1.87937482E+00  1.90921929E+00  1.95644706E+00  1.99277053E+00  2.00439626E+00
  2.07906930E+00  2.12185245E+00  2.13137783E+00  2.15057069E+00  2.22524313E+00
  2.26509143E+00  2.26601526E+00  2.28950568E+00  2.31444837E+00  2.34549015E+00
  2.38621805E+00  2.42551536E+00  2.42870432E+00  2.45288904E+00  2.46115183E+00
  2.47743808E+00  2.50101475E+00  2.58919273E+00  2.59760275E+00  2.62215735E+00
  2.62404991E+00  2.63442388E+00  2.66918542E+00  2.75564753E+00  2.82108040E+00
  2.85283359E+00  2.88795662E+00  2.89370885E+00  2.93087690E+00  2.95560821E+00
  3.02602616E+00  3.06634609E+00  3.12388513E+00  3.20479911E+00  3.22536417E+00
  3.31780769E+00  3.33986118E+00  3.52109642E+00  3.64116577E+00  3.83842148E+00
  3.84435259E+00  4.14909073E+00  4.16515251E+00  4.18422980E+00  4.25780616E+00
  4.35021390E+00  4.39338910E+00  4.46333904E+00  4.51973288E+00  4.65946206E+00
  4.71128083E+00  4.80378985E+00  4.82682649E+00  4.82983524E+00  4.89609261E+00
  5.02391953E+00  5.07701814E+00  5.10509337E+00  5.14515980E+00  5.17668112E+00
  5.24332288E+00  5.27315795E+00  5.30662955E+00  5.33016167E+00  5.35375289E+00
  5.60490157E+00  5.67360107E+00  5.77598219E+00  5.82902159E+00  5.95707842E+00
  6.16904044E+00  6.30968534E+00  6.33738007E+00  6.39462840E+00  6.49477123E+00
  6.50695737E+00  6.61438851E+00  6.66808376E+00  6.70204697E+00  6.75795558E+00
  6.76415415E+00  6.83461205E+00  6.89607065E+00  7.01482109E+00  7.05697706E+00
  7.05741857E+00  7.09092574E+00  7.12378671E+00  7.15065287E+00  7.18194999E+00
  7.22553517E+00  7.24215643E+00  7.30746180E+00  7.32532105E+00  7.34734233E+00
  7.39911665E+00  7.43122839E+00  7.48380492E+00  7.60863818E+00  7.61585671E+00
  7.62858371E+00  7.66750269E+00  7.79339215E+00  7.88385207E+00  8.09347084E+00
  8.31501785E+00  8.40919394E+00  8.54389821E+00  1.33957597E+01  1.43868331E+01
  1.51651216E+01  1.61545338E+01
Alpha MO coefficients                      R   N=       42849
  9.20972179E-05 -6.32418571E-04 -7.27573005E-04 -4.21668898E-06 -2.14497458E-05
 -2.71930186E-05  0.00000000E+00 -4.34580784E-05  5.82547143E-05  0.00000000E+00
  8.72391907E-05  3.65623401E-05  0.00000000E+00  3.18198530E-05  0.00000000E+00
  0.00000000E+00 -5.00413229E-05  2.08405575E-05 -4.55807364E-06  0.00000000E+00
  0.00000000E+00 -1.39866205E-04  1.17957343E-04  4.56539824E-03 -2.81513842E-04
  1.35276546E-05  1.54695393E-03  1.82493873E-03  1.06494729E-04  7.59559607E-06
  0.00000000E+00 -6.17923579E-04 -3.68741052E-05  0.00000000E+00 -1.10257053E-03
  7.83475354E-04  0.00000000E+00 -4.03668234E-04  6.23851176E-05  0.00000000E+00
  2.89029661E-05  0.00000000E+00  0.00000000E+00 -5.42941945E-05  5.80239057E-06
 -3.78614641E-04  0.00000000E+00  0.00000000E+00  7.41844760E-04 -3.17391349E-05
 -4.46666685E-04  0.00000000E+00  0.00000000E+00  2.45208623E-04 -1.19307461E-05
  0.00000000E+00  8.01794236E-05  1.27862282E-05  0.00000000E+00  0.00000000E+00
 -1.09616329E-04 -3.45256689E-06  0.00000000E+00  2.55463359E-04 -2.74033671E-05
  0.00000000E+00  0.00000000E+00 -3.54063798E-04  4.95995660E-05  9.76911160E-01
 -9.21631642E-03  4.33185202E-02  2.03297239E-03 -9.11858917E-04  1.49732423E-03
 -1.34924947E-03  0.00000000E+00 -1.43958208E-03  1.37766402E-03  0.00000000E+00
  8.22572707E-05 -1.15352598E-03  0.00000000E+00 -1.35430037E-04 -1.32681449E-05
  0.00000000E+00  4.65005846E-05  0.00000000E+00  0.00000000E+00 -3.46554348E-05
  2.17245392E-05  7.47967375E-04  0.00000000E+00  0.00000000E+00 -2.34615114E-04
 -3.90100700E-04 -3.62714868E-04  0.00000000E+00  0.00000000E+00 -3.07666070E-04
 -3.67129105E-04  0.00000000E+00  4.73485636E-05 -4.87538165E-05  0.00000000E+00
  0.00000000E+00 -3.91970850E-05 -1.53209935E-05  0.00000000E+00  2.42403283E-05
  2.21698979E-05  0.00000000E+00  0.00000000E+00 -3.04343077E-04 -1.40502261E-04
  3.89489864E-05  4.54346186E-05 -2.63584806E-04 -7.11988106E-04 -1.54051137E-04
 -2.66427714E-05 -9.70113553E-05  0.00000000E+00  2.70653435E-04  7.05554878E-04
  0.00000000E+00 -8.24241374E-04 -4.69116152E-04  0.00000000E+00 -1.24911868E-04
 -2.93539825E-05  0.00000000E+00 -1.81944768E-05  0.00000000E+00  0.00000000E+00
 -2.98112977E-05  1.56810547E-05 -3.27727574E-04  0.00000000E+00  0.00000000E+00
 -8.26126395E-04  1.25810978E-04 -3.62032815E-05  0.00000000E+00  0.00000000E+00
  9.38467251E-05 -1.19667259E-04  0.00000000E+00 -2.04927231E-05 -1.19840242E-04
  0.00000000E+00  0.00000000E+00 -6.24126771E-05 -1.37515426E-04  0.00000000E+00
  3.66901667E-06 -1.53011258E-04  0.00000000E+00  0.00000000E+00  4.37680595E-05
 -4.15321859E-04 -2.60809178E-03  1.25686542E-04 -1.23331173E-04 -2.35400936E-04
  1.44452348E-04 -7.81700445E-06 -2.66748784E-05  0.00000000E+00  7.11720840E-05
  1.58339246E-04  0.00000000E+00  2.39194955E-04  1.94702579E-04  0.00000000E+00
  1.28878489E-04  2.46422204E-05  0.00000000E+00 -3.61129294E-06  0.00000000E+00
  0.00000000E+00 -1.80656528E-05  1.55937799E-06  3.09932479E-06  0.00000000E+00
  0.00000000E+00  8.46942145E-05  8.32509644E-05 -9.82445506E-05  0.00000000E+00
  0.00000000E+00  1.71675210E-04  1.59849374E-04  0.00000000E+00  1.61927860E-05
 -3.03928329E-06  0.00000000E+00  0.00000000E+00 -3.52146816E-06 -1.21239447E-05
  0.00000000E+00 -3.23697976E-05  4.46164038E-05  0.00000000E+00  0.00000000E+00
  8.64673539E-05  8.94259377E-05  3.92025976E-05 -9.84637480E-04 -4.82904734E-04
 -1.07974755E-05 -2.12215938E-05  1.55424870E-05  0.00000000E+00 -1.66951163E-06
  2.70542080E-04  0.00000000E+00 -4.34859464E-05  1.32443844E-04  0.00000000E+00
  2.57494764E-05  0.00000000E+00  0.00000000E+00  1.18745882E-05  1.09578532E-05
 -2.88068241E-05  0.00000000E+00  0.00000000E+00  1.17625729E-05  3.51788217E-05
  1.12721697E-04  8.39753946E-05 -2.77597591E-05  7.41152290E-04  6.55745597E-04
  1.02864362E-05  2.50476341E-06  0.00000000E+00 -7.36618667E-05  1.45299735E-05
  0.00000000E+00  3.36665542E-04  9.08942218E-04  0.00000000E+00  2.50172988E-06
  8.32206076E-05  0.00000000E+00 -2.29762453E-06  0.00000000E+00  0.00000000E+00
 -1.44000934E-07 -5.52031269E-06 -3.52949066E-05  0.00000000E+00  0.00000000E+00
 -1.85697099E-05  8.02441498E-05 -2.33666201E-05  0.00000000E+00  0.00000000E+00
 -2.70137596E-04 -1.67318851E-04  0.00000000E+00  9.03647457E-06  6.09484187E-06
  0.00000000E+00  0.00000000E+00  2.53230851E-06 -1.85266125E-05  0.00000000E+00
 -3.95336948E-05 -3.86567188E-05  0.00000000E+00  0.00000000E+00 -7.59320628E-05
  2.17517809E-05  2.64744099E-03  3.97499271E-05  9.48510043E-05 -7.89559697E-05
 -4.82406415E-04  6.41656058E-06  1.43507980E-05  0.00000000E+00 -5.91863077E-05
 -4.95493765E-05  0.00000000E+00  2.51777809E-04 -1.88284021E-04  0.00000000E+00
 -1.92556971E-04 -6.65316214E-05  0.00000000E+00 -8.87727846E-06  0.00000000E+00
  0.00000000E+00  2.23190432E-05  2.06774128E-05  7.18726111E-06  0.00000000E+00
  0.00000000E+00 -1.15631951E-04 -5.32807148E-05 -9.92241311E-07  0.00000000E+00
  0.00000000E+00 -2.22082484E-04 -2.21735975E-04  0.00000000E+00  2.38707914E-06
 -1.82226070E-06  0.00000000E+00  0.00000000E+00  4.84552226E-07 -1.25820522E-05
  0.00000000E+00 -4.55534752E-05  5.10235990E-06  0.00000000E+00  0.00000000E+00
 -7.74770908E-05  1.84271105E-04  2.58358185E-04  1.46193370E-03 -7.92697385E-05
 -1.51139742E-03  4.06049875E-04 -1.44941699E-04  4.25289561E-07  0.00000000E+00
 -2.08753249E-03 -3.83669950E-04  0.00000000E+00  1.01913643E-03  7.52307780E-04
  0.00000000E+00 -1.67826139E-04  6.09711698E-05  0.00000000E+00 -1.22929847E-04
  0.00000000E+00  0.00000000E+00  2.45113581E-04  9.01537438E-05 -4.44716873E-04
  0.00000000E+00  0.00000000E+00  8.92725902E-04 -7.87635920E-05  8.58484022E-06
  0.00000000E+00  0.00000000E+00 -3.38663305E-04 -1.20866634E-04  0.00000000E+00
 -1.75558071E-06  1.49118933E-05  0.00000000E+00  0.00000000E+00  1.91791533E-05
  1.23035628E-05  0.00000000E+00  1.66009893E-04 -7.32086632E-05  0.00000000E+00
  0.00000000E+00 -2.37608955E-04  4.40318871E-05  9.76648243E-01 -9.84915247E-03
  4.35693735E-02  4.48614101E-03 -4.49618026E-04  2.15281070E-03  4.55763159E-04
  0.00000000E+00 -2.38901667E-03 -5.77195446E-04  0.00000000E+00  1.13671677E-03
 -3.85962275E-06  0.00000000E+00  3.76594835E-06 -4.41272627E-05  0.00000000E+00
 -2.32767828E-04  0.00000000E+00  0.00000000E+00  1.02834248E-04  3.04329668E-05
  3.89863689E-04  0.00000000E+00  0.00000000E+00 -8.41442325E-04 -3.99743849E-04
 -1.56128089E-04  0.00000000E+00  0.00000000E+00  2.53564659E-04  1.78964103E-05
  0.00000000E+00  5.24387271E-05  1.74887962E-05  0.00000000E+00  0.00000000E+00
 -2.20809553E-05 -1.24436492E-05  0.00000000E+00  1.38052949E-04  6.69245302E-06
  0.00000000E+00  0.00000000E+00 -1.94495297E-04 -1.34299419E-04  4.74925339E-04
  2.05812795E-03  1.12235395E-04  1.48877148E-05 -4.10183519E-05 -2.46874284E-04
  0.00000000E+00  1.12420558E-04 -1.27389142E-03  0.00000000E+00  3.13794198E-04
 -3.36846163E-04  0.00000000E+00 -2.60530590E-06  0.00000000E+00  0.00000000E+00
  7.60521711E-05  1.54623002E-05 -1.59943604E-04  0.00000000E+00  0.00000000E+00
 -5.37453707E-04 -2.49739037E-05  9.76829856E-01 -9.16314572E-03  4.34502477E-02
  1.66654221E-04 -1.14799506E-03 -1.56141813E-03  1.44165681E-03  0.00000000E+00
  1.57385245E-03 -1.28418574E-03  0.00000000E+00 -5.67832970E-04 -8.63512923E-04
  0.00000000E+00  5.63151107E-05 -3.42411596E-05  0.00000000E+00  2.93941835E-05
  0.00000000E+00  0.00000000E+00 -1.17920982E-04 -2.83143818E-06  7.57203734E-04
  0.00000000E+00  0.00000000E+00 -2.01740666E-04 -2.35230145E-04 -2.66526422E-04
  0.00000000E+00  0.00000000E+00  1.67618916E-04  1.27667708E-04  0.00000000E+00
 -6.41204410E-05  1.24413628E-06  0.00000000E+00  0.00000000E+00  1.87868556E-05
  9.95633409E-06  0.00000000E+00 -1.19255256E-06  1.22784486E-04  0.00000000E+00
  0.00000000E+00  2.56966222E-04  9.17313003E-05 -4.65746576E-03 -2.10808464E-04