title                                                                   
SP        RMP2-FC                                                     Aug-CC-pVTZ         
Number of atoms                            I                5
Info1-9                                    I   N=           9
          33          24           0           0           0         110
           1           2           1
Full Title                                 C   N=           1
title       
Route                                      C   N=           4
#p SP mp2/aug-cc-pvtz density=current           
Charge                                     I                0
Multiplicity                               I                1
Number of electrons                        I               32
Number of alpha electrons                  I               16
Number of beta electrons                   I               16
Number of basis functions                  I              207
Number of independent functions            I              207
Number of point charges in /Mol/           I                0
Number of translation vectors              I                0
Atomic numbers                             I   N=           5
           1           8           8           7           8
Nuclear charges                            R   N=           5
  1.00000000E+00  8.00000000E+00  8.00000000E+00  7.00000000E+00  8.00000000E+00
Current cartesian coordinates              R   N=          15
  2.90109298E+00  3.21808900E+00 -2.84127930E-32  2.74624669E+00  1.39354958E+00
 -1.07149796E-32 -7.70679834E-17  1.26192830E+00  6.85801509E-33 -4.92001239E-01
 -1.45051389E+00  3.02890195E-33 -2.67838222E+00 -1.78853935E+00  3.02293660E-32
Number of symbols in /Mol/                 I                0
Force Field                                I                0
Atom Types                                 C   N=           5
                                                            
Int Atom Types                             I   N=           5
           0           0           0           0           0
MM charges                                 R   N=           5
  0.00000000E+00  0.00000000E+00  0.00000000E+00  0.00000000E+00  0.00000000E+00
Integer atomic weights                     I   N=           5
           1          16          16          14          16
Real atomic weights                        R   N=           5
  1.00782504E+00  1.59949146E+01  1.59949146E+01  1.40030740E+01  1.59949146E+01
Atom fragment info                         I   N=           5
           0           0           0           0           0
Atom residue num                           I   N=           5
           0           0           0           0           0
Nuclear spins                              I   N=           5
           1           0           0           2           0
Nuclear ZEff                               R   N=           5
 -1.00000000E+00 -5.60000000E+00 -5.60000000E+00 -4.55000000E+00 -5.60000000E+00
Nuclear ZNuc                               R   N=           5
  1.00000000E+00  8.00000000E+00  8.00000000E+00  7.00000000E+00  8.00000000E+00
Nuclear QMom                               R   N=           5
  0.00000000E+00  0.00000000E+00  0.00000000E+00  2.04400000E+00  0.00000000E+00
Nuclear GFac                               R   N=           5
  2.79284600E+00  0.00000000E+00  0.00000000E+00  4.03761000E-01  0.00000000E+00
MicOpt                                     I   N=           5
          -1          -1          -1          -1          -1
Number of residues                         I                0
Number of secondary structures             I                0
SymInf integers                            I   N=          26
           1           2           1           1           1           1
           1          -1           0           0           0           0
           0           0           0           0           0           0
           0           0           0           0           0           0
           0           0
RotTr to input orientation                 R   N=          12
 -9.96417990E-01 -9.80347696E-17 -8.45647003E-02  8.45647003E-02 -7.33946985E-17
 -9.96417990E-01  9.14770075E-17 -1.00000000E+00  8.14220789E-17  2.61856450E+00
  0.00000000E+00  3.45189183E+00
Number of contracted shells                I               65
Number of primitive shells                 I              119
Pure/Cartesian d shells                    I                0
Pure/Cartesian f shells                    I                0
Highest angular momentum                   I                3
Largest degree of contraction              I                7
Shell types                                I   N=          65
           0           0           0           0           1           1
           1          -2          -2           0           0           0
           0           0           1           1           1           1
          -2          -2          -2          -3          -3           0
           0           0           0           0           1           1
           1           1          -2          -2          -2          -3
          -3           0           0           0           0           0
           1           1           1           1          -2          -2
          -2          -3          -3           0           0           0
           0           0           1           1           1           1
          -2          -2          -2          -3          -3
Number of primitives per shell             I   N=          65
           3           1           1           1           1           1
           1           1           1           7           6           1
           1           1           3           1           1           1
           1           1           1           1           1           7
           6           1           1           1           3           1
           1           1           1           1           1           1
           1           7           6           1           1           1
           3           1           1           1           1           1
           1           1           1           7           6           1
           1           1           3           1           1           1
           1           1           1           1           1
Shell to atom map                          I   N=          65
           1           1           1           1           1           1
           1           1           1           2           2           2
           2           2           2           2           2           2
           2           2           2           2           2           3
           3           3           3           3           3           3
           3           3           3           3           3           3
           3           4           4           4           4           4
           4           4           4           4           4           4
           4           4           4           5           5           5
           5           5           5           5           5           5
           5           5           5           5           5
Primitive exponents                        R   N=         119
  3.38700000E+01  5.09500000E+00  1.15900000E+00  3.25800000E-01  1.02700000E-01
  2.52600000E-02  1.40700000E+00  3.88000000E-01  1.02000000E-01  1.05700000E+00
  2.47000000E-01  1.53300000E+04  2.29900000E+03  5.22400000E+02  1.47300000E+02
  4.75500000E+01  1.67600000E+01  6.20700000E+00  5.22400000E+02  1.47300000E+02
  4.75500000E+01  1.67600000E+01  6.20700000E+00  6.88200000E-01  1.75200000E+00
  2.38400000E-01  7.37600000E-02  3.44600000E+01  7.74900000E+00  2.28000000E+00
  7.15600000E-01  2.14000000E-01  5.97400000E-02  2.31400000E+00  6.45000000E-01
  2.14000000E-01  1.42800000E+00  5.00000000E-01  1.53300000E+04  2.29900000E+03
  5.22400000E+02  1.47300000E+02  4.75500000E+01  1.67600000E+01  6.20700000E+00
  5.22400000E+02  1.47300000E+02  4.75500000E+01  1.67600000E+01  6.20700000E+00
  6.88200000E-01  1.75200000E+00  2.38400000E-01  7.37600000E-02  3.44600000E+01
  7.74900000E+00  2.28000000E+00  7.15600000E-01  2.14000000E-01  5.97400000E-02
  2.31400000E+00  6.45000000E-01  2.14000000E-01  1.42800000E+00  5.00000000E-01
  1.14200000E+04  1.71200000E+03  3.89300000E+02  1.10000000E+02  3.55700000E+01
  1.25400000E+01  4.64400000E+00  3.89300000E+02  1.10000000E+02  3.55700000E+01
  1.25400000E+01  4.64400000E+00  5.11800000E-01  1.29300000E+00  1.78700000E-01
  5.76000000E-02  2.66300000E+01  5.94800000E+00  1.74200000E+00  5.55000000E-01
  1.72500000E-01  4.91000000E-02  1.65400000E+00  4.69000000E-01  1.51000000E-01
  1.09300000E+00  3.64000000E-01  1.53300000E+04  2.29900000E+03  5.22400000E+02
  1.47300000E+02  4.75500000E+01  1.67600000E+01  6.20700000E+00  5.22400000E+02
  1.47300000E+02  4.75500000E+01  1.67600000E+01  6.20700000E+00  6.88200000E-01
  1.75200000E+00  2.38400000E-01  7.37600000E-02  3.44600000E+01  7.74900000E+00
  2.28000000E+00  7.15600000E-01  2.14000000E-01  5.97400000E-02  2.31400000E+00
  6.45000000E-01  2.14000000E-01  1.42800000E+00  5.00000000E-01
Contraction coefficients                   R   N=         119
  2.54948632E-02  1.90362766E-01  8.52162022E-01  1.00000000E+00  1.00000000E+00
  1.00000000E+00  1.00000000E+00  1.00000000E+00  1.00000000E+00  1.00000000E+00
  1.00000000E+00  5.19808943E-04  4.02025621E-03  2.07128267E-02  8.10105536E-02
  2.35962985E-01  4.42653446E-01  3.57064423E-01 -4.42115008E-05 -1.22591041E-03
 -1.05517725E-02 -6.74452633E-02 -1.71198607E-01  1.07329856E+00  1.00000000E+00
  1.00000000E+00  1.00000000E+00  4.11634896E-02  2.57762836E-01  8.02419274E-01
  1.00000000E+00  1.00000000E+00  1.00000000E+00  1.00000000E+00  1.00000000E+00
  1.00000000E+00  1.00000000E+00  1.00000000E+00  5.19808943E-04  4.02025621E-03
  2.07128267E-02  8.10105536E-02  2.35962985E-01  4.42653446E-01  3.57064423E-01
 -4.42115008E-05 -1.22591041E-03 -1.05517725E-02 -6.74452633E-02 -1.71198607E-01
  1.07329856E+00  1.00000000E+00  1.00000000E+00  1.00000000E+00  4.11634896E-02
  2.57762836E-01  8.02419274E-01  1.00000000E+00  1.00000000E+00  1.00000000E+00
  1.00000000E+00  1.00000000E+00  1.00000000E+00  1.00000000E+00  1.00000000E+00
  5.34563860E-04  4.13435660E-03  2.12335358E-02  8.25006224E-02  2.38138871E-01
  4.42551547E-01  3.53757422E-01 -4.89867350E-05 -1.19527323E-03 -1.03490714E-02
 -6.48680190E-02 -1.71552477E-01  1.07289568E+00  1.00000000E+00  1.00000000E+00
  1.00000000E+00  3.98072123E-02  2.49002660E-01  8.10479727E-01  1.00000000E+00
  1.00000000E+00  1.00000000E+00  1.00000000E+00  1.00000000E+00  1.00000000E+00
  1.00000000E+00  1.00000000E+00  5.19808943E-04  4.02025621E-03  2.07128267E-02
  8.10105536E-02  2.35962985E-01  4.42653446E-01  3.57064423E-01 -4.42115008E-05
 -1.22591041E-03 -1.05517725E-02 -6.74452633E-02 -1.71198607E-01  1.07329856E+00
  1.00000000E+00  1.00000000E+00  1.00000000E+00  4.11634896E-02  2.57762836E-01
  8.02419274E-01  1.00000000E+00  1.00000000E+00  1.00000000E+00  1.00000000E+00
  1.00000000E+00  1.00000000E+00  1.00000000E+00  1.00000000E+00
Coordinates of each shell                  R   N=         195
  2.90109298E+00  3.21808900E+00  0.00000000E+00  2.90109298E+00  3.21808900E+00
  0.00000000E+00  2.90109298E+00  3.21808900E+00  0.00000000E+00  2.90109298E+00
  3.21808900E+00  0.00000000E+00  2.90109298E+00  3.21808900E+00  0.00000000E+00
  2.90109298E+00  3.21808900E+00  0.00000000E+00  2.90109298E+00  3.21808900E+00
  0.00000000E+00  2.90109298E+00  3.21808900E+00  0.00000000E+00  2.90109298E+00
  3.21808900E+00  0.00000000E+00  2.74624669E+00  1.39354958E+00  0.00000000E+00
  2.74624669E+00  1.39354958E+00  0.00000000E+00  2.74624669E+00  1.39354958E+00
  0.00000000E+00  2.74624669E+00  1.39354958E+00  0.00000000E+00  2.74624669E+00
  1.39354958E+00  0.00000000E+00  2.74624669E+00  1.39354958E+00  0.00000000E+00
  2.74624669E+00  1.39354958E+00  0.00000000E+00  2.74624669E+00  1.39354958E+00
  0.00000000E+00  2.74624669E+00  1.39354958E+00  0.00000000E+00  2.74624669E+00
  1.39354958E+00  0.00000000E+00  2.74624669E+00  1.39354958E+00  0.00000000E+00
  2.74624669E+00  1.39354958E+00  0.00000000E+00  2.74624669E+00  1.39354958E+00
  0.00000000E+00  2.74624669E+00  1.39354958E+00  0.00000000E+00 -7.66243035E-18
  1.26192830E+00  0.00000000E+00 -7.66243035E-18  1.26192830E+00  0.00000000E+00
 -7.66243035E-18  1.26192830E+00  0.00000000E+00 -7.66243035E-18  1.26192830E+00
  0.00000000E+00 -7.66243035E-18  1.26192830E+00  0.00000000E+00 -7.66243035E-18
  1.26192830E+00  0.00000000E+00 -7.66243035E-18  1.26192830E+00  0.00000000E+00
 -7.66243035E-18  1.26192830E+00  0.00000000E+00 -7.66243035E-18  1.26192830E+00
  0.00000000E+00 -7.66243035E-18  1.26192830E+00  0.00000000E+00 -7.66243035E-18
  1.26192830E+00  0.00000000E+00 -7.66243035E-18  1.26192830E+00  0.00000000E+00
 -7.66243035E-18  1.26192830E+00  0.00000000E+00 -7.66243035E-18  1.26192830E+00
  0.00000000E+00 -4.92001239E-01 -1.45051389E+00  0.00000000E+00 -4.92001239E-01
 -1.45051389E+00  0.00000000E+00 -4.92001239E-01 -1.45051389E+00  0.00000000E+00
 -4.92001239E-01 -1.45051389E+00  0.00000000E+00 -4.92001239E-01 -1.45051389E+00
  0.00000000E+00 -4.92001239E-01 -1.45051389E+00  0.00000000E+00 -4.92001239E-01
 -1.45051389E+00  0.00000000E+00 -4.92001239E-01 -1.45051389E+00  0.00000000E+00
 -4.92001239E-01 -1.45051389E+00  0.00000000E+00 -4.92001239E-01 -1.45051389E+00
  0.00000000E+00 -4.92001239E-01 -1.45051389E+00  0.00000000E+00 -4.92001239E-01
 -1.45051389E+00  0.00000000E+00 -4.92001239E-01 -1.45051389E+00  0.00000000E+00
 -4.92001239E-01 -1.45051389E+00  0.00000000E+00 -2.67838222E+00 -1.78853935E+00
  0.00000000E+00 -2.67838222E+00 -1.78853935E+00  0.00000000E+00 -2.67838222E+00
 -1.78853935E+00  0.00000000E+00 -2.67838222E+00 -1.78853935E+00  0.00000000E+00
 -2.67838222E+00 -1.78853935E+00  0.00000000E+00 -2.67838222E+00 -1.78853935E+00
  0.00000000E+00 -2.67838222E+00 -1.78853935E+00  0.00000000E+00 -2.67838222E+00
 -1.78853935E+00  0.00000000E+00 -2.67838222E+00 -1.78853935E+00  0.00000000E+00
 -2.67838222E+00 -1.78853935E+00  0.00000000E+00 -2.67838222E+00 -1.78853935E+00
  0.00000000E+00 -2.67838222E+00 -1.78853935E+00  0.00000000E+00 -2.67838222E+00
 -1.78853935E+00  0.00000000E+00 -2.67838222E+00 -1.78853935E+00  0.00000000E+00
Num ILSW                                   I              100
ILSW                                       I   N=         100
           0           0           0           0           2           0
           0           0           0           0           0          -1
           5           0           0           0           0           0
           0           0           0           0           0           0
           1           0           0           0           0           0
           0           0      100000           0          -1           0
           0           0           0           0           0           0
           0           0           0           1           0           0
           0 -2000000000           1           0           0           0
           0           0           4          52           0           0
           0           0           0           0           0           0
           0           0           0           5           0           1
           0           0           0           0           0           0
           0           0           0           0           0           0
           0           0           0           0           0           0
           0           0           0           0           0           0
           0           0           0           0
Num RLSW                                   I               52
RLSW                                       R   N=          52
  1.00000000E+00  1.00000000E+00  1.00000000E+00  1.00000000E+00  1.00000000E+00
  0.00000000E+00  0.00000000E+00  1.00000000E+00  0.00000000E+00  0.00000000E+00
  0.00000000E+00  0.00000000E+00  1.00000000E+00  0.00000000E+00  0.00000000E+00
  0.00000000E+00  0.00000000E+00  1.00000000E+00  0.00000000E+00  0.00000000E+00
  0.00000000E+00  0.00000000E+00  1.00000000E+00  0.00000000E+00  0.00000000E+00
  0.00000000E+00  0.00000000E+00  1.00000000E+00  0.00000000E+00  0.00000000E+00
  0.00000000E+00  0.00000000E+00  1.00000000E+00  0.00000000E+00  0.00000000E+00
  0.00000000E+00  0.00000000E+00  0.00000000E+00  1.00000000E+00  1.00000000E+00
  0.00000000E+00  1.00000000E+00  0.00000000E+00  0.00000000E+00  0.00000000E+00
  0.00000000E+00  0.00000000E+00  0.00000000E+00  0.00000000E+00  0.00000000E+00
  0.00000000E+00  0.00000000E+00
MxBond                                     I                2
NBond                                      I   N=           5
           1           2           2           2           1
IBond                                      I   N=          10
           2           0           1           3           2           4
           3           5           4           0
RBond                                      R   N=          10
  1.00000000E+00  0.00000000E+00  1.00000000E+00  1.00000000E+00  1.00000000E+00
  1.00000000E+00  1.00000000E+00  2.00000000E+00  2.00000000E+00  0.00000000E+00
Virial Ratio                               R      2.002368835593940E+00
SCF Energy                                 R     -2.795017198340070E+02
MP2 Energy                                 R     -2.804467115306312E+02
Total Energy                               R     -2.804467115306312E+02
Post-SCF wavefunction norm                 R      1.120225256627201E+00
RMS Density                                R      3.797214727506456E-09
Job Status                                 I                1
Nuclear derivative order                   I                0
External E-field                           R   N=          35
  0.00000000E+00  0.00000000E+00  0.00000000E+00  0.00000000E+00  0.00000000E+00
  0.00000000E+00  0.00000000E+00  0.00000000E+00  0.00000000E+00  0.00000000E+00
  0.00000000E+00  0.00000000E+00  0.00000000E+00  0.00000000E+00  0.00000000E+00
  0.00000000E+00  0.00000000E+00  0.00000000E+00  0.00000000E+00  0.00000000E+00
  0.00000000E+00  0.00000000E+00  0.00000000E+00  0.00000000E+00  0.00000000E+00
  0.00000000E+00  0.00000000E+00  0.00000000E+00  0.00000000E+00  0.00000000E+00
  0.00000000E+00  0.00000000E+00  0.00000000E+00  0.00000000E+00  0.00000000E+00
IOpCl                                      I                0
IROHF                                      I                0
Alpha Orbital Energies                     R   N=         207
 -2.06906758E+01 -2.06844612E+01 -2.06602262E+01 -1.58130587E+01 -1.62400717E+00
 -1.49553537E+00 -1.25475543E+00 -9.47927631E-01 -7.72224919E-01 -7.59475197E-01
 -7.11686405E-01 -6.80466858E-01 -6.20651194E-01 -5.88885541E-01 -4.85162172E-01
 -4.72353407E-01  2.96302545E-02  7.15867181E-02  8.59582169E-02  1.01913816E-01
  1.33871953E-01  1.33877831E-01  1.43986911E-01  1.54289108E-01  1.78288178E-01
  1.94250561E-01  1.99881873E-01  2.06273699E-01  2.20729604E-01  2.35337044E-01
  2.37318565E-01  2.66580366E-01  2.93538295E-01  3.03485736E-01  3.10639116E-01
  3.43615363E-01  3.49498300E-01  3.86896596E-01  4.22222751E-01  4.32177224E-01
  5.27444011E-01  5.28633756E-01  5.57624445E-01  5.80542716E-01  6.25775509E-01
  6.38875333E-01  6.74620744E-01  6.84514935E-01  7.06811248E-01  7.10654794E-01
  7.24320243E-01  7.28999015E-01  7.44647824E-01  7.92093173E-01  7.92350367E-01
  8.10720489E-01  8.12650250E-01  8.29887155E-01  8.68221487E-01  9.08509161E-01
  9.21744418E-01  9.26528012E-01  9.55433669E-01  9.75001393E-01  9.84008857E-01
  1.01642756E+00  1.05143874E+00  1.05536544E+00  1.08035782E+00  1.11588616E+00
  1.13996726E+00  1.19036696E+00  1.22008118E+00  1.23355309E+00  1.33948399E+00
  1.35098466E+00  1.38534646E+00  1.45405946E+00  1.48796724E+00  1.50890716E+00
  1.53717584E+00  1.56623111E+00  1.57921233E+00  1.61225461E+00  1.66234216E+00
  1.67103181E+00  1.70329137E+00  1.79273928E+00  1.83326506E+00  1.83567171E+00
  1.87770624E+00  1.90886098E+00  1.95498490E+00  1.99157667E+00  2.00574390E+00
  2.07811585E+00  2.12268986E+00  2.13251016E+00  2.14970310E+00  2.22394921E+00
  2.26435021E+00  2.26498296E+00  2.29027848E+00  2.31319404E+00  2.34003886E+00
  2.38525219E+00  2.42313610E+00  2.42909661E+00  2.45462025E+00  2.46204685E+00
  2.47661937E+00  2.49902629E+00  2.58882894E+00  2.59726914E+00  2.62046681E+00
  2.62561575E+00  2.63634974E+00  2.66624800E+00  2.75567352E+00  2.82182319E+00
  2.84838901E+00  2.88009649E+00  2.89421621E+00  2.92543049E+00  2.95977344E+00
  3.02062976E+00  3.06627044E+00  3.11982336E+00  3.20377763E+00  3.22475913E+00
  3.31746161E+00  3.34530084E+00  3.52232411E+00  3.63913911E+00  3.83760905E+00
  3.84415884E+00  4.14780194E+00  4.16341676E+00  4.18299358E+00  4.25605540E+00
  4.35367522E+00  4.39171886E+00  4.46310496E+00  4.51989248E+00  4.65743533E+00
  4.71009859E+00  4.80263656E+00  4.82443907E+00  4.82986194E+00  4.89515956E+00
  5.02403951E+00  5.07763759E+00  5.10381917E+00  5.14746095E+00  5.17633399E+00
  5.24066173E+00  5.27269335E+00  5.30820337E+00  5.32764696E+00  5.35152382E+00
  5.60028641E+00  5.67350807E+00  5.76738009E+00  5.82984388E+00  5.95743241E+00
  6.16611271E+00  6.30881525E+00  6.33905619E+00  6.39514884E+00  6.49392381E+00
  6.50602875E+00  6.61233709E+00  6.66932793E+00  6.70031946E+00  6.75531984E+00
  6.76327183E+00  6.83206728E+00  6.89934009E+00  7.01529146E+00  7.05646050E+00
  7.05859283E+00  7.08994628E+00  7.12362153E+00  7.14833812E+00  7.18107712E+00
  7.22599772E+00  7.24078011E+00  7.30645937E+00  7.32541112E+00  7.34301940E+00
  7.39767098E+00  7.43263470E+00  7.48325625E+00  7.61033640E+00  7.61773805E+00
  7.62317011E+00  7.66365383E+00  7.78765238E+00  7.88326130E+00  8.09457029E+00
  8.31422577E+00  8.40926168E+00  8.54488814E+00  1.33846476E+01  1.44076983E+01
  1.51537493E+01  1.61512164E+01
Alpha MO coefficients                      R   N=       42849
  9.23905309E-05 -6.51683544E-04 -7.34253398E-04 -5.34534832E-06 -2.19129853E-05
 -2.71174823E-05  0.00000000E+00 -4.20913058E-05  6.39169194E-05  0.00000000E+00
  8.95771246E-05  3.88105637E-05  0.00000000E+00  3.21492604E-05  0.00000000E+00
  0.00000000E+00 -5.01590158E-05  1.96485576E-05 -4.73148232E-06  0.00000000E+00
  0.00000000E+00 -1.43409612E-04  1.14306817E-04  4.65003175E-03 -2.81429397E-04
  1.63965101E-05  1.58945919E-03  1.83258612E-03  1.06834624E-04  8.94683182E-06
  0.00000000E+00 -6.21647491E-04 -4.41892077E-05  0.00000000E+00 -1.12747055E-03
  7.87626255E-04  0.00000000E+00 -4.06396002E-04  5.82360407E-05  0.00000000E+00
  2.88234651E-05  0.00000000E+00  0.00000000E+00 -5.43645474E-05  4.33485781E-06
 -3.79879660E-04  0.00000000E+00  0.00000000E+00  7.42716410E-04 -1.12155405E-05
 -4.48511831E-04  0.00000000E+00  0.00000000E+00  2.47544196E-04 -1.00591171E-05
  0.00000000E+00  8.01976017E-05  1.38891390E-05  0.00000000E+00  0.00000000E+00
 -1.09113447E-04 -7.65794365E-06  0.00000000E+00  2.54524173E-04 -2.50267340E-05
  0.00000000E+00  0.00000000E+00 -3.57954739E-04  3.51906791E-05  9.76910293E-01
 -9.21125388E-03  4.33207749E-02  2.00903813E-03 -9.21372597E-04  1.50459406E-03
 -1.34331905E-03  0.00000000E+00 -1.44264883E-03  1.36817368E-03  0.00000000E+00
  7.24456051E-05 -1.16245655E-03  0.00000000E+00 -1.38298573E-04 -1.32410599E-05
  0.00000000E+00  4.51696546E-05  0.00000000E+00  0.00000000E+00 -3.51091564E-05
  2.27297941E-05  7.50165927E-04  0.00000000E+00  0.00000000E+00 -2.29279318E-04
 -4.08631829E-04 -3.59010770E-04  0.00000000E+00  0.00000000E+00 -3.10316278E-04
 -3.73568717E-04  0.00000000E+00  4.74296110E-05 -4.83201620E-05  0.00000000E+00
  0.00000000E+00 -3.87835388E-05 -1.69924667E-05  0.00000000E+00  2.41982501E-05
  2.23256861E-05  0.00000000E+00  0.00000000E+00 -3.05909054E-04 -1.49615534E-04
  3.95459030E-05  4.82091956E-05 -2.65699344E-04 -6.88439010E-04 -1.41042432E-04
 -2.72022484E-05 -9.80073101E-05  0.00000000E+00  2.75104840E-04  7.17292550E-04
  0.00000000E+00 -8.47210513E-04 -4.78945489E-04  0.00000000E+00 -1.23339991E-04
 -2.67847355E-05  0.00000000E+00 -1.83654916E-05  0.00000000E+00  0.00000000E+00
 -3.02141047E-05  1.50462816E-05 -3.29444411E-04  0.00000000E+00  0.00000000E+00
 -8.30534346E-04  1.28061537E-04 -3.62237653E-05  0.00000000E+00  0.00000000E+00
  9.88094706E-05 -1.18967920E-04  0.00000000E+00 -2.09085547E-05 -1.20305959E-04
  0.00000000E+00  0.00000000E+00 -6.14669191E-05 -1.37810748E-04  0.00000000E+00
  5.70835336E-06 -1.50282572E-04  0.00000000E+00  0.00000000E+00  4.42769882E-05
 -4.22477273E-04 -2.71441297E-03  1.23089395E-04 -1.30188576E-04 -2.55424861E-04
  1.32546881E-04 -8.25152312E-06 -2.83005659E-05  0.00000000E+00  6.95094597E-05
  1.67138597E-04  0.00000000E+00  2.32865696E-04  1.96041846E-04  0.00000000E+00
  1.26153861E-04  2.15245633E-05  0.00000000E+00 -3.42624954E-06  0.00000000E+00
  0.00000000E+00 -1.79577204E-05  1.19498433E-06  4.44604250E-07  0.00000000E+00
  0.00000000E+00  8.10954734E-05  8.91262441E-05 -1.00455566E-04  0.00000000E+00
  0.00000000E+00  1.69543068E-04  1.60012076E-04  0.00000000E+00  1.57936032E-05
 -3.62400633E-06  0.00000000E+00  0.00000000E+00 -4.44312091E-06 -1.18380924E-05
  0.00000000E+00 -3.37550889E-05  4.56512986E-05  0.00000000E+00  0.00000000E+00
  8.51022231E-05  9.02588310E-05  3.77581190E-05 -9.85544377E-04 -4.94766651E-04
 -1.01882046E-05 -2.22767563E-05  1.63281658E-05  0.00000000E+00 -2.27228929E-06
  2.76512224E-04  0.00000000E+00 -3.89589237E-05  1.36264886E-04  0.00000000E+00
  2.56750850E-05  0.00000000E+00  0.00000000E+00  1.30067807E-05  1.15046997E-05
 -2.53366520E-05  0.00000000E+00  0.00000000E+00  9.55750088E-06  3.30779741E-05
  1.12693376E-04  7.89108955E-05 -2.78286920E-05  7.67902529E-04  6.80441661E-04
  1.01531254E-05  2.59424598E-06  0.00000000E+00 -7.05649081E-05  1.73060535E-05
  0.00000000E+00  3.05429784E-04  8.81098180E-04  0.00000000E+00 -5.54622544E-06
  7.73691725E-05  0.00000000E+00 -1.97830834E-06  0.00000000E+00  0.00000000E+00
 -9.39023397E-09 -6.93258539E-06 -3.71034578E-05  0.00000000E+00  0.00000000E+00
 -2.35616588E-05  8.74856727E-05 -2.56868345E-05  0.00000000E+00  0.00000000E+00
 -2.61626783E-04 -1.55979611E-04  0.00000000E+00  9.17117370E-06  5.99363726E-06
  0.00000000E+00  0.00000000E+00  2.87157353E-06 -1.89227751E-05  0.00000000E+00
 -3.92695839E-05 -3.74279724E-05  0.00000000E+00  0.00000000E+00 -7.44393655E-05
  1.25776234E-05  2.75348861E-03  3.85283882E-05  9.71310626E-05 -6.91472648E-05
 -4.76826318E-04  7.37271435E-06  1.58072109E-05  0.00000000E+00 -6.22681164E-05
 -5.69585419E-05  0.00000000E+00  2.34100540E-04 -1.73144348E-04  0.00000000E+00
 -1.95620097E-04 -6.70668311E-05  0.00000000E+00 -8.69776535E-06  0.00000000E+00
  0.00000000E+00  2.24518986E-05  1.94924360E-05  4.23093167E-06  0.00000000E+00
  0.00000000E+00 -1.17821615E-04 -4.52584837E-05 -3.41357886E-06  0.00000000E+00
  0.00000000E+00 -2.21721134E-04 -1.97204906E-04  0.00000000E+00  3.29960253E-06
 -1.92399537E-07  0.00000000E+00  0.00000000E+00  1.79263501E-06 -1.40299368E-05
  0.00000000E+00 -4.67476983E-05  1.99248086E-06  0.00000000E+00  0.00000000E+00
 -7.76140223E-05  1.91581682E-04  2.58718511E-04  1.46550171E-03 -7.81658961E-05
 -1.54617007E-03  3.83569828E-04 -1.44582882E-04 -8.44888068E-08  0.00000000E+00
 -2.08514106E-03 -4.03677840E-04  0.00000000E+00  1.01570791E-03  7.51353607E-04
  0.00000000E+00 -1.69903486E-04  5.36003277E-05  0.00000000E+00 -1.23421287E-04
  0.00000000E+00  0.00000000E+00  2.42877372E-04  9.48023008E-05 -4.41491804E-04
  0.00000000E+00  0.00000000E+00  8.99146613E-04 -6.72484847E-05  1.28403308E-05
  0.00000000E+00  0.00000000E+00 -3.34949803E-04 -1.28015692E-04  0.00000000E+00
 -1.74208683E-06  1.50455267E-05  0.00000000E+00  0.00000000E+00  1.93768370E-05
  1.42159325E-05  0.00000000E+00  1.67637521E-04 -7.04884402E-05  0.00000000E+00
  0.00000000E+00 -2.41420761E-04  3.83545191E-05  9.76649074E-01 -9.84957105E-03
  4.35669341E-02  4.49105443E-03 -4.42888542E-04  2.14830400E-03  4.84267302E-04
  0.00000000E+00 -2.38384596E-03 -6.06423198E-04  0.00000000E+00  1.14250005E-03
 -2.09890081E-06  0.00000000E+00  5.74466799E-06 -4.39127772E-05  0.00000000E+00
 -2.32056489E-04  0.00000000E+00  0.00000000E+00  1.02824164E-04  3.17322171E-05
  3.90492594E-04  0.00000000E+00  0.00000000E+00 -8.32052318E-04 -4.20793920E-04
 -1.55679392E-04  0.00000000E+00  0.00000000E+00  2.58576125E-04  1.89658429E-05
  0.00000000E+00  5.22652805E-05  1.78520065E-05  0.00000000E+00  0.00000000E+00
 -2.18875315E-05 -1.34655656E-05  0.00000000E+00  1.37790013E-04  9.09434792E-06
  0.00000000E+00  0.00000000E+00 -1.88961346E-04 -1.41068336E-04  4.73062260E-04
  2.01923392E-03  1.01711466E-04  1.47128171E-05 -3.85800020E-05 -2.45783114E-04
  0.00000000E+00  1.30932693E-04 -1.26080149E-03  0.00000000E+00  3.28702359E-04
 -3.28184432E-04  0.00000000E+00 -2.10092182E-06  0.00000000E+00  0.00000000E+00
  7.62307145E-05  1.82886727E-05 -1.60885478E-04  0.00000000E+00  0.00000000E+00
 -5.36042290E-04 -3.93164044E-05  9.76830603E-01 -9.16133504E-03  4.34481262E-02
  1.96113534E-04 -1.17656566E-03 -1.58482593E-03  1.41890336E-03  0.00000000E+00
  1.59542519E-03 -1.26047916E-03  0.00000000E+00 -5.54232540E-04 -8.20340683E-04
  0.00000000E+00  5.78832361E-05 -4.37913291E-05  0.00000000E+00  2.99518568E-05
  0.00000000E+00  0.00000000E+00 -1.17287501E-04 -7.04001394E-06  7.55243654E-04
  0.00000000E+00  0.00000000E+00 -2.01473227E-04 -2.39559850E-04 -2.66601856E-04
  0.00000000E+00  0.00000000E+00  1.64251562E-04  1.16693719E-04  0.00000000E+00
 -6.44142029E-05  9.58157375E-07  0.00000000E+00  0.00000000E+00  1.92647489E-05
  1.04884092E-05  0.00000000E+00 -3.06446207E-06  1.19002998E-04  0.00000000E+00
  0.00000000E+00  2.49748960E-04  1.00561152E-04 -4.74194833E-03 -2.10665019E-04