title                                                                   
SP        RMP2-FC                                                     Aug-CC-pVTZ         
Number of atoms                            I                5
Info1-9                                    I   N=           9
          33          24           0           0           0         110
           1           2           1
Full Title                                 C   N=           1
title       
Route                                      C   N=           4
#p SP mp2/aug-cc-pvtz density=current           
Charge                                     I                0
Multiplicity                               I                1
Number of electrons                        I               32
Number of alpha electrons                  I               16
Number of beta electrons                   I               16
Number of basis functions                  I              207
Number of independent functions            I              207
Number of point charges in /Mol/           I                0
Number of translation vectors              I                0
Atomic numbers                             I   N=           5
           1           8           8           7           8
Nuclear charges                            R   N=           5
  1.00000000E+00  8.00000000E+00  8.00000000E+00  7.00000000E+00  8.00000000E+00
Current cartesian coordinates              R   N=          15
  2.92866016E+00  3.19175246E+00  1.00575956E-30  2.74784279E+00  1.36960358E+00
  8.75672792E-31  4.52971446E-17  1.27711024E+00 -1.89703487E-32 -4.96201541E-01
 -1.43456670E+00 -1.00245893E-31 -2.67974896E+00 -1.79043702E+00 -4.40815717E-31
Number of symbols in /Mol/                 I                0
Force Field                                I                0
Atom Types                                 C   N=           5
                                                            
Int Atom Types                             I   N=           5
           0           0           0           0           0
MM charges                                 R   N=           5
  0.00000000E+00  0.00000000E+00  0.00000000E+00  0.00000000E+00  0.00000000E+00
Integer atomic weights                     I   N=           5
           1          16          16          14          16
Real atomic weights                        R   N=           5
  1.00782504E+00  1.59949146E+01  1.59949146E+01  1.40030740E+01  1.59949146E+01
Atom fragment info                         I   N=           5
           0           0           0           0           0
Atom residue num                           I   N=           5
           0           0           0           0           0
Nuclear spins                              I   N=           5
           1           0           0           2           0
Nuclear ZEff                               R   N=           5
 -1.00000000E+00 -5.60000000E+00 -5.60000000E+00 -4.55000000E+00 -5.60000000E+00
Nuclear ZNuc                               R   N=           5
  1.00000000E+00  8.00000000E+00  8.00000000E+00  7.00000000E+00  8.00000000E+00
Nuclear QMom                               R   N=           5
  0.00000000E+00  0.00000000E+00  0.00000000E+00  2.04400000E+00  0.00000000E+00
Nuclear GFac                               R   N=           5
  2.79284600E+00  0.00000000E+00  0.00000000E+00  4.03761000E-01  0.00000000E+00
MicOpt                                     I   N=           5
          -1          -1          -1          -1          -1
Number of residues                         I                0
Number of secondary structures             I                0
SymInf integers                            I   N=          26
           1           2           1           1           1           1
           1          -1           0           0           0           0
           0           0           0           0           0           0
           0           0           0           0           0           0
           0           0
RotTr to input orientation                 R   N=          12
 -9.95112469E-01  1.11122766E-15 -9.87480337E-02  9.87480337E-02 -1.18668679E-15
 -9.95112469E-01 -1.22297949E-15 -1.00000000E+00  1.07115528E-15  2.59916696E+00
  0.00000000E+00  3.46535210E+00
Number of contracted shells                I               65
Number of primitive shells                 I              119
Pure/Cartesian d shells                    I                0
Pure/Cartesian f shells                    I                0
Highest angular momentum                   I                3
Largest degree of contraction              I                7
Shell types                                I   N=          65
           0           0           0           0           1           1
           1          -2          -2           0           0           0
           0           0           1           1           1           1
          -2          -2          -2          -3          -3           0
           0           0           0           0           1           1
           1           1          -2          -2          -2          -3
          -3           0           0           0           0           0
           1           1           1           1          -2          -2
          -2          -3          -3           0           0           0
           0           0           1           1           1           1
          -2          -2          -2          -3          -3
Number of primitives per shell             I   N=          65
           3           1           1           1           1           1
           1           1           1           7           6           1
           1           1           3           1           1           1
           1           1           1           1           1           7
           6           1           1           1           3           1
           1           1           1           1           1           1
           1           7           6           1           1           1
           3           1           1           1           1           1
           1           1           1           7           6           1
           1           1           3           1           1           1
           1           1           1           1           1
Shell to atom map                          I   N=          65
           1           1           1           1           1           1
           1           1           1           2           2           2
           2           2           2           2           2           2
           2           2           2           2           2           3
           3           3           3           3           3           3
           3           3           3           3           3           3
           3           4           4           4           4           4
           4           4           4           4           4           4
           4           4           4           5           5           5
           5           5           5           5           5           5
           5           5           5           5           5
Primitive exponents                        R   N=         119
  3.38700000E+01  5.09500000E+00  1.15900000E+00  3.25800000E-01  1.02700000E-01
  2.52600000E-02  1.40700000E+00  3.88000000E-01  1.02000000E-01  1.05700000E+00
  2.47000000E-01  1.53300000E+04  2.29900000E+03  5.22400000E+02  1.47300000E+02
  4.75500000E+01  1.67600000E+01  6.20700000E+00  5.22400000E+02  1.47300000E+02
  4.75500000E+01  1.67600000E+01  6.20700000E+00  6.88200000E-01  1.75200000E+00
  2.38400000E-01  7.37600000E-02  3.44600000E+01  7.74900000E+00  2.28000000E+00
  7.15600000E-01  2.14000000E-01  5.97400000E-02  2.31400000E+00  6.45000000E-01
  2.14000000E-01  1.42800000E+00  5.00000000E-01  1.53300000E+04  2.29900000E+03
  5.22400000E+02  1.47300000E+02  4.75500000E+01  1.67600000E+01  6.20700000E+00
  5.22400000E+02  1.47300000E+02  4.75500000E+01  1.67600000E+01  6.20700000E+00
  6.88200000E-01  1.75200000E+00  2.38400000E-01  7.37600000E-02  3.44600000E+01
  7.74900000E+00  2.28000000E+00  7.15600000E-01  2.14000000E-01  5.97400000E-02
  2.31400000E+00  6.45000000E-01  2.14000000E-01  1.42800000E+00  5.00000000E-01
  1.14200000E+04  1.71200000E+03  3.89300000E+02  1.10000000E+02  3.55700000E+01
  1.25400000E+01  4.64400000E+00  3.89300000E+02  1.10000000E+02  3.55700000E+01
  1.25400000E+01  4.64400000E+00  5.11800000E-01  1.29300000E+00  1.78700000E-01
  5.76000000E-02  2.66300000E+01  5.94800000E+00  1.74200000E+00  5.55000000E-01
  1.72500000E-01  4.91000000E-02  1.65400000E+00  4.69000000E-01  1.51000000E-01
  1.09300000E+00  3.64000000E-01  1.53300000E+04  2.29900000E+03  5.22400000E+02
  1.47300000E+02  4.75500000E+01  1.67600000E+01  6.20700000E+00  5.22400000E+02
  1.47300000E+02  4.75500000E+01  1.67600000E+01  6.20700000E+00  6.88200000E-01
  1.75200000E+00  2.38400000E-01  7.37600000E-02  3.44600000E+01  7.74900000E+00
  2.28000000E+00  7.15600000E-01  2.14000000E-01  5.97400000E-02  2.31400000E+00
  6.45000000E-01  2.14000000E-01  1.42800000E+00  5.00000000E-01
Contraction coefficients                   R   N=         119
  2.54948632E-02  1.90362766E-01  8.52162022E-01  1.00000000E+00  1.00000000E+00
  1.00000000E+00  1.00000000E+00  1.00000000E+00  1.00000000E+00  1.00000000E+00
  1.00000000E+00  5.19808943E-04  4.02025621E-03  2.07128267E-02  8.10105536E-02
  2.35962985E-01  4.42653446E-01  3.57064423E-01 -4.42115008E-05 -1.22591041E-03
 -1.05517725E-02 -6.74452633E-02 -1.71198607E-01  1.07329856E+00  1.00000000E+00
  1.00000000E+00  1.00000000E+00  4.11634896E-02  2.57762836E-01  8.02419274E-01
  1.00000000E+00  1.00000000E+00  1.00000000E+00  1.00000000E+00  1.00000000E+00
  1.00000000E+00  1.00000000E+00  1.00000000E+00  5.19808943E-04  4.02025621E-03
  2.07128267E-02  8.10105536E-02  2.35962985E-01  4.42653446E-01  3.57064423E-01
 -4.42115008E-05 -1.22591041E-03 -1.05517725E-02 -6.74452633E-02 -1.71198607E-01
  1.07329856E+00  1.00000000E+00  1.00000000E+00  1.00000000E+00  4.11634896E-02
  2.57762836E-01  8.02419274E-01  1.00000000E+00  1.00000000E+00  1.00000000E+00
  1.00000000E+00  1.00000000E+00  1.00000000E+00  1.00000000E+00  1.00000000E+00
  5.34563860E-04  4.13435660E-03  2.12335358E-02  8.25006224E-02  2.38138871E-01
  4.42551547E-01  3.53757422E-01 -4.89867350E-05 -1.19527323E-03 -1.03490714E-02
 -6.48680190E-02 -1.71552477E-01  1.07289568E+00  1.00000000E+00  1.00000000E+00
  1.00000000E+00  3.98072123E-02  2.49002660E-01  8.10479727E-01  1.00000000E+00
  1.00000000E+00  1.00000000E+00  1.00000000E+00  1.00000000E+00  1.00000000E+00
  1.00000000E+00  1.00000000E+00  5.19808943E-04  4.02025621E-03  2.07128267E-02
  8.10105536E-02  2.35962985E-01  4.42653446E-01  3.57064423E-01 -4.42115008E-05
 -1.22591041E-03 -1.05517725E-02 -6.74452633E-02 -1.71198607E-01  1.07329856E+00
  1.00000000E+00  1.00000000E+00  1.00000000E+00  4.11634896E-02  2.57762836E-01
  8.02419274E-01  1.00000000E+00  1.00000000E+00  1.00000000E+00  1.00000000E+00
  1.00000000E+00  1.00000000E+00  1.00000000E+00  1.00000000E+00
Coordinates of each shell                  R   N=         195
  2.92866016E+00  3.19175246E+00  6.30498288E-31  2.92866016E+00  3.19175246E+00
  6.30498288E-31  2.92866016E+00  3.19175246E+00  6.30498288E-31  2.92866016E+00
  3.19175246E+00  6.30498288E-31  2.92866016E+00  3.19175246E+00  6.30498288E-31
  2.92866016E+00  3.19175246E+00  6.30498288E-31  2.92866016E+00  3.19175246E+00
  6.30498288E-31  2.92866016E+00  3.19175246E+00  6.30498288E-31  2.92866016E+00
  3.19175246E+00  6.30498288E-31  2.74784279E+00  1.36960358E+00  4.32108073E-31
  2.74784279E+00  1.36960358E+00  4.32108073E-31  2.74784279E+00  1.36960358E+00
  4.32108073E-31  2.74784279E+00  1.36960358E+00  4.32108073E-31  2.74784279E+00
  1.36960358E+00  4.32108073E-31  2.74784279E+00  1.36960358E+00  4.32108073E-31
  2.74784279E+00  1.36960358E+00  4.32108073E-31  2.74784279E+00  1.36960358E+00
  4.32108073E-31  2.74784279E+00  1.36960358E+00  4.32108073E-31  2.74784279E+00
  1.36960358E+00  4.32108073E-31  2.74784279E+00  1.36960358E+00  4.32108073E-31
  2.74784279E+00  1.36960358E+00  4.32108073E-31  2.74784279E+00  1.36960358E+00
  4.32108073E-31  2.74784279E+00  1.36960358E+00  4.32108073E-31  2.64207996E-17
  1.27711024E+00  1.25317293E-31  2.64207996E-17  1.27711024E+00  1.25317293E-31
  2.64207996E-17  1.27711024E+00  1.25317293E-31  2.64207996E-17  1.27711024E+00
  1.25317293E-31  2.64207996E-17  1.27711024E+00  1.25317293E-31  2.64207996E-17
  1.27711024E+00  1.25317293E-31  2.64207996E-17  1.27711024E+00  1.25317293E-31
  2.64207996E-17  1.27711024E+00  1.25317293E-31  2.64207996E-17  1.27711024E+00
  1.25317293E-31  2.64207996E-17  1.27711024E+00  1.25317293E-31  2.64207996E-17
  1.27711024E+00  1.25317293E-31  2.64207996E-17  1.27711024E+00  1.25317293E-31
  2.64207996E-17  1.27711024E+00  1.25317293E-31  2.64207996E-17  1.27711024E+00
  1.25317293E-31 -4.96201541E-01 -1.43456670E+00 -1.94528729E-31 -4.96201541E-01
 -1.43456670E+00 -1.94528729E-31 -4.96201541E-01 -1.43456670E+00 -1.94528729E-31
 -4.96201541E-01 -1.43456670E+00 -1.94528729E-31 -4.96201541E-01 -1.43456670E+00
 -1.94528729E-31 -4.96201541E-01 -1.43456670E+00 -1.94528729E-31 -4.96201541E-01
 -1.43456670E+00 -1.94528729E-31 -4.96201541E-01 -1.43456670E+00 -1.94528729E-31
 -4.96201541E-01 -1.43456670E+00 -1.94528729E-31 -4.96201541E-01 -1.43456670E+00
 -1.94528729E-31 -4.96201541E-01 -1.43456670E+00 -1.94528729E-31 -4.96201541E-01
 -1.43456670E+00 -1.94528729E-31 -4.96201541E-01 -1.43456670E+00 -1.94528729E-31
 -4.96201541E-01 -1.43456670E+00 -1.94528729E-31 -2.67974896E+00 -1.79043702E+00
 -4.66025013E-31 -2.67974896E+00 -1.79043702E+00 -4.66025013E-31 -2.67974896E+00
 -1.79043702E+00 -4.66025013E-31 -2.67974896E+00 -1.79043702E+00 -4.66025013E-31
 -2.67974896E+00 -1.79043702E+00 -4.66025013E-31 -2.67974896E+00 -1.79043702E+00
 -4.66025013E-31 -2.67974896E+00 -1.79043702E+00 -4.66025013E-31 -2.67974896E+00
 -1.79043702E+00 -4.66025013E-31 -2.67974896E+00 -1.79043702E+00 -4.66025013E-31
 -2.67974896E+00 -1.79043702E+00 -4.66025013E-31 -2.67974896E+00 -1.79043702E+00
 -4.66025013E-31 -2.67974896E+00 -1.79043702E+00 -4.66025013E-31 -2.67974896E+00
 -1.79043702E+00 -4.66025013E-31 -2.67974896E+00 -1.79043702E+00 -4.66025013E-31
Num ILSW                                   I              100
ILSW                                       I   N=         100
           0           0           0           0           2           0
           0           0           0           0           0          -1
           5           0           0           0           0           0
           0           0           0           0           0           0
           1           0           0           0           0           0
           0           0      100000           0          -1           0
           0           0           0           0           0           0
           0           0           0           1           0           0
           0 -2000000000           1           0           0           0
           0           0           4          52           0           0
           0           0           0           0           0           0
           0           0           0           5           0           1
           0           0           0           0           0           0
           0           0           0           0           0           0
           0           0           0           0           0           0
           0           0           0           0           0           0
           0           0           0           0
Num RLSW                                   I               52
RLSW                                       R   N=          52
  1.00000000E+00  1.00000000E+00  1.00000000E+00  1.00000000E+00  1.00000000E+00
  0.00000000E+00  0.00000000E+00  1.00000000E+00  0.00000000E+00  0.00000000E+00
  0.00000000E+00  0.00000000E+00  1.00000000E+00  0.00000000E+00  0.00000000E+00
  0.00000000E+00  0.00000000E+00  1.00000000E+00  0.00000000E+00  0.00000000E+00
  0.00000000E+00  0.00000000E+00  1.00000000E+00  0.00000000E+00  0.00000000E+00
  0.00000000E+00  0.00000000E+00  1.00000000E+00  0.00000000E+00  0.00000000E+00
  0.00000000E+00  0.00000000E+00  1.00000000E+00  0.00000000E+00  0.00000000E+00
  0.00000000E+00  0.00000000E+00  0.00000000E+00  1.00000000E+00  1.00000000E+00
  0.00000000E+00  1.00000000E+00  0.00000000E+00  0.00000000E+00  0.00000000E+00
  0.00000000E+00  0.00000000E+00  0.00000000E+00  0.00000000E+00  0.00000000E+00
  0.00000000E+00  0.00000000E+00
MxBond                                     I                2
NBond                                      I   N=           5
           1           2           2           2           1
IBond                                      I   N=          10
           2           0           1           3           2           4
           3           5           4           0
RBond                                      R   N=          10
  1.00000000E+00  0.00000000E+00  1.00000000E+00  1.00000000E+00  1.00000000E+00
  1.00000000E+00  1.00000000E+00  2.00000000E+00  2.00000000E+00  0.00000000E+00
Virial Ratio                               R      2.002366967357038E+00
SCF Energy                                 R     -2.795016251810594E+02
MP2 Energy                                 R     -2.804467116150703E+02
Total Energy                               R     -2.804467116150703E+02
Post-SCF wavefunction norm                 R      1.120248264155461E+00
RMS Density                                R      3.816565192301384E-09
Job Status                                 I                1
Nuclear derivative order                   I                0
External E-field                           R   N=          35
  0.00000000E+00  0.00000000E+00  0.00000000E+00  0.00000000E+00  0.00000000E+00
  0.00000000E+00  0.00000000E+00  0.00000000E+00  0.00000000E+00  0.00000000E+00
  0.00000000E+00  0.00000000E+00  0.00000000E+00  0.00000000E+00  0.00000000E+00
  0.00000000E+00  0.00000000E+00  0.00000000E+00  0.00000000E+00  0.00000000E+00
  0.00000000E+00  0.00000000E+00  0.00000000E+00  0.00000000E+00  0.00000000E+00
  0.00000000E+00  0.00000000E+00  0.00000000E+00  0.00000000E+00  0.00000000E+00
  0.00000000E+00  0.00000000E+00  0.00000000E+00  0.00000000E+00  0.00000000E+00
IOpCl                                      I                0
IROHF                                      I                0
Alpha Orbital Energies                     R   N=         207
 -2.06911168E+01 -2.06844911E+01 -2.06603331E+01 -1.58126394E+01 -1.62357296E+00
 -1.49615181E+00 -1.25485708E+00 -9.47923637E-01 -7.73080489E-01 -7.58995057E-01
 -7.11689346E-01 -6.79515993E-01 -6.20673716E-01 -5.89909907E-01 -4.85485182E-01
 -4.71819681E-01  2.95845093E-02  7.19080244E-02  8.58354058E-02  1.01726156E-01
  1.33983006E-01  1.33988918E-01  1.44055450E-01  1.54569812E-01  1.78199284E-01
  1.94196820E-01  1.99786132E-01  2.06256572E-01  2.20817712E-01  2.34875217E-01
  2.37305223E-01  2.65653844E-01  2.93857486E-01  3.04056450E-01  3.10558181E-01
  3.43256824E-01  3.49816059E-01  3.87029468E-01  4.21763962E-01  4.31453598E-01
  5.26822884E-01  5.29680496E-01  5.58729890E-01  5.82204703E-01  6.26274826E-01
  6.37101152E-01  6.74312231E-01  6.84364114E-01  7.07222185E-01  7.10943064E-01
  7.24311778E-01  7.29526914E-01  7.45220207E-01  7.90631519E-01  7.91772412E-01
  8.10015102E-01  8.12500310E-01  8.30355575E-01  8.68256930E-01  9.07922569E-01
  9.21802367E-01  9.25142421E-01  9.56678020E-01  9.78565077E-01  9.84506736E-01
  1.01625020E+00  1.05205526E+00  1.05474397E+00  1.08207520E+00  1.11788713E+00
  1.14086193E+00  1.18916669E+00  1.22188952E+00  1.23239655E+00  1.33857599E+00
  1.34968503E+00  1.38531153E+00  1.45261769E+00  1.48789502E+00  1.50955416E+00
  1.53836422E+00  1.56637762E+00  1.57985800E+00  1.61359289E+00  1.66393536E+00
  1.66887373E+00  1.70382085E+00  1.79338907E+00  1.83200133E+00  1.83442773E+00
  1.87728150E+00  1.91100958E+00  1.95595120E+00  1.99155762E+00  2.00716231E+00
  2.07629472E+00  2.12012989E+00  2.13265914E+00  2.14928135E+00  2.22371090E+00
  2.26316921E+00  2.26423757E+00  2.28968168E+00  2.31425451E+00  2.34258826E+00
  2.38608189E+00  2.42337003E+00  2.42886420E+00  2.45535494E+00  2.46451196E+00
  2.47616933E+00  2.50163523E+00  2.58968382E+00  2.59561749E+00  2.61940025E+00
  2.62563940E+00  2.63475586E+00  2.66607857E+00  2.75935040E+00  2.82861653E+00
  2.85859889E+00  2.88065575E+00  2.89421862E+00  2.91738890E+00  2.96058112E+00
  3.02421740E+00  3.06998697E+00  3.11947392E+00  3.20467008E+00  3.22803403E+00
  3.31556326E+00  3.34344603E+00  3.51305960E+00  3.64573630E+00  3.83845074E+00
  3.84465889E+00  4.14830367E+00  4.16101408E+00  4.18337860E+00  4.25744859E+00
  4.35312704E+00  4.39310865E+00  4.46330000E+00  4.51869297E+00  4.66421200E+00
  4.70999559E+00  4.80645334E+00  4.82269157E+00  4.82802432E+00  4.89541830E+00
  5.02258455E+00  5.07796541E+00  5.10177108E+00  5.14351660E+00  5.18143733E+00
  5.24169534E+00  5.27116307E+00  5.30987683E+00  5.32911547E+00  5.35662013E+00
  5.60790260E+00  5.67364107E+00  5.76299826E+00  5.82902261E+00  5.95768702E+00
  6.16814924E+00  6.30783464E+00  6.33908956E+00  6.39415234E+00  6.49248620E+00
  6.50386253E+00  6.61312324E+00  6.66786107E+00  6.69712114E+00  6.75746248E+00
  6.76261538E+00  6.83030464E+00  6.90044654E+00  7.01267877E+00  7.05553677E+00
  7.05692395E+00  7.08926276E+00  7.12504570E+00  7.14870597E+00  7.18114981E+00
  7.22464809E+00  7.24135385E+00  7.30707629E+00  7.32498797E+00  7.34761803E+00
  7.39971980E+00  7.43184190E+00  7.48526913E+00  7.60728960E+00  7.61841841E+00
  7.62679739E+00  7.66389227E+00  7.78548476E+00  7.88983621E+00  8.09235606E+00
  8.31438043E+00  8.40917352E+00  8.54471877E+00  1.33861123E+01  1.43999676E+01
  1.51586254E+01  1.61510550E+01
Alpha MO coefficients                      R   N=       42849
  9.18334799E-05 -6.47200331E-04 -7.26929811E-04 -4.84070192E-06 -2.12756899E-05
 -2.67423880E-05  0.00000000E+00 -4.36216245E-05  6.25579390E-05  0.00000000E+00
  8.71395613E-05  3.58894257E-05  0.00000000E+00  3.18973291E-05  0.00000000E+00
  0.00000000E+00 -4.94147306E-05  2.11879327E-05 -5.70832435E-06  0.00000000E+00
  0.00000000E+00 -1.37790612E-04  1.17651261E-04  4.60019046E-03 -2.82354244E-04
  1.55044443E-05  1.56669113E-03  1.82377623E-03  1.06019873E-04  7.38338128E-06
  0.00000000E+00 -6.16455016E-04 -3.48332635E-05  0.00000000E+00 -1.10257401E-03
  8.02642369E-04  0.00000000E+00 -4.03072235E-04  6.42193930E-05  0.00000000E+00
  2.87958863E-05  0.00000000E+00  0.00000000E+00 -5.40040683E-05  5.80233213E-06
 -3.78164653E-04  0.00000000E+00  0.00000000E+00  7.38935291E-04 -3.25300002E-05
 -4.47116078E-04  0.00000000E+00  0.00000000E+00  2.40350255E-04 -1.85350866E-05
  0.00000000E+00  7.99722701E-05  1.26530453E-05  0.00000000E+00  0.00000000E+00
 -1.09576875E-04 -3.25282633E-06  0.00000000E+00  2.54385304E-04 -2.79529183E-05
  0.00000000E+00  0.00000000E+00 -3.52762532E-04  5.05574880E-05  9.76911259E-01
 -9.21586012E-03  4.33183548E-02  2.04418161E-03 -9.25704288E-04  1.49104791E-03
 -1.36086895E-03  0.00000000E+00 -1.43260785E-03  1.38991904E-03  0.00000000E+00
  8.01946182E-05 -1.16959162E-03  0.00000000E+00 -1.34875195E-04 -1.12218185E-05
  0.00000000E+00  4.60338732E-05  0.00000000E+00  0.00000000E+00 -3.58073018E-05
  2.10389289E-05  7.46589802E-04  0.00000000E+00  0.00000000E+00 -2.30741108E-04
 -3.89178353E-04 -3.56579077E-04  0.00000000E+00  0.00000000E+00 -3.17899463E-04
 -3.81396099E-04  0.00000000E+00  4.75460220E-05 -4.91577834E-05  0.00000000E+00
  0.00000000E+00 -3.87856547E-05 -1.61767917E-05  0.00000000E+00  2.26670258E-05
  2.17825351E-05  0.00000000E+00  0.00000000E+00 -3.06168460E-04 -1.38792579E-04
  3.91519023E-05  4.61032025E-05 -2.65217991E-04 -6.92817543E-04 -1.32397239E-04
 -2.73720291E-05 -9.79063103E-05  0.00000000E+00  2.68957704E-04  7.13078849E-04
  0.00000000E+00 -8.48534193E-04 -4.88402625E-04  0.00000000E+00 -1.25825623E-04
 -2.55308186E-05  0.00000000E+00 -1.80581638E-05  0.00000000E+00  0.00000000E+00
 -2.94448843E-05  1.44829949E-05 -3.29557294E-04  0.00000000E+00  0.00000000E+00
 -8.30445227E-04  1.29752672E-04 -3.64450553E-05  0.00000000E+00  0.00000000E+00
  9.96709572E-05 -1.13741419E-04  0.00000000E+00 -2.08364746E-05 -1.20289742E-04
  0.00000000E+00  0.00000000E+00 -6.28139312E-05 -1.38098187E-04  0.00000000E+00
  2.19071210E-06 -1.52297005E-04  0.00000000E+00  0.00000000E+00  4.43157812E-05
 -4.20811040E-04 -2.54064748E-03  1.17775364E-04 -1.23320091E-04 -2.54943342E-04
  1.26832514E-04 -8.08044828E-06 -2.88291798E-05  0.00000000E+00  6.70088971E-05
  1.68752228E-04  0.00000000E+00  2.27292060E-04  2.05803700E-04  0.00000000E+00
  1.24804253E-04  2.31972713E-05  0.00000000E+00 -3.04302454E-06  0.00000000E+00
  0.00000000E+00 -1.76832510E-05  8.54174978E-07 -1.81755796E-06  0.00000000E+00
  0.00000000E+00  7.57393319E-05  9.20226805E-05 -1.02175404E-04  0.00000000E+00
  0.00000000E+00  1.61262853E-04  1.63601515E-04  0.00000000E+00  1.55380540E-05
 -4.01302909E-06  0.00000000E+00  0.00000000E+00 -5.07812535E-06 -1.18306404E-05
  0.00000000E+00 -3.49006016E-05  4.60291400E-05  0.00000000E+00  0.00000000E+00
  8.05692295E-05  9.05151502E-05  3.89093762E-05 -9.95509381E-04 -4.91932635E-04
 -1.09393173E-05 -2.30076207E-05  1.65728622E-05  0.00000000E+00  2.36123549E-06
  2.79361587E-04  0.00000000E+00 -4.01859663E-05  1.35066214E-04  0.00000000E+00
  2.62460180E-05  0.00000000E+00  0.00000000E+00  1.31241633E-05  1.09932636E-05
 -2.62768686E-05  0.00000000E+00  0.00000000E+00  1.09252651E-05  3.45077050E-05
  1.11909926E-04  8.41801907E-05 -2.83321814E-05  7.64543759E-04  6.49982267E-04
  1.01780851E-05  2.46963232E-06  0.00000000E+00 -7.20449107E-05  1.77314130E-05
  0.00000000E+00  3.30865900E-04  8.95668129E-04  0.00000000E+00  4.60836199E-06
  8.00238066E-05  0.00000000E+00 -2.24658956E-06  0.00000000E+00  0.00000000E+00
 -8.76025849E-08 -6.59384730E-06 -3.65207109E-05  0.00000000E+00  0.00000000E+00
 -2.15419598E-05  8.67696345E-05 -2.29717892E-05  0.00000000E+00  0.00000000E+00
 -2.65777050E-04 -1.57793504E-04  0.00000000E+00  9.33040706E-06  5.93114348E-06
  0.00000000E+00  0.00000000E+00  2.81845928E-06 -1.89502511E-05  0.00000000E+00
 -4.11392059E-05 -3.77700540E-05  0.00000000E+00  0.00000000E+00 -7.74210413E-05
  1.79724133E-05  2.57905643E-03  3.86287665E-05  8.74723569E-05 -5.93067721E-05
 -4.54765897E-04  8.14449976E-06  1.71993384E-05  0.00000000E+00 -6.50903124E-05
 -6.11173576E-05  0.00000000E+00  2.17868411E-04 -1.88968980E-04  0.00000000E+00
 -1.83597024E-04 -6.23155998E-05  0.00000000E+00 -8.52157951E-06  0.00000000E+00
  0.00000000E+00  2.24508522E-05  1.88279224E-05  1.59081487E-06  0.00000000E+00
  0.00000000E+00 -1.19133702E-04 -3.96323950E-05 -7.58617193E-06  0.00000000E+00
  0.00000000E+00 -2.22207849E-04 -1.91154747E-04  0.00000000E+00  4.10493856E-06
  7.01217046E-07  0.00000000E+00  0.00000000E+00  2.92378294E-06 -1.45411784E-05
  0.00000000E+00 -4.72205449E-05  2.09231613E-06  0.00000000E+00  0.00000000E+00
 -7.49667823E-05  1.91301129E-04  2.59021497E-04  1.46840948E-03 -7.68014781E-05
 -1.56693340E-03  3.89430156E-04 -1.44022716E-04 -1.15029573E-07  0.00000000E+00
 -2.09153429E-03 -4.24301297E-04  0.00000000E+00  1.05675133E-03  7.73018752E-04
  0.00000000E+00 -1.73377176E-04  5.04569055E-05  0.00000000E+00 -1.23767447E-04
  0.00000000E+00  0.00000000E+00  2.41036635E-04  9.78937379E-05 -4.39832865E-04
  0.00000000E+00  0.00000000E+00  9.05245918E-04 -5.33445924E-05  1.46681981E-05
  0.00000000E+00  0.00000000E+00 -3.37798310E-04 -1.25393166E-04  0.00000000E+00
 -8.35377533E-07  1.56766395E-05  0.00000000E+00  0.00000000E+00  1.84966065E-05
  1.44031484E-05  0.00000000E+00  1.63222247E-04 -7.03904759E-05  0.00000000E+00
  0.00000000E+00 -2.43921372E-04  3.99907795E-05  9.76650309E-01 -9.84742523E-03
  4.35667318E-02  4.51544080E-03 -4.42821733E-04  2.14322063E-03  5.05899904E-04
  0.00000000E+00 -2.37888551E-03 -6.30121184E-04  0.00000000E+00  1.14161068E-03
 -3.31441935E-06  0.00000000E+00  5.41189025E-06 -4.07772056E-05  0.00000000E+00
 -2.31921451E-04  0.00000000E+00  0.00000000E+00  1.02616734E-04  3.32625811E-05
  3.91308279E-04  0.00000000E+00  0.00000000E+00 -8.26423204E-04 -4.38473671E-04
 -1.51136402E-04  0.00000000E+00  0.00000000E+00  2.58531295E-04  1.58298458E-05
  0.00000000E+00  5.21074351E-05  1.78820181E-05  0.00000000E+00  0.00000000E+00
 -2.21396226E-05 -1.41238898E-05  0.00000000E+00  1.38553441E-04  1.19057536E-05
  0.00000000E+00  0.00000000E+00 -1.84854523E-04 -1.46929891E-04  4.74728729E-04
  2.06455605E-03  1.18713158E-04  1.50080970E-05 -4.13278853E-05 -2.46765962E-04
  0.00000000E+00  1.10157081E-04 -1.27649508E-03  0.00000000E+00  3.07792275E-04
 -3.40040963E-04  0.00000000E+00 -2.72710810E-06  0.00000000E+00  0.00000000E+00
  7.58827582E-05  1.53950874E-05 -1.60335808E-04  0.00000000E+00  0.00000000E+00
 -5.37201949E-04 -2.21671004E-05  9.76830370E-01 -9.16312378E-03  4.34492970E-02
  1.60778064E-04 -1.13297104E-03 -1.56240259E-03  1.44361715E-03  0.00000000E+00
  1.57441264E-03 -1.28641506E-03  0.00000000E+00 -5.71661818E-04 -8.69191679E-04
  0.00000000E+00  5.51066085E-05 -2.89745793E-05  0.00000000E+00  2.96379400E-05
  0.00000000E+00  0.00000000E+00 -1.18202510E-04 -2.88848325E-06  7.57827098E-04
  0.00000000E+00  0.00000000E+00 -2.02649121E-04 -2.35397048E-04 -2.65942192E-04
  0.00000000E+00  0.00000000E+00  1.70288539E-04  1.27914415E-04  0.00000000E+00
 -6.41404665E-05  1.31403269E-06  0.00000000E+00  0.00000000E+00  1.89189992E-05
  9.75803992E-06  0.00000000E+00 -1.14033965E-06  1.22889787E-04  0.00000000E+00
  0.00000000E+00  2.57448212E-04  9.13386947E-05 -4.69272417E-03 -2.11857634E-04