title                                                                   
SP        RMP2-FC                                                     Aug-CC-pVTZ         
Number of atoms                            I                5
Info1-9                                    I   N=           9
          33          24           0           0           0         110
           1           2           1
Full Title                                 C   N=           1
title       
Route                                      C   N=           4
#p SP mp2/aug-cc-pvtz density=current           
Charge                                     I                0
Multiplicity                               I                1
Number of electrons                        I               32
Number of alpha electrons                  I               16
Number of beta electrons                   I               16
Number of basis functions                  I              207
Number of independent functions            I              207
Number of point charges in /Mol/           I                0
Number of translation vectors              I                0
Atomic numbers                             I   N=           5
           1           8           8           7           8
Nuclear charges                            R   N=           5
  1.00000000E+00  8.00000000E+00  8.00000000E+00  7.00000000E+00  8.00000000E+00
Current cartesian coordinates              R   N=          15
  4.24965347E+00  8.21261901E-01 -1.82211839E-02  3.02114796E+00 -5.36559492E-01
 -1.41316482E-02  7.56616915E-01  1.02234762E+00  1.59153131E-02 -1.25423763E+00
 -8.63334903E-01  2.44757966E-02 -3.21151363E+00  1.66972179E-01 -2.09223389E-02
Number of symbols in /Mol/                 I                0
Force Field                                I                0
Atom Types                                 C   N=           5
                                                            
Int Atom Types                             I   N=           5
           0           0           0           0           0
MM charges                                 R   N=           5
  0.00000000E+00  0.00000000E+00  0.00000000E+00  0.00000000E+00  0.00000000E+00
Integer atomic weights                     I   N=           5
           1          16          16          14          16
Real atomic weights                        R   N=           5
  1.00782504E+00  1.59949146E+01  1.59949146E+01  1.40030740E+01  1.59949146E+01
Atom fragment info                         I   N=           5
           0           0           0           0           0
Atom residue num                           I   N=           5
           0           0           0           0           0
Nuclear spins                              I   N=           5
           1           0           0           2           0
Nuclear ZEff                               R   N=           5
 -1.00000000E+00 -5.60000000E+00 -5.60000000E+00 -4.55000000E+00 -5.60000000E+00
Nuclear ZNuc                               R   N=           5
  1.00000000E+00  8.00000000E+00  8.00000000E+00  7.00000000E+00  8.00000000E+00
Nuclear QMom                               R   N=           5
  0.00000000E+00  0.00000000E+00  0.00000000E+00  2.04400000E+00  0.00000000E+00
Nuclear GFac                               R   N=           5
  2.79284600E+00  0.00000000E+00  0.00000000E+00  4.03761000E-01  0.00000000E+00
MicOpt                                     I   N=           5
          -1          -1          -1          -1          -1
Number of residues                         I                0
Number of secondary structures             I                0
SymInf integers                            I   N=          26
           1           1           1           1           1           0
           0           0           0           0           0           0
           0           0           0           0           0           0
           0           0           0           0           0           0
           0           0
RotTr to input orientation                 R   N=          12
 -7.41476915E-01 -9.45314820E-03 -6.70911784E-01  6.70892618E-01  5.54119600E-03
 -7.41533809E-01  1.07274827E-02 -9.99939965E-01  2.23337843E-03  2.60023687E+00
  1.74017409E-02  3.46017675E+00
Number of contracted shells                I               65
Number of primitive shells                 I              119
Pure/Cartesian d shells                    I                0
Pure/Cartesian f shells                    I                0
Highest angular momentum                   I                3
Largest degree of contraction              I                7
Shell types                                I   N=          65
           0           0           0           0           1           1
           1          -2          -2           0           0           0
           0           0           1           1           1           1
          -2          -2          -2          -3          -3           0
           0           0           0           0           1           1
           1           1          -2          -2          -2          -3
          -3           0           0           0           0           0
           1           1           1           1          -2          -2
          -2          -3          -3           0           0           0
           0           0           1           1           1           1
          -2          -2          -2          -3          -3
Number of primitives per shell             I   N=          65
           3           1           1           1           1           1
           1           1           1           7           6           1
           1           1           3           1           1           1
           1           1           1           1           1           7
           6           1           1           1           3           1
           1           1           1           1           1           1
           1           7           6           1           1           1
           3           1           1           1           1           1
           1           1           1           7           6           1
           1           1           3           1           1           1
           1           1           1           1           1
Shell to atom map                          I   N=          65
           1           1           1           1           1           1
           1           1           1           2           2           2
           2           2           2           2           2           2
           2           2           2           2           2           3
           3           3           3           3           3           3
           3           3           3           3           3           3
           3           4           4           4           4           4
           4           4           4           4           4           4
           4           4           4           5           5           5
           5           5           5           5           5           5
           5           5           5           5           5
Primitive exponents                        R   N=         119
  3.38700000E+01  5.09500000E+00  1.15900000E+00  3.25800000E-01  1.02700000E-01
  2.52600000E-02  1.40700000E+00  3.88000000E-01  1.02000000E-01  1.05700000E+00
  2.47000000E-01  1.53300000E+04  2.29900000E+03  5.22400000E+02  1.47300000E+02
  4.75500000E+01  1.67600000E+01  6.20700000E+00  5.22400000E+02  1.47300000E+02
  4.75500000E+01  1.67600000E+01  6.20700000E+00  6.88200000E-01  1.75200000E+00
  2.38400000E-01  7.37600000E-02  3.44600000E+01  7.74900000E+00  2.28000000E+00
  7.15600000E-01  2.14000000E-01  5.97400000E-02  2.31400000E+00  6.45000000E-01
  2.14000000E-01  1.42800000E+00  5.00000000E-01  1.53300000E+04  2.29900000E+03
  5.22400000E+02  1.47300000E+02  4.75500000E+01  1.67600000E+01  6.20700000E+00
  5.22400000E+02  1.47300000E+02  4.75500000E+01  1.67600000E+01  6.20700000E+00
  6.88200000E-01  1.75200000E+00  2.38400000E-01  7.37600000E-02  3.44600000E+01
  7.74900000E+00  2.28000000E+00  7.15600000E-01  2.14000000E-01  5.97400000E-02
  2.31400000E+00  6.45000000E-01  2.14000000E-01  1.42800000E+00  5.00000000E-01
  1.14200000E+04  1.71200000E+03  3.89300000E+02  1.10000000E+02  3.55700000E+01
  1.25400000E+01  4.64400000E+00  3.89300000E+02  1.10000000E+02  3.55700000E+01
  1.25400000E+01  4.64400000E+00  5.11800000E-01  1.29300000E+00  1.78700000E-01
  5.76000000E-02  2.66300000E+01  5.94800000E+00  1.74200000E+00  5.55000000E-01
  1.72500000E-01  4.91000000E-02  1.65400000E+00  4.69000000E-01  1.51000000E-01
  1.09300000E+00  3.64000000E-01  1.53300000E+04  2.29900000E+03  5.22400000E+02
  1.47300000E+02  4.75500000E+01  1.67600000E+01  6.20700000E+00  5.22400000E+02
  1.47300000E+02  4.75500000E+01  1.67600000E+01  6.20700000E+00  6.88200000E-01
  1.75200000E+00  2.38400000E-01  7.37600000E-02  3.44600000E+01  7.74900000E+00
  2.28000000E+00  7.15600000E-01  2.14000000E-01  5.97400000E-02  2.31400000E+00
  6.45000000E-01  2.14000000E-01  1.42800000E+00  5.00000000E-01
Contraction coefficients                   R   N=         119
  2.54948632E-02  1.90362766E-01  8.52162022E-01  1.00000000E+00  1.00000000E+00
  1.00000000E+00  1.00000000E+00  1.00000000E+00  1.00000000E+00  1.00000000E+00
  1.00000000E+00  5.19808943E-04  4.02025621E-03  2.07128267E-02  8.10105536E-02
  2.35962985E-01  4.42653446E-01  3.57064423E-01 -4.42115008E-05 -1.22591041E-03
 -1.05517725E-02 -6.74452633E-02 -1.71198607E-01  1.07329856E+00  1.00000000E+00
  1.00000000E+00  1.00000000E+00  4.11634896E-02  2.57762836E-01  8.02419274E-01
  1.00000000E+00  1.00000000E+00  1.00000000E+00  1.00000000E+00  1.00000000E+00
  1.00000000E+00  1.00000000E+00  1.00000000E+00  5.19808943E-04  4.02025621E-03
  2.07128267E-02  8.10105536E-02  2.35962985E-01  4.42653446E-01  3.57064423E-01
 -4.42115008E-05 -1.22591041E-03 -1.05517725E-02 -6.74452633E-02 -1.71198607E-01
  1.07329856E+00  1.00000000E+00  1.00000000E+00  1.00000000E+00  4.11634896E-02
  2.57762836E-01  8.02419274E-01  1.00000000E+00  1.00000000E+00  1.00000000E+00
  1.00000000E+00  1.00000000E+00  1.00000000E+00  1.00000000E+00  1.00000000E+00
  5.34563860E-04  4.13435660E-03  2.12335358E-02  8.25006224E-02  2.38138871E-01
  4.42551547E-01  3.53757422E-01 -4.89867350E-05 -1.19527323E-03 -1.03490714E-02
 -6.48680190E-02 -1.71552477E-01  1.07289568E+00  1.00000000E+00  1.00000000E+00
  1.00000000E+00  3.98072123E-02  2.49002660E-01  8.10479727E-01  1.00000000E+00
  1.00000000E+00  1.00000000E+00  1.00000000E+00  1.00000000E+00  1.00000000E+00
  1.00000000E+00  1.00000000E+00  5.19808943E-04  4.02025621E-03  2.07128267E-02
  8.10105536E-02  2.35962985E-01  4.42653446E-01  3.57064423E-01 -4.42115008E-05
 -1.22591041E-03 -1.05517725E-02 -6.74452633E-02 -1.71198607E-01  1.07329856E+00
  1.00000000E+00  1.00000000E+00  1.00000000E+00  4.11634896E-02  2.57762836E-01
  8.02419274E-01  1.00000000E+00  1.00000000E+00  1.00000000E+00  1.00000000E+00
  1.00000000E+00  1.00000000E+00  1.00000000E+00  1.00000000E+00
Coordinates of each shell                  R   N=         195
  4.24965347E+00  8.21261901E-01 -1.82211839E-02  4.24965347E+00  8.21261901E-01
 -1.82211839E-02  4.24965347E+00  8.21261901E-01 -1.82211839E-02  4.24965347E+00
  8.21261901E-01 -1.82211839E-02  4.24965347E+00  8.21261901E-01 -1.82211839E-02
  4.24965347E+00  8.21261901E-01 -1.82211839E-02  4.24965347E+00  8.21261901E-01
 -1.82211839E-02  4.24965347E+00  8.21261901E-01 -1.82211839E-02  4.24965347E+00
  8.21261901E-01 -1.82211839E-02  3.02114796E+00 -5.36559492E-01 -1.41316482E-02
  3.02114796E+00 -5.36559492E-01 -1.41316482E-02  3.02114796E+00 -5.36559492E-01
 -1.41316482E-02  3.02114796E+00 -5.36559492E-01 -1.41316482E-02  3.02114796E+00
 -5.36559492E-01 -1.41316482E-02  3.02114796E+00 -5.36559492E-01 -1.41316482E-02
  3.02114796E+00 -5.36559492E-01 -1.41316482E-02  3.02114796E+00 -5.36559492E-01
 -1.41316482E-02  3.02114796E+00 -5.36559492E-01 -1.41316482E-02  3.02114796E+00
 -5.36559492E-01 -1.41316482E-02  3.02114796E+00 -5.36559492E-01 -1.41316482E-02
  3.02114796E+00 -5.36559492E-01 -1.41316482E-02  3.02114796E+00 -5.36559492E-01
 -1.41316482E-02  3.02114796E+00 -5.36559492E-01 -1.41316482E-02  7.56616915E-01
  1.02234762E+00  1.59153131E-02  7.56616915E-01  1.02234762E+00  1.59153131E-02
  7.56616915E-01  1.02234762E+00  1.59153131E-02  7.56616915E-01  1.02234762E+00
  1.59153131E-02  7.56616915E-01  1.02234762E+00  1.59153131E-02  7.56616915E-01
  1.02234762E+00  1.59153131E-02  7.56616915E-01  1.02234762E+00  1.59153131E-02
  7.56616915E-01  1.02234762E+00  1.59153131E-02  7.56616915E-01  1.02234762E+00
  1.59153131E-02  7.56616915E-01  1.02234762E+00  1.59153131E-02  7.56616915E-01
  1.02234762E+00  1.59153131E-02  7.56616915E-01  1.02234762E+00  1.59153131E-02
  7.56616915E-01  1.02234762E+00  1.59153131E-02  7.56616915E-01  1.02234762E+00
  1.59153131E-02 -1.25423763E+00 -8.63334903E-01  2.44757966E-02 -1.25423763E+00
 -8.63334903E-01  2.44757966E-02 -1.25423763E+00 -8.63334903E-01  2.44757966E-02
 -1.25423763E+00 -8.63334903E-01  2.44757966E-02 -1.25423763E+00 -8.63334903E-01
  2.44757966E-02 -1.25423763E+00 -8.63334903E-01  2.44757966E-02 -1.25423763E+00
 -8.63334903E-01  2.44757966E-02 -1.25423763E+00 -8.63334903E-01  2.44757966E-02
 -1.25423763E+00 -8.63334903E-01  2.44757966E-02 -1.25423763E+00 -8.63334903E-01
  2.44757966E-02 -1.25423763E+00 -8.63334903E-01  2.44757966E-02 -1.25423763E+00
 -8.63334903E-01  2.44757966E-02 -1.25423763E+00 -8.63334903E-01  2.44757966E-02
 -1.25423763E+00 -8.63334903E-01  2.44757966E-02 -3.21151363E+00  1.66972179E-01
 -2.09223389E-02 -3.21151363E+00  1.66972179E-01 -2.09223389E-02 -3.21151363E+00
  1.66972179E-01 -2.09223389E-02 -3.21151363E+00  1.66972179E-01 -2.09223389E-02
 -3.21151363E+00  1.66972179E-01 -2.09223389E-02 -3.21151363E+00  1.66972179E-01
 -2.09223389E-02 -3.21151363E+00  1.66972179E-01 -2.09223389E-02 -3.21151363E+00
  1.66972179E-01 -2.09223389E-02 -3.21151363E+00  1.66972179E-01 -2.09223389E-02
 -3.21151363E+00  1.66972179E-01 -2.09223389E-02 -3.21151363E+00  1.66972179E-01
 -2.09223389E-02 -3.21151363E+00  1.66972179E-01 -2.09223389E-02 -3.21151363E+00
  1.66972179E-01 -2.09223389E-02 -3.21151363E+00  1.66972179E-01 -2.09223389E-02
Num ILSW                                   I              100
ILSW                                       I   N=         100
           0           0           0           0           2           0
           0           0           0           0           0          -1
           5           0           0           0           0           0
           0           0           0           0           0           0
           1           0           0           0           0           0
           0           0      100000           0          -1           0
           0           0           0           0           0           0
           0           0           0           1           0           0
           0 -2000000000           1           0           0           0
           0           0           4          52           0           0
           0           0           0           0           0           0
           0           0           0           5           0           1
           0           0           0           0           0           0
           0           0           0           0           0           0
           0           0           0           0           0           0
           0           0           0           0           0           0
           0           0           0           0
Num RLSW                                   I               52
RLSW                                       R   N=          52
  1.00000000E+00  1.00000000E+00  1.00000000E+00  1.00000000E+00  1.00000000E+00
  0.00000000E+00  0.00000000E+00  1.00000000E+00  0.00000000E+00  0.00000000E+00
  0.00000000E+00  0.00000000E+00  1.00000000E+00  0.00000000E+00  0.00000000E+00
  0.00000000E+00  0.00000000E+00  1.00000000E+00  0.00000000E+00  0.00000000E+00
  0.00000000E+00  0.00000000E+00  1.00000000E+00  0.00000000E+00  0.00000000E+00
  0.00000000E+00  0.00000000E+00  1.00000000E+00  0.00000000E+00  0.00000000E+00
  0.00000000E+00  0.00000000E+00  1.00000000E+00  0.00000000E+00  0.00000000E+00
  0.00000000E+00  0.00000000E+00  0.00000000E+00  1.00000000E+00  1.00000000E+00
  0.00000000E+00  1.00000000E+00  0.00000000E+00  0.00000000E+00  0.00000000E+00
  0.00000000E+00  0.00000000E+00  0.00000000E+00  0.00000000E+00  0.00000000E+00
  0.00000000E+00  0.00000000E+00
MxBond                                     I                2
NBond                                      I   N=           5
           1           2           2           2           1
IBond                                      I   N=          10
           2           0           1           3           2           4
           3           5           4           0
RBond                                      R   N=          10
  1.00000000E+00  0.00000000E+00  1.00000000E+00  1.00000000E+00  1.00000000E+00
  1.00000000E+00  1.00000000E+00  2.00000000E+00  2.00000000E+00  0.00000000E+00
Virial Ratio                               R      2.002353533209836E+00
SCF Energy                                 R     -2.795016728129831E+02
MP2 Energy                                 R     -2.804467119822680E+02
Total Energy                               R     -2.804467119822680E+02
Post-SCF wavefunction norm                 R      1.120220899514712E+00
RMS Density                                R      5.303536807786039E-09
Job Status                                 I                1
Nuclear derivative order                   I                0
External E-field                           R   N=          35
  0.00000000E+00  0.00000000E+00  0.00000000E+00  0.00000000E+00  0.00000000E+00
  0.00000000E+00  0.00000000E+00  0.00000000E+00  0.00000000E+00  0.00000000E+00
  0.00000000E+00  0.00000000E+00  0.00000000E+00  0.00000000E+00  0.00000000E+00
  0.00000000E+00  0.00000000E+00  0.00000000E+00  0.00000000E+00  0.00000000E+00
  0.00000000E+00  0.00000000E+00  0.00000000E+00  0.00000000E+00  0.00000000E+00
  0.00000000E+00  0.00000000E+00  0.00000000E+00  0.00000000E+00  0.00000000E+00
  0.00000000E+00  0.00000000E+00  0.00000000E+00  0.00000000E+00  0.00000000E+00
IOpCl                                      I                0
IROHF                                      I                0
Alpha Orbital Energies                     R   N=         207
 -2.06908654E+01 -2.06843089E+01 -2.06599833E+01 -1.58128263E+01 -1.62403383E+00
 -1.49574055E+00 -1.25440791E+00 -9.48066553E-01 -7.72779379E-01 -7.59178276E-01
 -7.11831455E-01 -6.79332026E-01 -6.20469577E-01 -5.89421158E-01 -4.85224087E-01
 -4.72499651E-01  2.96275855E-02  7.16567387E-02  8.59537227E-02  1.01718308E-01
  1.33378590E-01  1.34515079E-01  1.44080869E-01  1.54534170E-01  1.78233615E-01
  1.94166901E-01  1.99769905E-01  2.06399467E-01  2.20827386E-01  2.35241371E-01
  2.37588557E-01  2.65979466E-01  2.93430140E-01  3.03783793E-01  3.10615006E-01
  3.43432910E-01  3.49755876E-01  3.87218025E-01  4.21913492E-01  4.31519936E-01
  5.26943508E-01  5.29657046E-01  5.58481148E-01  5.81602031E-01  6.25960088E-01
  6.38315213E-01  6.74097384E-01  6.84861431E-01  7.06398431E-01  7.11164871E-01
  7.24235628E-01  7.29446430E-01  7.44677210E-01  7.91020991E-01  7.92638392E-01
  8.09743864E-01  8.13303707E-01  8.30536465E-01  8.68213303E-01  9.08242316E-01
  9.21948343E-01  9.26319761E-01  9.56546981E-01  9.77332337E-01  9.84742905E-01
  1.01642425E+00  1.05164184E+00  1.05492434E+00  1.08273764E+00  1.11756747E+00
  1.14102838E+00  1.18962524E+00  1.22089095E+00  1.23259891E+00  1.33877899E+00
  1.35055207E+00  1.38644747E+00  1.45326379E+00  1.48775814E+00  1.50892386E+00
  1.53804599E+00  1.56671292E+00  1.57998533E+00  1.61325192E+00  1.66409510E+00
  1.66953636E+00  1.70336952E+00  1.79295067E+00  1.83076588E+00  1.83525118E+00
  1.87850553E+00  1.91023950E+00  1.95618173E+00  1.99199193E+00  2.00598584E+00
  2.07767155E+00  2.12085566E+00  2.13185031E+00  2.15008394E+00  2.22457812E+00
  2.26437801E+00  2.26493519E+00  2.28963261E+00  2.31429389E+00  2.34418636E+00
  2.38618237E+00  2.42332017E+00  2.42975402E+00  2.45412612E+00  2.46282307E+00
  2.47679619E+00  2.50146643E+00  2.58960644E+00  2.59658823E+00  2.62064201E+00
  2.62468829E+00  2.63472389E+00  2.66744710E+00  2.75722501E+00  2.82444611E+00
  2.85524860E+00  2.88452162E+00  2.89493494E+00  2.92380887E+00  2.95853637E+00
  3.02534143E+00  3.06824585E+00  3.12167887E+00  3.20473029E+00  3.22653269E+00
  3.31650065E+00  3.34170011E+00  3.51683668E+00  3.64307484E+00  3.83819054E+00
  3.84484147E+00  4.14872445E+00  4.16292663E+00  4.18382201E+00  4.25750240E+00
  4.35165553E+00  4.39328388E+00  4.46342965E+00  4.51919057E+00  4.66143447E+00
  4.71052182E+00  4.80524367E+00  4.82472727E+00  4.82868199E+00  4.89613117E+00
  5.02319370E+00  5.07718938E+00  5.10361062E+00  5.14459365E+00  5.17906550E+00
  5.24263540E+00  5.27225073E+00  5.30798233E+00  5.32958764E+00  5.35517805E+00
  5.60640159E+00  5.67370538E+00  5.76939742E+00  5.82895958E+00  5.95746423E+00
  6.16864185E+00  6.30885436E+00  6.33817299E+00  6.39437273E+00  6.49359675E+00
  6.50539621E+00  6.61383330E+00  6.66791483E+00  6.69943196E+00  6.75764172E+00
  6.76346290E+00  6.83264129E+00  6.89828445E+00  7.01359858E+00  7.05584640E+00
  7.05740421E+00  7.09011108E+00  7.12447027E+00  7.14999868E+00  7.18154271E+00
  7.22509217E+00  7.24177598E+00  7.30732040E+00  7.32527903E+00  7.34749612E+00
  7.39939605E+00  7.43153643E+00  7.48440913E+00  7.60455925E+00  7.62085619E+00
  7.62694543E+00  7.66609100E+00  7.78934706E+00  7.88677328E+00  8.09278541E+00
  8.31449900E+00  8.40913137E+00  8.54421314E+00  1.33913451E+01  1.43930072E+01
  1.51620047E+01  1.61521128E+01
Alpha MO coefficients                      R   N=       42849
  9.19676891E-05 -6.40657860E-04 -7.27697226E-04 -4.54901255E-06 -3.32178936E-05
 -8.94966580E-06  7.39705128E-08  1.01328313E-06  7.46226096E-05 -8.21229793E-07
  9.16840277E-05 -2.27389283E-05 -6.92758109E-07  3.18554505E-05  1.04214912E-06
 -7.87178282E-07  5.59433109E-06  5.36900510E-05 -5.18685915E-06 -4.49536932E-07
 -1.35613675E-06  7.21155145E-05  1.67183766E-04  4.58617865E-03 -2.81944494E-04
  1.46630104E-05  1.55723245E-03  1.82481363E-03  8.98514367E-05 -5.71774980E-05
 -1.36835878E-06 -5.17357927E-04  3.38311872E-04  7.61060560E-06 -4.13483401E-04
  1.29385465E-03  1.03415012E-05 -2.86537513E-04  2.90963269E-04  2.83522308E-06
  2.88325755E-05  9.91904306E-07 -8.72217123E-07 -1.02715333E-05  5.34675604E-05
 -3.78222189E-04 -1.24933784E-05  1.02928672E-05  1.85558833E-04 -7.17304094E-04
 -4.46832854E-04 -6.71548038E-06  6.93070710E-06  5.60837920E-05 -2.36318697E-04
 -1.97561697E-06  7.18994804E-05 -3.73811756E-05  1.05504359E-06 -2.74848903E-06
  3.34535860E-05  1.04390551E-04 -7.91528385E-06  1.88213130E-04 -1.73791196E-04
  1.11589892E-06 -9.00717893E-06  1.65271778E-04  3.16347212E-04  9.76911098E-01
 -9.21619775E-03  4.33185133E-02  2.03962904E-03 -9.18861455E-04  3.94743341E-04
 -1.97813238E-03 -1.00165392E-05 -3.30949848E-04  1.96666822E-03  1.21047550E-05
 -6.25807741E-04 -9.82477271E-04  4.75214802E-06 -1.15893946E-04  7.06534866E-05
  1.61984971E-06  4.62839349E-05  1.03337017E-06 -9.28151244E-07  1.01452123E-05
  3.99345477E-05  7.47106097E-04  1.68530796E-05 -7.19773476E-06 -4.40455689E-04
  1.08597659E-04 -3.59517972E-04 -1.66444326E-06  4.78528081E-07 -4.49655136E-04
  1.89889779E-04 -1.07194764E-06  9.00258992E-06 -6.75535136E-05  9.86538663E-07
 -1.86493211E-06 -1.83836692E-06  4.20022015E-05 -7.02073208E-07  3.18308380E-05
  3.72248434E-06 -7.07488309E-07 -2.97802293E-06 -2.95326126E-05  3.34324189E-04
  3.90867694E-05  4.59903091E-05 -2.64377408E-04 -7.03257211E-04 -1.43894015E-04
 -7.96802323E-05 -6.22699345E-05 -6.36629229E-07  6.38753023E-04  4.09688167E-04
  4.59658455E-06 -9.57314510E-04  1.11722783E-04  7.19200892E-06 -1.17059666E-04
  5.22511945E-05  4.35075341E-06 -1.81181551E-05 -9.11374474E-07 -4.72984057E-07
  5.75221437E-06  3.27315881E-05 -3.28767399E-04 -2.75747491E-06  2.28534685E-06
 -1.19726629E-04  8.29553967E-04 -3.63107479E-05  6.37416160E-06  3.74556006E-06
 -8.30177602E-05 -1.26534873E-04  1.81308363E-07 -8.80285201E-05 -8.42074355E-05
  6.80287930E-07 -1.78349828E-06 -1.08978288E-04  1.05067906E-04  4.14625448E-06
 -8.84767158E-05 -1.24530804E-04 -5.90283775E-06 -4.19696894E-06 -4.08718568E-04
  9.81218094E-05 -2.58637471E-03  1.21695325E-04 -1.23851892E-04 -2.44425306E-04
  1.36248654E-04 -2.29271582E-05 -1.75706962E-05 -7.24331292E-07  1.52904377E-04
  9.04340906E-05  5.36012787E-06  3.07435097E-04  2.29792548E-05 -5.19576319E-06
  1.16279245E-04 -5.60735193E-05 -3.18200805E-06 -3.35834362E-06 -4.54981417E-07
  1.00866290E-07 -4.07221630E-06  1.74482666E-05  7.76407976E-07  4.23071507E-06
  8.39689232E-07  1.07419520E-04 -5.10651867E-05 -1.00212543E-04 -1.64317362E-06
 -2.99917026E-06  2.03630522E-04 -1.11589166E-04  4.66649336E-07  1.06277458E-05
 -1.22236187E-05  4.06756243E-07  8.66118348E-07 -9.82269671E-06  8.03280605E-06
 -8.12540411E-07  4.74032160E-08  5.62920254E-05 -1.06097272E-06 -2.93424543E-06
  5.70138339E-05 -1.08750364E-04  3.89761996E-05 -9.87440725E-04 -4.86503367E-04
 -1.08074967E-05 -8.29315122E-06  2.60104865E-05  1.26447030E-07  1.63339919E-04
  2.20303131E-04 -1.11667220E-06  4.60720452E-05  1.32183625E-04  5.56169067E-07
  2.59461530E-05  1.37399968E-08  2.09630222E-07  1.41390369E-05 -8.67241150E-06
 -2.74230650E-05 -1.38999763E-07  4.19866682E-07  3.65467388E-05 -6.17006814E-07
  1.12326439E-04  8.40576266E-05 -2.79923511E-05  7.50188693E-04  6.51116641E-04
  9.69173116E-06 -4.06439994E-06  1.95019718E-08 -4.89996318E-05  5.60767725E-05
 -5.25913242E-07  8.03801364E-04  5.25261738E-04  8.46272339E-06  5.11762880E-05
  6.31629554E-05  4.16833565E-06 -2.27607216E-06  3.33774426E-07  2.31411470E-08
 -5.80871111E-06 -1.64333740E-06 -3.57828080E-05 -1.90724747E-06 -1.19741308E-07
  7.38991986E-05  4.33493731E-05 -2.28260885E-05 -6.43215272E-06  6.61644953E-07
 -2.33192861E-04  2.08119570E-04  1.74466178E-07  1.09799910E-05 -6.17393425E-07
 -1.66850835E-07 -2.22377230E-07 -1.85038736E-05  3.69788790E-06 -1.23445445E-06
 -5.52077245E-05 -6.71875287E-06  2.83278440E-06 -2.31820954E-07  4.43470755E-05
  6.57470128E-05  2.62522745E-03  3.90972610E-05  9.17014621E-05 -6.99428090E-05
 -4.67528611E-04  1.52624493E-05  8.31114417E-06 -2.31779979E-07 -8.30746164E-05
 -7.42818541E-06  7.50624882E-07  7.73930323E-05 -2.90728125E-04 -8.93950472E-06
 -1.88846370E-04  5.98419717E-05 -2.55639179E-06 -8.71051104E-06  7.13262057E-07
 -2.26509696E-08  2.54598641E-05 -1.56161842E-05  4.45244988E-06 -2.60260660E-06
  4.64030022E-08 -7.87961206E-05  9.86785226E-05 -4.36735949E-06 -4.04249194E-06
  7.00858057E-06 -2.62005490E-04  1.51876705E-04 -5.71172764E-07  2.29025812E-06
 -2.38440918E-06 -5.19550057E-07 -1.72990136E-07 -1.33578328E-05  2.92067220E-06
  1.53983778E-07 -3.51960693E-05  3.04677467E-05  3.95614932E-06  2.43989774E-06
  2.02515714E-04  9.22004407E-06  2.58675156E-04  1.46507644E-03 -7.80306856E-05
 -1.53903513E-03  3.97688826E-04 -1.16025872E-04  8.60293113E-05 -3.42313300E-06
 -1.91943857E-03  9.18037076E-04 -4.05459053E-05  1.28837344E-03 -4.37078931E-06
  1.22922988E-05 -1.04022722E-04  1.46274738E-04 -2.37825208E-06 -1.23181432E-04
  8.68488247E-06 -3.96523033E-06  1.60950811E-04 -2.04906451E-04 -4.41574709E-04
  3.24459926E-05 -2.02198242E-05  1.99405327E-04 -8.78497724E-04  1.14656934E-05
 -9.17637876E-06  1.47651079E-06 -2.16415126E-04  2.87612102E-04 -1.11448900E-06
  8.05458469E-06  1.30505222E-05  1.10230804E-06 -3.42365731E-07  6.27467630E-06
 -2.22433626E-05  1.31904588E-05  8.92617181E-05 -1.55331160E-04 -6.44447167E-06
  1.39610132E-05  1.19850755E-04  2.12740244E-04  9.76649235E-01 -9.84846377E-03
  4.35679896E-02  4.50123071E-03 -4.45901995E-04  2.01233082E-03 -8.90978489E-04
  4.62722832E-05 -2.27499686E-03  9.32665956E-04 -4.74855832E-05  9.13517354E-04
 -6.80444151E-04  3.11484196E-05 -2.14965368E-05 -3.67736084E-05 -1.57262823E-06
 -2.32176074E-04  7.07308404E-06 -7.68312847E-06  6.04937598E-05 -8.88306263E-05
  3.90110408E-04 -3.04678326E-05  7.44956579E-06 -6.44332825E-04  6.74875809E-04
 -1.53297595E-04  1.12962741E-05 -8.47875931E-06  9.09374557E-05 -2.39847947E-04
  2.69316451E-06  5.24220219E-05 -1.67858023E-05 -1.19921370E-06  2.48073163E-06
 -5.13753114E-06  2.52408816E-05  6.78723665E-06  1.16462764E-04 -7.47785225E-05
 -7.71143320E-06  6.23238145E-06 -6.91845801E-05  2.25700331E-04  4.74829110E-04
  2.06099117E-03  1.15660947E-04  1.49484970E-05 -1.79917093E-04 -1.73880704E-04
  9.06417752E-07 -6.69143343E-04 -1.09112306E-03 -1.09382790E-06  4.82489768E-05
 -4.56805191E-04 -4.37191082E-06 -2.65035143E-06 -8.11862033E-07  4.19250915E-07
  3.69406118E-05 -6.81493357E-05 -1.60160340E-04  1.70423625E-06 -1.39462897E-06
 -1.79458215E-04  5.06972161E-04  9.76830095E-01 -9.16315526E-03  4.34497577E-02
  1.64226377E-04 -1.14011333E-03 -3.97101008E-04  2.08871876E-03  1.67638753E-05
  5.00524435E-04 -1.96946956E-03 -1.64610140E-05 -9.73414242E-04 -3.57218441E-04
  7.04638444E-06  2.60915045E-05 -5.84797678E-05 -1.19137447E-06  2.94940213E-05
  1.83365818E-06 -1.19715807E-06 -3.72205704E-05  1.12065967E-04  7.57307160E-04
  1.62319670E-05 -7.57718434E-06 -2.84052441E-04  1.24558900E-04 -2.66291449E-04
 -3.45977255E-06  3.97049967E-06  1.71573802E-04 -1.24205146E-04  1.75600903E-06
 -5.07582985E-05  3.91620747E-05 -5.30011727E-07  1.14259442E-06  2.99294527E-06
 -2.10523049E-05 -1.73380119E-07  7.21745010E-05  9.93686169E-05 -9.40316052E-08
  4.76775500E-06  3.20896879E-07 -2.72975658E-04 -4.67847164E-03 -2.11266354E-04