 Entering Gaussian System, Link 0=g16
 Input=hoono_d1_175p6121.gjf
 Output=hoono_d1_175p6121.log
 Initial command:
 /sw/contrib/gaussian/g16/B01/g16/l1.exe "/scr/Gau-9659.inp" -scrdir="/scr/"
 Entering Link 1 = /sw/contrib/gaussian/g16/B01/g16/l1.exe PID=      9660.
  
 Copyright (c) 1988-2017, Gaussian, Inc.  All Rights Reserved.
  
 This is part of the Gaussian(R) 16 program.  It is based on
 the Gaussian(R) 09 system (copyright 2009, Gaussian, Inc.),
 the Gaussian(R) 03 system (copyright 2003, Gaussian, Inc.),
 the Gaussian(R) 98 system (copyright 1998, Gaussian, Inc.),
 the Gaussian(R) 94 system (copyright 1995, Gaussian, Inc.),
 the Gaussian 92(TM) system (copyright 1992, Gaussian, Inc.),
 the Gaussian 90(TM) system (copyright 1990, Gaussian, Inc.),
 the Gaussian 88(TM) system (copyright 1988, Gaussian, Inc.),
 the Gaussian 86(TM) system (copyright 1986, Carnegie Mellon
 University), and the Gaussian 82(TM) system (copyright 1983,
 Carnegie Mellon University). Gaussian is a federally registered
 trademark of Gaussian, Inc.
  
 This software contains proprietary and confidential information,
 including trade secrets, belonging to Gaussian, Inc.
  
 This software is provided under written license and may be
 used, copied, transmitted, or stored only in accord with that
 written license.
  
 The following legend is applicable only to US Government
 contracts under FAR:
  
                    RESTRICTED RIGHTS LEGEND
  
 Use, reproduction and disclosure by the US Government is
 subject to restrictions as set forth in subparagraphs (a)
 and (c) of the Commercial Computer Software - Restricted
 Rights clause in FAR 52.227-19.
  
 Gaussian, Inc.
 340 Quinnipiac St., Bldg. 40, Wallingford CT 06492
  
  
 ---------------------------------------------------------------
 Warning -- This program may not be used in any manner that
 competes with the business of Gaussian, Inc. or will provide
 assistance to any competitor of Gaussian, Inc.  The licensee
 of this program is prohibited from giving any competitor of
 Gaussian, Inc. access to this program.  By using this program,
 the user acknowledges that Gaussian, Inc. is engaged in the
 business of creating and licensing software in the field of
 computational chemistry and represents and warrants to the
 licensee that it is not a competitor of Gaussian, Inc. and that
 it will not use this program in any manner prohibited above.
 ---------------------------------------------------------------
  

 Cite this work as:
 Gaussian 16, Revision B.01,
 M. J. Frisch, G. W. Trucks, H. B. Schlegel, G. E. Scuseria, 
 M. A. Robb, J. R. Cheeseman, G. Scalmani, V. Barone, 
 G. A. Petersson, H. Nakatsuji, X. Li, M. Caricato, A. V. Marenich, 
 J. Bloino, B. G. Janesko, R. Gomperts, B. Mennucci, H. P. Hratchian, 
 J. V. Ortiz, A. F. Izmaylov, J. L. Sonnenberg, D. Williams-Young, 
 F. Ding, F. Lipparini, F. Egidi, J. Goings, B. Peng, A. Petrone, 
 T. Henderson, D. Ranasinghe, V. G. Zakrzewski, J. Gao, N. Rega, 
 G. Zheng, W. Liang, M. Hada, M. Ehara, K. Toyota, R. Fukuda, 
 J. Hasegawa, M. Ishida, T. Nakajima, Y. Honda, O. Kitao, H. Nakai, 
 T. Vreven, K. Throssell, J. A. Montgomery, Jr., J. E. Peralta, 
 F. Ogliaro, M. J. Bearpark, J. J. Heyd, E. N. Brothers, K. N. Kudin, 
 V. N. Staroverov, T. A. Keith, R. Kobayashi, J. Normand, 
 K. Raghavachari, A. P. Rendell, J. C. Burant, S. S. Iyengar, 
 J. Tomasi, M. Cossi, J. M. Millam, M. Klene, C. Adamo, R. Cammi, 
 J. W. Ochterski, R. L. Martin, K. Morokuma, O. Farkas, 
 J. B. Foresman, and D. J. Fox, Gaussian, Inc., Wallingford CT, 2016.
 
 ******************************************
 Gaussian 16:  ES64L-G16RevB.01 20-Dec-2017
                14-Feb-2022 
 ******************************************
 %nproc=28
 Will use up to   28 processors via shared memory.
 %mem=120GB
 %chk=hoono_d1_175p6121.chk
 -------------------------------------
 #p SP mp2/aug-cc-pvtz density=current
 -------------------------------------
 1/30=1,38=1,172=1/1;
 2/12=2,17=6,18=5,40=1/2;
 3/5=16,6=1,7=10,11=9,25=1,30=1,71=1/1,2,3;
 4//1;
 5/5=2,38=5/2;
 8/6=4,10=1/1;
 9/15=1,16=-3/6;
 10/5=1,13=10/2;
 6/7=2,8=2,9=2,10=2,22=-1/1;
 99/5=1,9=1/99;
 Leave Link    1 at Mon Feb 14 22:02:19 2022, MaxMem= 16106127360 cpu:               3.3 elap:               0.1
 (Enter /sw/contrib/gaussian/g16/B01/g16/l101.exe)
 -----
 title
 -----
 Symbolic Z-matrix:
 Charge =  0 Multiplicity = 1
 H
 O                    1    r1
 O                    2    r2       1    a1
 N                    3    r3       2    a2       1    d1       0
 O                    4    r4       3    a3       2    d2       0
       Variables:
  r1                    0.96898                  
  r2                    1.45492                  
  r3                    1.45878                  
  r4                    1.17073                  
  a1                   97.59495                  
  a2                  102.29752                  
  a3                  109.06955                  
  d1                  175.61211                  
  d2                  180.                       
 
 ITRead=  0  0  0  0  0
 MicOpt= -1 -1 -1 -1 -1
 NAtoms=      5 NQM=        5 NQMF=       0 NMMI=      0 NMMIF=      0
                NMic=       0 NMicF=      0.
                    Isotopes and Nuclear Properties:
 (Nuclear quadrupole moments (NQMom) in fm**2, nuclear magnetic moments (NMagM)
  in nuclear magnetons)

  Atom         1           2           3           4           5
 IAtWgt=           1          16          16          14          16
 AtmWgt=   1.0078250  15.9949146  15.9949146  14.0030740  15.9949146
 NucSpn=           1           0           0           2           0
 AtZEff=  -0.0000000  -0.0000000  -0.0000000  -0.0000000  -0.0000000
 NQMom=    0.0000000   0.0000000   0.0000000   2.0440000   0.0000000
 NMagM=    2.7928460   0.0000000   0.0000000   0.4037610   0.0000000
 AtZNuc=   1.0000000   8.0000000   8.0000000   7.0000000   8.0000000
 Leave Link  101 at Mon Feb 14 22:02:20 2022, MaxMem= 16106127360 cpu:               3.2 elap:               0.1
 (Enter /sw/contrib/gaussian/g16/B01/g16/l202.exe)
                          Input orientation:                          
 ---------------------------------------------------------------------
 Center     Atomic      Atomic             Coordinates (Angstroms)
 Number     Number       Type             X           Y           Z
 ---------------------------------------------------------------------
      1          1           0        0.000000    0.000000    0.000000
      2          8           0        0.000000    0.000000    0.968976
      3          8           0        1.442156    0.000000    1.161271
      4          7           0        1.562304    0.109048    2.611003
      5          8           0        2.696473    0.119610    2.901097
 ---------------------------------------------------------------------
                    Distance matrix (angstroms):
                    1          2          3          4          5
     1  H    0.000000
     2  O    0.968976   0.000000
     3  O    1.851584   1.454919   0.000000
     4  N    3.044671   2.269127   1.458784   0.000000
     5  O    3.962529   3.319392   2.148165   1.170729   0.000000
 Stoichiometry    HNO3
 Framework group  C1[X(HNO3)]
 Deg. of freedom     9
 Full point group                 C1      NOp   1
 Largest Abelian subgroup         C1      NOp   1
 Largest concise Abelian subgroup C1      NOp   1
                         Standard orientation:                         
 ---------------------------------------------------------------------
 Center     Atomic      Atomic             Coordinates (Angstroms)
 Number     Number       Type             X           Y           Z
 ---------------------------------------------------------------------
      1          1           0       -2.247496    0.433155    0.061248
      2          8           0       -1.598917   -0.283659   -0.005359
      3          8           0       -0.400327    0.541065   -0.007211
      4          7           0        0.663567   -0.456973    0.002869
      5          8           0        1.699560    0.088301    0.002404
 ---------------------------------------------------------------------
 Rotational constants (GHZ):          54.9377965           5.0112282           4.5927448
 Leave Link  202 at Mon Feb 14 22:02:20 2022, MaxMem= 16106127360 cpu:               0.2 elap:               0.0
 (Enter /sw/contrib/gaussian/g16/B01/g16/l301.exe)
 Standard basis: Aug-CC-pVTZ (5D, 7F)
 Ernie: Thresh=  0.10000D-02 Tol=  0.10000D-05 Strict=F.
 Ernie:  12 primitive shells out of 131 were deleted.
 There are   245 symmetry adapted cartesian basis functions of A   symmetry.
 There are   207 symmetry adapted basis functions of A   symmetry.
   207 basis functions,   315 primitive gaussians,   245 cartesian basis functions
    16 alpha electrons       16 beta electrons
       nuclear repulsion energy       116.8728371514 Hartrees.
 IExCor=    0 DFT=F Ex=HF Corr=None ExCW=0 ScaHFX=  1.000000
 ScaDFX=  1.000000  1.000000  1.000000  1.000000 ScalE2=  1.000000  1.000000
 IRadAn=      5 IRanWt=     -1 IRanGd=            0 ICorTp=0 IEmpDi=  4
 NAtoms=    5 NActive=    5 NUniq=    5 SFac= 1.00D+00 NAtFMM=   60 NAOKFM=F Big=F
 Integral buffers will be    131072 words long.
 Raffenetti 1 integral format.
 Two-electron integral symmetry is turned on.
 Leave Link  301 at Mon Feb 14 22:02:20 2022, MaxMem= 16106127360 cpu:               1.6 elap:               0.1
 (Enter /sw/contrib/gaussian/g16/B01/g16/l302.exe)
 NPDir=0 NMtPBC=     1 NCelOv=     1 NCel=       1 NClECP=     1 NCelD=      1
         NCelK=      1 NCelE2=     1 NClLst=     1 CellRange=     0.0.
 One-electron integrals computed using PRISM.
 One-electron integral symmetry used in STVInt
 NBasis=   207 RedAO= T EigKep=  1.82D-04  NBF=   207
 NBsUse=   207 1.00D-06 EigRej= -1.00D+00 NBFU=   207
 Leave Link  302 at Mon Feb 14 22:02:20 2022, MaxMem= 16106127360 cpu:               6.6 elap:               0.3
 (Enter /sw/contrib/gaussian/g16/B01/g16/l303.exe)
 DipDrv:  MaxL=1.
 Leave Link  303 at Mon Feb 14 22:02:20 2022, MaxMem= 16106127360 cpu:               0.7 elap:               0.1
 (Enter /sw/contrib/gaussian/g16/B01/g16/l401.exe)
 ExpMin= 2.53D-02 ExpMax= 1.53D+04 ExpMxC= 5.22D+02 IAcc=3 IRadAn=         5 AccDes= 0.00D+00
 Harris functional with IExCor=  205 and IRadAn=       5 diagonalized for initial guess.
 HarFok:  IExCor=  205 AccDes= 0.00D+00 IRadAn=         5 IDoV= 1 UseB2=F ITyADJ=14
 ICtDFT=  3500011 ScaDFX=  1.000000  1.000000  1.000000  1.000000
 FoFCou: FMM=F IPFlag=           0 FMFlag=      100000 FMFlg1=           0
         NFxFlg=           0 DoJE=T BraDBF=F KetDBF=T FulRan=T
         wScrn=  0.000000 ICntrl=       500 IOpCl=  0 I1Cent=   200000004 NGrid=           0
         NMat0=    1 NMatS0=      1 NMatT0=    0 NMatD0=    1 NMtDS0=    0 NMtDT0=    0
 Petite list used in FoFCou.
 Harris En= -279.628713775989    
 JPrj=0 DoOrth=F DoCkMO=F.
 Leave Link  401 at Mon Feb 14 22:02:20 2022, MaxMem= 16106127360 cpu:               7.4 elap:               0.3
 (Enter /sw/contrib/gaussian/g16/B01/g16/l502.exe)
 Keep R1 ints in memory in canonical form, NReq=245616937.
 FoFCou: FMM=F IPFlag=           0 FMFlag=           0 FMFlg1=           0
         NFxFlg=           0 DoJE=F BraDBF=F KetDBF=F FulRan=T
         wScrn=  0.000000 ICntrl=       600 IOpCl=  0 I1Cent=           0 NGrid=           0
         NMat0=    1 NMatS0=  21528 NMatT0=    0 NMatD0=    1 NMtDS0=    0 NMtDT0=    0
 Symmetry not used in FoFCou.
 Two-electron integral symmetry not used.
 Closed shell SCF:
 Using DIIS extrapolation, IDIIS=  1040.
 NGot= 16106127360 LenX= 15874260251 LenY= 15874199785
 Requested convergence on RMS density matrix=1.00D-08 within 128 cycles.
 Requested convergence on MAX density matrix=1.00D-06.
 Requested convergence on             energy=1.00D-06.
 No special actions if energy rises.

 Cycle   1  Pass 1  IDiag  1:
 E= -279.370489670048    
 DIIS: error= 2.62D-02 at cycle   1 NSaved=   1.
 NSaved= 1 IEnMin= 1 EnMin= -279.370489670048     IErMin= 1 ErrMin= 2.62D-02
 ErrMax= 2.62D-02  0.00D+00 EMaxC= 1.00D-01 BMatC= 4.38D-01 BMatP= 4.38D-01
 IDIUse=3 WtCom= 7.38D-01 WtEn= 2.62D-01
 Coeff-Com:  0.100D+01
 Coeff-En:   0.100D+01
 Coeff:      0.100D+01
 Gap=     0.519 Goal=   None    Shift=    0.000
 GapD=    0.519 DampG=2.000 DampE=0.500 DampFc=1.0000 IDamp=-1.
 RMSDP=1.62D-03 MaxDP=9.92D-02              OVMax= 1.13D-01

 Cycle   2  Pass 1  IDiag  1:
 E= -279.452425147431     Delta-E=       -0.081935477383 Rises=F Damp=F
 DIIS: error= 1.77D-02 at cycle   2 NSaved=   2.
 NSaved= 2 IEnMin= 2 EnMin= -279.452425147431     IErMin= 2 ErrMin= 1.77D-02
 ErrMax= 1.77D-02  0.00D+00 EMaxC= 1.00D-01 BMatC= 7.18D-02 BMatP= 4.38D-01
 IDIUse=3 WtCom= 8.23D-01 WtEn= 1.77D-01
 Coeff-Com:  0.195D+00 0.805D+00
 Coeff-En:   0.000D+00 0.100D+01
 Coeff:      0.160D+00 0.840D+00
 Gap=     0.533 Goal=   None    Shift=    0.000
 RMSDP=9.00D-04 MaxDP=3.73D-02 DE=-8.19D-02 OVMax= 6.89D-02

 Cycle   3  Pass 1  IDiag  1:
 E= -279.481573331746     Delta-E=       -0.029148184315 Rises=F Damp=F
 DIIS: error= 1.03D-02 at cycle   3 NSaved=   3.
 NSaved= 3 IEnMin= 3 EnMin= -279.481573331746     IErMin= 3 ErrMin= 1.03D-02
 ErrMax= 1.03D-02  0.00D+00 EMaxC= 1.00D-01 BMatC= 2.87D-02 BMatP= 7.18D-02
 IDIUse=3 WtCom= 8.97D-01 WtEn= 1.03D-01
 Coeff-Com: -0.330D-01 0.378D+00 0.655D+00
 Coeff-En:   0.000D+00 0.240D+00 0.760D+00
 Coeff:     -0.296D-01 0.364D+00 0.666D+00
 Gap=     0.510 Goal=   None    Shift=    0.000
 RMSDP=3.76D-04 MaxDP=1.54D-02 DE=-2.91D-02 OVMax= 3.81D-02

 Cycle   4  Pass 1  IDiag  1:
 E= -279.500630319135     Delta-E=       -0.019056987388 Rises=F Damp=F
 DIIS: error= 1.28D-03 at cycle   4 NSaved=   4.
 NSaved= 4 IEnMin= 4 EnMin= -279.500630319135     IErMin= 4 ErrMin= 1.28D-03
 ErrMax= 1.28D-03  0.00D+00 EMaxC= 1.00D-01 BMatC= 4.92D-04 BMatP= 2.87D-02
 IDIUse=3 WtCom= 9.87D-01 WtEn= 1.28D-02
 Coeff-Com: -0.117D-01 0.575D-01 0.158D+00 0.796D+00
 Coeff-En:   0.000D+00 0.000D+00 0.000D+00 0.100D+01
 Coeff:     -0.115D-01 0.567D-01 0.156D+00 0.798D+00
 Gap=     0.502 Goal=   None    Shift=    0.000
 RMSDP=9.02D-05 MaxDP=2.18D-03 DE=-1.91D-02 OVMax= 1.11D-02

 Cycle   5  Pass 1  IDiag  1:
 E= -279.501305746296     Delta-E=       -0.000675427161 Rises=F Damp=F
 DIIS: error= 7.31D-04 at cycle   5 NSaved=   5.
 NSaved= 5 IEnMin= 5 EnMin= -279.501305746296     IErMin= 5 ErrMin= 7.31D-04
 ErrMax= 7.31D-04  0.00D+00 EMaxC= 1.00D-01 BMatC= 8.72D-05 BMatP= 4.92D-04
 IDIUse=3 WtCom= 9.93D-01 WtEn= 7.31D-03
 Coeff-Com:  0.613D-02-0.724D-01-0.118D+00 0.203D-01 0.116D+01
 Coeff-En:   0.000D+00 0.000D+00 0.000D+00 0.000D+00 0.100D+01
 Coeff:      0.608D-02-0.718D-01-0.117D+00 0.201D-01 0.116D+01
 Gap=     0.502 Goal=   None    Shift=    0.000
 RMSDP=7.63D-05 MaxDP=2.10D-03 DE=-6.75D-04 OVMax= 1.11D-02

 Cycle   6  Pass 1  IDiag  1:
 E= -279.501620988167     Delta-E=       -0.000315241871 Rises=F Damp=F
 DIIS: error= 2.84D-04 at cycle   6 NSaved=   6.
 NSaved= 6 IEnMin= 6 EnMin= -279.501620988167     IErMin= 6 ErrMin= 2.84D-04
 ErrMax= 2.84D-04  0.00D+00 EMaxC= 1.00D-01 BMatC= 1.67D-05 BMatP= 8.72D-05
 IDIUse=3 WtCom= 9.97D-01 WtEn= 2.84D-03
 Coeff-Com:  0.596D-03 0.159D-02 0.450D-02-0.130D+00-0.231D+00 0.135D+01
 Coeff-En:   0.000D+00 0.000D+00 0.000D+00 0.000D+00 0.000D+00 0.100D+01
 Coeff:      0.595D-03 0.159D-02 0.449D-02-0.129D+00-0.230D+00 0.135D+01
 Gap=     0.502 Goal=   None    Shift=    0.000
 RMSDP=4.53D-05 MaxDP=1.06D-03 DE=-3.15D-04 OVMax= 5.55D-03

 Cycle   7  Pass 1  IDiag  1:
 E= -279.501693762235     Delta-E=       -0.000072774067 Rises=F Damp=F
 DIIS: error= 1.02D-04 at cycle   7 NSaved=   7.
 NSaved= 7 IEnMin= 7 EnMin= -279.501693762235     IErMin= 7 ErrMin= 1.02D-04
 ErrMax= 1.02D-04  0.00D+00 EMaxC= 1.00D-01 BMatC= 4.52D-06 BMatP= 1.67D-05
 IDIUse=3 WtCom= 9.99D-01 WtEn= 1.02D-03
 Coeff-Com: -0.939D-03 0.136D-01 0.265D-01-0.243D-01-0.287D+00 0.392D+00
 Coeff-Com:  0.881D+00
 Coeff-En:   0.000D+00 0.000D+00 0.000D+00 0.000D+00 0.000D+00 0.000D+00
 Coeff-En:   0.100D+01
 Coeff:     -0.938D-03 0.135D-01 0.265D-01-0.243D-01-0.287D+00 0.391D+00
 Coeff:      0.881D+00
 Gap=     0.502 Goal=   None    Shift=    0.000
 RMSDP=1.33D-05 MaxDP=3.78D-04 DE=-7.28D-05 OVMax= 1.55D-03

 Cycle   8  Pass 1  IDiag  1:
 E= -279.501702672851     Delta-E=       -0.000008910616 Rises=F Damp=F
 DIIS: error= 5.09D-05 at cycle   8 NSaved=   8.
 NSaved= 8 IEnMin= 8 EnMin= -279.501702672851     IErMin= 8 ErrMin= 5.09D-05
 ErrMax= 5.09D-05  0.00D+00 EMaxC= 1.00D-01 BMatC= 6.07D-07 BMatP= 4.52D-06
 IDIUse=1 WtCom= 1.00D+00 WtEn= 0.00D+00
 Coeff-Com: -0.449D-03 0.345D-02 0.760D-02 0.274D-01-0.409D-01-0.197D+00
 Coeff-Com:  0.171D+00 0.103D+01
 Coeff:     -0.449D-03 0.345D-02 0.760D-02 0.274D-01-0.409D-01-0.197D+00
 Coeff:      0.171D+00 0.103D+01
 Gap=     0.502 Goal=   None    Shift=    0.000
 RMSDP=6.91D-06 MaxDP=2.03D-04 DE=-8.91D-06 OVMax= 7.47D-04

 Cycle   9  Pass 1  IDiag  1:
 E= -279.501704451826     Delta-E=       -0.000001778976 Rises=F Damp=F
 DIIS: error= 1.58D-05 at cycle   9 NSaved=   9.
 NSaved= 9 IEnMin= 9 EnMin= -279.501704451826     IErMin= 9 ErrMin= 1.58D-05
 ErrMax= 1.58D-05  0.00D+00 EMaxC= 1.00D-01 BMatC= 6.92D-08 BMatP= 6.07D-07
 IDIUse=1 WtCom= 1.00D+00 WtEn= 0.00D+00
 Coeff-Com:  0.123D-03-0.172D-02-0.307D-02-0.206D-02 0.342D-01-0.498D-04
 Coeff-Com: -0.166D+00-0.103D+00 0.124D+01
 Coeff:      0.123D-03-0.172D-02-0.307D-02-0.206D-02 0.342D-01-0.498D-04
 Coeff:     -0.166D+00-0.103D+00 0.124D+01
 Gap=     0.502 Goal=   None    Shift=    0.000
 RMSDP=1.94D-06 MaxDP=5.18D-05 DE=-1.78D-06 OVMax= 1.75D-04

 Cycle  10  Pass 1  IDiag  1:
 E= -279.501704612124     Delta-E=       -0.000000160298 Rises=F Damp=F
 DIIS: error= 4.05D-06 at cycle  10 NSaved=  10.
 NSaved=10 IEnMin=10 EnMin= -279.501704612124     IErMin=10 ErrMin= 4.05D-06
 ErrMax= 4.05D-06  0.00D+00 EMaxC= 1.00D-01 BMatC= 5.55D-09 BMatP= 6.92D-08
 IDIUse=1 WtCom= 1.00D+00 WtEn= 0.00D+00
 Coeff-Com:  0.310D-04-0.243D-03-0.324D-03-0.270D-02 0.163D-02 0.196D-01
 Coeff-Com: -0.130D-01-0.743D-01-0.801D-01 0.115D+01
 Coeff:      0.310D-04-0.243D-03-0.324D-03-0.270D-02 0.163D-02 0.196D-01
 Coeff:     -0.130D-01-0.743D-01-0.801D-01 0.115D+01
 Gap=     0.502 Goal=   None    Shift=    0.000
 RMSDP=5.05D-07 MaxDP=2.11D-05 DE=-1.60D-07 OVMax= 4.16D-05

 Cycle  11  Pass 1  IDiag  1:
 E= -279.501704624680     Delta-E=       -0.000000012556 Rises=F Damp=F
 DIIS: error= 1.83D-06 at cycle  11 NSaved=  11.
 NSaved=11 IEnMin=11 EnMin= -279.501704624680     IErMin=11 ErrMin= 1.83D-06
 ErrMax= 1.83D-06  0.00D+00 EMaxC= 1.00D-01 BMatC= 6.63D-10 BMatP= 5.55D-09
 IDIUse=1 WtCom= 1.00D+00 WtEn= 0.00D+00
 Coeff-Com: -0.213D-04 0.244D-03 0.488D-03 0.533D-03-0.429D-02-0.356D-02
 Coeff-Com:  0.210D-01 0.311D-01-0.139D+00-0.179D+00 0.127D+01
 Coeff:     -0.213D-04 0.244D-03 0.488D-03 0.533D-03-0.429D-02-0.356D-02
 Coeff:      0.210D-01 0.311D-01-0.139D+00-0.179D+00 0.127D+01
 Gap=     0.502 Goal=   None    Shift=    0.000
 RMSDP=1.79D-07 MaxDP=6.52D-06 DE=-1.26D-08 OVMax= 1.73D-05

 Cycle  12  Pass 1  IDiag  1:
 E= -279.501704626504     Delta-E=       -0.000000001824 Rises=F Damp=F
 DIIS: error= 5.69D-07 at cycle  12 NSaved=  12.
 NSaved=12 IEnMin=12 EnMin= -279.501704626504     IErMin=12 ErrMin= 5.69D-07
 ErrMax= 5.69D-07  0.00D+00 EMaxC= 1.00D-01 BMatC= 7.28D-11 BMatP= 6.63D-10
 IDIUse=1 WtCom= 1.00D+00 WtEn= 0.00D+00
 Coeff-Com:  0.126D-05-0.294D-04-0.636D-04 0.183D-03 0.109D-02-0.231D-02
 Coeff-Com: -0.414D-02 0.546D-02 0.419D-01-0.114D+00-0.282D+00 0.135D+01
 Coeff:      0.126D-05-0.294D-04-0.636D-04 0.183D-03 0.109D-02-0.231D-02
 Coeff:     -0.414D-02 0.546D-02 0.419D-01-0.114D+00-0.282D+00 0.135D+01
 Gap=     0.502 Goal=   None    Shift=    0.000
 RMSDP=7.30D-08 MaxDP=2.83D-06 DE=-1.82D-09 OVMax= 6.68D-06

 Cycle  13  Pass 1  IDiag  1:
 E= -279.501704626740     Delta-E=       -0.000000000236 Rises=F Damp=F
 DIIS: error= 1.68D-07 at cycle  13 NSaved=  13.
 NSaved=13 IEnMin=13 EnMin= -279.501704626740     IErMin=13 ErrMin= 1.68D-07
 ErrMax= 1.68D-07  0.00D+00 EMaxC= 1.00D-01 BMatC= 4.44D-12 BMatP= 7.28D-11
 IDIUse=1 WtCom= 1.00D+00 WtEn= 0.00D+00
 Coeff-Com:  0.130D-05-0.141D-04-0.226D-04-0.915D-04 0.119D-03 0.785D-03
 Coeff-Com: -0.833D-03-0.335D-02 0.381D-03 0.424D-01-0.350D-01-0.337D+00
 Coeff-Com:  0.133D+01
 Coeff:      0.130D-05-0.141D-04-0.226D-04-0.915D-04 0.119D-03 0.785D-03
 Coeff:     -0.833D-03-0.335D-02 0.381D-03 0.424D-01-0.350D-01-0.337D+00
 Coeff:      0.133D+01
 Gap=     0.502 Goal=   None    Shift=    0.000
 RMSDP=2.06D-08 MaxDP=5.64D-07 DE=-2.36D-10 OVMax= 2.11D-06

 Cycle  14  Pass 1  IDiag  1:
 E= -279.501704626759     Delta-E=       -0.000000000018 Rises=F Damp=F
 DIIS: error= 4.46D-08 at cycle  14 NSaved=  14.
 NSaved=14 IEnMin=14 EnMin= -279.501704626759     IErMin=14 ErrMin= 4.46D-08
 ErrMax= 4.46D-08  0.00D+00 EMaxC= 1.00D-01 BMatC= 3.77D-13 BMatP= 4.44D-12
 IDIUse=1 WtCom= 1.00D+00 WtEn= 0.00D+00
 Coeff-Com: -0.256D-06 0.395D-05 0.696D-05 0.787D-05-0.956D-04 0.250D-04
 Coeff-Com:  0.345D-03 0.347D-03-0.273D-02 0.234D-03 0.203D-01-0.180D-01
 Coeff-Com: -0.261D+00 0.126D+01
 Coeff:     -0.256D-06 0.395D-05 0.696D-05 0.787D-05-0.956D-04 0.250D-04
 Coeff:      0.345D-03 0.347D-03-0.273D-02 0.234D-03 0.203D-01-0.180D-01
 Coeff:     -0.261D+00 0.126D+01
 Gap=     0.502 Goal=   None    Shift=    0.000
 RMSDP=5.85D-09 MaxDP=1.31D-07 DE=-1.84D-11 OVMax= 8.84D-07

 SCF Done:  E(RHF) =  -279.501704627     A.U. after   14 cycles
            NFock= 14  Conv=0.58D-08     -V/T= 2.0024
 KE= 2.788453664591D+02 PE=-8.950723079328D+02 EE= 2.198523996955D+02
 Leave Link  502 at Mon Feb 14 22:02:27 2022, MaxMem= 16106127360 cpu:              40.4 elap:               6.7
 (Enter /sw/contrib/gaussian/g16/B01/g16/l801.exe)
 ExpMin= 2.53D-02 ExpMax= 1.53D+04 ExpMxC= 5.22D+02 IAcc=3 IRadAn=         5 AccDes= 0.00D+00
 HarFok:  IExCor=  205 AccDes= 0.00D+00 IRadAn=         5 IDoV=-2 UseB2=F ITyADJ=14
 ICtDFT= 12500011 ScaDFX=  1.000000  1.000000  1.000000  1.000000
 Largest valence mixing into a core orbital is  2.08D-04
 Largest core mixing into a valence orbital is  3.63D-05
 Range of M.O.s used for correlation:     5   207
 NBasis=   207 NAE=    16 NBE=    16 NFC=     4 NFV=     0
 NROrb=    203 NOA=    12 NOB=    12 NVA=   191 NVB=   191

 **** Warning!!: The largest alpha MO coefficient is  0.17698452D+02

 Leave Link  801 at Mon Feb 14 22:02:27 2022, MaxMem= 16106127360 cpu:               2.2 elap:               0.1
 (Enter /sw/contrib/gaussian/g16/B01/g16/l906.exe)
 Frozen-core derivative calculation, NFC=   4 NFV=   0.
 FulOut=F Deriv=T AODrv=F NAtomX=     5
   MMem=          76  MDisk=          12 MDiskD=          12
  W3Min=      811440 MinDsk=     1524655 NBas6D=         245
 NBas2D=       30762    NTT=       30135    LW2=     3500000
    MDV= 16105643539 MDiskM=      328645 NBas2p=       30466
 Fully in-core method, ICMem=   960157634.
 IMap=   1   2   3   4   5   6   7   8   9  10  11  12  13  14  15  16
 JobTyp=1 Pass  1 fully in-core, NPsUse= 28.
 Compute canonical integrals.
 FoFCou: FMM=F IPFlag=           0 FMFlag=           0 FMFlg1=           0
         NFxFlg=           0 DoJE=F BraDBF=F KetDBF=F FulRan=T
         wScrn=  0.000000 ICntrl=       600 IOpCl=  1 I1Cent=           0 NGrid=           0
         NMat0=    1 NMatS0=  30762 NMatT0=    0 NMatD0=    1 NMtDS0=    0 NMtDT0=    0
 Symmetry not used in FoFCou.
 Spin components of T(2) and E(2):
     alpha-alpha T2 =       0.3402543541D-01 E2=     -0.1224062006D+00
     alpha-beta  T2 =       0.1868506338D+00 E2=     -0.7002404576D+00
     beta-beta   T2 =       0.3402543541D-01 E2=     -0.1224062006D+00
 The integrals were generated   1 times.
 ANorm=    0.1120223864D+01
 E2 =    -0.9450528587D+00 EUMP2 =    -0.28044675748543D+03
 Leave Link  906 at Mon Feb 14 22:02:36 2022, MaxMem= 16106127360 cpu:             247.9 elap:               8.9
 (Enter /sw/contrib/gaussian/g16/B01/g16/l1002.exe)
 Minotr:  Closed shell wavefunction.
          Computing MP2/KS-MP2 derivatives.
          Using Z-Vector for PSCF gradient.
          Skipping F1 and S1 gradient terms here.
          Frozen-core window.
          Direct CPHF calculation.
          Differentiating once with respect to electric field.
                with respect to dipole field.
          Electric field/nuclear overlap derivatives assumed to be zero.
          Requested convergence is 1.0D-10 RMS, and 1.0D-09 maximum.
          NewPWx=F KeepS1=T KeepF1=T KeepIn=T MapXYZ=F SortEE=F KeepMc=T.
 Keep R1 ints in memory in canonical form, NReq=245621348.
 FoFCou: FMM=F IPFlag=           0 FMFlag=           0 FMFlg1=           0
         NFxFlg=           0 DoJE=F BraDBF=F KetDBF=F FulRan=T
         wScrn=  0.000000 ICntrl=       600 IOpCl=  0 I1Cent=           0 NGrid=           0
         NMat0=    1 NMatS0=  21528 NMatT0=    0 NMatD0=    1 NMtDS0=    0 NMtDT0=    0
 Symmetry not used in FoFCou.
 Two-electron integral symmetry not used.
          MDV=   16106127360 using IRadAn=       5.
          Solving linear equations separately, MaxMat=       0.
          There are     1 degrees of freedom in the 1st order CPHF.  IDoFFX=0 NUNeed=     1.
 LinEq1:  Iter=  0 NonCon=     1 RMS=5.96D-03 Max=1.32D-01 NDo=     1
 AX will form     1 AO Fock derivatives at one time.
 LinEq1:  Iter=  1 NonCon=     1 RMS=1.90D-03 Max=3.81D-02 NDo=     1
 LinEq1:  Iter=  2 NonCon=     1 RMS=8.68D-04 Max=1.39D-02 NDo=     1
 LinEq1:  Iter=  3 NonCon=     1 RMS=3.87D-04 Max=7.77D-03 NDo=     1
 LinEq1:  Iter=  4 NonCon=     1 RMS=1.19D-04 Max=1.88D-03 NDo=     1
 LinEq1:  Iter=  5 NonCon=     1 RMS=4.55D-05 Max=7.21D-04 NDo=     1
 LinEq1:  Iter=  6 NonCon=     1 RMS=2.03D-05 Max=2.36D-04 NDo=     1
 LinEq1:  Iter=  7 NonCon=     1 RMS=8.17D-06 Max=1.59D-04 NDo=     1
 LinEq1:  Iter=  8 NonCon=     1 RMS=3.50D-06 Max=3.36D-05 NDo=     1
 LinEq1:  Iter=  9 NonCon=     1 RMS=9.69D-07 Max=1.26D-05 NDo=     1
 LinEq1:  Iter= 10 NonCon=     1 RMS=2.10D-07 Max=4.46D-06 NDo=     1
 LinEq1:  Iter= 11 NonCon=     1 RMS=5.60D-08 Max=1.80D-06 NDo=     1
 LinEq1:  Iter= 12 NonCon=     1 RMS=1.80D-08 Max=4.09D-07 NDo=     1
 LinEq1:  Iter= 13 NonCon=     1 RMS=3.76D-09 Max=4.48D-08 NDo=     1
 LinEq1:  Iter= 14 NonCon=     1 RMS=6.10D-10 Max=9.74D-09 NDo=     1
 LinEq1:  Iter= 15 NonCon=     1 RMS=1.23D-10 Max=2.06D-09 NDo=     1
 LinEq1:  Iter= 16 NonCon=     0 RMS=2.93D-11 Max=2.91D-10 NDo=     1
 Linear equations converged to 1.000D-10 1.000D-09 after    16 iterations.
 End of Minotr F.D. properties file   721 does not exist.
 End of Minotr F.D. properties file   722 does not exist.
 End of Minotr F.D. properties file   788 does not exist.
 Leave Link 1002 at Mon Feb 14 22:02:45 2022, MaxMem= 16106127360 cpu:              53.2 elap:               8.6
 (Enter /sw/contrib/gaussian/g16/B01/g16/l601.exe)
 Copying SCF densities to generalized density rwf, IOpCl= 0 IROHF=0.

 **********************************************************************

            Population analysis using the MP2 Density.

 **********************************************************************

 Orbital symmetries:
       Occupied  (A) (A) (A) (A) (A) (A) (A) (A) (A) (A) (A) (A)
                 (A) (A) (A) (A)
       Virtual   (A) (A) (A) (A) (A) (A) (A) (A) (A) (A) (A) (A)
                 (A) (A) (A) (A) (A) (A) (A) (A) (A) (A) (A) (A)
                 (A) (A) (A) (A) (A) (A) (A) (A) (A) (A) (A) (A)
                 (A) (A) (A) (A) (A) (A) (A) (A) (A) (A) (A) (A)
                 (A) (A) (A) (A) (A) (A) (A) (A) (A) (A) (A) (A)
                 (A) (A) (A) (A) (A) (A) (A) (A) (A) (A) (A) (A)
                 (A) (A) (A) (A) (A) (A) (A) (A) (A) (A) (A) (A)
                 (A) (A) (A) (A) (A) (A) (A) (A) (A) (A) (A) (A)
                 (A) (A) (A) (A) (A) (A) (A) (A) (A) (A) (A) (A)
                 (A) (A) (A) (A) (A) (A) (A) (A) (A) (A) (A) (A)
                 (A) (A) (A) (A) (A) (A) (A) (A) (A) (A) (A) (A)
                 (A) (A) (A) (A) (A) (A) (A) (A) (A) (A) (A) (A)
                 (A) (A) (A) (A) (A) (A) (A) (A) (A) (A) (A) (A)
                 (A) (A) (A) (A) (A) (A) (A) (A) (A) (A) (A) (A)
                 (A) (A) (A) (A) (A) (A) (A) (A) (A) (A) (A) (A)
                 (A) (A) (A) (A) (A) (A) (A) (A) (A) (A) (A)
 The electronic state is 1-A.
 Alpha  occ. eigenvalues --  -20.69091 -20.68429 -20.66000 -15.81282  -1.62403
 Alpha  occ. eigenvalues --   -1.49576  -1.25441  -0.94807  -0.77274  -0.75922
 Alpha  occ. eigenvalues --   -0.71195  -0.67929  -0.62038  -0.58935  -0.48548
 Alpha  occ. eigenvalues --   -0.47238
 Alpha virt. eigenvalues --    0.02962   0.07167   0.08594   0.10172   0.13344
 Alpha virt. eigenvalues --    0.13440   0.14405   0.15452   0.17824   0.19417
 Alpha virt. eigenvalues --    0.19972   0.20640   0.22081   0.23541   0.23736
 Alpha virt. eigenvalues --    0.26618   0.29331   0.30311   0.31082   0.34345
 Alpha virt. eigenvalues --    0.35039   0.38727   0.42130   0.43112   0.52728
 Alpha virt. eigenvalues --    0.52956   0.55852   0.58155   0.62595   0.63826
 Alpha virt. eigenvalues --    0.67436   0.68429   0.70648   0.71145   0.72293
 Alpha virt. eigenvalues --    0.73026   0.74517   0.78961   0.79345   0.81028
 Alpha virt. eigenvalues --    0.81292   0.83118   0.86814   0.90831   0.92034
 Alpha virt. eigenvalues --    0.92815   0.95645   0.97574   0.98588   1.01629
 Alpha virt. eigenvalues --    1.05323   1.05475   1.08255   1.11714   1.13869
 Alpha virt. eigenvalues --    1.19151   1.22048   1.23289   1.33855   1.35050
 Alpha virt. eigenvalues --    1.38662   1.45379   1.48856   1.50885   1.53789
 Alpha virt. eigenvalues --    1.56699   1.57987   1.61164   1.66459   1.66893
 Alpha virt. eigenvalues --    1.70369   1.79246   1.83099   1.83519   1.87871
 Alpha virt. eigenvalues --    1.90933   1.95618   1.98904   2.01058   2.07769
 Alpha virt. eigenvalues --    2.12009   2.13111   2.15101   2.22391   2.26218
 Alpha virt. eigenvalues --    2.26725   2.28924   2.31383   2.34398   2.38645
 Alpha virt. eigenvalues --    2.41715   2.43648   2.45408   2.46347   2.47631
 Alpha virt. eigenvalues --    2.50227   2.58954   2.59700   2.62050   2.62484
 Alpha virt. eigenvalues --    2.63520   2.66724   2.75636   2.82553   2.85394
 Alpha virt. eigenvalues --    2.88588   2.89415   2.92303   2.95845   3.02416
 Alpha virt. eigenvalues --    3.06967   3.12137   3.20466   3.22711   3.31651
 Alpha virt. eigenvalues --    3.34149   3.51655   3.64414   3.83820   3.84528
 Alpha virt. eigenvalues --    4.14580   4.16303   4.18787   4.25703   4.34952
 Alpha virt. eigenvalues --    4.39351   4.46541   4.51994   4.66011   4.71075
 Alpha virt. eigenvalues --    4.80500   4.82452   4.82839   4.89596   5.02313
 Alpha virt. eigenvalues --    5.07657   5.10316   5.14467   5.17984   5.24365
 Alpha virt. eigenvalues --    5.27205   5.30761   5.32966   5.35463   5.60549
 Alpha virt. eigenvalues --    5.67362   5.76824   5.82953   5.95690   6.16874
 Alpha virt. eigenvalues --    6.30931   6.33872   6.39405   6.49373   6.50535
 Alpha virt. eigenvalues --    6.61505   6.66558   6.70093   6.75502   6.76547
 Alpha virt. eigenvalues --    6.83305   6.89833   7.01321   7.05592   7.05714
 Alpha virt. eigenvalues --    7.09083   7.12481   7.14904   7.18290   7.22499
 Alpha virt. eigenvalues --    7.24119   7.30675   7.32450   7.34906   7.39827
 Alpha virt. eigenvalues --    7.43087   7.48485   7.60767   7.61813   7.62789
 Alpha virt. eigenvalues --    7.66706   7.78861   7.88641   8.09267   8.31428
 Alpha virt. eigenvalues --    8.40758   8.54381  13.39013  14.39445  15.16162
 Alpha virt. eigenvalues --   16.15206
          Condensed to atoms (all electrons):
               1          2          3          4          5
     1  H    0.589668   0.128395   0.020080   0.012275  -0.000642
     2  O    0.128395   8.321521  -0.173423  -0.090342   0.015442
     3  O    0.020080  -0.173423   8.469151  -0.129890  -0.038775
     4  N    0.012275  -0.090342  -0.129890   6.971718  -0.055541
     5  O   -0.000642   0.015442  -0.038775  -0.055541   8.272786
 Mulliken charges:
               1
     1  H    0.250224
     2  O   -0.201592
     3  O   -0.147143
     4  N    0.291780
     5  O   -0.193269
 Sum of Mulliken charges =  -0.00000
 Mulliken charges with hydrogens summed into heavy atoms:
               1
     2  O    0.048632
     3  O   -0.147143
     4  N    0.291780
     5  O   -0.193269
 Electronic spatial extent (au):  <R**2>=            252.8865
 Charge=             -0.0000 electrons
 Dipole moment (field-independent basis, Debye):
    X=             -1.2158    Y=              0.7885    Z=              0.1163  Tot=              1.4537
 Quadrupole moment (field-independent basis, Debye-Ang):
   XX=            -18.0055   YY=            -23.0973   ZZ=            -21.9996
   XY=             -2.7840   XZ=             -0.3074   YZ=              0.0950
 Traceless Quadrupole moment (field-independent basis, Debye-Ang):
   XX=              3.0287   YY=             -2.0631   ZZ=             -0.9655
   XY=             -2.7840   XZ=             -0.3074   YZ=              0.0950
 Octapole moment (field-independent basis, Debye-Ang**2):
  XXX=            -18.1519  YYY=              1.7581  ZZZ=              0.0365  XYY=             -1.0828
  XXY=              6.1763  XXZ=              0.7379  XZZ=              1.7538  YZZ=              0.2549
  YYZ=              0.0157  XYZ=             -0.1626
 Hexadecapole moment (field-independent basis, Debye-Ang**3):
 XXXX=           -190.2593 YYYY=            -41.0871 ZZZZ=            -18.2489 XXXY=            -12.0729
 XXXZ=             -1.8738 YYYX=             -1.0007 YYYZ=              0.0881 ZZZX=             -0.1101
 ZZZY=              0.0621 XXYY=            -42.4733 XXZZ=            -41.6105 YYZZ=             -9.8767
 XXYZ=              0.3868 YYXZ=             -0.0829 ZZXY=             -0.4833
 N-N= 1.168728371514D+02 E-N=-8.958561838949D+02  KE= 2.801974667185D+02
 No NMR shielding tensors so no spin-rotation constants.
 Leave Link  601 at Mon Feb 14 22:02:45 2022, MaxMem= 16106127360 cpu:               5.7 elap:               0.3
 (Enter /sw/contrib/gaussian/g16/B01/g16/l9999.exe)
 1\1\GINC-N2218\SP\RMP2-FC\Aug-CC-pVTZ\H1N1O3\CGAVINH\14-Feb-2022\0\\#p
  SP mp2/aug-cc-pvtz density=current\\title\\0,1\H\O,1,0.96897556\O,2,1
 .45491931,1,97.59494903\N,3,1.45878406,2,102.29752444,1,175.61210998,0
 \O,4,1.17072885,3,109.06955123,2,180.,0\\Version=ES64L-G16RevB.01\Stat
 e=1-A\HF=-279.5017046\MP2=-280.4467575\RMSD=5.847e-09\Dipole=-0.146497
 5,0.0089529,-0.5527941\Quadrupole=-1.5114951,-0.7325178,2.2440129,0.02
 80466,2.0931226,-0.0181538\PG=C01 [X(H1N1O3)]\\@


 ... THE UNIVERSE IS NOT ONLY QUEERER THAN WE SUPPOSE,
 BUT QUEERER THAN WE CAN SUPPOSE ... 

                                   -- J. B. S. HALDANE
 Job cpu time:       0 days  0 hours  6 minutes 13.2 seconds.
 Elapsed time:       0 days  0 hours  0 minutes 25.7 seconds.
 File lengths (MBytes):  RWF=     21 Int=      0 D2E=      0 Chk=      8 Scr=      1
 Normal termination of Gaussian 16 at Mon Feb 14 22:02:45 2022.
