 Entering Gaussian System, Link 0=g16
 Input=hoono_r1_0p973965.gjf
 Output=hoono_r1_0p973965.log
 Initial command:
 /sw/contrib/gaussian/g16/B01/g16/l1.exe "/scr/Gau-2974.inp" -scrdir="/scr/"
 Entering Link 1 = /sw/contrib/gaussian/g16/B01/g16/l1.exe PID=      2975.
  
 Copyright (c) 1988-2017, Gaussian, Inc.  All Rights Reserved.
  
 This is part of the Gaussian(R) 16 program.  It is based on
 the Gaussian(R) 09 system (copyright 2009, Gaussian, Inc.),
 the Gaussian(R) 03 system (copyright 2003, Gaussian, Inc.),
 the Gaussian(R) 98 system (copyright 1998, Gaussian, Inc.),
 the Gaussian(R) 94 system (copyright 1995, Gaussian, Inc.),
 the Gaussian 92(TM) system (copyright 1992, Gaussian, Inc.),
 the Gaussian 90(TM) system (copyright 1990, Gaussian, Inc.),
 the Gaussian 88(TM) system (copyright 1988, Gaussian, Inc.),
 the Gaussian 86(TM) system (copyright 1986, Carnegie Mellon
 University), and the Gaussian 82(TM) system (copyright 1983,
 Carnegie Mellon University). Gaussian is a federally registered
 trademark of Gaussian, Inc.
  
 This software contains proprietary and confidential information,
 including trade secrets, belonging to Gaussian, Inc.
  
 This software is provided under written license and may be
 used, copied, transmitted, or stored only in accord with that
 written license.
  
 The following legend is applicable only to US Government
 contracts under FAR:
  
                    RESTRICTED RIGHTS LEGEND
  
 Use, reproduction and disclosure by the US Government is
 subject to restrictions as set forth in subparagraphs (a)
 and (c) of the Commercial Computer Software - Restricted
 Rights clause in FAR 52.227-19.
  
 Gaussian, Inc.
 340 Quinnipiac St., Bldg. 40, Wallingford CT 06492
  
  
 ---------------------------------------------------------------
 Warning -- This program may not be used in any manner that
 competes with the business of Gaussian, Inc. or will provide
 assistance to any competitor of Gaussian, Inc.  The licensee
 of this program is prohibited from giving any competitor of
 Gaussian, Inc. access to this program.  By using this program,
 the user acknowledges that Gaussian, Inc. is engaged in the
 business of creating and licensing software in the field of
 computational chemistry and represents and warrants to the
 licensee that it is not a competitor of Gaussian, Inc. and that
 it will not use this program in any manner prohibited above.
 ---------------------------------------------------------------
  

 Cite this work as:
 Gaussian 16, Revision B.01,
 M. J. Frisch, G. W. Trucks, H. B. Schlegel, G. E. Scuseria, 
 M. A. Robb, J. R. Cheeseman, G. Scalmani, V. Barone, 
 G. A. Petersson, H. Nakatsuji, X. Li, M. Caricato, A. V. Marenich, 
 J. Bloino, B. G. Janesko, R. Gomperts, B. Mennucci, H. P. Hratchian, 
 J. V. Ortiz, A. F. Izmaylov, J. L. Sonnenberg, D. Williams-Young, 
 F. Ding, F. Lipparini, F. Egidi, J. Goings, B. Peng, A. Petrone, 
 T. Henderson, D. Ranasinghe, V. G. Zakrzewski, J. Gao, N. Rega, 
 G. Zheng, W. Liang, M. Hada, M. Ehara, K. Toyota, R. Fukuda, 
 J. Hasegawa, M. Ishida, T. Nakajima, Y. Honda, O. Kitao, H. Nakai, 
 T. Vreven, K. Throssell, J. A. Montgomery, Jr., J. E. Peralta, 
 F. Ogliaro, M. J. Bearpark, J. J. Heyd, E. N. Brothers, K. N. Kudin, 
 V. N. Staroverov, T. A. Keith, R. Kobayashi, J. Normand, 
 K. Raghavachari, A. P. Rendell, J. C. Burant, S. S. Iyengar, 
 J. Tomasi, M. Cossi, J. M. Millam, M. Klene, C. Adamo, R. Cammi, 
 J. W. Ochterski, R. L. Martin, K. Morokuma, O. Farkas, 
 J. B. Foresman, and D. J. Fox, Gaussian, Inc., Wallingford CT, 2016.
 
 ******************************************
 Gaussian 16:  ES64L-G16RevB.01 20-Dec-2017
                14-Feb-2022 
 ******************************************
 %nproc=28
 Will use up to   28 processors via shared memory.
 %mem=120GB
 %chk=hoono_r1_0p973965.chk
 -------------------------------------
 #p SP mp2/aug-cc-pvtz density=current
 -------------------------------------
 1/30=1,38=1,172=1/1;
 2/12=2,17=6,18=5,40=1/2;
 3/5=16,6=1,7=10,11=9,25=1,30=1,71=1/1,2,3;
 4//1;
 5/5=2,38=5/2;
 8/6=4,10=1/1;
 9/15=1,16=-3/6;
 10/5=1,13=10/2;
 6/7=2,8=2,9=2,10=2,22=-1/1;
 99/5=1,9=1/99;
 Leave Link    1 at Mon Feb 14 21:57:32 2022, MaxMem= 16106127360 cpu:               2.9 elap:               0.1
 (Enter /sw/contrib/gaussian/g16/B01/g16/l101.exe)
 -----
 title
 -----
 Symbolic Z-matrix:
 Charge =  0 Multiplicity = 1
 H
 O                    1    r1
 O                    2    r2       1    a1
 N                    3    r3       2    a2       1    d1       0
 O                    4    r4       3    a3       2    d2       0
       Variables:
  r1                    0.97397                  
  r2                    1.45492                  
  r3                    1.45878                  
  r4                    1.17073                  
  a1                   97.59495                  
  a2                  102.29752                  
  a3                  109.06955                  
  d1                  180.                       
  d2                  180.                       
 
 ITRead=  0  0  0  0  0
 MicOpt= -1 -1 -1 -1 -1
 NAtoms=      5 NQM=        5 NQMF=       0 NMMI=      0 NMMIF=      0
                NMic=       0 NMicF=      0.
                    Isotopes and Nuclear Properties:
 (Nuclear quadrupole moments (NQMom) in fm**2, nuclear magnetic moments (NMagM)
  in nuclear magnetons)

  Atom         1           2           3           4           5
 IAtWgt=           1          16          16          14          16
 AtmWgt=   1.0078250  15.9949146  15.9949146  14.0030740  15.9949146
 NucSpn=           1           0           0           2           0
 AtZEff=  -0.0000000  -0.0000000  -0.0000000  -0.0000000  -0.0000000
 NQMom=    0.0000000   0.0000000   0.0000000   2.0440000   0.0000000
 NMagM=    2.7928460   0.0000000   0.0000000   0.4037610   0.0000000
 AtZNuc=   1.0000000   8.0000000   8.0000000   7.0000000   8.0000000
 Leave Link  101 at Mon Feb 14 21:57:33 2022, MaxMem= 16106127360 cpu:               3.3 elap:               0.2
 (Enter /sw/contrib/gaussian/g16/B01/g16/l202.exe)
                          Input orientation:                          
 ---------------------------------------------------------------------
 Center     Atomic      Atomic             Coordinates (Angstroms)
 Number     Number       Type             X           Y           Z
 ---------------------------------------------------------------------
      1          1           0        0.000000    0.000000    0.000000
      2          8           0        0.000000    0.000000    0.973966
      3          8           0        1.442156    0.000000    1.166261
      4          7           0        1.561752    0.000000    2.620134
      5          8           0        2.695867    0.000000    2.910629
 ---------------------------------------------------------------------
                    Distance matrix (angstroms):
                    1          2          3          4          5
     1  H    0.000000
     2  O    0.973966   0.000000
     3  O    1.854718   1.454919   0.000000
     4  N    3.050274   2.269127   1.458784   0.000000
     5  O    3.967299   3.319392   2.148165   1.170729   0.000000
 Stoichiometry    HNO3
 Framework group  CS[SG(HNO3)]
 Deg. of freedom     7
 Full point group                 CS      NOp   2
 Largest Abelian subgroup         CS      NOp   2
 Largest concise Abelian subgroup C1      NOp   1
                         Standard orientation:                         
 ---------------------------------------------------------------------
 Center     Atomic      Atomic             Coordinates (Angstroms)
 Number     Number       Type             X           Y           Z
 ---------------------------------------------------------------------
      1          1           0        1.549624    1.691991    0.000000
      2          8           0        1.454064    0.722725    0.000000
      3          8           0        0.000000    0.672854    0.000000
      4          7           0       -0.261665   -0.762271   -0.000000
      5          8           0       -1.418811   -0.940091   -0.000000
 ---------------------------------------------------------------------
 Rotational constants (GHZ):          54.9339782           5.0103736           4.5915878
 Leave Link  202 at Mon Feb 14 21:57:33 2022, MaxMem= 16106127360 cpu:               4.0 elap:               0.2
 (Enter /sw/contrib/gaussian/g16/B01/g16/l301.exe)
 Standard basis: Aug-CC-pVTZ (5D, 7F)
 Ernie: Thresh=  0.10000D-02 Tol=  0.10000D-05 Strict=F.
 Ernie:  12 primitive shells out of 131 were deleted.
 There are   166 symmetry adapted cartesian basis functions of A'  symmetry.
 There are    79 symmetry adapted cartesian basis functions of A"  symmetry.
 There are   136 symmetry adapted basis functions of A'  symmetry.
 There are    71 symmetry adapted basis functions of A"  symmetry.
   207 basis functions,   315 primitive gaussians,   245 cartesian basis functions
    16 alpha electrons       16 beta electrons
       nuclear repulsion energy       116.8430696595 Hartrees.
 IExCor=    0 DFT=F Ex=HF Corr=None ExCW=0 ScaHFX=  1.000000
 ScaDFX=  1.000000  1.000000  1.000000  1.000000 ScalE2=  1.000000  1.000000
 IRadAn=      5 IRanWt=     -1 IRanGd=            0 ICorTp=0 IEmpDi=  4
 NAtoms=    5 NActive=    5 NUniq=    5 SFac= 1.00D+00 NAtFMM=   60 NAOKFM=F Big=F
 Integral buffers will be    131072 words long.
 Raffenetti 1 integral format.
 Two-electron integral symmetry is turned on.
 Leave Link  301 at Mon Feb 14 21:57:34 2022, MaxMem= 16106127360 cpu:               3.0 elap:               0.2
 (Enter /sw/contrib/gaussian/g16/B01/g16/l302.exe)
 NPDir=0 NMtPBC=     1 NCelOv=     1 NCel=       1 NClECP=     1 NCelD=      1
         NCelK=      1 NCelE2=     1 NClLst=     1 CellRange=     0.0.
 One-electron integrals computed using PRISM.
 One-electron integral symmetry used in STVInt
 NBasis=   207 RedAO= T EigKep=  1.82D-04  NBF=   136    71
 NBsUse=   207 1.00D-06 EigRej= -1.00D+00 NBFU=   136    71
 Leave Link  302 at Mon Feb 14 21:57:35 2022, MaxMem= 16106127360 cpu:               8.5 elap:               0.4
 (Enter /sw/contrib/gaussian/g16/B01/g16/l303.exe)
 DipDrv:  MaxL=1.
 Leave Link  303 at Mon Feb 14 21:57:36 2022, MaxMem= 16106127360 cpu:               4.8 elap:               0.3
 (Enter /sw/contrib/gaussian/g16/B01/g16/l401.exe)
 ExpMin= 2.53D-02 ExpMax= 1.53D+04 ExpMxC= 5.22D+02 IAcc=3 IRadAn=         5 AccDes= 0.00D+00
 Harris functional with IExCor=  205 and IRadAn=       5 diagonalized for initial guess.
 HarFok:  IExCor=  205 AccDes= 0.00D+00 IRadAn=         5 IDoV= 1 UseB2=F ITyADJ=14
 ICtDFT=  3500011 ScaDFX=  1.000000  1.000000  1.000000  1.000000
 FoFCou: FMM=F IPFlag=           0 FMFlag=      100000 FMFlg1=           0
         NFxFlg=           0 DoJE=T BraDBF=F KetDBF=T FulRan=T
         wScrn=  0.000000 ICntrl=       500 IOpCl=  0 I1Cent=   200000004 NGrid=           0
         NMat0=    1 NMatS0=      1 NMatT0=    0 NMatD0=    1 NMtDS0=    0 NMtDT0=    0
 Petite list used in FoFCou.
 Harris En= -279.628627218264    
 JPrj=0 DoOrth=F DoCkMO=F.
 Initial guess orbital symmetries:
       Occupied  (A') (A') (A') (A') (A') (A') (A') (A') (A') (A')
                 (A") (A') (A') (A") (A") (A')
       Virtual   (A") (A') (A') (A') (A') (A') (A") (A') (A') (A')
                 (A") (A') (A") (A') (A') (A") (A') (A") (A') (A')
                 (A') (A') (A') (A') (A') (A") (A') (A") (A') (A')
                 (A") (A') (A") (A') (A') (A") (A') (A") (A') (A')
                 (A") (A') (A") (A') (A") (A') (A') (A') (A") (A")
                 (A') (A') (A') (A') (A") (A') (A") (A') (A") (A')
                 (A') (A') (A") (A') (A') (A") (A') (A") (A') (A')
                 (A") (A') (A') (A") (A") (A') (A') (A") (A') (A')
                 (A') (A") (A') (A") (A') (A") (A') (A") (A') (A')
                 (A') (A") (A') (A") (A') (A") (A") (A') (A') (A")
                 (A') (A') (A") (A') (A') (A') (A') (A") (A") (A')
                 (A") (A') (A') (A') (A") (A') (A') (A') (A") (A')
                 (A") (A') (A') (A") (A") (A') (A') (A") (A") (A')
                 (A') (A') (A') (A") (A") (A') (A") (A') (A') (A')
                 (A') (A") (A") (A') (A') (A") (A') (A') (A') (A')
                 (A") (A') (A') (A") (A') (A") (A') (A") (A') (A")
                 (A') (A") (A') (A") (A') (A") (A") (A") (A') (A')
                 (A") (A') (A") (A') (A") (A') (A") (A") (A') (A')
                 (A') (A') (A') (A') (A') (A') (A') (A') (A') (A')
                 (A')
 The electronic state of the initial guess is 1-A'.
 Leave Link  401 at Mon Feb 14 21:57:37 2022, MaxMem= 16106127360 cpu:              16.7 elap:               0.8
 (Enter /sw/contrib/gaussian/g16/B01/g16/l502.exe)
 Keep R1 ints in memory in symmetry-blocked form, NReq=348887737.
 FoFCou: FMM=F IPFlag=           0 FMFlag=           0 FMFlg1=           0
         NFxFlg=           0 DoJE=F BraDBF=F KetDBF=F FulRan=T
         wScrn=  0.000000 ICntrl=       600 IOpCl=  0 I1Cent=           0 NGrid=           0
         NMat0=    1 NMatS0=  21528 NMatT0=    0 NMatD0=    1 NMtDS0=    0 NMtDT0=    0
 Petite list used in FoFCou.
 Closed shell SCF:
 Using DIIS extrapolation, IDIIS=  1040.
 NGot= 16106127360 LenX= 15988850015 LenY= 15988789549
 Requested convergence on RMS density matrix=1.00D-08 within 128 cycles.
 Requested convergence on MAX density matrix=1.00D-06.
 Requested convergence on             energy=1.00D-06.
 No special actions if energy rises.

 Cycle   1  Pass 1  IDiag  1:
 E= -279.370509789460    
 DIIS: error= 2.73D-02 at cycle   1 NSaved=   1.
 NSaved= 1 IEnMin= 1 EnMin= -279.370509789460     IErMin= 1 ErrMin= 2.73D-02
 ErrMax= 2.73D-02  0.00D+00 EMaxC= 1.00D-01 BMatC= 4.38D-01 BMatP= 4.38D-01
 IDIUse=3 WtCom= 7.27D-01 WtEn= 2.73D-01
 Coeff-Com:  0.100D+01
 Coeff-En:   0.100D+01
 Coeff:      0.100D+01
 Gap=     0.513 Goal=   None    Shift=    0.000
 GapD=    0.513 DampG=2.000 DampE=0.500 DampFc=1.0000 IDamp=-1.
 RMSDP=1.62D-03 MaxDP=9.92D-02              OVMax= 1.13D-01

 Cycle   2  Pass 1  IDiag  1:
 E= -279.452372922579     Delta-E=       -0.081863133118 Rises=F Damp=F
 DIIS: error= 1.78D-02 at cycle   2 NSaved=   2.
 NSaved= 2 IEnMin= 2 EnMin= -279.452372922579     IErMin= 2 ErrMin= 1.78D-02
 ErrMax= 1.78D-02  0.00D+00 EMaxC= 1.00D-01 BMatC= 7.14D-02 BMatP= 4.38D-01
 IDIUse=3 WtCom= 8.22D-01 WtEn= 1.78D-01
 Coeff-Com:  0.194D+00 0.806D+00
 Coeff-En:   0.000D+00 0.100D+01
 Coeff:      0.160D+00 0.840D+00
 Gap=     0.529 Goal=   None    Shift=    0.000
 RMSDP=8.98D-04 MaxDP=3.74D-02 DE=-8.19D-02 OVMax= 6.94D-02

 Cycle   3  Pass 1  IDiag  1:
 E= -279.481308488439     Delta-E=       -0.028935565860 Rises=F Damp=F
 DIIS: error= 1.04D-02 at cycle   3 NSaved=   3.
 NSaved= 3 IEnMin= 3 EnMin= -279.481308488439     IErMin= 3 ErrMin= 1.04D-02
 ErrMax= 1.04D-02  0.00D+00 EMaxC= 1.00D-01 BMatC= 2.87D-02 BMatP= 7.14D-02
 IDIUse=3 WtCom= 8.96D-01 WtEn= 1.04D-01
 Coeff-Com: -0.331D-01 0.379D+00 0.654D+00
 Coeff-En:   0.000D+00 0.241D+00 0.759D+00
 Coeff:     -0.296D-01 0.364D+00 0.665D+00
 Gap=     0.510 Goal=   None    Shift=    0.000
 RMSDP=3.76D-04 MaxDP=1.54D-02 DE=-2.89D-02 OVMax= 3.81D-02

 Cycle   4  Pass 1  IDiag  1:
 E= -279.500352350420     Delta-E=       -0.019043861981 Rises=F Damp=F
 DIIS: error= 1.28D-03 at cycle   4 NSaved=   4.
 NSaved= 4 IEnMin= 4 EnMin= -279.500352350420     IErMin= 4 ErrMin= 1.28D-03
 ErrMax= 1.28D-03  0.00D+00 EMaxC= 1.00D-01 BMatC= 4.90D-04 BMatP= 2.87D-02
 IDIUse=3 WtCom= 9.87D-01 WtEn= 1.28D-02
 Coeff-Com: -0.116D-01 0.570D-01 0.157D+00 0.797D+00
 Coeff-En:   0.000D+00 0.000D+00 0.000D+00 0.100D+01
 Coeff:     -0.115D-01 0.563D-01 0.155D+00 0.800D+00
 Gap=     0.502 Goal=   None    Shift=    0.000
 RMSDP=9.03D-05 MaxDP=2.77D-03 DE=-1.90D-02 OVMax= 1.12D-02

 Cycle   5  Pass 1  IDiag  1:
 E= -279.501027576725     Delta-E=       -0.000675226305 Rises=F Damp=F
 DIIS: error= 7.39D-04 at cycle   5 NSaved=   5.
 NSaved= 5 IEnMin= 5 EnMin= -279.501027576725     IErMin= 5 ErrMin= 7.39D-04
 ErrMax= 7.39D-04  0.00D+00 EMaxC= 1.00D-01 BMatC= 8.73D-05 BMatP= 4.90D-04
 IDIUse=3 WtCom= 9.93D-01 WtEn= 7.39D-03
 Coeff-Com:  0.613D-02-0.726D-01-0.118D+00 0.228D-01 0.116D+01
 Coeff-En:   0.000D+00 0.000D+00 0.000D+00 0.000D+00 0.100D+01
 Coeff:      0.608D-02-0.720D-01-0.117D+00 0.227D-01 0.116D+01
 Gap=     0.502 Goal=   None    Shift=    0.000
 RMSDP=7.62D-05 MaxDP=2.10D-03 DE=-6.75D-04 OVMax= 1.11D-02

 Cycle   6  Pass 1  IDiag  1:
 E= -279.501342786025     Delta-E=       -0.000315209300 Rises=F Damp=F
 DIIS: error= 2.84D-04 at cycle   6 NSaved=   6.
 NSaved= 6 IEnMin= 6 EnMin= -279.501342786025     IErMin= 6 ErrMin= 2.84D-04
 ErrMax= 2.84D-04  0.00D+00 EMaxC= 1.00D-01 BMatC= 1.68D-05 BMatP= 8.73D-05
 IDIUse=3 WtCom= 9.97D-01 WtEn= 2.84D-03
 Coeff-Com:  0.608D-03 0.148D-02 0.425D-02-0.131D+00-0.227D+00 0.135D+01
 Coeff-En:   0.000D+00 0.000D+00 0.000D+00 0.000D+00 0.000D+00 0.100D+01
 Coeff:      0.606D-03 0.147D-02 0.423D-02-0.131D+00-0.227D+00 0.135D+01
 Gap=     0.502 Goal=   None    Shift=    0.000
 RMSDP=4.53D-05 MaxDP=1.25D-03 DE=-3.15D-04 OVMax= 5.56D-03

 Cycle   7  Pass 1  IDiag  1:
 E= -279.501415709093     Delta-E=       -0.000072923069 Rises=F Damp=F
 DIIS: error= 1.24D-04 at cycle   7 NSaved=   7.
 NSaved= 7 IEnMin= 7 EnMin= -279.501415709093     IErMin= 7 ErrMin= 1.24D-04
 ErrMax= 1.24D-04  0.00D+00 EMaxC= 1.00D-01 BMatC= 4.57D-06 BMatP= 1.68D-05
 IDIUse=3 WtCom= 9.99D-01 WtEn= 1.24D-03
 Coeff-Com: -0.938D-03 0.136D-01 0.265D-01-0.253D-01-0.287D+00 0.394D+00
 Coeff-Com:  0.879D+00
 Coeff-En:   0.000D+00 0.000D+00 0.000D+00 0.000D+00 0.000D+00 0.000D+00
 Coeff-En:   0.100D+01
 Coeff:     -0.937D-03 0.136D-01 0.265D-01-0.252D-01-0.287D+00 0.394D+00
 Coeff:      0.879D+00
 Gap=     0.502 Goal=   None    Shift=    0.000
 RMSDP=1.33D-05 MaxDP=3.78D-04 DE=-7.29D-05 OVMax= 1.56D-03

 Cycle   8  Pass 1  IDiag  1:
 E= -279.501424681438     Delta-E=       -0.000008972345 Rises=F Damp=F
 DIIS: error= 5.71D-05 at cycle   8 NSaved=   8.
 NSaved= 8 IEnMin= 8 EnMin= -279.501424681438     IErMin= 8 ErrMin= 5.71D-05
 ErrMax= 5.71D-05  0.00D+00 EMaxC= 1.00D-01 BMatC= 6.10D-07 BMatP= 4.57D-06
 IDIUse=1 WtCom= 1.00D+00 WtEn= 0.00D+00
 Coeff-Com: -0.450D-03 0.346D-02 0.763D-02 0.276D-01-0.413D-01-0.197D+00
 Coeff-Com:  0.168D+00 0.103D+01
 Coeff:     -0.450D-03 0.346D-02 0.763D-02 0.276D-01-0.413D-01-0.197D+00
 Coeff:      0.168D+00 0.103D+01
 Gap=     0.502 Goal=   None    Shift=    0.000
 RMSDP=6.94D-06 MaxDP=2.04D-04 DE=-8.97D-06 OVMax= 7.50D-04

 Cycle   9  Pass 1  IDiag  1:
 E= -279.501426473569     Delta-E=       -0.000001792131 Rises=F Damp=F
 DIIS: error= 1.58D-05 at cycle   9 NSaved=   9.
 NSaved= 9 IEnMin= 9 EnMin= -279.501426473569     IErMin= 9 ErrMin= 1.58D-05
 ErrMax= 1.58D-05  0.00D+00 EMaxC= 1.00D-01 BMatC= 6.92D-08 BMatP= 6.10D-07
 IDIUse=1 WtCom= 1.00D+00 WtEn= 0.00D+00
 Coeff-Com:  0.123D-03-0.172D-02-0.307D-02-0.200D-02 0.341D-01-0.138D-03
 Coeff-Com: -0.165D+00-0.104D+00 0.124D+01
 Coeff:      0.123D-03-0.172D-02-0.307D-02-0.200D-02 0.341D-01-0.138D-03
 Coeff:     -0.165D+00-0.104D+00 0.124D+01
 Gap=     0.502 Goal=   None    Shift=    0.000
 RMSDP=1.94D-06 MaxDP=6.64D-05 DE=-1.79D-06 OVMax= 1.76D-04

 Cycle  10  Pass 1  IDiag  1:
 E= -279.501426634157     Delta-E=       -0.000000160588 Rises=F Damp=F
 DIIS: error= 4.14D-06 at cycle  10 NSaved=  10.
 NSaved=10 IEnMin=10 EnMin= -279.501426634157     IErMin=10 ErrMin= 4.14D-06
 ErrMax= 4.14D-06  0.00D+00 EMaxC= 1.00D-01 BMatC= 5.58D-09 BMatP= 6.92D-08
 IDIUse=1 WtCom= 1.00D+00 WtEn= 0.00D+00
 Coeff-Com:  0.314D-04-0.248D-03-0.331D-03-0.272D-02 0.173D-02 0.197D-01
 Coeff-Com: -0.131D-01-0.750D-01-0.780D-01 0.115D+01
 Coeff:      0.314D-04-0.248D-03-0.331D-03-0.272D-02 0.173D-02 0.197D-01
 Coeff:     -0.131D-01-0.750D-01-0.780D-01 0.115D+01
 Gap=     0.502 Goal=   None    Shift=    0.000
 RMSDP=5.05D-07 MaxDP=2.11D-05 DE=-1.61D-07 OVMax= 4.18D-05

 Cycle  11  Pass 1  IDiag  1:
 E= -279.501426646721     Delta-E=       -0.000000012564 Rises=F Damp=F
 DIIS: error= 2.03D-06 at cycle  11 NSaved=  11.
 NSaved=11 IEnMin=11 EnMin= -279.501426646721     IErMin=11 ErrMin= 2.03D-06
 ErrMax= 2.03D-06  0.00D+00 EMaxC= 1.00D-01 BMatC= 6.63D-10 BMatP= 5.58D-09
 IDIUse=1 WtCom= 1.00D+00 WtEn= 0.00D+00
 Coeff-Com: -0.213D-04 0.245D-03 0.488D-03 0.530D-03-0.429D-02-0.354D-02
 Coeff-Com:  0.209D-01 0.313D-01-0.139D+00-0.179D+00 0.127D+01
 Coeff:     -0.213D-04 0.245D-03 0.488D-03 0.530D-03-0.429D-02-0.354D-02
 Coeff:      0.209D-01 0.313D-01-0.139D+00-0.179D+00 0.127D+01
 Gap=     0.502 Goal=   None    Shift=    0.000
 RMSDP=1.78D-07 MaxDP=6.53D-06 DE=-1.26D-08 OVMax= 1.75D-05

 Cycle  12  Pass 1  IDiag  1:
 E= -279.501426648533     Delta-E=       -0.000000001813 Rises=F Damp=F
 DIIS: error= 5.89D-07 at cycle  12 NSaved=  12.
 NSaved=12 IEnMin=12 EnMin= -279.501426648533     IErMin=12 ErrMin= 5.89D-07
 ErrMax= 5.89D-07  0.00D+00 EMaxC= 1.00D-01 BMatC= 7.18D-11 BMatP= 6.63D-10
 IDIUse=1 WtCom= 1.00D+00 WtEn= 0.00D+00
 Coeff-Com:  0.122D-05-0.290D-04-0.624D-04 0.186D-03 0.107D-02-0.230D-02
 Coeff-Com: -0.409D-02 0.546D-02 0.415D-01-0.113D+00-0.281D+00 0.135D+01
 Coeff:      0.122D-05-0.290D-04-0.624D-04 0.186D-03 0.107D-02-0.230D-02
 Coeff:     -0.409D-02 0.546D-02 0.415D-01-0.113D+00-0.281D+00 0.135D+01
 Gap=     0.502 Goal=   None    Shift=    0.000
 RMSDP=7.17D-08 MaxDP=2.82D-06 DE=-1.81D-09 OVMax= 6.74D-06

 Cycle  13  Pass 1  IDiag  1:
 E= -279.501426648761     Delta-E=       -0.000000000228 Rises=F Damp=F
 DIIS: error= 1.69D-07 at cycle  13 NSaved=  13.
 NSaved=13 IEnMin=13 EnMin= -279.501426648761     IErMin=13 ErrMin= 1.69D-07
 ErrMax= 1.69D-07  0.00D+00 EMaxC= 1.00D-01 BMatC= 4.03D-12 BMatP= 7.18D-11
 IDIUse=1 WtCom= 1.00D+00 WtEn= 0.00D+00
 Coeff-Com:  0.129D-05-0.141D-04-0.226D-04-0.895D-04 0.124D-03 0.758D-03
 Coeff-Com: -0.831D-03-0.327D-02 0.584D-03 0.410D-01-0.352D-01-0.326D+00
 Coeff-Com:  0.132D+01
 Coeff:      0.129D-05-0.141D-04-0.226D-04-0.895D-04 0.124D-03 0.758D-03
 Coeff:     -0.831D-03-0.327D-02 0.584D-03 0.410D-01-0.352D-01-0.326D+00
 Coeff:      0.132D+01
 Gap=     0.502 Goal=   None    Shift=    0.000
 RMSDP=1.91D-08 MaxDP=5.62D-07 DE=-2.28D-10 OVMax= 1.56D-06

 Cycle  14  Pass 1  IDiag  1:
 E= -279.501426648776     Delta-E=       -0.000000000015 Rises=F Damp=F
 DIIS: error= 2.44D-08 at cycle  14 NSaved=  14.
 NSaved=14 IEnMin=14 EnMin= -279.501426648776     IErMin=14 ErrMin= 2.44D-08
 ErrMax= 2.44D-08  0.00D+00 EMaxC= 1.00D-01 BMatC= 1.96D-13 BMatP= 4.03D-12
 IDIUse=1 WtCom= 1.00D+00 WtEn= 0.00D+00
 Coeff-Com: -0.189D-06 0.311D-05 0.556D-05 0.443D-05-0.821D-04 0.455D-04
 Coeff-Com:  0.278D-03 0.228D-03-0.243D-02 0.142D-02 0.170D-01-0.256D-01
 Coeff-Com: -0.200D+00 0.121D+01
 Coeff:     -0.189D-06 0.311D-05 0.556D-05 0.443D-05-0.821D-04 0.455D-04
 Coeff:      0.278D-03 0.228D-03-0.243D-02 0.142D-02 0.170D-01-0.256D-01
 Coeff:     -0.200D+00 0.121D+01
 Gap=     0.502 Goal=   None    Shift=    0.000
 RMSDP=3.79D-09 MaxDP=9.11D-08 DE=-1.46D-11 OVMax= 3.42D-07

 SCF Done:  E(RHF) =  -279.501426649     A.U. after   14 cycles
            NFock= 14  Conv=0.38D-08     -V/T= 2.0024
 KE= 2.788360610319D+02 PE=-8.950113514889D+02 EE= 2.198307941488D+02
 Leave Link  502 at Mon Feb 14 21:57:41 2022, MaxMem= 16106127360 cpu:              64.2 elap:               4.0
 (Enter /sw/contrib/gaussian/g16/B01/g16/l801.exe)
 ExpMin= 2.53D-02 ExpMax= 1.53D+04 ExpMxC= 5.22D+02 IAcc=3 IRadAn=         5 AccDes= 0.00D+00
 HarFok:  IExCor=  205 AccDes= 0.00D+00 IRadAn=         5 IDoV=-2 UseB2=F ITyADJ=14
 ICtDFT= 12500011 ScaDFX=  1.000000  1.000000  1.000000  1.000000
 Largest valence mixing into a core orbital is  2.08D-04
 Largest core mixing into a valence orbital is  3.63D-05
 Range of M.O.s used for correlation:     5   207
 NBasis=   207 NAE=    16 NBE=    16 NFC=     4 NFV=     0
 NROrb=    203 NOA=    12 NOB=    12 NVA=   191 NVB=   191

 **** Warning!!: The largest alpha MO coefficient is  0.17563381D+02

 Leave Link  801 at Mon Feb 14 21:57:42 2022, MaxMem= 16106127360 cpu:               5.0 elap:               0.3
 (Enter /sw/contrib/gaussian/g16/B01/g16/l906.exe)
 Frozen-core derivative calculation, NFC=   4 NFV=   0.
 FulOut=F Deriv=T AODrv=F NAtomX=     5
   MMem=          76  MDisk=          12 MDiskD=          12
  W3Min=      811440 MinDsk=     1524655 NBas6D=         245
 NBas2D=       30762    NTT=       30135    LW2=     3500000
    MDV= 16105579913 MDiskM=      328644 NBas2p=       30466
 Fully in-core method, ICMem=   960157634.
 IMap=   1   2   3   4   5   6   7   8   9  10  11  12  13  14  15  16
 JobTyp=1 Pass  1 fully in-core, NPsUse= 28.
 Compute canonical integrals.
 FoFCou: FMM=F IPFlag=           0 FMFlag=           0 FMFlg1=           0
         NFxFlg=           0 DoJE=F BraDBF=F KetDBF=F FulRan=T
         wScrn=  0.000000 ICntrl=       600 IOpCl=  1 I1Cent=           0 NGrid=           0
         NMat0=    1 NMatS0=  30762 NMatT0=    0 NMatD0=    1 NMtDS0=    0 NMtDT0=    0
 Symmetry not used in FoFCou.
 Spin components of T(2) and E(2):
     alpha-alpha T2 =       0.3404927788D-01 E2=     -0.1224367190D+00
     alpha-beta  T2 =       0.1869953085D+00 E2=     -0.7004121271D+00
     beta-beta   T2 =       0.3404927788D-01 E2=     -0.1224367190D+00
 The integrals were generated   1 times.
 ANorm=    0.1120309718D+01
 E2 =    -0.9452855650D+00 EUMP2 =    -0.28044671221381D+03
 Leave Link  906 at Mon Feb 14 21:57:51 2022, MaxMem= 16106127360 cpu:             252.0 elap:               9.1
 (Enter /sw/contrib/gaussian/g16/B01/g16/l1002.exe)
 Minotr:  Closed shell wavefunction.
          Computing MP2/KS-MP2 derivatives.
          Using Z-Vector for PSCF gradient.
          Skipping F1 and S1 gradient terms here.
          Frozen-core window.
          Direct CPHF calculation.
          Differentiating once with respect to electric field.
                with respect to dipole field.
          Electric field/nuclear overlap derivatives assumed to be zero.
          Using symmetry in CPHF.
          Requested convergence is 1.0D-10 RMS, and 1.0D-09 maximum.
          NewPWx=F KeepS1=T KeepF1=T KeepIn=T MapXYZ=F SortEE=F KeepMc=T.
 Keep R1 ints in memory in symmetry-blocked form, NReq=348888868.
 FoFCou: FMM=F IPFlag=           0 FMFlag=           0 FMFlg1=           0
         NFxFlg=           0 DoJE=F BraDBF=F KetDBF=F FulRan=T
         wScrn=  0.000000 ICntrl=       600 IOpCl=  0 I1Cent=           0 NGrid=           0
         NMat0=    1 NMatS0=  21528 NMatT0=    0 NMatD0=    1 NMtDS0=    0 NMtDT0=    0
 Petite list used in FoFCou.
          MDV=   16106127360 using IRadAn=       5.
          Solving linear equations separately, MaxMat=       0.
          There are     1 degrees of freedom in the 1st order CPHF.  IDoFFX=0 NUNeed=     1.
 LinEq1:  Iter=  0 NonCon=     1 RMS=5.96D-03 Max=1.33D-01 NDo=     1
 AX will form     1 AO Fock derivatives at one time.
 LinEq1:  Iter=  1 NonCon=     1 RMS=1.91D-03 Max=3.83D-02 NDo=     1
 LinEq1:  Iter=  2 NonCon=     1 RMS=8.69D-04 Max=1.40D-02 NDo=     1
 LinEq1:  Iter=  3 NonCon=     1 RMS=3.87D-04 Max=7.81D-03 NDo=     1
 LinEq1:  Iter=  4 NonCon=     1 RMS=1.20D-04 Max=1.91D-03 NDo=     1
 LinEq1:  Iter=  5 NonCon=     1 RMS=4.54D-05 Max=7.23D-04 NDo=     1
 LinEq1:  Iter=  6 NonCon=     1 RMS=2.03D-05 Max=2.38D-04 NDo=     1
 LinEq1:  Iter=  7 NonCon=     1 RMS=8.15D-06 Max=1.59D-04 NDo=     1
 LinEq1:  Iter=  8 NonCon=     1 RMS=3.48D-06 Max=3.43D-05 NDo=     1
 LinEq1:  Iter=  9 NonCon=     1 RMS=9.49D-07 Max=1.32D-05 NDo=     1
 LinEq1:  Iter= 10 NonCon=     1 RMS=1.87D-07 Max=2.02D-06 NDo=     1
 LinEq1:  Iter= 11 NonCon=     1 RMS=3.47D-08 Max=3.60D-07 NDo=     1
 LinEq1:  Iter= 12 NonCon=     1 RMS=8.37D-09 Max=1.30D-07 NDo=     1
 LinEq1:  Iter= 13 NonCon=     1 RMS=1.51D-09 Max=2.61D-08 NDo=     1
 LinEq1:  Iter= 14 NonCon=     1 RMS=2.73D-10 Max=3.83D-09 NDo=     1
 LinEq1:  Iter= 15 NonCon=     0 RMS=4.93D-11 Max=5.56D-10 NDo=     1
 Linear equations converged to 1.000D-10 1.000D-09 after    15 iterations.
 End of Minotr F.D. properties file   721 does not exist.
 End of Minotr F.D. properties file   722 does not exist.
 End of Minotr F.D. properties file   788 does not exist.
 Leave Link 1002 at Mon Feb 14 21:57:56 2022, MaxMem= 16106127360 cpu:              58.7 elap:               4.2
 (Enter /sw/contrib/gaussian/g16/B01/g16/l601.exe)
 Copying SCF densities to generalized density rwf, IOpCl= 0 IROHF=0.

 **********************************************************************

            Population analysis using the MP2 Density.

 **********************************************************************

 Orbital symmetries:
       Occupied  (A') (A') (A') (A') (A') (A') (A') (A') (A') (A')
                 (A") (A') (A") (A') (A") (A')
       Virtual   (A') (A") (A') (A') (A') (A") (A') (A') (A") (A')
                 (A") (A') (A') (A') (A") (A') (A') (A") (A') (A')
                 (A') (A') (A') (A') (A") (A') (A') (A") (A') (A')
                 (A") (A') (A") (A') (A') (A") (A') (A') (A") (A')
                 (A") (A') (A") (A') (A') (A") (A') (A') (A") (A')
                 (A") (A') (A') (A') (A") (A') (A") (A') (A") (A')
                 (A') (A') (A") (A') (A') (A") (A') (A") (A') (A')
                 (A") (A') (A') (A") (A") (A') (A') (A") (A') (A')
                 (A') (A") (A') (A") (A") (A') (A') (A") (A') (A')
                 (A") (A') (A') (A") (A') (A") (A') (A") (A') (A')
                 (A") (A') (A") (A') (A') (A") (A') (A') (A") (A')
                 (A") (A') (A') (A') (A") (A') (A') (A') (A") (A')
                 (A") (A') (A") (A') (A') (A") (A") (A') (A") (A')
                 (A') (A') (A') (A") (A") (A") (A') (A') (A') (A')
                 (A") (A') (A") (A') (A') (A") (A') (A') (A') (A')
                 (A") (A') (A') (A") (A') (A") (A') (A") (A') (A")
                 (A') (A") (A') (A') (A") (A") (A") (A') (A") (A')
                 (A") (A') (A") (A') (A") (A') (A") (A") (A') (A')
                 (A') (A') (A') (A') (A') (A') (A') (A') (A') (A')
                 (A')
 The electronic state is 1-A'.
 Alpha  occ. eigenvalues --  -20.69075 -20.68420 -20.66037 -15.81273  -1.62392
 Alpha  occ. eigenvalues --   -1.49514  -1.25344  -0.94795  -0.77238  -0.75878
 Alpha  occ. eigenvalues --   -0.71168  -0.67860  -0.62031  -0.58919  -0.48505
 Alpha  occ. eigenvalues --   -0.47237
 Alpha virt. eigenvalues --    0.02953   0.07175   0.08597   0.10173   0.13396
 Alpha virt. eigenvalues --    0.13399   0.14386   0.15435   0.17833   0.19419
 Alpha virt. eigenvalues --    0.19982   0.20636   0.22083   0.23556   0.23743
 Alpha virt. eigenvalues --    0.26592   0.29333   0.30366   0.31027   0.34348
 Alpha virt. eigenvalues --    0.35001   0.38714   0.42134   0.43103   0.52738
 Alpha virt. eigenvalues --    0.52931   0.55852   0.58173   0.62601   0.63830
 Alpha virt. eigenvalues --    0.67453   0.68400   0.70641   0.71093   0.72371
 Alpha virt. eigenvalues --    0.72940   0.74457   0.79169   0.79199   0.81024
 Alpha virt. eigenvalues --    0.81277   0.83053   0.86830   0.90834   0.92177
 Alpha virt. eigenvalues --    0.92624   0.95618   0.97811   0.98395   1.01553
 Alpha virt. eigenvalues --    1.05223   1.05482   1.08192   1.11690   1.14061
 Alpha virt. eigenvalues --    1.18966   1.22046   1.23170   1.33899   1.35074
 Alpha virt. eigenvalues --    1.38631   1.45210   1.48640   1.50815   1.53818
 Alpha virt. eigenvalues --    1.56692   1.58004   1.61271   1.66459   1.66997
 Alpha virt. eigenvalues --    1.70325   1.79297   1.83113   1.83483   1.87846
 Alpha virt. eigenvalues --    1.90954   1.95346   1.99199   2.00487   2.07765
 Alpha virt. eigenvalues --    2.12037   2.13209   2.15003   2.22418   2.26433
 Alpha virt. eigenvalues --    2.26514   2.28957   2.31385   2.34374   2.38525
 Alpha virt. eigenvalues --    2.42442   2.42841   2.45419   2.46275   2.47645
 Alpha virt. eigenvalues --    2.50097   2.59123   2.59640   2.62118   2.62417
 Alpha virt. eigenvalues --    2.63476   2.66844   2.75749   2.82667   2.85544
 Alpha virt. eigenvalues --    2.88402   2.89416   2.92363   2.95813   3.02427
 Alpha virt. eigenvalues --    3.06782   3.12242   3.20480   3.22626   3.31600
 Alpha virt. eigenvalues --    3.34115   3.51727   3.64137   3.83836   3.83909
 Alpha virt. eigenvalues --    4.14425   4.16131   4.18272   4.25713   4.34734
 Alpha virt. eigenvalues --    4.39214   4.46176   4.51730   4.66133   4.70864
 Alpha virt. eigenvalues --    4.80424   4.81995   4.82544   4.89568   5.02328
 Alpha virt. eigenvalues --    5.07748   5.09842   5.14079   5.17639   5.23620
 Alpha virt. eigenvalues --    5.26951   5.30743   5.31860   5.35408   5.60391
 Alpha virt. eigenvalues --    5.67366   5.76814   5.82640   5.95687   6.16972
 Alpha virt. eigenvalues --    6.30863   6.33917   6.39324   6.49363   6.50540
 Alpha virt. eigenvalues --    6.61297   6.66848   6.69944   6.75801   6.76352
 Alpha virt. eigenvalues --    6.83255   6.89835   7.01029   7.05562   7.05652
 Alpha virt. eigenvalues --    7.08942   7.12318   7.14864   7.18089   7.22380
 Alpha virt. eigenvalues --    7.23412   7.30229   7.32512   7.34622   7.39963
 Alpha virt. eigenvalues --    7.43057   7.48455   7.60760   7.61708   7.62594
 Alpha virt. eigenvalues --    7.66427   7.78409   7.88677   8.09059   8.31297
 Alpha virt. eigenvalues --    8.40296   8.54267  13.38971  14.38715  15.09144
 Alpha virt. eigenvalues --   16.15249
          Condensed to atoms (all electrons):
               1          2          3          4          5
     1  H    0.584238   0.130320   0.019480   0.012277  -0.000635
     2  O    0.130320   8.322920  -0.172992  -0.090056   0.015456
     3  O    0.019480  -0.172992   8.469099  -0.129919  -0.038837
     4  N    0.012277  -0.090056  -0.129919   6.972041  -0.055750
     5  O   -0.000635   0.015456  -0.038837  -0.055750   8.273013
 Mulliken charges:
               1
     1  H    0.254319
     2  O   -0.205649
     3  O   -0.146831
     4  N    0.291407
     5  O   -0.193246
 Sum of Mulliken charges =  -0.00000
 Mulliken charges with hydrogens summed into heavy atoms:
               1
     2  O    0.048671
     3  O   -0.146831
     4  N    0.291407
     5  O   -0.193246
 Electronic spatial extent (au):  <R**2>=            252.9525
 Charge=              0.0000 electrons
 Dipole moment (field-independent basis, Debye):
    X=              0.5109    Y=              1.3671    Z=              0.0000  Tot=              1.4595
 Quadrupole moment (field-independent basis, Debye-Ang):
   XX=            -22.4712   YY=            -18.5963   ZZ=            -22.0166
   XY=              3.2659   XZ=             -0.0000   YZ=              0.0000
 Traceless Quadrupole moment (field-independent basis, Debye-Ang):
   XX=             -1.4432   YY=              2.4317   ZZ=             -0.9886
   XY=              3.2659   XZ=             -0.0000   YZ=              0.0000
 Octapole moment (field-independent basis, Debye-Ang**2):
  XXX=              2.8515  YYY=             11.3578  ZZZ=             -0.0000  XYY=              7.9458
  XXY=              6.5926  XXZ=              0.0000  XZZ=             -1.5868  YZZ=             -0.8611
  YYZ=              0.0000  XYZ=              0.0000
 Hexadecapole moment (field-independent basis, Debye-Ang**3):
 XXXX=           -158.5231 YYYY=            -89.6660 ZZZZ=            -18.2519 XXXY=            -36.6973
 XXXZ=             -0.0000 YYYX=            -30.6586 YYYZ=             -0.0000 ZZZX=             -0.0000
 ZZZY=             -0.0000 XXYY=            -33.9286 XXZZ=            -30.8900 YYZZ=            -20.6923
 XXYZ=             -0.0000 YYXZ=             -0.0000 ZZXY=            -15.0752
 N-N= 1.168430696595D+02 E-N=-8.957954293200D+02  KE= 2.801888962710D+02
 Symmetry A'   KE= 2.662178693031D+02
 Symmetry A"   KE= 1.397102696784D+01
 No NMR shielding tensors so no spin-rotation constants.
 Leave Link  601 at Mon Feb 14 21:57:57 2022, MaxMem= 16106127360 cpu:               5.7 elap:               0.5
 (Enter /sw/contrib/gaussian/g16/B01/g16/l9999.exe)
 1\1\GINC-N2218\SP\RMP2-FC\Aug-CC-pVTZ\H1N1O3\CGAVINH\14-Feb-2022\0\\#p
  SP mp2/aug-cc-pvtz density=current\\title\\0,1\H\O,1,0.9739657894\O,2
 ,1.45491931,1,97.59494903\N,3,1.45878406,2,102.29752444,1,180.,0\O,4,1
 .17072885,3,109.06955123,2,180.,0\\Version=ES64L-G16RevB.01\State=1-A'
 \HF=-279.5014266\MP2=-280.4467122\RMSD=3.791e-09\Dipole=-0.1472588,0.,
 -0.5549947\Quadrupole=-1.5193887,-0.734976,2.2543647,0.,2.1000477,0.\P
 G=CS [SG(H1N1O3)]\\@


 THERE IS MORE TO LIFE THAN INCREASING ITS SPEED.

                                       -- GANDHI
 Job cpu time:       0 days  0 hours  7 minutes 12.5 seconds.
 Elapsed time:       0 days  0 hours  0 minutes 20.4 seconds.
 File lengths (MBytes):  RWF=     22 Int=      0 D2E=      0 Chk=      8 Scr=      1
 Normal termination of Gaussian 16 at Mon Feb 14 21:57:58 2022.
