title                                                                   
SP        RMP2-FC                                                     Aug-CC-pVTZ         
Number of atoms                            I                5
Info1-9                                    I   N=           9
          33          24           0           0           0         110
           1           2           1
Full Title                                 C   N=           1
title       
Route                                      C   N=           4
#p SP mp2/aug-cc-pvtz density=current           
Charge                                     I                0
Multiplicity                               I                1
Number of electrons                        I               32
Number of alpha electrons                  I               16
Number of beta electrons                   I               16
Number of basis functions                  I              207
Number of independent functions            I              207
Number of point charges in /Mol/           I                0
Number of translation vectors              I                0
Atomic numbers                             I   N=           5
           1           8           8           7           8
Nuclear charges                            R   N=           5
  1.00000000E+00  8.00000000E+00  8.00000000E+00  7.00000000E+00  8.00000000E+00
Current cartesian coordinates              R   N=          15
  2.92836583E+00  3.19740044E+00  1.42439380E-31  2.74778335E+00  1.36575214E+00
  7.75064944E-32  7.87473827E-17  1.27150940E+00 -2.48429794E-32 -4.94475035E-01
 -1.44048291E+00 -5.78274528E-32 -2.68116342E+00 -1.77651404E+00  5.18543819E-32
Number of symbols in /Mol/                 I                0
Force Field                                I                0
Atom Types                                 C   N=           5
                                                            
Int Atom Types                             I   N=           5
           0           0           0           0           0
MM charges                                 R   N=           5
  0.00000000E+00  0.00000000E+00  0.00000000E+00  0.00000000E+00  0.00000000E+00
Integer atomic weights                     I   N=           5
           1          16          16          14          16
Real atomic weights                        R   N=           5
  1.00782504E+00  1.59949146E+01  1.59949146E+01  1.40030740E+01  1.59949146E+01
Atom fragment info                         I   N=           5
           0           0           0           0           0
Atom residue num                           I   N=           5
           0           0           0           0           0
Nuclear spins                              I   N=           5
           1           0           0           2           0
Nuclear ZEff                               R   N=           5
 -1.00000000E+00 -5.60000000E+00 -5.60000000E+00 -4.55000000E+00 -5.60000000E+00
Nuclear ZNuc                               R   N=           5
  1.00000000E+00  8.00000000E+00  8.00000000E+00  7.00000000E+00  8.00000000E+00
Nuclear QMom                               R   N=           5
  0.00000000E+00  0.00000000E+00  0.00000000E+00  2.04400000E+00  0.00000000E+00
Nuclear GFac                               R   N=           5
  2.79284600E+00  0.00000000E+00  0.00000000E+00  4.03761000E-01  0.00000000E+00
MicOpt                                     I   N=           5
          -1          -1          -1          -1          -1
Number of residues                         I                0
Number of secondary structures             I                0
SymInf integers                            I   N=          26
           1           2           1           1           1           1
           1          -1           0           0           0           0
           0           0           0           0           0           0
           0           0           0           0           0           0
           0           0
RotTr to input orientation                 R   N=          12
 -9.95175136E-01 -9.84268748E-17 -9.81144692E-02  9.81144692E-02 -7.28680186E-17
 -9.95175136E-01  9.08025716E-17 -1.00000000E+00  8.21735409E-17  2.60052562E+00
  0.00000000E+00  3.46928847E+00
Number of contracted shells                I               65
Number of primitive shells                 I              119
Pure/Cartesian d shells                    I                0
Pure/Cartesian f shells                    I                0
Highest angular momentum                   I                3
Largest degree of contraction              I                7
Shell types                                I   N=          65
           0           0           0           0           1           1
           1          -2          -2           0           0           0
           0           0           1           1           1           1
          -2          -2          -2          -3          -3           0
           0           0           0           0           1           1
           1           1          -2          -2          -2          -3
          -3           0           0           0           0           0
           1           1           1           1          -2          -2
          -2          -3          -3           0           0           0
           0           0           1           1           1           1
          -2          -2          -2          -3          -3
Number of primitives per shell             I   N=          65
           3           1           1           1           1           1
           1           1           1           7           6           1
           1           1           3           1           1           1
           1           1           1           1           1           7
           6           1           1           1           3           1
           1           1           1           1           1           1
           1           7           6           1           1           1
           3           1           1           1           1           1
           1           1           1           7           6           1
           1           1           3           1           1           1
           1           1           1           1           1
Shell to atom map                          I   N=          65
           1           1           1           1           1           1
           1           1           1           2           2           2
           2           2           2           2           2           2
           2           2           2           2           2           3
           3           3           3           3           3           3
           3           3           3           3           3           3
           3           4           4           4           4           4
           4           4           4           4           4           4
           4           4           4           5           5           5
           5           5           5           5           5           5
           5           5           5           5           5
Primitive exponents                        R   N=         119
  3.38700000E+01  5.09500000E+00  1.15900000E+00  3.25800000E-01  1.02700000E-01
  2.52600000E-02  1.40700000E+00  3.88000000E-01  1.02000000E-01  1.05700000E+00
  2.47000000E-01  1.53300000E+04  2.29900000E+03  5.22400000E+02  1.47300000E+02
  4.75500000E+01  1.67600000E+01  6.20700000E+00  5.22400000E+02  1.47300000E+02
  4.75500000E+01  1.67600000E+01  6.20700000E+00  6.88200000E-01  1.75200000E+00
  2.38400000E-01  7.37600000E-02  3.44600000E+01  7.74900000E+00  2.28000000E+00
  7.15600000E-01  2.14000000E-01  5.97400000E-02  2.31400000E+00  6.45000000E-01
  2.14000000E-01  1.42800000E+00  5.00000000E-01  1.53300000E+04  2.29900000E+03
  5.22400000E+02  1.47300000E+02  4.75500000E+01  1.67600000E+01  6.20700000E+00
  5.22400000E+02  1.47300000E+02  4.75500000E+01  1.67600000E+01  6.20700000E+00
  6.88200000E-01  1.75200000E+00  2.38400000E-01  7.37600000E-02  3.44600000E+01
  7.74900000E+00  2.28000000E+00  7.15600000E-01  2.14000000E-01  5.97400000E-02
  2.31400000E+00  6.45000000E-01  2.14000000E-01  1.42800000E+00  5.00000000E-01
  1.14200000E+04  1.71200000E+03  3.89300000E+02  1.10000000E+02  3.55700000E+01
  1.25400000E+01  4.64400000E+00  3.89300000E+02  1.10000000E+02  3.55700000E+01
  1.25400000E+01  4.64400000E+00  5.11800000E-01  1.29300000E+00  1.78700000E-01
  5.76000000E-02  2.66300000E+01  5.94800000E+00  1.74200000E+00  5.55000000E-01
  1.72500000E-01  4.91000000E-02  1.65400000E+00  4.69000000E-01  1.51000000E-01
  1.09300000E+00  3.64000000E-01  1.53300000E+04  2.29900000E+03  5.22400000E+02
  1.47300000E+02  4.75500000E+01  1.67600000E+01  6.20700000E+00  5.22400000E+02
  1.47300000E+02  4.75500000E+01  1.67600000E+01  6.20700000E+00  6.88200000E-01
  1.75200000E+00  2.38400000E-01  7.37600000E-02  3.44600000E+01  7.74900000E+00
  2.28000000E+00  7.15600000E-01  2.14000000E-01  5.97400000E-02  2.31400000E+00
  6.45000000E-01  2.14000000E-01  1.42800000E+00  5.00000000E-01
Contraction coefficients                   R   N=         119
  2.54948632E-02  1.90362766E-01  8.52162022E-01  1.00000000E+00  1.00000000E+00
  1.00000000E+00  1.00000000E+00  1.00000000E+00  1.00000000E+00  1.00000000E+00
  1.00000000E+00  5.19808943E-04  4.02025621E-03  2.07128267E-02  8.10105536E-02
  2.35962985E-01  4.42653446E-01  3.57064423E-01 -4.42115008E-05 -1.22591041E-03
 -1.05517725E-02 -6.74452633E-02 -1.71198607E-01  1.07329856E+00  1.00000000E+00
  1.00000000E+00  1.00000000E+00  4.11634896E-02  2.57762836E-01  8.02419274E-01
  1.00000000E+00  1.00000000E+00  1.00000000E+00  1.00000000E+00  1.00000000E+00
  1.00000000E+00  1.00000000E+00  1.00000000E+00  5.19808943E-04  4.02025621E-03
  2.07128267E-02  8.10105536E-02  2.35962985E-01  4.42653446E-01  3.57064423E-01
 -4.42115008E-05 -1.22591041E-03 -1.05517725E-02 -6.74452633E-02 -1.71198607E-01
  1.07329856E+00  1.00000000E+00  1.00000000E+00  1.00000000E+00  4.11634896E-02
  2.57762836E-01  8.02419274E-01  1.00000000E+00  1.00000000E+00  1.00000000E+00
  1.00000000E+00  1.00000000E+00  1.00000000E+00  1.00000000E+00  1.00000000E+00
  5.34563860E-04  4.13435660E-03  2.12335358E-02  8.25006224E-02  2.38138871E-01
  4.42551547E-01  3.53757422E-01 -4.89867350E-05 -1.19527323E-03 -1.03490714E-02
 -6.48680190E-02 -1.71552477E-01  1.07289568E+00  1.00000000E+00  1.00000000E+00
  1.00000000E+00  3.98072123E-02  2.49002660E-01  8.10479727E-01  1.00000000E+00
  1.00000000E+00  1.00000000E+00  1.00000000E+00  1.00000000E+00  1.00000000E+00
  1.00000000E+00  1.00000000E+00  5.19808943E-04  4.02025621E-03  2.07128267E-02
  8.10105536E-02  2.35962985E-01  4.42653446E-01  3.57064423E-01 -4.42115008E-05
 -1.22591041E-03 -1.05517725E-02 -6.74452633E-02 -1.71198607E-01  1.07329856E+00
  1.00000000E+00  1.00000000E+00  1.00000000E+00  4.11634896E-02  2.57762836E-01
  8.02419274E-01  1.00000000E+00  1.00000000E+00  1.00000000E+00  1.00000000E+00
  1.00000000E+00  1.00000000E+00  1.00000000E+00  1.00000000E+00
Coordinates of each shell                  R   N=         195
  2.92836583E+00  3.19740044E+00  7.55234845E-32  2.92836583E+00  3.19740044E+00
  7.55234845E-32  2.92836583E+00  3.19740044E+00  7.55234845E-32  2.92836583E+00
  3.19740044E+00  7.55234845E-32  2.92836583E+00  3.19740044E+00  7.55234845E-32
  2.92836583E+00  3.19740044E+00  7.55234845E-32  2.92836583E+00  3.19740044E+00
  7.55234845E-32  2.92836583E+00  3.19740044E+00  7.55234845E-32  2.92836583E+00
  3.19740044E+00  7.55234845E-32  2.74778335E+00  1.36575214E+00  6.08415748E-32
  2.74778335E+00  1.36575214E+00  6.08415748E-32  2.74778335E+00  1.36575214E+00
  6.08415748E-32  2.74778335E+00  1.36575214E+00  6.08415748E-32  2.74778335E+00
  1.36575214E+00  6.08415748E-32  2.74778335E+00  1.36575214E+00  6.08415748E-32
  2.74778335E+00  1.36575214E+00  6.08415748E-32  2.74778335E+00  1.36575214E+00
  6.08415748E-32  2.74778335E+00  1.36575214E+00  6.08415748E-32  2.74778335E+00
  1.36575214E+00  6.08415748E-32  2.74778335E+00  1.36575214E+00  6.08415748E-32
  2.74778335E+00  1.36575214E+00  6.08415748E-32  2.74778335E+00  1.36575214E+00
  6.08415748E-32  2.74778335E+00  1.36575214E+00  6.08415748E-32  4.16033399E-18
  1.27150940E+00  7.79847267E-33  4.16033399E-18  1.27150940E+00  7.79847267E-33
  4.16033399E-18  1.27150940E+00  7.79847267E-33  4.16033399E-18  1.27150940E+00
  7.79847267E-33  4.16033399E-18  1.27150940E+00  7.79847267E-33  4.16033399E-18
  1.27150940E+00  7.79847267E-33  4.16033399E-18  1.27150940E+00  7.79847267E-33
  4.16033399E-18  1.27150940E+00  7.79847267E-33  4.16033399E-18  1.27150940E+00
  7.79847267E-33  4.16033399E-18  1.27150940E+00  7.79847267E-33  4.16033399E-18
  1.27150940E+00  7.79847267E-33  4.16033399E-18  1.27150940E+00  7.79847267E-33
  4.16033399E-18  1.27150940E+00  7.79847267E-33  4.16033399E-18  1.27150940E+00
  7.79847267E-33 -4.94475035E-01 -1.44048291E+00 -1.82761386E-32 -4.94475035E-01
 -1.44048291E+00 -1.82761386E-32 -4.94475035E-01 -1.44048291E+00 -1.82761386E-32
 -4.94475035E-01 -1.44048291E+00 -1.82761386E-32 -4.94475035E-01 -1.44048291E+00
 -1.82761386E-32 -4.94475035E-01 -1.44048291E+00 -1.82761386E-32 -4.94475035E-01
 -1.44048291E+00 -1.82761386E-32 -4.94475035E-01 -1.44048291E+00 -1.82761386E-32
 -4.94475035E-01 -1.44048291E+00 -1.82761386E-32 -4.94475035E-01 -1.44048291E+00
 -1.82761386E-32 -4.94475035E-01 -1.44048291E+00 -1.82761386E-32 -4.94475035E-01
 -1.44048291E+00 -1.82761386E-32 -4.94475035E-01 -1.44048291E+00 -1.82761386E-32
 -4.94475035E-01 -1.44048291E+00 -1.82761386E-32 -2.68116342E+00 -1.77651404E+00
 -6.20888617E-32 -2.68116342E+00 -1.77651404E+00 -6.20888617E-32 -2.68116342E+00
 -1.77651404E+00 -6.20888617E-32 -2.68116342E+00 -1.77651404E+00 -6.20888617E-32
 -2.68116342E+00 -1.77651404E+00 -6.20888617E-32 -2.68116342E+00 -1.77651404E+00
 -6.20888617E-32 -2.68116342E+00 -1.77651404E+00 -6.20888617E-32 -2.68116342E+00
 -1.77651404E+00 -6.20888617E-32 -2.68116342E+00 -1.77651404E+00 -6.20888617E-32
 -2.68116342E+00 -1.77651404E+00 -6.20888617E-32 -2.68116342E+00 -1.77651404E+00
 -6.20888617E-32 -2.68116342E+00 -1.77651404E+00 -6.20888617E-32 -2.68116342E+00
 -1.77651404E+00 -6.20888617E-32 -2.68116342E+00 -1.77651404E+00 -6.20888617E-32
Num ILSW                                   I              100
ILSW                                       I   N=         100
           0           0           0           0           2           0
           0           0           0           0           0          -1
           5           0           0           0           0           0
           0           0           0           0           0           0
           1           0           0           0           0           0
           0           0      100000           0          -1           0
           0           0           0           0           0           0
           0           0           0           1           0           0
           0 -2000000000           1           0           0           0
           0           0           4          52           0           0
           0           0           0           0           0           0
           0           0           0           5           0           1
           0           0           0           0           0           0
           0           0           0           0           0           0
           0           0           0           0           0           0
           0           0           0           0           0           0
           0           0           0           0
Num RLSW                                   I               52
RLSW                                       R   N=          52
  1.00000000E+00  1.00000000E+00  1.00000000E+00  1.00000000E+00  1.00000000E+00
  0.00000000E+00  0.00000000E+00  1.00000000E+00  0.00000000E+00  0.00000000E+00
  0.00000000E+00  0.00000000E+00  1.00000000E+00  0.00000000E+00  0.00000000E+00
  0.00000000E+00  0.00000000E+00  1.00000000E+00  0.00000000E+00  0.00000000E+00
  0.00000000E+00  0.00000000E+00  1.00000000E+00  0.00000000E+00  0.00000000E+00
  0.00000000E+00  0.00000000E+00  1.00000000E+00  0.00000000E+00  0.00000000E+00
  0.00000000E+00  0.00000000E+00  1.00000000E+00  0.00000000E+00  0.00000000E+00
  0.00000000E+00  0.00000000E+00  0.00000000E+00  1.00000000E+00  1.00000000E+00
  0.00000000E+00  1.00000000E+00  0.00000000E+00  0.00000000E+00  0.00000000E+00
  0.00000000E+00  0.00000000E+00  0.00000000E+00  0.00000000E+00  0.00000000E+00
  0.00000000E+00  0.00000000E+00
MxBond                                     I                2
NBond                                      I   N=           5
           1           2           2           2           1
IBond                                      I   N=          10
           2           0           1           3           2           4
           3           5           4           0
RBond                                      R   N=          10
  1.00000000E+00  0.00000000E+00  1.00000000E+00  1.00000000E+00  1.00000000E+00
  1.00000000E+00  1.00000000E+00  2.00000000E+00  2.00000000E+00  0.00000000E+00
Virial Ratio                               R      2.002386225133292E+00
SCF Energy                                 R     -2.795014266487756E+02
MP2 Energy                                 R     -2.804467122138104E+02
Total Energy                               R     -2.804467122138104E+02
Post-SCF wavefunction norm                 R      1.120309718020283E+00
RMS Density                                R      3.791296657831753E-09
Job Status                                 I                1
Nuclear derivative order                   I                0
External E-field                           R   N=          35
  0.00000000E+00  0.00000000E+00  0.00000000E+00  0.00000000E+00  0.00000000E+00
  0.00000000E+00  0.00000000E+00  0.00000000E+00  0.00000000E+00  0.00000000E+00
  0.00000000E+00  0.00000000E+00  0.00000000E+00  0.00000000E+00  0.00000000E+00
  0.00000000E+00  0.00000000E+00  0.00000000E+00  0.00000000E+00  0.00000000E+00
  0.00000000E+00  0.00000000E+00  0.00000000E+00  0.00000000E+00  0.00000000E+00
  0.00000000E+00  0.00000000E+00  0.00000000E+00  0.00000000E+00  0.00000000E+00
  0.00000000E+00  0.00000000E+00  0.00000000E+00  0.00000000E+00  0.00000000E+00
IOpCl                                      I                0
IROHF                                      I                0
Alpha Orbital Energies                     R   N=         207
 -2.06907503E+01 -2.06842010E+01 -2.06603675E+01 -1.58127315E+01 -1.62391621E+00
 -1.49513563E+00 -1.25344064E+00 -9.47951908E-01 -7.72380451E-01 -7.58776085E-01
 -7.11676731E-01 -6.78603740E-01 -6.20308900E-01 -5.89190541E-01 -4.85054101E-01
 -4.72365496E-01  2.95321445E-02  7.17495695E-02  8.59664567E-02  1.01731725E-01
  1.33956632E-01  1.33993900E-01  1.43864990E-01  1.54348080E-01  1.78328465E-01
  1.94187613E-01  1.99823460E-01  2.06362493E-01  2.20832104E-01  2.35561604E-01
  2.37426264E-01  2.65922738E-01  2.93334433E-01  3.03662276E-01  3.10273152E-01
  3.43479210E-01  3.50007929E-01  3.87144531E-01  4.21343073E-01  4.31028465E-01
  5.27376659E-01  5.29311155E-01  5.58521181E-01  5.81728852E-01  6.26010594E-01
  6.38303093E-01  6.74530650E-01  6.83998919E-01  7.06410740E-01  7.10933534E-01
  7.23707657E-01  7.29396306E-01  7.44571645E-01  7.91690106E-01  7.91985035E-01
  8.10242809E-01  8.12769667E-01  8.30526326E-01  8.68304493E-01  9.08335864E-01
  9.21770937E-01  9.26238954E-01  9.56179049E-01  9.78108525E-01  9.83950628E-01
  1.01552654E+00  1.05222610E+00  1.05481905E+00  1.08192031E+00  1.11690388E+00
  1.14060547E+00  1.18965869E+00  1.22046342E+00  1.23170321E+00  1.33899365E+00
  1.35074166E+00  1.38631005E+00  1.45209688E+00  1.48639721E+00  1.50814706E+00
  1.53818135E+00  1.56691601E+00  1.58003650E+00  1.61270561E+00  1.66459351E+00
  1.66996776E+00  1.70324568E+00  1.79297234E+00  1.83113468E+00  1.83482505E+00
  1.87846392E+00  1.90954190E+00  1.95346256E+00  1.99198677E+00  2.00486694E+00
  2.07765194E+00  2.12037003E+00  2.13208503E+00  2.15002527E+00  2.22418252E+00
  2.26433425E+00  2.26513756E+00  2.28957104E+00  2.31385404E+00  2.34373799E+00
  2.38524594E+00  2.42441988E+00  2.42841303E+00  2.45418883E+00  2.46274645E+00
  2.47645330E+00  2.50096730E+00  2.59123120E+00  2.59640186E+00  2.62118237E+00
  2.62417366E+00  2.63475702E+00  2.66844235E+00  2.75748794E+00  2.82666798E+00
  2.85543942E+00  2.88401701E+00  2.89416075E+00  2.92362783E+00  2.95812700E+00
  3.02426614E+00  3.06781891E+00  3.12241684E+00  3.20479912E+00  3.22626176E+00
  3.31599606E+00  3.34115321E+00  3.51727305E+00  3.64137309E+00  3.83835982E+00
  3.83909328E+00  4.14425145E+00  4.16131190E+00  4.18271500E+00  4.25713116E+00
  4.34734137E+00  4.39214018E+00  4.46176242E+00  4.51730039E+00  4.66132732E+00
  4.70863963E+00  4.80423970E+00  4.81995147E+00  4.82543757E+00  4.89567827E+00
  5.02328090E+00  5.07748323E+00  5.09841912E+00  5.14078877E+00  5.17639088E+00
  5.23620077E+00  5.26951411E+00  5.30743032E+00  5.31859942E+00  5.35407689E+00
  5.60390960E+00  5.67366085E+00  5.76813805E+00  5.82640422E+00  5.95687136E+00
  6.16972404E+00  6.30863103E+00  6.33917141E+00  6.39324316E+00  6.49362581E+00
  6.50539619E+00  6.61296871E+00  6.66847654E+00  6.69943749E+00  6.75801278E+00
  6.76352061E+00  6.83255192E+00  6.89834598E+00  7.01028994E+00  7.05561725E+00
  7.05652324E+00  7.08942022E+00  7.12317981E+00  7.14864152E+00  7.18089130E+00
  7.22380189E+00  7.23412115E+00  7.30229141E+00  7.32511901E+00  7.34621951E+00
  7.39962612E+00  7.43056797E+00  7.48455046E+00  7.60759687E+00  7.61708086E+00
  7.62594323E+00  7.66427304E+00  7.78408992E+00  7.88677337E+00  8.09058590E+00
  8.31296651E+00  8.40295758E+00  8.54267043E+00  1.33897117E+01  1.43871549E+01
  1.50914418E+01  1.61524878E+01
Alpha MO coefficients                      R   N=       42849
  9.14028851E-05 -6.38019969E-04 -7.24096201E-04 -4.40991133E-06 -2.18236035E-05
 -2.73877866E-05  0.00000000E+00 -3.32364217E-05  6.55995775E-05  0.00000000E+00
  9.43581810E-05  3.82176994E-05  0.00000000E+00  3.17355370E-05  0.00000000E+00
  0.00000000E+00 -4.91992610E-05  1.99245560E-05 -4.18426902E-06  0.00000000E+00
  0.00000000E+00 -1.37816755E-04  1.11929529E-04  4.66355428E-03 -2.80797809E-04
  1.81761943E-05  1.55822893E-03  1.81887535E-03  1.06135285E-04  7.55253006E-06
  0.00000000E+00 -6.17037101E-04 -3.35271090E-05  0.00000000E+00 -1.11643331E-03
  7.89051178E-04  0.00000000E+00 -4.05554564E-04  5.88810157E-05  0.00000000E+00
  2.86845344E-05  0.00000000E+00  0.00000000E+00 -5.41435614E-05  6.09660886E-06
 -3.77993772E-04  0.00000000E+00  0.00000000E+00  7.38653063E-04 -3.43078304E-05
 -4.46926089E-04  0.00000000E+00  0.00000000E+00  2.43448138E-04 -1.94966770E-05
  0.00000000E+00  7.99072787E-05  1.26501570E-05  0.00000000E+00  0.00000000E+00
 -1.09696442E-04 -3.47609592E-06  0.00000000E+00  2.55724948E-04 -2.71560293E-05
  0.00000000E+00  0.00000000E+00 -3.51015240E-04  4.89308913E-05  9.76910883E-01
 -9.21559161E-03  4.33182186E-02  2.03595947E-03 -9.17426928E-04  1.49373062E-03
 -1.35523576E-03  0.00000000E+00 -1.43515381E-03  1.38397221E-03  0.00000000E+00
  8.07998433E-05 -1.16104818E-03  0.00000000E+00 -1.30808571E-04 -7.72380583E-06
  0.00000000E+00  4.62378763E-05  0.00000000E+00  0.00000000E+00 -3.52266991E-05
  2.12939989E-05  7.47059536E-04  0.00000000E+00  0.00000000E+00 -2.31823877E-04
 -3.89570026E-04 -3.59783458E-04  0.00000000E+00  0.00000000E+00 -3.12510439E-04
 -3.74175796E-04  0.00000000E+00  4.74423679E-05 -4.89052311E-05  0.00000000E+00
  0.00000000E+00 -3.89316126E-05 -1.57847526E-05  0.00000000E+00  2.31815768E-05
  2.17179729E-05  0.00000000E+00  0.00000000E+00 -3.04945290E-04 -1.39323423E-04
  3.90700318E-05  4.58010313E-05 -2.64510719E-04 -7.03921811E-04 -1.44137703E-04
 -2.71138079E-05 -9.75072628E-05  0.00000000E+00  2.71171285E-04  7.09908326E-04
  0.00000000E+00 -8.37843901E-04 -4.80017289E-04  0.00000000E+00 -1.27552849E-04
 -2.79997272E-05  0.00000000E+00 -1.81191618E-05  0.00000000E+00  0.00000000E+00
 -2.96448768E-05  1.51369865E-05 -3.28658421E-04  0.00000000E+00  0.00000000E+00
 -8.28794440E-04  1.27784069E-04 -3.58571910E-05  0.00000000E+00  0.00000000E+00
  9.63935811E-05 -1.17356255E-04  0.00000000E+00 -2.08020335E-05 -1.20157426E-04
  0.00000000E+00  0.00000000E+00 -6.25983766E-05 -1.37662687E-04  0.00000000E+00
  3.53978622E-06 -1.52322759E-04  0.00000000E+00  0.00000000E+00  4.43483695E-05
 -4.19041699E-04 -2.58969420E-03  1.21759947E-04 -1.24107213E-04 -2.44148094E-04
  1.38050996E-04 -8.03599673E-06 -2.78309977E-05  0.00000000E+00  6.95161744E-05
  1.64112775E-04  0.00000000E+00  2.34309659E-04  2.01156952E-04  0.00000000E+00
  1.27656535E-04  2.50804861E-05  0.00000000E+00 -3.36087149E-06  0.00000000E+00
  0.00000000E+00 -1.79035698E-05  1.19461888E-06  6.19796953E-07  0.00000000E+00
  0.00000000E+00  8.06314169E-05  8.80320150E-05 -1.00394713E-04  0.00000000E+00
  0.00000000E+00  1.66802242E-04  1.62166257E-04  0.00000000E+00  1.58268349E-05
 -3.52673900E-06  0.00000000E+00  0.00000000E+00 -4.28505906E-06 -1.19504764E-05
  0.00000000E+00 -3.35722693E-05  4.53682470E-05  0.00000000E+00  0.00000000E+00
  8.37561145E-05  9.00907802E-05  3.93046921E-05 -9.79519591E-04 -4.79653026E-04
 -1.06681371E-05 -2.19978364E-05  1.54891106E-05  0.00000000E+00  1.47227120E-06
  2.75074028E-04  0.00000000E+00 -4.12356917E-05  1.32866470E-04  0.00000000E+00
  2.58959090E-05  0.00000000E+00  0.00000000E+00  1.27104652E-05  1.09987731E-05
 -2.69563327E-05  0.00000000E+00  0.00000000E+00  1.16566391E-05  3.40585639E-05
  1.14155556E-04  8.33260847E-05 -2.81278062E-05  7.42249387E-04  6.45446067E-04
  1.02458146E-05  2.48679037E-06  0.00000000E+00 -7.31790381E-05  1.50851864E-05
  0.00000000E+00  3.31901356E-04  8.95951639E-04  0.00000000E+00  3.86111622E-06
  8.07206319E-05  0.00000000E+00 -2.25229504E-06  0.00000000E+00  0.00000000E+00
 -2.03410081E-08 -6.05191054E-06 -3.57529378E-05  0.00000000E+00  0.00000000E+00
 -2.02207208E-05  8.30643005E-05 -2.29373886E-05  0.00000000E+00  0.00000000E+00
 -2.67074888E-04 -1.62347081E-04  0.00000000E+00  9.19746997E-06  6.02678262E-06
  0.00000000E+00  0.00000000E+00  2.72053632E-06 -1.87761811E-05  0.00000000E+00
 -4.02926165E-05 -3.82488365E-05  0.00000000E+00  0.00000000E+00 -7.64490317E-05
  1.94338080E-05  2.62858793E-03  3.92723466E-05  9.17726317E-05 -6.90880529E-05
 -4.68103158E-04  7.27784910E-06  1.57532147E-05  0.00000000E+00 -6.20338058E-05
 -5.53607833E-05  0.00000000E+00  2.35465995E-04 -1.87725589E-04  0.00000000E+00
 -1.87539711E-04 -6.39892809E-05  0.00000000E+00 -8.71726082E-06  0.00000000E+00
  0.00000000E+00  2.23937579E-05  1.97748329E-05  4.38881007E-06  0.00000000E+00
  0.00000000E+00 -1.17364972E-04 -4.64553948E-05 -4.29861188E-06  0.00000000E+00
  0.00000000E+00 -2.21826276E-04 -2.06259361E-04  0.00000000E+00  3.24529151E-06
 -5.50655146E-07  0.00000000E+00  0.00000000E+00  1.72093893E-06 -1.35664932E-05
  0.00000000E+00 -4.64139332E-05  3.54880001E-06  0.00000000E+00  0.00000000E+00
 -7.62974762E-05  1.87916553E-04  2.58685328E-04  1.46513651E-03 -7.80545670E-05
 -1.53922700E-03  3.99248998E-04 -1.44505049E-04  1.39210915E-07  0.00000000E+00
 -2.08921044E-03 -4.03787330E-04  0.00000000E+00  1.03701277E-03  7.62589730E-04
  0.00000000E+00 -1.70364488E-04  5.64822988E-05  0.00000000E+00 -1.23346642E-04
  0.00000000E+00  0.00000000E+00  2.43095073E-04  9.40597060E-05 -4.42201741E-04
  0.00000000E+00  0.00000000E+00  8.98931780E-04 -6.62456076E-05  1.16712360E-05
  0.00000000E+00  0.00000000E+00 -3.38319307E-04 -1.23515920E-04  0.00000000E+00
 -1.32264029E-06  1.52824766E-05  0.00000000E+00  0.00000000E+00  1.88793519E-05
  1.34001225E-05  0.00000000E+00  1.64725422E-04 -7.17377760E-05  0.00000000E+00
  0.00000000E+00 -2.40732100E-04  4.18245307E-05  9.76649210E-01 -9.84826264E-03
  4.35680629E-02  4.50061338E-03 -4.46418191E-04  2.14809632E-03  4.80779076E-04
  0.00000000E+00 -2.38396285E-03 -6.03517408E-04  0.00000000E+00  1.13936233E-03
 -3.91310729E-06  0.00000000E+00  4.45474141E-06 -4.27575914E-05  0.00000000E+00
 -2.32334367E-04  0.00000000E+00  0.00000000E+00  1.02726134E-04  3.18394762E-05
  3.90545114E-04  0.00000000E+00  0.00000000E+00 -8.34036026E-04 -4.19091298E-04
 -1.53739516E-04  0.00000000E+00  0.00000000E+00  2.56200985E-04  1.67779899E-05
  0.00000000E+00  5.22718485E-05  1.76862082E-05  0.00000000E+00  0.00000000E+00
 -2.21109153E-05 -1.32785023E-05  0.00000000E+00  1.38266208E-04  9.29457890E-06
  0.00000000E+00  0.00000000E+00 -1.89731560E-04 -1.40663480E-04  4.63543776E-04
  2.17141027E-03  1.85107310E-04  1.80064245E-05 -4.14322366E-05 -2.61178596E-04
  0.00000000E+00  1.06104097E-04 -1.32978899E-03  0.00000000E+00  3.07909583E-04
 -3.57966578E-04  0.00000000E+00 -1.31224362E-05  0.00000000E+00  0.00000000E+00
  5.73725468E-05  1.75836725E-05 -1.62956580E-04  0.00000000E+00  0.00000000E+00
 -5.41264531E-04 -2.37232262E-05  9.76832150E-01 -9.17652364E-03  4.34449061E-02
  7.58018023E-05 -1.19887077E-03 -1.56235620E-03  1.44223182E-03  0.00000000E+00
  1.57074367E-03 -1.31929921E-03  0.00000000E+00 -5.88776698E-04 -9.32398761E-04
  0.00000000E+00  5.89068815E-05 -3.95347177E-05  0.00000000E+00  3.21539957E-05
  0.00000000E+00  0.00000000E+00 -1.14107643E-04 -3.28381126E-06  7.65578784E-04
  0.00000000E+00  0.00000000E+00 -1.86779501E-04 -2.40176439E-04 -2.60367215E-04
  0.00000000E+00  0.00000000E+00  1.84187517E-04  1.25653341E-04  0.00000000E+00
 -6.37945529E-05  4.37631706E-06  0.00000000E+00  0.00000000E+00  2.03651002E-05
  1.41059322E-05  0.00000000E+00 -1.97901751E-07  1.22770664E-04  0.00000000E+00
  0.00000000E+00  2.57910746E-04  9.15809657E-05 -4.75530219E-03 -2.08992626E-04