 Entering Gaussian System, Link 0=g16
 Input=hoono_r2_1p461653.gjf
 Output=hoono_r2_1p461653.log
 Initial command:
 /sw/contrib/gaussian/g16/B01/g16/l1.exe "/scr/Gau-4040.inp" -scrdir="/scr/"
 Entering Link 1 = /sw/contrib/gaussian/g16/B01/g16/l1.exe PID=      4041.
  
 Copyright (c) 1988-2017, Gaussian, Inc.  All Rights Reserved.
  
 This is part of the Gaussian(R) 16 program.  It is based on
 the Gaussian(R) 09 system (copyright 2009, Gaussian, Inc.),
 the Gaussian(R) 03 system (copyright 2003, Gaussian, Inc.),
 the Gaussian(R) 98 system (copyright 1998, Gaussian, Inc.),
 the Gaussian(R) 94 system (copyright 1995, Gaussian, Inc.),
 the Gaussian 92(TM) system (copyright 1992, Gaussian, Inc.),
 the Gaussian 90(TM) system (copyright 1990, Gaussian, Inc.),
 the Gaussian 88(TM) system (copyright 1988, Gaussian, Inc.),
 the Gaussian 86(TM) system (copyright 1986, Carnegie Mellon
 University), and the Gaussian 82(TM) system (copyright 1983,
 Carnegie Mellon University). Gaussian is a federally registered
 trademark of Gaussian, Inc.
  
 This software contains proprietary and confidential information,
 including trade secrets, belonging to Gaussian, Inc.
  
 This software is provided under written license and may be
 used, copied, transmitted, or stored only in accord with that
 written license.
  
 The following legend is applicable only to US Government
 contracts under FAR:
  
                    RESTRICTED RIGHTS LEGEND
  
 Use, reproduction and disclosure by the US Government is
 subject to restrictions as set forth in subparagraphs (a)
 and (c) of the Commercial Computer Software - Restricted
 Rights clause in FAR 52.227-19.
  
 Gaussian, Inc.
 340 Quinnipiac St., Bldg. 40, Wallingford CT 06492
  
  
 ---------------------------------------------------------------
 Warning -- This program may not be used in any manner that
 competes with the business of Gaussian, Inc. or will provide
 assistance to any competitor of Gaussian, Inc.  The licensee
 of this program is prohibited from giving any competitor of
 Gaussian, Inc. access to this program.  By using this program,
 the user acknowledges that Gaussian, Inc. is engaged in the
 business of creating and licensing software in the field of
 computational chemistry and represents and warrants to the
 licensee that it is not a competitor of Gaussian, Inc. and that
 it will not use this program in any manner prohibited above.
 ---------------------------------------------------------------
  

 Cite this work as:
 Gaussian 16, Revision B.01,
 M. J. Frisch, G. W. Trucks, H. B. Schlegel, G. E. Scuseria, 
 M. A. Robb, J. R. Cheeseman, G. Scalmani, V. Barone, 
 G. A. Petersson, H. Nakatsuji, X. Li, M. Caricato, A. V. Marenich, 
 J. Bloino, B. G. Janesko, R. Gomperts, B. Mennucci, H. P. Hratchian, 
 J. V. Ortiz, A. F. Izmaylov, J. L. Sonnenberg, D. Williams-Young, 
 F. Ding, F. Lipparini, F. Egidi, J. Goings, B. Peng, A. Petrone, 
 T. Henderson, D. Ranasinghe, V. G. Zakrzewski, J. Gao, N. Rega, 
 G. Zheng, W. Liang, M. Hada, M. Ehara, K. Toyota, R. Fukuda, 
 J. Hasegawa, M. Ishida, T. Nakajima, Y. Honda, O. Kitao, H. Nakai, 
 T. Vreven, K. Throssell, J. A. Montgomery, Jr., J. E. Peralta, 
 F. Ogliaro, M. J. Bearpark, J. J. Heyd, E. N. Brothers, K. N. Kudin, 
 V. N. Staroverov, T. A. Keith, R. Kobayashi, J. Normand, 
 K. Raghavachari, A. P. Rendell, J. C. Burant, S. S. Iyengar, 
 J. Tomasi, M. Cossi, J. M. Millam, M. Klene, C. Adamo, R. Cammi, 
 J. W. Ochterski, R. L. Martin, K. Morokuma, O. Farkas, 
 J. B. Foresman, and D. J. Fox, Gaussian, Inc., Wallingford CT, 2016.
 
 ******************************************
 Gaussian 16:  ES64L-G16RevB.01 20-Dec-2017
                14-Feb-2022 
 ******************************************
 %nproc=28
 Will use up to   28 processors via shared memory.
 %mem=120GB
 %chk=hoono_r2_1p461653.chk
 -------------------------------------
 #p SP mp2/aug-cc-pvtz density=current
 -------------------------------------
 1/30=1,38=1,172=1/1;
 2/12=2,17=6,18=5,40=1/2;
 3/5=16,6=1,7=10,11=9,25=1,30=1,71=1/1,2,3;
 4//1;
 5/5=2,38=5/2;
 8/6=4,10=1/1;
 9/15=1,16=-3/6;
 10/5=1,13=10/2;
 6/7=2,8=2,9=2,10=2,22=-1/1;
 99/5=1,9=1/99;
 Leave Link    1 at Mon Feb 14 21:58:17 2022, MaxMem= 16106127360 cpu:               6.5 elap:               0.2
 (Enter /sw/contrib/gaussian/g16/B01/g16/l101.exe)
 -----
 title
 -----
 Symbolic Z-matrix:
 Charge =  0 Multiplicity = 1
 H
 O                    1    r1
 O                    2    r2       1    a1
 N                    3    r3       2    a2       1    d1       0
 O                    4    r4       3    a3       2    d2       0
       Variables:
  r1                    0.96898                  
  r2                    1.46165                  
  r3                    1.45878                  
  r4                    1.17073                  
  a1                   97.59495                  
  a2                  102.29752                  
  a3                  109.06955                  
  d1                  180.                       
  d2                  180.                       
 
 ITRead=  0  0  0  0  0
 MicOpt= -1 -1 -1 -1 -1
 NAtoms=      5 NQM=        5 NQMF=       0 NMMI=      0 NMMIF=      0
                NMic=       0 NMicF=      0.
                    Isotopes and Nuclear Properties:
 (Nuclear quadrupole moments (NQMom) in fm**2, nuclear magnetic moments (NMagM)
  in nuclear magnetons)

  Atom         1           2           3           4           5
 IAtWgt=           1          16          16          14          16
 AtmWgt=   1.0078250  15.9949146  15.9949146  14.0030740  15.9949146
 NucSpn=           1           0           0           2           0
 AtZEff=  -0.0000000  -0.0000000  -0.0000000  -0.0000000  -0.0000000
 NQMom=    0.0000000   0.0000000   0.0000000   2.0440000   0.0000000
 NMagM=    2.7928460   0.0000000   0.0000000   0.4037610   0.0000000
 AtZNuc=   1.0000000   8.0000000   8.0000000   7.0000000   8.0000000
 Leave Link  101 at Mon Feb 14 21:58:17 2022, MaxMem= 16106127360 cpu:               2.1 elap:               0.1
 (Enter /sw/contrib/gaussian/g16/B01/g16/l202.exe)
                          Input orientation:                          
 ---------------------------------------------------------------------
 Center     Atomic      Atomic             Coordinates (Angstroms)
 Number     Number       Type             X           Y           Z
 ---------------------------------------------------------------------
      1          1           0        0.000000    0.000000    0.000000
      2          8           0        0.000000    0.000000    0.968976
      3          8           0        1.448831    0.000000    1.162161
      4          7           0        1.568427    0.000000    2.616034
      5          8           0        2.702543    0.000000    2.906529
 ---------------------------------------------------------------------
                    Distance matrix (angstroms):
                    1          2          3          4          5
     1  H    0.000000
     2  O    0.968976   0.000000
     3  O    1.857345   1.461654   0.000000
     4  N    3.050180   2.274371   1.458784   0.000000
     5  O    3.968835   3.325335   2.148165   1.170729   0.000000
 Stoichiometry    HNO3
 Framework group  CS[SG(HNO3)]
 Deg. of freedom     7
 Full point group                 CS      NOp   2
 Largest Abelian subgroup         CS      NOp   2
 Largest concise Abelian subgroup C1      NOp   1
                         Standard orientation:                         
 ---------------------------------------------------------------------
 Center     Atomic      Atomic             Coordinates (Angstroms)
 Number     Number       Type             X           Y           Z
 ---------------------------------------------------------------------
      1          1           0        1.558690    1.683004    0.000000
      2          8           0        1.460929    0.718973    0.000000
      3          8           0        0.000000    0.672947    0.000000
      4          7           0       -0.265668   -0.761442    0.000000
      5          8           0       -1.423305   -0.936033    0.000000
 ---------------------------------------------------------------------
 Rotational constants (GHZ):          54.7902246           4.9953330           4.5779521
 Leave Link  202 at Mon Feb 14 21:58:17 2022, MaxMem= 16106127360 cpu:               0.3 elap:               0.0
 (Enter /sw/contrib/gaussian/g16/B01/g16/l301.exe)
 Standard basis: Aug-CC-pVTZ (5D, 7F)
 Ernie: Thresh=  0.10000D-02 Tol=  0.10000D-05 Strict=F.
 Ernie:  12 primitive shells out of 131 were deleted.
 There are   166 symmetry adapted cartesian basis functions of A'  symmetry.
 There are    79 symmetry adapted cartesian basis functions of A"  symmetry.
 There are   136 symmetry adapted basis functions of A'  symmetry.
 There are    71 symmetry adapted basis functions of A"  symmetry.
   207 basis functions,   315 primitive gaussians,   245 cartesian basis functions
    16 alpha electrons       16 beta electrons
       nuclear repulsion energy       116.7062564199 Hartrees.
 IExCor=    0 DFT=F Ex=HF Corr=None ExCW=0 ScaHFX=  1.000000
 ScaDFX=  1.000000  1.000000  1.000000  1.000000 ScalE2=  1.000000  1.000000
 IRadAn=      5 IRanWt=     -1 IRanGd=            0 ICorTp=0 IEmpDi=  4
 NAtoms=    5 NActive=    5 NUniq=    5 SFac= 1.00D+00 NAtFMM=   60 NAOKFM=F Big=F
 Integral buffers will be    131072 words long.
 Raffenetti 1 integral format.
 Two-electron integral symmetry is turned on.
 Leave Link  301 at Mon Feb 14 21:58:17 2022, MaxMem= 16106127360 cpu:               1.4 elap:               0.1
 (Enter /sw/contrib/gaussian/g16/B01/g16/l302.exe)
 NPDir=0 NMtPBC=     1 NCelOv=     1 NCel=       1 NClECP=     1 NCelD=      1
         NCelK=      1 NCelE2=     1 NClLst=     1 CellRange=     0.0.
 One-electron integrals computed using PRISM.
 One-electron integral symmetry used in STVInt
 NBasis=   207 RedAO= T EigKep=  1.82D-04  NBF=   136    71
 NBsUse=   207 1.00D-06 EigRej= -1.00D+00 NBFU=   136    71
 Leave Link  302 at Mon Feb 14 21:58:18 2022, MaxMem= 16106127360 cpu:               5.8 elap:               0.2
 (Enter /sw/contrib/gaussian/g16/B01/g16/l303.exe)
 DipDrv:  MaxL=1.
 Leave Link  303 at Mon Feb 14 21:58:18 2022, MaxMem= 16106127360 cpu:               0.7 elap:               0.1
 (Enter /sw/contrib/gaussian/g16/B01/g16/l401.exe)
 ExpMin= 2.53D-02 ExpMax= 1.53D+04 ExpMxC= 5.22D+02 IAcc=3 IRadAn=         5 AccDes= 0.00D+00
 Harris functional with IExCor=  205 and IRadAn=       5 diagonalized for initial guess.
 HarFok:  IExCor=  205 AccDes= 0.00D+00 IRadAn=         5 IDoV= 1 UseB2=F ITyADJ=14
 ICtDFT=  3500011 ScaDFX=  1.000000  1.000000  1.000000  1.000000
 FoFCou: FMM=F IPFlag=           0 FMFlag=      100000 FMFlg1=           0
         NFxFlg=           0 DoJE=T BraDBF=F KetDBF=T FulRan=T
         wScrn=  0.000000 ICntrl=       500 IOpCl=  0 I1Cent=   200000004 NGrid=           0
         NMat0=    1 NMatS0=      1 NMatT0=    0 NMatD0=    1 NMtDS0=    0 NMtDT0=    0
 Petite list used in FoFCou.
 Harris En= -279.628399410344    
 JPrj=0 DoOrth=F DoCkMO=F.
 Initial guess orbital symmetries:
       Occupied  (A') (A') (A') (A') (A') (A') (A') (A') (A') (A')
                 (A") (A') (A') (A") (A") (A')
       Virtual   (A") (A') (A') (A') (A') (A') (A") (A') (A') (A')
                 (A") (A') (A") (A') (A') (A") (A') (A") (A') (A')
                 (A') (A') (A') (A') (A') (A") (A') (A") (A') (A')
                 (A") (A') (A") (A') (A') (A") (A') (A") (A') (A')
                 (A") (A') (A") (A') (A") (A') (A') (A') (A") (A")
                 (A') (A') (A') (A') (A") (A') (A") (A') (A") (A')
                 (A') (A') (A") (A') (A') (A") (A') (A") (A') (A')
                 (A") (A') (A') (A") (A") (A') (A') (A") (A') (A')
                 (A') (A") (A') (A") (A') (A") (A') (A") (A') (A')
                 (A') (A") (A') (A") (A') (A") (A") (A') (A') (A")
                 (A') (A') (A") (A') (A') (A') (A') (A") (A") (A')
                 (A") (A') (A') (A') (A") (A') (A') (A') (A") (A')
                 (A") (A') (A') (A") (A") (A') (A') (A") (A") (A')
                 (A') (A') (A') (A") (A") (A') (A") (A') (A') (A')
                 (A') (A") (A") (A') (A') (A") (A') (A') (A') (A')
                 (A') (A") (A') (A") (A') (A") (A') (A") (A") (A')
                 (A') (A") (A') (A") (A') (A") (A") (A") (A') (A')
                 (A") (A') (A") (A') (A") (A') (A") (A") (A') (A')
                 (A') (A') (A') (A') (A') (A') (A') (A') (A') (A')
                 (A')
 The electronic state of the initial guess is 1-A'.
 Leave Link  401 at Mon Feb 14 21:58:18 2022, MaxMem= 16106127360 cpu:               6.8 elap:               0.3
 (Enter /sw/contrib/gaussian/g16/B01/g16/l502.exe)
 Keep R1 ints in memory in symmetry-blocked form, NReq=348887737.
 FoFCou: FMM=F IPFlag=           0 FMFlag=           0 FMFlg1=           0
         NFxFlg=           0 DoJE=F BraDBF=F KetDBF=F FulRan=T
         wScrn=  0.000000 ICntrl=       600 IOpCl=  0 I1Cent=           0 NGrid=           0
         NMat0=    1 NMatS0=  21528 NMatT0=    0 NMatD0=    1 NMtDS0=    0 NMtDT0=    0
 Petite list used in FoFCou.
 Closed shell SCF:
 Using DIIS extrapolation, IDIIS=  1040.
 NGot= 16106127360 LenX= 15988850015 LenY= 15988789549
 Requested convergence on RMS density matrix=1.00D-08 within 128 cycles.
 Requested convergence on MAX density matrix=1.00D-06.
 Requested convergence on             energy=1.00D-06.
 No special actions if energy rises.

 Cycle   1  Pass 1  IDiag  1:
 E= -279.369704517421    
 DIIS: error= 2.81D-02 at cycle   1 NSaved=   1.
 NSaved= 1 IEnMin= 1 EnMin= -279.369704517421     IErMin= 1 ErrMin= 2.81D-02
 ErrMax= 2.81D-02  0.00D+00 EMaxC= 1.00D-01 BMatC= 4.38D-01 BMatP= 4.38D-01
 IDIUse=3 WtCom= 7.19D-01 WtEn= 2.81D-01
 Coeff-Com:  0.100D+01
 Coeff-En:   0.100D+01
 Coeff:      0.100D+01
 Gap=     0.514 Goal=   None    Shift=    0.000
 GapD=    0.514 DampG=2.000 DampE=0.500 DampFc=1.0000 IDamp=-1.
 RMSDP=1.62D-03 MaxDP=9.92D-02              OVMax= 1.14D-01

 Cycle   2  Pass 1  IDiag  1:
 E= -279.451436561400     Delta-E=       -0.081732043979 Rises=F Damp=F
 DIIS: error= 1.80D-02 at cycle   2 NSaved=   2.
 NSaved= 2 IEnMin= 2 EnMin= -279.451436561400     IErMin= 2 ErrMin= 1.80D-02
 ErrMax= 1.80D-02  0.00D+00 EMaxC= 1.00D-01 BMatC= 7.24D-02 BMatP= 4.38D-01
 IDIUse=3 WtCom= 8.20D-01 WtEn= 1.80D-01
 Coeff-Com:  0.196D+00 0.804D+00
 Coeff-En:   0.000D+00 0.100D+01
 Coeff:      0.161D+00 0.839D+00
 Gap=     0.530 Goal=   None    Shift=    0.000
 RMSDP=9.03D-04 MaxDP=3.73D-02 DE=-8.17D-02 OVMax= 6.97D-02

 Cycle   3  Pass 1  IDiag  1:
 E= -279.480748657023     Delta-E=       -0.029312095623 Rises=F Damp=F
 DIIS: error= 1.05D-02 at cycle   3 NSaved=   3.
 NSaved= 3 IEnMin= 3 EnMin= -279.480748657023     IErMin= 3 ErrMin= 1.05D-02
 ErrMax= 1.05D-02  0.00D+00 EMaxC= 1.00D-01 BMatC= 2.90D-02 BMatP= 7.24D-02
 IDIUse=3 WtCom= 8.95D-01 WtEn= 1.05D-01
 Coeff-Com: -0.331D-01 0.379D+00 0.655D+00
 Coeff-En:   0.000D+00 0.242D+00 0.758D+00
 Coeff:     -0.296D-01 0.364D+00 0.665D+00
 Gap=     0.510 Goal=   None    Shift=    0.000
 RMSDP=3.78D-04 MaxDP=1.53D-02 DE=-2.93D-02 OVMax= 3.83D-02

 Cycle   4  Pass 1  IDiag  1:
 E= -279.500034595798     Delta-E=       -0.019285938775 Rises=F Damp=F
 DIIS: error= 1.30D-03 at cycle   4 NSaved=   4.
 NSaved= 4 IEnMin= 4 EnMin= -279.500034595798     IErMin= 4 ErrMin= 1.30D-03
 ErrMax= 1.30D-03  0.00D+00 EMaxC= 1.00D-01 BMatC= 4.99D-04 BMatP= 2.90D-02
 IDIUse=3 WtCom= 9.87D-01 WtEn= 1.30D-02
 Coeff-Com: -0.118D-01 0.580D-01 0.159D+00 0.794D+00
 Coeff-En:   0.000D+00 0.000D+00 0.000D+00 0.100D+01
 Coeff:     -0.116D-01 0.573D-01 0.157D+00 0.797D+00
 Gap=     0.502 Goal=   None    Shift=    0.000
 RMSDP=9.03D-05 MaxDP=2.80D-03 DE=-1.93D-02 OVMax= 1.12D-02

 Cycle   5  Pass 1  IDiag  1:
 E= -279.500711831950     Delta-E=       -0.000677236152 Rises=F Damp=F
 DIIS: error= 7.41D-04 at cycle   5 NSaved=   5.
 NSaved= 5 IEnMin= 5 EnMin= -279.500711831950     IErMin= 5 ErrMin= 7.41D-04
 ErrMax= 7.41D-04  0.00D+00 EMaxC= 1.00D-01 BMatC= 8.75D-05 BMatP= 4.99D-04
 IDIUse=3 WtCom= 9.93D-01 WtEn= 7.41D-03
 Coeff-Com:  0.612D-02-0.723D-01-0.117D+00 0.225D-01 0.116D+01
 Coeff-En:   0.000D+00 0.000D+00 0.000D+00 0.000D+00 0.100D+01
 Coeff:      0.608D-02-0.717D-01-0.116D+00 0.223D-01 0.116D+01
 Gap=     0.502 Goal=   None    Shift=    0.000
 RMSDP=7.59D-05 MaxDP=2.09D-03 DE=-6.77D-04 OVMax= 1.10D-02

 Cycle   6  Pass 1  IDiag  1:
 E= -279.501025944449     Delta-E=       -0.000314112499 Rises=F Damp=F
 DIIS: error= 2.90D-04 at cycle   6 NSaved=   6.
 NSaved= 6 IEnMin= 6 EnMin= -279.501025944449     IErMin= 6 ErrMin= 2.90D-04
 ErrMax= 2.90D-04  0.00D+00 EMaxC= 1.00D-01 BMatC= 1.68D-05 BMatP= 8.75D-05
 IDIUse=3 WtCom= 9.97D-01 WtEn= 2.90D-03
 Coeff-Com:  0.681D-03 0.541D-03 0.263D-02-0.128D+00-0.216D+00 0.134D+01
 Coeff-En:   0.000D+00 0.000D+00 0.000D+00 0.000D+00 0.000D+00 0.100D+01
 Coeff:      0.679D-03 0.539D-03 0.262D-02-0.128D+00-0.216D+00 0.134D+01
 Gap=     0.502 Goal=   None    Shift=    0.000
 RMSDP=4.49D-05 MaxDP=1.24D-03 DE=-3.14D-04 OVMax= 5.49D-03

 Cycle   7  Pass 1  IDiag  1:
 E= -279.501098366659     Delta-E=       -0.000072422210 Rises=F Damp=F
 DIIS: error= 1.26D-04 at cycle   7 NSaved=   7.
 NSaved= 7 IEnMin= 7 EnMin= -279.501098366659     IErMin= 7 ErrMin= 1.26D-04
 ErrMax= 1.26D-04  0.00D+00 EMaxC= 1.00D-01 BMatC= 4.85D-06 BMatP= 1.68D-05
 IDIUse=3 WtCom= 9.99D-01 WtEn= 1.26D-03
 Coeff-Com: -0.941D-03 0.137D-01 0.267D-01-0.272D-01-0.296D+00 0.421D+00
 Coeff-Com:  0.862D+00
 Coeff-En:   0.000D+00 0.000D+00 0.000D+00 0.000D+00 0.000D+00 0.000D+00
 Coeff-En:   0.100D+01
 Coeff:     -0.940D-03 0.137D-01 0.267D-01-0.272D-01-0.296D+00 0.421D+00
 Coeff:      0.862D+00
 Gap=     0.502 Goal=   None    Shift=    0.000
 RMSDP=1.35D-05 MaxDP=3.80D-04 DE=-7.24D-05 OVMax= 1.56D-03

 Cycle   8  Pass 1  IDiag  1:
 E= -279.501107670028     Delta-E=       -0.000009303369 Rises=F Damp=F
 DIIS: error= 5.59D-05 at cycle   8 NSaved=   8.
 NSaved= 8 IEnMin= 8 EnMin= -279.501107670028     IErMin= 8 ErrMin= 5.59D-05
 ErrMax= 5.59D-05  0.00D+00 EMaxC= 1.00D-01 BMatC= 6.07D-07 BMatP= 4.85D-06
 IDIUse=1 WtCom= 1.00D+00 WtEn= 0.00D+00
 Coeff-Com: -0.448D-03 0.344D-02 0.757D-02 0.275D-01-0.409D-01-0.195D+00
 Coeff-Com:  0.139D+00 0.106D+01
 Coeff:     -0.448D-03 0.344D-02 0.757D-02 0.275D-01-0.409D-01-0.195D+00
 Coeff:      0.139D+00 0.106D+01
 Gap=     0.502 Goal=   None    Shift=    0.000
 RMSDP=7.12D-06 MaxDP=2.08D-04 DE=-9.30D-06 OVMax= 7.69D-04

 Cycle   9  Pass 1  IDiag  1:
 E= -279.501109520425     Delta-E=       -0.000001850397 Rises=F Damp=F
 DIIS: error= 1.58D-05 at cycle   9 NSaved=   9.
 NSaved= 9 IEnMin= 9 EnMin= -279.501109520425     IErMin= 9 ErrMin= 1.58D-05
 ErrMax= 1.58D-05  0.00D+00 EMaxC= 1.00D-01 BMatC= 6.81D-08 BMatP= 6.07D-07
 IDIUse=1 WtCom= 1.00D+00 WtEn= 0.00D+00
 Coeff-Com:  0.123D-03-0.172D-02-0.307D-02-0.200D-02 0.342D-01 0.881D-04
 Coeff-Com: -0.157D+00-0.119D+00 0.125D+01
 Coeff:      0.123D-03-0.172D-02-0.307D-02-0.200D-02 0.342D-01 0.881D-04
 Coeff:     -0.157D+00-0.119D+00 0.125D+01
 Gap=     0.502 Goal=   None    Shift=    0.000
 RMSDP=1.94D-06 MaxDP=6.63D-05 DE=-1.85D-06 OVMax= 1.74D-04

 Cycle  10  Pass 1  IDiag  1:
 E= -279.501109680494     Delta-E=       -0.000000160069 Rises=F Damp=F
 DIIS: error= 4.11D-06 at cycle  10 NSaved=  10.
 NSaved=10 IEnMin=10 EnMin= -279.501109680494     IErMin=10 ErrMin= 4.11D-06
 ErrMax= 4.11D-06  0.00D+00 EMaxC= 1.00D-01 BMatC= 5.55D-09 BMatP= 6.81D-08
 IDIUse=1 WtCom= 1.00D+00 WtEn= 0.00D+00
 Coeff-Com:  0.306D-04-0.237D-03-0.314D-03-0.268D-02 0.150D-02 0.195D-01
 Coeff-Com: -0.105D-01-0.759D-01-0.823D-01 0.115D+01
 Coeff:      0.306D-04-0.237D-03-0.314D-03-0.268D-02 0.150D-02 0.195D-01
 Coeff:     -0.105D-01-0.759D-01-0.823D-01 0.115D+01
 Gap=     0.502 Goal=   None    Shift=    0.000
 RMSDP=5.06D-07 MaxDP=2.11D-05 DE=-1.60D-07 OVMax= 4.15D-05

 Cycle  11  Pass 1  IDiag  1:
 E= -279.501109693035     Delta-E=       -0.000000012541 Rises=F Damp=F
 DIIS: error= 2.02D-06 at cycle  11 NSaved=  11.
 NSaved=11 IEnMin=11 EnMin= -279.501109693035     IErMin=11 ErrMin= 2.02D-06
 ErrMax= 2.02D-06  0.00D+00 EMaxC= 1.00D-01 BMatC= 6.56D-10 BMatP= 5.55D-09
 IDIUse=1 WtCom= 1.00D+00 WtEn= 0.00D+00
 Coeff-Com: -0.213D-04 0.244D-03 0.484D-03 0.521D-03-0.428D-02-0.344D-02
 Coeff-Com:  0.192D-01 0.333D-01-0.139D+00-0.178D+00 0.127D+01
 Coeff:     -0.213D-04 0.244D-03 0.484D-03 0.521D-03-0.428D-02-0.344D-02
 Coeff:      0.192D-01 0.333D-01-0.139D+00-0.178D+00 0.127D+01
 Gap=     0.502 Goal=   None    Shift=    0.000
 RMSDP=1.77D-07 MaxDP=6.49D-06 DE=-1.25D-08 OVMax= 1.74D-05

 Cycle  12  Pass 1  IDiag  1:
 E= -279.501109694833     Delta-E=       -0.000000001798 Rises=F Damp=F
 DIIS: error= 5.85D-07 at cycle  12 NSaved=  12.
 NSaved=12 IEnMin=12 EnMin= -279.501109694833     IErMin=12 ErrMin= 5.85D-07
 ErrMax= 5.85D-07  0.00D+00 EMaxC= 1.00D-01 BMatC= 7.16D-11 BMatP= 6.56D-10
 IDIUse=1 WtCom= 1.00D+00 WtEn= 0.00D+00
 Coeff-Com:  0.123D-05-0.291D-04-0.626D-04 0.186D-03 0.108D-02-0.229D-02
 Coeff-Com: -0.409D-02 0.529D-02 0.418D-01-0.115D+00-0.277D+00 0.135D+01
 Coeff:      0.123D-05-0.291D-04-0.626D-04 0.186D-03 0.108D-02-0.229D-02
 Coeff:     -0.409D-02 0.529D-02 0.418D-01-0.115D+00-0.277D+00 0.135D+01
 Gap=     0.502 Goal=   None    Shift=    0.000
 RMSDP=7.17D-08 MaxDP=2.83D-06 DE=-1.80D-09 OVMax= 6.72D-06

 Cycle  13  Pass 1  IDiag  1:
 E= -279.501109695063     Delta-E=       -0.000000000230 Rises=F Damp=F
 DIIS: error= 1.72D-07 at cycle  13 NSaved=  13.
 NSaved=13 IEnMin=13 EnMin= -279.501109695063     IErMin=13 ErrMin= 1.72D-07
 ErrMax= 1.72D-07  0.00D+00 EMaxC= 1.00D-01 BMatC= 4.06D-12 BMatP= 7.16D-11
 IDIUse=1 WtCom= 1.00D+00 WtEn= 0.00D+00
 Coeff-Com:  0.129D-05-0.140D-04-0.226D-04-0.886D-04 0.122D-03 0.748D-03
 Coeff-Com: -0.725D-03-0.337D-02 0.571D-03 0.413D-01-0.369D-01-0.325D+00
 Coeff-Com:  0.132D+01
 Coeff:      0.129D-05-0.140D-04-0.226D-04-0.886D-04 0.122D-03 0.748D-03
 Coeff:     -0.725D-03-0.337D-02 0.571D-03 0.413D-01-0.369D-01-0.325D+00
 Coeff:      0.132D+01
 Gap=     0.502 Goal=   None    Shift=    0.000
 RMSDP=1.92D-08 MaxDP=5.62D-07 DE=-2.30D-10 OVMax= 1.58D-06

 Cycle  14  Pass 1  IDiag  1:
 E= -279.501109695075     Delta-E=       -0.000000000012 Rises=F Damp=F
 DIIS: error= 2.50D-08 at cycle  14 NSaved=  14.
 NSaved=14 IEnMin=14 EnMin= -279.501109695075     IErMin=14 ErrMin= 2.50D-08
 ErrMax= 2.50D-08  0.00D+00 EMaxC= 1.00D-01 BMatC= 2.04D-13 BMatP= 4.06D-12
 IDIUse=1 WtCom= 1.00D+00 WtEn= 0.00D+00
 Coeff-Com: -0.192D-06 0.315D-05 0.561D-05 0.447D-05-0.835D-04 0.467D-04
 Coeff-Com:  0.267D-03 0.250D-03-0.247D-02 0.147D-02 0.173D-01-0.258D-01
 Coeff-Com: -0.203D+00 0.121D+01
 Coeff:     -0.192D-06 0.315D-05 0.561D-05 0.447D-05-0.835D-04 0.467D-04
 Coeff:      0.267D-03 0.250D-03-0.247D-02 0.147D-02 0.173D-01-0.258D-01
 Coeff:     -0.203D+00 0.121D+01
 Gap=     0.502 Goal=   None    Shift=    0.000
 RMSDP=3.86D-09 MaxDP=9.16D-08 DE=-1.24D-11 OVMax= 3.51D-07

 SCF Done:  E(RHF) =  -279.501109695     A.U. after   14 cycles
            NFock= 14  Conv=0.39D-08     -V/T= 2.0024
 KE= 2.788338947745D+02 PE=-8.947318583132D+02 EE= 2.196905974237D+02
 Leave Link  502 at Mon Feb 14 21:58:22 2022, MaxMem= 16106127360 cpu:              55.8 elap:               3.6
 (Enter /sw/contrib/gaussian/g16/B01/g16/l801.exe)
 ExpMin= 2.53D-02 ExpMax= 1.53D+04 ExpMxC= 5.22D+02 IAcc=3 IRadAn=         5 AccDes= 0.00D+00
 HarFok:  IExCor=  205 AccDes= 0.00D+00 IRadAn=         5 IDoV=-2 UseB2=F ITyADJ=14
 ICtDFT= 12500011 ScaDFX=  1.000000  1.000000  1.000000  1.000000
 Largest valence mixing into a core orbital is  2.08D-04
 Largest core mixing into a valence orbital is  3.63D-05
 Range of M.O.s used for correlation:     5   207
 NBasis=   207 NAE=    16 NBE=    16 NFC=     4 NFV=     0
 NROrb=    203 NOA=    12 NOB=    12 NVA=   191 NVB=   191

 **** Warning!!: The largest alpha MO coefficient is  0.17618691D+02

 Leave Link  801 at Mon Feb 14 21:58:22 2022, MaxMem= 16106127360 cpu:               2.1 elap:               0.1
 (Enter /sw/contrib/gaussian/g16/B01/g16/l906.exe)
 Frozen-core derivative calculation, NFC=   4 NFV=   0.
 FulOut=F Deriv=T AODrv=F NAtomX=     5
   MMem=          76  MDisk=          12 MDiskD=          12
  W3Min=      811440 MinDsk=     1524655 NBas6D=         245
 NBas2D=       30762    NTT=       30135    LW2=     3500000
    MDV= 16105579927 MDiskM=      328644 NBas2p=       30466
 Fully in-core method, ICMem=   960157634.
 IMap=   1   2   3   4   5   6   7   8   9  10  11  12  13  14  15  16
 JobTyp=1 Pass  1 fully in-core, NPsUse= 28.
 Compute canonical integrals.
 FoFCou: FMM=F IPFlag=           0 FMFlag=           0 FMFlg1=           0
         NFxFlg=           0 DoJE=F BraDBF=F KetDBF=F FulRan=T
         wScrn=  0.000000 ICntrl=       600 IOpCl=  1 I1Cent=           0 NGrid=           0
         NMat0=    1 NMatS0=  30762 NMatT0=    0 NMatD0=    1 NMtDS0=    0 NMtDT0=    0
 Symmetry not used in FoFCou.
 Spin components of T(2) and E(2):
     alpha-alpha T2 =       0.3408831964D-01 E2=     -0.1224474917D+00
     alpha-beta  T2 =       0.1873384728D+00 E2=     -0.7007044564D+00
     beta-beta   T2 =       0.3408831964D-01 E2=     -0.1224474917D+00
 The integrals were generated   1 times.
 ANorm=    0.1120497707D+01
 E2 =    -0.9455994398D+00 EUMP2 =    -0.28044670913483D+03
 Leave Link  906 at Mon Feb 14 21:58:31 2022, MaxMem= 16106127360 cpu:             244.1 elap:               8.8
 (Enter /sw/contrib/gaussian/g16/B01/g16/l1002.exe)
 Minotr:  Closed shell wavefunction.
          Computing MP2/KS-MP2 derivatives.
          Using Z-Vector for PSCF gradient.
          Skipping F1 and S1 gradient terms here.
          Frozen-core window.
          Direct CPHF calculation.
          Differentiating once with respect to electric field.
                with respect to dipole field.
          Electric field/nuclear overlap derivatives assumed to be zero.
          Using symmetry in CPHF.
          Requested convergence is 1.0D-10 RMS, and 1.0D-09 maximum.
          NewPWx=F KeepS1=T KeepF1=T KeepIn=T MapXYZ=F SortEE=F KeepMc=T.
 Keep R1 ints in memory in symmetry-blocked form, NReq=348888868.
 FoFCou: FMM=F IPFlag=           0 FMFlag=           0 FMFlg1=           0
         NFxFlg=           0 DoJE=F BraDBF=F KetDBF=F FulRan=T
         wScrn=  0.000000 ICntrl=       600 IOpCl=  0 I1Cent=           0 NGrid=           0
         NMat0=    1 NMatS0=  21528 NMatT0=    0 NMatD0=    1 NMtDS0=    0 NMtDT0=    0
 Petite list used in FoFCou.
          MDV=   16106127360 using IRadAn=       5.
          Solving linear equations separately, MaxMat=       0.
          There are     1 degrees of freedom in the 1st order CPHF.  IDoFFX=0 NUNeed=     1.
 LinEq1:  Iter=  0 NonCon=     1 RMS=5.97D-03 Max=1.33D-01 NDo=     1
 AX will form     1 AO Fock derivatives at one time.
 LinEq1:  Iter=  1 NonCon=     1 RMS=1.91D-03 Max=3.82D-02 NDo=     1
 LinEq1:  Iter=  2 NonCon=     1 RMS=8.69D-04 Max=1.42D-02 NDo=     1
 LinEq1:  Iter=  3 NonCon=     1 RMS=3.87D-04 Max=7.78D-03 NDo=     1
 LinEq1:  Iter=  4 NonCon=     1 RMS=1.19D-04 Max=1.89D-03 NDo=     1
 LinEq1:  Iter=  5 NonCon=     1 RMS=4.49D-05 Max=7.13D-04 NDo=     1
 LinEq1:  Iter=  6 NonCon=     1 RMS=2.02D-05 Max=2.15D-04 NDo=     1
 LinEq1:  Iter=  7 NonCon=     1 RMS=8.16D-06 Max=1.55D-04 NDo=     1
 LinEq1:  Iter=  8 NonCon=     1 RMS=3.49D-06 Max=3.42D-05 NDo=     1
 LinEq1:  Iter=  9 NonCon=     1 RMS=9.49D-07 Max=1.32D-05 NDo=     1
 LinEq1:  Iter= 10 NonCon=     1 RMS=1.87D-07 Max=2.04D-06 NDo=     1
 LinEq1:  Iter= 11 NonCon=     1 RMS=3.47D-08 Max=3.40D-07 NDo=     1
 LinEq1:  Iter= 12 NonCon=     1 RMS=8.41D-09 Max=1.22D-07 NDo=     1
 LinEq1:  Iter= 13 NonCon=     1 RMS=1.53D-09 Max=2.43D-08 NDo=     1
 LinEq1:  Iter= 14 NonCon=     1 RMS=2.78D-10 Max=3.91D-09 NDo=     1
 LinEq1:  Iter= 15 NonCon=     0 RMS=5.03D-11 Max=5.49D-10 NDo=     1
 Linear equations converged to 1.000D-10 1.000D-09 after    15 iterations.
 End of Minotr F.D. properties file   721 does not exist.
 End of Minotr F.D. properties file   722 does not exist.
 End of Minotr F.D. properties file   788 does not exist.
 Leave Link 1002 at Mon Feb 14 21:58:35 2022, MaxMem= 16106127360 cpu:              54.6 elap:               4.0
 (Enter /sw/contrib/gaussian/g16/B01/g16/l601.exe)
 Copying SCF densities to generalized density rwf, IOpCl= 0 IROHF=0.

 **********************************************************************

            Population analysis using the MP2 Density.

 **********************************************************************

 Orbital symmetries:
       Occupied  (A') (A') (A') (A') (A') (A') (A') (A') (A') (A')
                 (A") (A') (A") (A') (A") (A')
       Virtual   (A') (A") (A') (A') (A') (A") (A') (A') (A") (A')
                 (A") (A') (A') (A') (A") (A') (A') (A") (A') (A')
                 (A') (A') (A') (A') (A") (A') (A') (A") (A') (A')
                 (A") (A') (A") (A') (A') (A") (A') (A') (A") (A')
                 (A") (A') (A") (A') (A') (A") (A') (A') (A") (A')
                 (A") (A') (A') (A') (A") (A') (A") (A') (A") (A')
                 (A') (A') (A") (A') (A') (A") (A') (A") (A') (A')
                 (A") (A') (A') (A") (A") (A') (A') (A") (A') (A')
                 (A') (A") (A') (A") (A') (A") (A') (A") (A') (A')
                 (A") (A') (A') (A") (A') (A") (A') (A") (A') (A')
                 (A") (A') (A") (A') (A') (A") (A') (A') (A") (A')
                 (A") (A') (A') (A') (A") (A') (A') (A') (A") (A')
                 (A") (A') (A") (A') (A') (A") (A") (A') (A") (A')
                 (A') (A') (A') (A") (A") (A") (A') (A') (A') (A')
                 (A") (A') (A") (A') (A') (A") (A') (A') (A') (A')
                 (A") (A') (A') (A") (A') (A") (A') (A") (A') (A")
                 (A') (A") (A') (A") (A') (A") (A") (A') (A") (A')
                 (A") (A') (A") (A') (A") (A') (A") (A") (A') (A')
                 (A') (A') (A') (A') (A') (A') (A') (A') (A') (A')
                 (A')
 The electronic state is 1-A'.
 Alpha  occ. eigenvalues --  -20.69126 -20.68441 -20.66056 -15.81297  -1.62384
 Alpha  occ. eigenvalues --   -1.49309  -1.25561  -0.94797  -0.77208  -0.75864
 Alpha  occ. eigenvalues --   -0.71119  -0.67937  -0.61982  -0.58850  -0.48643
 Alpha  occ. eigenvalues --   -0.47265
 Alpha virt. eigenvalues --    0.02961   0.07166   0.08577   0.10169   0.13362
 Alpha virt. eigenvalues --    0.13396   0.14404   0.15450   0.17827   0.19424
 Alpha virt. eigenvalues --    0.19983   0.20629   0.21978   0.23278   0.23732
 Alpha virt. eigenvalues --    0.26600   0.29338   0.30383   0.31030   0.34304
 Alpha virt. eigenvalues --    0.34948   0.38712   0.42167   0.43153   0.52723
 Alpha virt. eigenvalues --    0.52911   0.55839   0.58146   0.62582   0.63834
 Alpha virt. eigenvalues --    0.67450   0.68454   0.70584   0.71133   0.72375
 Alpha virt. eigenvalues --    0.72957   0.74473   0.79108   0.79198   0.81032
 Alpha virt. eigenvalues --    0.81259   0.83012   0.86816   0.90762   0.92183
 Alpha virt. eigenvalues --    0.92575   0.95687   0.97718   0.98419   1.01644
 Alpha virt. eigenvalues --    1.05152   1.05497   1.08174   1.11693   1.14019
 Alpha virt. eigenvalues --    1.18903   1.22077   1.23218   1.33866   1.35005
 Alpha virt. eigenvalues --    1.38616   1.45326   1.48791   1.50944   1.53764
 Alpha virt. eigenvalues --    1.56640   1.57930   1.61284   1.66308   1.66921
 Alpha virt. eigenvalues --    1.70318   1.79233   1.83081   1.83456   1.87762
 Alpha virt. eigenvalues --    1.90957   1.95612   1.99134   2.00640   2.07732
 Alpha virt. eigenvalues --    2.11952   2.13191   2.14850   2.22413   2.26316
 Alpha virt. eigenvalues --    2.26420   2.28918   2.31360   2.34213   2.38691
 Alpha virt. eigenvalues --    2.42335   2.42778   2.45368   2.46293   2.47589
 Alpha virt. eigenvalues --    2.50059   2.58863   2.59571   2.61906   2.62351
 Alpha virt. eigenvalues --    2.63267   2.66534   2.75709   2.82447   2.85376
 Alpha virt. eigenvalues --    2.88093   2.89065   2.92192   2.95642   3.02064
 Alpha virt. eigenvalues --    3.06821   3.12306   3.19638   3.22440   3.31429
 Alpha virt. eigenvalues --    3.34408   3.51462   3.64233   3.83835   3.84289
 Alpha virt. eigenvalues --    4.14749   4.16081   4.18275   4.25679   4.35002
 Alpha virt. eigenvalues --    4.39173   4.45690   4.52020   4.66081   4.70707
 Alpha virt. eigenvalues --    4.80450   4.82467   4.82927   4.89518   5.02272
 Alpha virt. eigenvalues --    5.07725   5.10206   5.14448   5.17879   5.24158
 Alpha virt. eigenvalues --    5.27210   5.30808   5.32868   5.35354   5.60260
 Alpha virt. eigenvalues --    5.67353   5.76757   5.81728   5.95489   6.16713
 Alpha virt. eigenvalues --    6.31930   6.33725   6.39594   6.49413   6.50549
 Alpha virt. eigenvalues --    6.61534   6.67237   6.70034   6.75823   6.76040
 Alpha virt. eigenvalues --    6.83246   6.89769   7.00804   7.04768   7.05145
 Alpha virt. eigenvalues --    7.08513   7.12353   7.14513   7.17931   7.22330
 Alpha virt. eigenvalues --    7.23989   7.30612   7.32493   7.34738   7.39776
 Alpha virt. eigenvalues --    7.42317   7.48384   7.60301   7.61558   7.62365
 Alpha virt. eigenvalues --    7.66331   7.78249   7.88517   8.08179   8.30585
 Alpha virt. eigenvalues --    8.40195   8.54433  13.37124  14.38500  15.15415
 Alpha virt. eigenvalues --   16.15156
          Condensed to atoms (all electrons):
               1          2          3          4          5
     1  H    0.589093   0.128210   0.020413   0.012262  -0.000623
     2  O    0.128210   8.313539  -0.165328  -0.089324   0.015291
     3  O    0.020413  -0.165328   8.461678  -0.130731  -0.038509
     4  N    0.012262  -0.089324  -0.130731   6.971010  -0.055518
     5  O   -0.000623   0.015291  -0.038509  -0.055518   8.272393
 Mulliken charges:
               1
     1  H    0.250645
     2  O   -0.202388
     3  O   -0.147524
     4  N    0.292300
     5  O   -0.193034
 Sum of Mulliken charges =   0.00000
 Mulliken charges with hydrogens summed into heavy atoms:
               1
     2  O    0.048258
     3  O   -0.147524
     4  N    0.292300
     5  O   -0.193034
 Electronic spatial extent (au):  <R**2>=            253.5401
 Charge=              0.0000 electrons
 Dipole moment (field-independent basis, Debye):
    X=              0.5095    Y=              1.3547    Z=              0.0000  Tot=              1.4474
 Quadrupole moment (field-independent basis, Debye-Ang):
   XX=            -22.4320   YY=            -18.6405   ZZ=            -22.0197
   XY=              3.2772   XZ=              0.0000   YZ=             -0.0000
 Traceless Quadrupole moment (field-independent basis, Debye-Ang):
   XX=             -1.4013   YY=              2.3903   ZZ=             -0.9890
   XY=              3.2772   XZ=              0.0000   YZ=             -0.0000
 Octapole moment (field-independent basis, Debye-Ang**2):
  XXX=              2.9591  YYY=             11.2071  ZZZ=              0.0000  XYY=              7.9177
  XXY=              6.6467  XXZ=              0.0000  XZZ=             -1.5918  YZZ=             -0.8591
  YYZ=              0.0000  XYZ=              0.0000
 Hexadecapole moment (field-independent basis, Debye-Ang**3):
 XXXX=           -159.4658 YYYY=            -89.4375 ZZZZ=            -18.2595 XXXY=            -36.5311
 XXXZ=              0.0000 YYYX=            -30.7699 YYYZ=             -0.0000 ZZZX=              0.0000
 ZZZY=             -0.0000 XXYY=            -33.9717 XXZZ=            -31.0851 YYZZ=            -20.5979
 XXYZ=             -0.0000 YYXZ=             -0.0000 ZZXY=            -15.0705
 N-N= 1.167062564199D+02 E-N=-8.955186883916D+02  KE= 2.801880929100D+02
 Symmetry A'   KE= 2.662205217759D+02
 Symmetry A"   KE= 1.396757113408D+01
 No NMR shielding tensors so no spin-rotation constants.
 Leave Link  601 at Mon Feb 14 21:58:35 2022, MaxMem= 16106127360 cpu:               5.2 elap:               0.2
 (Enter /sw/contrib/gaussian/g16/B01/g16/l9999.exe)
 1\1\GINC-N2218\SP\RMP2-FC\Aug-CC-pVTZ\H1N1O3\CGAVINH\14-Feb-2022\0\\#p
  SP mp2/aug-cc-pvtz density=current\\title\\0,1\H\O,1,0.96897556\O,2,1
 .4616537536,1,97.59494903\N,3,1.45878406,2,102.29752444,1,180.,0\O,4,1
 .17072885,3,109.06955123,2,180.,0\\Version=ES64L-G16RevB.01\State=1-A'
 \HF=-279.5011097\MP2=-280.4467091\RMSD=3.857e-09\Dipole=-0.1456608,0.,
 -0.5505028\Quadrupole=-1.5022613,-0.7352902,2.2375514,0.,2.10396,0.\PG
 =CS [SG(H1N1O3)]\\@


 BRING ME INTO THE COMPANY OF THOSE WHO SEEK TRUTH,
 AND DELIVER ME FROM THOSE WHO HAVE FOUND IT.
 Job cpu time:       0 days  0 hours  6 minutes 26.4 seconds.
 Elapsed time:       0 days  0 hours  0 minutes 17.8 seconds.
 File lengths (MBytes):  RWF=     22 Int=      0 D2E=      0 Chk=      8 Scr=      1
 Normal termination of Gaussian 16 at Mon Feb 14 21:58:35 2022.
