title                                                                   
SP        RMP2-FC                                                     Aug-CC-pVTZ         
Number of atoms                            I                5
Info1-9                                    I   N=           9
          33          24           0           0           0         110
           1           2           1
Full Title                                 C   N=           1
title       
Route                                      C   N=           4
#p SP mp2/aug-cc-pvtz density=current           
Charge                                     I                0
Multiplicity                               I                1
Number of electrons                        I               32
Number of alpha electrons                  I               16
Number of beta electrons                   I               16
Number of basis functions                  I              207
Number of independent functions            I              207
Number of point charges in /Mol/           I                0
Number of translation vectors              I                0
Atomic numbers                             I   N=           5
           1           8           8           7           8
Nuclear charges                            R   N=           5
  1.00000000E+00  8.00000000E+00  8.00000000E+00  7.00000000E+00  8.00000000E+00
Current cartesian coordinates              R   N=          15
 -4.22885963E+00  7.97877477E-01  3.26215526E-01 -3.02242526E+00 -5.33100711E-01
 -2.86571760E-02 -7.56191902E-01  1.02359356E+00 -3.78397132E-02  1.25263230E+00
 -8.63536857E-01  1.48095584E-02  3.21117136E+00  1.65367218E-01  1.27615850E-02
Number of symbols in /Mol/                 I                0
Force Field                                I                0
Atom Types                                 C   N=           5
                                                            
Int Atom Types                             I   N=           5
           0           0           0           0           0
MM charges                                 R   N=           5
  0.00000000E+00  0.00000000E+00  0.00000000E+00  0.00000000E+00  0.00000000E+00
Integer atomic weights                     I   N=           5
           1          16          16          14          16
Real atomic weights                        R   N=           5
  1.00782504E+00  1.59949146E+01  1.59949146E+01  1.40030740E+01  1.59949146E+01
Atom fragment info                         I   N=           5
           0           0           0           0           0
Atom residue num                           I   N=           5
           0           0           0           0           0
Nuclear spins                              I   N=           5
           1           0           0           2           0
Nuclear ZEff                               R   N=           5
 -1.00000000E+00 -5.60000000E+00 -5.60000000E+00 -4.55000000E+00 -5.60000000E+00
Nuclear ZNuc                               R   N=           5
  1.00000000E+00  8.00000000E+00  8.00000000E+00  7.00000000E+00  8.00000000E+00
Nuclear QMom                               R   N=           5
  0.00000000E+00  0.00000000E+00  0.00000000E+00  2.04400000E+00  0.00000000E+00
Nuclear GFac                               R   N=           5
  2.79284600E+00  0.00000000E+00  0.00000000E+00  4.03761000E-01  0.00000000E+00
MicOpt                                     I   N=           5
          -1          -1          -1          -1          -1
Number of residues                         I                0
Number of secondary structures             I                0
SymInf integers                            I   N=          26
           1           1           1           1           1           0
           0           0           0           0           0           0
           0           0           0           0           0           0
           0           0           0           0           0           0
           0           0
RotTr to input orientation                 R   N=          12
  7.43708755E-01  1.13150559E-01  6.58858284E-01  6.68125956E-01 -1.58939041E-01
 -7.26874190E-01  2.24720832E-02  9.80783020E-01 -1.93803182E-01  2.60462654E+00
  2.85365063E-01  3.42939735E+00
Number of contracted shells                I               65
Number of primitive shells                 I              119
Pure/Cartesian d shells                    I                0
Pure/Cartesian f shells                    I                0
Highest angular momentum                   I                3
Largest degree of contraction              I                7
Shell types                                I   N=          65
           0           0           0           0           1           1
           1          -2          -2           0           0           0
           0           0           1           1           1           1
          -2          -2          -2          -3          -3           0
           0           0           0           0           1           1
           1           1          -2          -2          -2          -3
          -3           0           0           0           0           0
           1           1           1           1          -2          -2
          -2          -3          -3           0           0           0
           0           0           1           1           1           1
          -2          -2          -2          -3          -3
Number of primitives per shell             I   N=          65
           3           1           1           1           1           1
           1           1           1           7           6           1
           1           1           3           1           1           1
           1           1           1           1           1           7
           6           1           1           1           3           1
           1           1           1           1           1           1
           1           7           6           1           1           1
           3           1           1           1           1           1
           1           1           1           7           6           1
           1           1           3           1           1           1
           1           1           1           1           1
Shell to atom map                          I   N=          65
           1           1           1           1           1           1
           1           1           1           2           2           2
           2           2           2           2           2           2
           2           2           2           2           2           3
           3           3           3           3           3           3
           3           3           3           3           3           3
           3           4           4           4           4           4
           4           4           4           4           4           4
           4           4           4           5           5           5
           5           5           5           5           5           5
           5           5           5           5           5
Primitive exponents                        R   N=         119
  3.38700000E+01  5.09500000E+00  1.15900000E+00  3.25800000E-01  1.02700000E-01
  2.52600000E-02  1.40700000E+00  3.88000000E-01  1.02000000E-01  1.05700000E+00
  2.47000000E-01  1.53300000E+04  2.29900000E+03  5.22400000E+02  1.47300000E+02
  4.75500000E+01  1.67600000E+01  6.20700000E+00  5.22400000E+02  1.47300000E+02
  4.75500000E+01  1.67600000E+01  6.20700000E+00  6.88200000E-01  1.75200000E+00
  2.38400000E-01  7.37600000E-02  3.44600000E+01  7.74900000E+00  2.28000000E+00
  7.15600000E-01  2.14000000E-01  5.97400000E-02  2.31400000E+00  6.45000000E-01
  2.14000000E-01  1.42800000E+00  5.00000000E-01  1.53300000E+04  2.29900000E+03
  5.22400000E+02  1.47300000E+02  4.75500000E+01  1.67600000E+01  6.20700000E+00
  5.22400000E+02  1.47300000E+02  4.75500000E+01  1.67600000E+01  6.20700000E+00
  6.88200000E-01  1.75200000E+00  2.38400000E-01  7.37600000E-02  3.44600000E+01
  7.74900000E+00  2.28000000E+00  7.15600000E-01  2.14000000E-01  5.97400000E-02
  2.31400000E+00  6.45000000E-01  2.14000000E-01  1.42800000E+00  5.00000000E-01
  1.14200000E+04  1.71200000E+03  3.89300000E+02  1.10000000E+02  3.55700000E+01
  1.25400000E+01  4.64400000E+00  3.89300000E+02  1.10000000E+02  3.55700000E+01
  1.25400000E+01  4.64400000E+00  5.11800000E-01  1.29300000E+00  1.78700000E-01
  5.76000000E-02  2.66300000E+01  5.94800000E+00  1.74200000E+00  5.55000000E-01
  1.72500000E-01  4.91000000E-02  1.65400000E+00  4.69000000E-01  1.51000000E-01
  1.09300000E+00  3.64000000E-01  1.53300000E+04  2.29900000E+03  5.22400000E+02
  1.47300000E+02  4.75500000E+01  1.67600000E+01  6.20700000E+00  5.22400000E+02
  1.47300000E+02  4.75500000E+01  1.67600000E+01  6.20700000E+00  6.88200000E-01
  1.75200000E+00  2.38400000E-01  7.37600000E-02  3.44600000E+01  7.74900000E+00
  2.28000000E+00  7.15600000E-01  2.14000000E-01  5.97400000E-02  2.31400000E+00
  6.45000000E-01  2.14000000E-01  1.42800000E+00  5.00000000E-01
Contraction coefficients                   R   N=         119
  2.54948632E-02  1.90362766E-01  8.52162022E-01  1.00000000E+00  1.00000000E+00
  1.00000000E+00  1.00000000E+00  1.00000000E+00  1.00000000E+00  1.00000000E+00
  1.00000000E+00  5.19808943E-04  4.02025621E-03  2.07128267E-02  8.10105536E-02
  2.35962985E-01  4.42653446E-01  3.57064423E-01 -4.42115008E-05 -1.22591041E-03
 -1.05517725E-02 -6.74452633E-02 -1.71198607E-01  1.07329856E+00  1.00000000E+00
  1.00000000E+00  1.00000000E+00  4.11634896E-02  2.57762836E-01  8.02419274E-01
  1.00000000E+00  1.00000000E+00  1.00000000E+00  1.00000000E+00  1.00000000E+00
  1.00000000E+00  1.00000000E+00  1.00000000E+00  5.19808943E-04  4.02025621E-03
  2.07128267E-02  8.10105536E-02  2.35962985E-01  4.42653446E-01  3.57064423E-01
 -4.42115008E-05 -1.22591041E-03 -1.05517725E-02 -6.74452633E-02 -1.71198607E-01
  1.07329856E+00  1.00000000E+00  1.00000000E+00  1.00000000E+00  4.11634896E-02
  2.57762836E-01  8.02419274E-01  1.00000000E+00  1.00000000E+00  1.00000000E+00
  1.00000000E+00  1.00000000E+00  1.00000000E+00  1.00000000E+00  1.00000000E+00
  5.34563860E-04  4.13435660E-03  2.12335358E-02  8.25006224E-02  2.38138871E-01
  4.42551547E-01  3.53757422E-01 -4.89867350E-05 -1.19527323E-03 -1.03490714E-02
 -6.48680190E-02 -1.71552477E-01  1.07289568E+00  1.00000000E+00  1.00000000E+00
  1.00000000E+00  3.98072123E-02  2.49002660E-01  8.10479727E-01  1.00000000E+00
  1.00000000E+00  1.00000000E+00  1.00000000E+00  1.00000000E+00  1.00000000E+00
  1.00000000E+00  1.00000000E+00  5.19808943E-04  4.02025621E-03  2.07128267E-02
  8.10105536E-02  2.35962985E-01  4.42653446E-01  3.57064423E-01 -4.42115008E-05
 -1.22591041E-03 -1.05517725E-02 -6.74452633E-02 -1.71198607E-01  1.07329856E+00
  1.00000000E+00  1.00000000E+00  1.00000000E+00  4.11634896E-02  2.57762836E-01
  8.02419274E-01  1.00000000E+00  1.00000000E+00  1.00000000E+00  1.00000000E+00
  1.00000000E+00  1.00000000E+00  1.00000000E+00  1.00000000E+00
Coordinates of each shell                  R   N=         195
 -4.22885963E+00  7.97877477E-01  3.26215526E-01 -4.22885963E+00  7.97877477E-01
  3.26215526E-01 -4.22885963E+00  7.97877477E-01  3.26215526E-01 -4.22885963E+00
  7.97877477E-01  3.26215526E-01 -4.22885963E+00  7.97877477E-01  3.26215526E-01
 -4.22885963E+00  7.97877477E-01  3.26215526E-01 -4.22885963E+00  7.97877477E-01
  3.26215526E-01 -4.22885963E+00  7.97877477E-01  3.26215526E-01 -4.22885963E+00
  7.97877477E-01  3.26215526E-01 -3.02242526E+00 -5.33100711E-01 -2.86571760E-02
 -3.02242526E+00 -5.33100711E-01 -2.86571760E-02 -3.02242526E+00 -5.33100711E-01
 -2.86571760E-02 -3.02242526E+00 -5.33100711E-01 -2.86571760E-02 -3.02242526E+00
 -5.33100711E-01 -2.86571760E-02 -3.02242526E+00 -5.33100711E-01 -2.86571760E-02
 -3.02242526E+00 -5.33100711E-01 -2.86571760E-02 -3.02242526E+00 -5.33100711E-01
 -2.86571760E-02 -3.02242526E+00 -5.33100711E-01 -2.86571760E-02 -3.02242526E+00
 -5.33100711E-01 -2.86571760E-02 -3.02242526E+00 -5.33100711E-01 -2.86571760E-02
 -3.02242526E+00 -5.33100711E-01 -2.86571760E-02 -3.02242526E+00 -5.33100711E-01
 -2.86571760E-02 -3.02242526E+00 -5.33100711E-01 -2.86571760E-02 -7.56191902E-01
  1.02359356E+00 -3.78397132E-02 -7.56191902E-01  1.02359356E+00 -3.78397132E-02
 -7.56191902E-01  1.02359356E+00 -3.78397132E-02 -7.56191902E-01  1.02359356E+00
 -3.78397132E-02 -7.56191902E-01  1.02359356E+00 -3.78397132E-02 -7.56191902E-01
  1.02359356E+00 -3.78397132E-02 -7.56191902E-01  1.02359356E+00 -3.78397132E-02
 -7.56191902E-01  1.02359356E+00 -3.78397132E-02 -7.56191902E-01  1.02359356E+00
 -3.78397132E-02 -7.56191902E-01  1.02359356E+00 -3.78397132E-02 -7.56191902E-01
  1.02359356E+00 -3.78397132E-02 -7.56191902E-01  1.02359356E+00 -3.78397132E-02
 -7.56191902E-01  1.02359356E+00 -3.78397132E-02 -7.56191902E-01  1.02359356E+00
 -3.78397132E-02  1.25263230E+00 -8.63536857E-01  1.48095584E-02  1.25263230E+00
 -8.63536857E-01  1.48095584E-02  1.25263230E+00 -8.63536857E-01  1.48095584E-02
  1.25263230E+00 -8.63536857E-01  1.48095584E-02  1.25263230E+00 -8.63536857E-01
  1.48095584E-02  1.25263230E+00 -8.63536857E-01  1.48095584E-02  1.25263230E+00
 -8.63536857E-01  1.48095584E-02  1.25263230E+00 -8.63536857E-01  1.48095584E-02
  1.25263230E+00 -8.63536857E-01  1.48095584E-02  1.25263230E+00 -8.63536857E-01
  1.48095584E-02  1.25263230E+00 -8.63536857E-01  1.48095584E-02  1.25263230E+00
 -8.63536857E-01  1.48095584E-02  1.25263230E+00 -8.63536857E-01  1.48095584E-02
  1.25263230E+00 -8.63536857E-01  1.48095584E-02  3.21117136E+00  1.65367218E-01
  1.27615850E-02  3.21117136E+00  1.65367218E-01  1.27615850E-02  3.21117136E+00
  1.65367218E-01  1.27615850E-02  3.21117136E+00  1.65367218E-01  1.27615850E-02
  3.21117136E+00  1.65367218E-01  1.27615850E-02  3.21117136E+00  1.65367218E-01
  1.27615850E-02  3.21117136E+00  1.65367218E-01  1.27615850E-02  3.21117136E+00
  1.65367218E-01  1.27615850E-02  3.21117136E+00  1.65367218E-01  1.27615850E-02
  3.21117136E+00  1.65367218E-01  1.27615850E-02  3.21117136E+00  1.65367218E-01
  1.27615850E-02  3.21117136E+00  1.65367218E-01  1.27615850E-02  3.21117136E+00
  1.65367218E-01  1.27615850E-02  3.21117136E+00  1.65367218E-01  1.27615850E-02
Num ILSW                                   I              100
ILSW                                       I   N=         100
           0           0           0           0           2           0
           0           0           0           0           0          -1
           5           0           0           0           0           0
           0           0           0           0           0           0
           1           0           0           0           0           0
           0           0      100000           0          -1           0
           0           0           0           0           0           0
           0           0           0           1           0           0
           0 -2000000000           1           0           0           0
           0           0           4          52           0           0
           0           0           0           0           0           0
           0           0           0           5           0           1
           0           0           0           0           0           0
           0           0           0           0           0           0
           0           0           0           0           0           0
           0           0           0           0           0           0
           0           0           0           0
Num RLSW                                   I               52
RLSW                                       R   N=          52
  1.00000000E+00  1.00000000E+00  1.00000000E+00  1.00000000E+00  1.00000000E+00
  0.00000000E+00  0.00000000E+00  1.00000000E+00  0.00000000E+00  0.00000000E+00
  0.00000000E+00  0.00000000E+00  1.00000000E+00  0.00000000E+00  0.00000000E+00
  0.00000000E+00  0.00000000E+00  1.00000000E+00  0.00000000E+00  0.00000000E+00
  0.00000000E+00  0.00000000E+00  1.00000000E+00  0.00000000E+00  0.00000000E+00
  0.00000000E+00  0.00000000E+00  1.00000000E+00  0.00000000E+00  0.00000000E+00
  0.00000000E+00  0.00000000E+00  1.00000000E+00  0.00000000E+00  0.00000000E+00
  0.00000000E+00  0.00000000E+00  0.00000000E+00  1.00000000E+00  1.00000000E+00
  0.00000000E+00  1.00000000E+00  0.00000000E+00  0.00000000E+00  0.00000000E+00
  0.00000000E+00  0.00000000E+00  0.00000000E+00  0.00000000E+00  0.00000000E+00
  0.00000000E+00  0.00000000E+00
MxBond                                     I                2
NBond                                      I   N=           5
           1           2           2           2           1
IBond                                      I   N=          10
           2           0           1           3           2           4
           3           5           4           0
RBond                                      R   N=          10
  1.00000000E+00  0.00000000E+00  1.00000000E+00  1.00000000E+00  1.00000000E+00
  1.00000000E+00  1.00000000E+00  2.00000000E+00  2.00000000E+00  0.00000000E+00
Virial Ratio                               R      2.002353392051092E+00
SCF Energy                                 R     -2.795018194692641E+02
MP2 Energy                                 R     -2.804469133598173E+02
Total Energy                               R     -2.804469133598173E+02
Post-SCF wavefunction norm                 R      1.120229895659995E+00
RMS Density                                R      5.062984726272259E-09
Job Status                                 I                1
Nuclear derivative order                   I                0
External E-field                           R   N=          35
  0.00000000E+00  0.00000000E+00  0.00000000E+00  0.00000000E+00  0.00000000E+00
  0.00000000E+00  0.00000000E+00  0.00000000E+00  0.00000000E+00  0.00000000E+00
  0.00000000E+00  0.00000000E+00  0.00000000E+00  0.00000000E+00  0.00000000E+00
  0.00000000E+00  0.00000000E+00  0.00000000E+00  0.00000000E+00  0.00000000E+00
  0.00000000E+00  0.00000000E+00  0.00000000E+00  0.00000000E+00  0.00000000E+00
  0.00000000E+00  0.00000000E+00  0.00000000E+00  0.00000000E+00  0.00000000E+00
  0.00000000E+00  0.00000000E+00  0.00000000E+00  0.00000000E+00  0.00000000E+00
IOpCl                                      I                0
IROHF                                      I                0
Alpha Orbital Energies                     R   N=         207
 -2.06910634E+01 -2.06842585E+01 -2.06601503E+01 -1.58126894E+01 -1.62402613E+00
 -1.49584124E+00 -1.25443863E+00 -9.48091436E-01 -7.72480135E-01 -7.59508776E-01
 -7.12994070E-01 -6.78737647E-01 -6.19822999E-01 -5.88739477E-01 -4.87137708E-01
 -4.71619275E-01  2.95784582E-02  7.16422398E-02  8.59238986E-02  1.01755631E-01
  1.32293244E-01  1.35056565E-01  1.43878845E-01  1.54437454E-01  1.78099076E-01
  1.94085693E-01  1.99180634E-01  2.06651538E-01  2.20798658E-01  2.35349899E-01
  2.37241204E-01  2.67085048E-01  2.92163705E-01  2.99709941E-01  3.12032581E-01
  3.43492194E-01  3.54452232E-01  3.87592670E-01  4.15900164E-01  4.28910573E-01
  5.27149993E-01  5.31256575E-01  5.58608612E-01  5.80872662E-01  6.25966964E-01
  6.38102187E-01  6.73410381E-01  6.83497146E-01  7.06896266E-01  7.13381768E-01
  7.18770440E-01  7.32666501E-01  7.48444310E-01  7.85170719E-01  7.93821446E-01
  8.10644396E-01  8.14545122E-01  8.34631523E-01  8.67561304E-01  9.08362114E-01
  9.15113444E-01  9.34369836E-01  9.55067482E-01  9.70886601E-01  9.88631918E-01
  1.01523623E+00  1.05426898E+00  1.06007152E+00  1.08414905E+00  1.11280181E+00
  1.12765449E+00  1.19994181E+00  1.21852866E+00  1.23446523E+00  1.33638714E+00
  1.35098955E+00  1.38936432E+00  1.45593502E+00  1.49336308E+00  1.50812108E+00
  1.53684069E+00  1.56731514E+00  1.58111592E+00  1.60173923E+00  1.66312928E+00
  1.66706622E+00  1.70658350E+00  1.78821648E+00  1.82925706E+00  1.83742926E+00
  1.88163116E+00  1.90403938E+00  1.95624357E+00  1.98164376E+00  2.02946341E+00
  2.07751484E+00  2.11419478E+00  2.12680014E+00  2.15667210E+00  2.22072173E+00
  2.25695920E+00  2.27273656E+00  2.28651903E+00  2.31193907E+00  2.34341246E+00
  2.38799543E+00  2.40260895E+00  2.44943984E+00  2.45358760E+00  2.46716326E+00
  2.47889141E+00  2.50769974E+00  2.58934249E+00  2.59880107E+00  2.61830894E+00
  2.62695168E+00  2.63852916E+00  2.66510030E+00  2.74922163E+00  2.82962352E+00
  2.84546478E+00  2.88741598E+00  2.90175368E+00  2.91606266E+00  2.96033812E+00
  3.02025313E+00  3.07734247E+00  3.11926869E+00  3.20449930E+00  3.22965007E+00
  3.31585718E+00  3.34053353E+00  3.51277440E+00  3.64879608E+00  3.83715610E+00
  3.84951732E+00  4.13406992E+00  4.16510130E+00  4.20524648E+00  4.25366290E+00
  4.33837716E+00  4.39372265E+00  4.47761878E+00  4.52530604E+00  4.64905424E+00
  4.71109984E+00  4.80387247E+00  4.82194995E+00  4.82595142E+00  4.89719084E+00
  5.02251766E+00  5.07157018E+00  5.10063821E+00  5.14604684E+00  5.18386155E+00
  5.25153413E+00  5.27155033E+00  5.30320757E+00  5.33045927E+00  5.35116200E+00
  5.59824975E+00  5.67359585E+00  5.75975006E+00  5.83300688E+00  5.95404214E+00
  6.16978636E+00  6.31229918E+00  6.34255410E+00  6.39204148E+00  6.49440866E+00
  6.50505364E+00  6.62375796E+00  6.65277023E+00  6.70678580E+00  6.74624103E+00
  6.77013447E+00  6.83555805E+00  6.89830730E+00  7.01088680E+00  7.05408969E+00
  7.05805531E+00  7.09502470E+00  7.12773846E+00  7.14558049E+00  7.19059859E+00
  7.22494690E+00  7.23763985E+00  7.30324987E+00  7.32200264E+00  7.35800498E+00
  7.39039621E+00  7.42796847E+00  7.48644817E+00  7.60610477E+00  7.61811549E+00
  7.63420824E+00  7.67641721E+00  7.78415304E+00  7.88347327E+00  8.09127131E+00
  8.31059401E+00  8.39796905E+00  8.54048457E+00  1.33836915E+01  1.44015369E+01
  1.51604671E+01  1.61499097E+01
Alpha MO coefficients                      R   N=       42849
  8.68041901E-05 -5.32160475E-04 -6.79754900E-04 -5.39455088E-06  3.41617805E-05
 -9.25927335E-06 -1.64789488E-05  2.94708049E-05  6.13640663E-05  2.73067548E-05
 -6.99164855E-05 -1.68341233E-05  4.18126206E-05  3.14270014E-05 -3.35995617E-06
  3.16075484E-07  7.86697415E-06 -5.65691657E-05 -2.51670030E-06 -1.17022479E-05
  1.69055785E-05  7.67916054E-05 -1.58766422E-04  4.58732116E-03 -2.80476390E-04
  1.53645489E-05  1.49743476E-03  1.80268505E-03 -9.01737671E-05 -5.65468111E-05
  3.59459373E-06  5.21342557E-04  3.31851980E-04 -1.89532312E-05  4.74606775E-04
  1.23198758E-03  5.62640707E-05  2.72166054E-04  2.91928821E-04  5.62532440E-06
  2.87020132E-05  2.09114779E-06 -6.31665351E-07 -1.07810192E-05 -5.37937151E-05
 -3.76190259E-04 -4.37295855E-06 -1.10355465E-05  1.89865856E-04  7.23896137E-04
 -4.27248140E-04 -6.59110848E-05  2.52947966E-05  7.29921103E-05  2.65095394E-04
  9.28995650E-06 -6.91495675E-05 -3.91577553E-05 -2.25400791E-06  7.23626107E-06
 -3.36475392E-05  1.04930231E-04 -2.23824794E-05 -1.99175907E-04 -1.67917033E-04
  1.75339940E-05 -1.54140115E-05 -1.66113660E-04  3.15995387E-04  9.76912273E-01
 -9.21489863E-03  4.33168753E-02  2.04721893E-03 -9.61518012E-04 -3.96343968E-04
 -1.97771731E-03  5.65664497E-05  3.32762315E-04  1.96617223E-03 -5.06507346E-05
  6.34968630E-04 -9.75855460E-04  2.31857123E-05  1.48777162E-04  7.57806933E-05
  7.77617581E-06  4.67144630E-05 -2.26026787E-06  1.25322140E-06  9.55213055E-06
 -3.95248564E-05  7.44850939E-04 -5.99379557E-06  1.85365486E-05 -4.38828586E-04
 -1.11124939E-04 -3.50316067E-04 -2.57674730E-05 -2.08870586E-06 -4.53970859E-04
 -1.85787598E-04  4.82712212E-06 -8.50017933E-06 -6.79637155E-05 -1.65989229E-06
  1.51882498E-06  1.07771109E-06  4.23993880E-05 -3.09581304E-06 -3.52516711E-05
  4.34874346E-06  6.45102918E-06 -1.39923401E-07  3.24871327E-05  3.33275989E-04
  3.85320261E-05  4.24530929E-05 -2.65071482E-04 -6.74613881E-04 -9.66628326E-05
  7.98750961E-05 -6.22440740E-05  2.93588747E-06 -6.42876540E-04  4.08359530E-04
 -1.95913152E-05  1.01149611E-03  1.13624847E-04  1.29844096E-05  9.72108251E-05
  6.03397075E-05 -9.45024726E-06 -1.82656969E-05  2.52055367E-06 -1.34062442E-06
  5.57404143E-06 -3.29092845E-05 -3.27575881E-04  7.68760089E-06 -2.15475026E-05
 -1.16775369E-04 -8.27445886E-04 -4.21072943E-05 -3.51054502E-05 -3.18072947E-06
 -7.51745618E-05  1.45754704E-04  6.54371742E-06  8.80286415E-05 -8.37858826E-05
  3.15962771E-07  7.90383337E-06  1.08490986E-04  1.04872574E-04  6.73487673E-06
  8.39857166E-05 -1.23386017E-04  8.67787154E-06  6.20588792E-06  4.13392555E-04
  9.78315940E-05 -2.49166749E-03  1.21578713E-04 -1.20237255E-04 -2.93964376E-04
  1.01693355E-04  2.27312792E-05 -1.80309216E-05  5.39850985E-07 -1.51773573E-04
  9.33759132E-05 -2.92218063E-06 -3.05877000E-04  3.51209166E-05  2.74079829E-05
 -1.03590584E-04 -6.47942050E-05  7.36784126E-06 -3.35843861E-06  1.09862497E-06
 -5.42945728E-07 -4.45192949E-06 -1.73991323E-05  6.29148141E-07 -5.29324413E-06
  2.76516997E-06  1.09786867E-04  5.01258713E-05 -1.03585752E-04 -8.93045262E-06
 -4.35773271E-06  2.09407956E-04  1.12234710E-04  1.85051098E-07 -1.07257112E-05
 -1.23097427E-05  4.29040661E-07  3.21182290E-07  1.00237457E-05  8.24959010E-06
 -4.21769126E-06  1.11296950E-06  5.66766285E-05  3.08991429E-06 -2.14036387E-06
 -5.83552476E-05 -1.10122537E-04  3.59645053E-05 -9.29093610E-04 -4.59791727E-04
 -1.11318264E-05  6.98703156E-06  2.44102923E-05 -1.91122335E-06 -1.45544667E-04
  2.00349638E-04  5.88402231E-05 -3.93562455E-05  1.26025512E-04  3.38043701E-05
  2.28185945E-05 -1.17925806E-06 -1.20134512E-05  1.16794481E-05  6.68285173E-06
 -2.75125580E-05  4.65565847E-06  3.22203204E-06  3.65513634E-05 -3.16159877E-07
  1.12709492E-04  8.35180836E-05 -2.73089153E-05  7.04006785E-04  6.23652261E-04
 -1.04110349E-05 -3.39471006E-06 -2.38239051E-06  5.53246528E-05  4.95333073E-05
  1.83688335E-05 -7.66925422E-04  4.86289624E-04  1.19454305E-04 -5.35766567E-05
  5.86188444E-05  7.37672735E-06 -2.55170360E-06  1.16074482E-06 -1.13106600E-06
 -5.50741950E-06  1.66443283E-06 -2.94773282E-05 -1.60962619E-05  1.60737370E-05
  7.24819541E-05 -3.79075005E-05 -7.18266109E-06 -4.72189842E-05  4.91097783E-05
 -2.27280456E-04 -1.93182781E-04  1.13662640E-06 -1.07194666E-05 -7.49538252E-07
  6.22092709E-07  8.76907872E-07  1.82463453E-05  3.55326952E-06 -1.43626022E-05
  4.94955338E-05 -2.15634465E-06  2.68690241E-06 -1.38160858E-05 -4.43303743E-05
  6.19269507E-05  2.53093760E-03  4.11646122E-05  8.72343984E-05 -6.69647884E-05
 -4.72861172E-04 -1.49567851E-05  8.81533421E-06 -7.49037497E-07  8.12937887E-05
 -9.47483762E-06  2.95420978E-06 -8.06800585E-05 -2.82741358E-04 -2.64467486E-05
  1.87120067E-04  6.31534746E-05 -1.01521856E-05 -8.83109555E-06  5.42290266E-07
  1.23442437E-07  2.55194321E-05  1.54932056E-05  4.44913580E-06 -9.33210448E-07
 -1.24794675E-06 -7.87914084E-05 -9.78741805E-05 -5.28940783E-06  1.60103250E-05
  5.38069319E-06 -2.56176619E-04 -1.52344313E-04 -1.44275629E-07 -2.04524854E-06
 -2.39565439E-06 -4.92159500E-07  8.30748370E-07  1.31110257E-05  3.04733265E-06
  8.17987955E-07  3.43145531E-05  3.02011344E-05 -6.43129881E-07 -5.09932873E-06
 -2.01064353E-04  8.84127208E-06  2.58451996E-04  1.46337091E-03 -7.86761586E-05
 -1.52648554E-03  4.10637277E-04  1.16336489E-04  8.59090048E-05 -1.62669319E-07
  1.91780210E-03  9.16297831E-04 -3.06459715E-06 -1.28020677E-03  4.00725658E-06
 -8.90946780E-06  1.01583779E-04  1.48964567E-04  1.40996884E-06 -1.23394114E-04
 -1.14025953E-07  7.46362823E-07  1.61186845E-04  2.04543557E-04 -4.42646955E-04
 -1.11782615E-05 -3.50161631E-06  2.03126839E-04  8.79494203E-04  1.05384836E-05
 -1.97873077E-05 -8.12251729E-06 -2.19607307E-04 -2.80064822E-04 -5.95234575E-07
 -7.93353755E-06  1.30227300E-05 -2.87734538E-07 -5.62345474E-07 -6.53464936E-06
 -2.20270602E-05  3.90135734E-06 -9.10448484E-05 -1.55262978E-04  3.31471152E-06
 -4.34762267E-06 -1.18667435E-04  2.13999271E-04  9.76649545E-01 -9.84783722E-03
  4.35678226E-02  4.48576129E-03 -4.49551106E-04 -2.01309771E-03 -8.89735633E-04
 -7.24938009E-07  2.27618957E-03  9.32768098E-04  1.56007124E-06 -9.09283499E-04
 -6.85021925E-04  1.96844542E-05  2.23243571E-05 -3.89582233E-05  4.42815048E-06
 -2.32296191E-04  2.26854342E-06 -5.44382027E-06  6.06574636E-05  8.87267688E-05
  3.90580615E-04 -1.00183350E-06 -3.80409319E-06 -6.45274661E-04 -6.73680995E-04
 -1.54418502E-04 -3.62338063E-06 -6.09623955E-06  8.98883298E-05  2.42750941E-04
 -6.94047588E-07 -5.25195406E-05 -1.69100045E-05  8.45292361E-07 -1.12512379E-06
  5.17946163E-06  2.54226350E-05  1.34797101E-06 -1.16569914E-04 -7.42405656E-05
 -1.82698541E-07  2.72036225E-06  7.00184222E-05  2.24654219E-04  4.71218185E-04
  2.10084079E-03  1.54687118E-04  1.43870301E-05  1.78593813E-04 -1.68396681E-04
 -5.54778599E-05  6.60304021E-04 -1.07796839E-03 -2.50698366E-04 -3.26497314E-05
 -4.47362732E-04 -3.72266653E-05 -2.39120346E-06  6.98345113E-06 -3.78817269E-06
  3.84301556E-05  6.46147867E-05 -1.34106933E-04 -9.86210629E-05  1.18808783E-04
 -1.73522020E-04 -4.88691881E-04  9.76830695E-01 -9.16314279E-03  4.34486312E-02
  1.40506044E-04 -1.16790346E-03  4.17433478E-04  2.06389022E-03  3.05307600E-04
 -5.17254371E-04 -1.95083879E-03 -2.82663990E-04  9.81585797E-04 -3.62975542E-04
 -1.23256074E-04 -4.28088109E-05 -5.44383053E-05  5.01193062E-07  3.17511798E-05
 -5.34221908E-06  1.07185065E-05 -3.72977366E-05 -1.10609189E-04  7.25040196E-04
  1.38440381E-04 -1.41106056E-04 -2.85944756E-04 -1.41434654E-04 -2.66436325E-04
  3.63404386E-05 -3.84038326E-06  1.75912529E-04  1.38227575E-04  6.30346127E-06
  5.08783454E-05  3.72559869E-05  8.20306646E-06  2.07202519E-06 -2.44998811E-06
 -2.24771190E-05  3.39315066E-05 -6.03211755E-05  8.93504724E-05 -1.14648306E-05
  5.02517079E-05  2.29227204E-07 -2.65334881E-04 -4.67853108E-03 -2.07158868E-04