 Entering Gaussian System, Link 0=g16
 Input=hoono_r3_1p488294.gjf
 Output=hoono_r3_1p488294.log
 Initial command:
 /sw/contrib/gaussian/g16/B01/g16/l1.exe "/scr/Gau-1368.inp" -scrdir="/scr/"
 Entering Link 1 = /sw/contrib/gaussian/g16/B01/g16/l1.exe PID=      1369.
  
 Copyright (c) 1988-2017, Gaussian, Inc.  All Rights Reserved.
  
 This is part of the Gaussian(R) 16 program.  It is based on
 the Gaussian(R) 09 system (copyright 2009, Gaussian, Inc.),
 the Gaussian(R) 03 system (copyright 2003, Gaussian, Inc.),
 the Gaussian(R) 98 system (copyright 1998, Gaussian, Inc.),
 the Gaussian(R) 94 system (copyright 1995, Gaussian, Inc.),
 the Gaussian 92(TM) system (copyright 1992, Gaussian, Inc.),
 the Gaussian 90(TM) system (copyright 1990, Gaussian, Inc.),
 the Gaussian 88(TM) system (copyright 1988, Gaussian, Inc.),
 the Gaussian 86(TM) system (copyright 1986, Carnegie Mellon
 University), and the Gaussian 82(TM) system (copyright 1983,
 Carnegie Mellon University). Gaussian is a federally registered
 trademark of Gaussian, Inc.
  
 This software contains proprietary and confidential information,
 including trade secrets, belonging to Gaussian, Inc.
  
 This software is provided under written license and may be
 used, copied, transmitted, or stored only in accord with that
 written license.
  
 The following legend is applicable only to US Government
 contracts under FAR:
  
                    RESTRICTED RIGHTS LEGEND
  
 Use, reproduction and disclosure by the US Government is
 subject to restrictions as set forth in subparagraphs (a)
 and (c) of the Commercial Computer Software - Restricted
 Rights clause in FAR 52.227-19.
  
 Gaussian, Inc.
 340 Quinnipiac St., Bldg. 40, Wallingford CT 06492
  
  
 ---------------------------------------------------------------
 Warning -- This program may not be used in any manner that
 competes with the business of Gaussian, Inc. or will provide
 assistance to any competitor of Gaussian, Inc.  The licensee
 of this program is prohibited from giving any competitor of
 Gaussian, Inc. access to this program.  By using this program,
 the user acknowledges that Gaussian, Inc. is engaged in the
 business of creating and licensing software in the field of
 computational chemistry and represents and warrants to the
 licensee that it is not a competitor of Gaussian, Inc. and that
 it will not use this program in any manner prohibited above.
 ---------------------------------------------------------------
  

 Cite this work as:
 Gaussian 16, Revision B.01,
 M. J. Frisch, G. W. Trucks, H. B. Schlegel, G. E. Scuseria, 
 M. A. Robb, J. R. Cheeseman, G. Scalmani, V. Barone, 
 G. A. Petersson, H. Nakatsuji, X. Li, M. Caricato, A. V. Marenich, 
 J. Bloino, B. G. Janesko, R. Gomperts, B. Mennucci, H. P. Hratchian, 
 J. V. Ortiz, A. F. Izmaylov, J. L. Sonnenberg, D. Williams-Young, 
 F. Ding, F. Lipparini, F. Egidi, J. Goings, B. Peng, A. Petrone, 
 T. Henderson, D. Ranasinghe, V. G. Zakrzewski, J. Gao, N. Rega, 
 G. Zheng, W. Liang, M. Hada, M. Ehara, K. Toyota, R. Fukuda, 
 J. Hasegawa, M. Ishida, T. Nakajima, Y. Honda, O. Kitao, H. Nakai, 
 T. Vreven, K. Throssell, J. A. Montgomery, Jr., J. E. Peralta, 
 F. Ogliaro, M. J. Bearpark, J. J. Heyd, E. N. Brothers, K. N. Kudin, 
 V. N. Staroverov, T. A. Keith, R. Kobayashi, J. Normand, 
 K. Raghavachari, A. P. Rendell, J. C. Burant, S. S. Iyengar, 
 J. Tomasi, M. Cossi, J. M. Millam, M. Klene, C. Adamo, R. Cammi, 
 J. W. Ochterski, R. L. Martin, K. Morokuma, O. Farkas, 
 J. B. Foresman, and D. J. Fox, Gaussian, Inc., Wallingford CT, 2016.
 
 ******************************************
 Gaussian 16:  ES64L-G16RevB.01 20-Dec-2017
                14-Feb-2022 
 ******************************************
 %nproc=28
 Will use up to   28 processors via shared memory.
 %mem=120GB
 %chk=hoono_r3_1p488294.chk
 -------------------------------------
 #p SP mp2/aug-cc-pvtz density=current
 -------------------------------------
 1/30=1,38=1,172=1/1;
 2/12=2,17=6,18=5,40=1/2;
 3/5=16,6=1,7=10,11=9,25=1,30=1,71=1/1,2,3;
 4//1;
 5/5=2,38=5/2;
 8/6=4,10=1/1;
 9/15=1,16=-3/6;
 10/5=1,13=10/2;
 6/7=2,8=2,9=2,10=2,22=-1/1;
 99/5=1,9=1/99;
 Leave Link    1 at Mon Feb 14 22:10:47 2022, MaxMem= 16106127360 cpu:               2.3 elap:               0.1
 (Enter /sw/contrib/gaussian/g16/B01/g16/l101.exe)
 -----
 title
 -----
 Symbolic Z-matrix:
 Charge =  0 Multiplicity = 1
 H
 O                    1    r1
 O                    2    r2       1    a1
 N                    3    r3       2    a2       1    d1       0
 O                    4    r4       3    a3       2    d2       0
       Variables:
  r1                    0.96898                  
  r2                    1.45492                  
  r3                    1.48829                  
  r4                    1.17073                  
  a1                   97.59495                  
  a2                  102.29752                  
  a3                  109.06955                  
  d1                  180.                       
  d2                  180.                       
 
 ITRead=  0  0  0  0  0
 MicOpt= -1 -1 -1 -1 -1
 NAtoms=      5 NQM=        5 NQMF=       0 NMMI=      0 NMMIF=      0
                NMic=       0 NMicF=      0.
                    Isotopes and Nuclear Properties:
 (Nuclear quadrupole moments (NQMom) in fm**2, nuclear magnetic moments (NMagM)
  in nuclear magnetons)

  Atom         1           2           3           4           5
 IAtWgt=           1          16          16          14          16
 AtmWgt=   1.0078250  15.9949146  15.9949146  14.0030740  15.9949146
 NucSpn=           1           0           0           2           0
 AtZEff=  -0.0000000  -0.0000000  -0.0000000  -0.0000000  -0.0000000
 NQMom=    0.0000000   0.0000000   0.0000000   2.0440000   0.0000000
 NMagM=    2.7928460   0.0000000   0.0000000   0.4037610   0.0000000
 AtZNuc=   1.0000000   8.0000000   8.0000000   7.0000000   8.0000000
 Leave Link  101 at Mon Feb 14 22:10:47 2022, MaxMem= 16106127360 cpu:               2.5 elap:               0.1
 (Enter /sw/contrib/gaussian/g16/B01/g16/l202.exe)
                          Input orientation:                          
 ---------------------------------------------------------------------
 Center     Atomic      Atomic             Coordinates (Angstroms)
 Number     Number       Type             X           Y           Z
 ---------------------------------------------------------------------
      1          1           0        0.000000    0.000000    0.000000
      2          8           0        0.000000    0.000000    0.968976
      3          8           0        1.442156    0.000000    1.161271
      4          7           0        1.564171    0.000000    2.644555
      5          8           0        2.698287    0.000000    2.935050
 ---------------------------------------------------------------------
                    Distance matrix (angstroms):
                    1          2          3          4          5
     1  H    0.000000
     2  O    0.968976   0.000000
     3  O    1.851584   1.454919   0.000000
     4  N    3.072507   2.292204   1.488294   0.000000
     5  O    3.986887   3.338592   2.173513   1.170729   0.000000
 Stoichiometry    HNO3
 Framework group  CS[SG(HNO3)]
 Deg. of freedom     7
 Full point group                 CS      NOp   2
 Largest Abelian subgroup         CS      NOp   2
 Largest concise Abelian subgroup C1      NOp   1
                         Standard orientation:                         
 ---------------------------------------------------------------------
 Center     Atomic      Atomic             Coordinates (Angstroms)
 Number     Number       Type             X           Y           Z
 ---------------------------------------------------------------------
      1          1           0        1.545437    1.706420    0.000000
      2          8           0        1.453873    0.741780    0.000000
      3          8           0       -0.000000    0.686622    0.000000
      4          7           0       -0.261633   -0.778495    0.000000
      5          8           0       -1.418124   -0.960521    0.000000
 ---------------------------------------------------------------------
 Rotational constants (GHZ):          53.7304937           4.9366495           4.5212465
 Leave Link  202 at Mon Feb 14 22:10:47 2022, MaxMem= 16106127360 cpu:               0.3 elap:               0.0
 (Enter /sw/contrib/gaussian/g16/B01/g16/l301.exe)
 Standard basis: Aug-CC-pVTZ (5D, 7F)
 Ernie: Thresh=  0.10000D-02 Tol=  0.10000D-05 Strict=F.
 Ernie:  12 primitive shells out of 131 were deleted.
 There are   166 symmetry adapted cartesian basis functions of A'  symmetry.
 There are    79 symmetry adapted cartesian basis functions of A"  symmetry.
 There are   136 symmetry adapted basis functions of A'  symmetry.
 There are    71 symmetry adapted basis functions of A"  symmetry.
   207 basis functions,   315 primitive gaussians,   245 cartesian basis functions
    16 alpha electrons       16 beta electrons
       nuclear repulsion energy       116.0784822102 Hartrees.
 IExCor=    0 DFT=F Ex=HF Corr=None ExCW=0 ScaHFX=  1.000000
 ScaDFX=  1.000000  1.000000  1.000000  1.000000 ScalE2=  1.000000  1.000000
 IRadAn=      5 IRanWt=     -1 IRanGd=            0 ICorTp=0 IEmpDi=  4
 NAtoms=    5 NActive=    5 NUniq=    5 SFac= 1.00D+00 NAtFMM=   60 NAOKFM=F Big=F
 Integral buffers will be    131072 words long.
 Raffenetti 1 integral format.
 Two-electron integral symmetry is turned on.
 Leave Link  301 at Mon Feb 14 22:10:47 2022, MaxMem= 16106127360 cpu:               1.8 elap:               0.1
 (Enter /sw/contrib/gaussian/g16/B01/g16/l302.exe)
 NPDir=0 NMtPBC=     1 NCelOv=     1 NCel=       1 NClECP=     1 NCelD=      1
         NCelK=      1 NCelE2=     1 NClLst=     1 CellRange=     0.0.
 One-electron integrals computed using PRISM.
 One-electron integral symmetry used in STVInt
 NBasis=   207 RedAO= T EigKep=  1.85D-04  NBF=   136    71
 NBsUse=   207 1.00D-06 EigRej= -1.00D+00 NBFU=   136    71
 Leave Link  302 at Mon Feb 14 22:10:47 2022, MaxMem= 16106127360 cpu:               5.7 elap:               0.2
 (Enter /sw/contrib/gaussian/g16/B01/g16/l303.exe)
 DipDrv:  MaxL=1.
 Leave Link  303 at Mon Feb 14 22:10:47 2022, MaxMem= 16106127360 cpu:               0.8 elap:               0.1
 (Enter /sw/contrib/gaussian/g16/B01/g16/l401.exe)
 ExpMin= 2.53D-02 ExpMax= 1.53D+04 ExpMxC= 5.22D+02 IAcc=3 IRadAn=         5 AccDes= 0.00D+00
 Harris functional with IExCor=  205 and IRadAn=       5 diagonalized for initial guess.
 HarFok:  IExCor=  205 AccDes= 0.00D+00 IRadAn=         5 IDoV= 1 UseB2=F ITyADJ=14
 ICtDFT=  3500011 ScaDFX=  1.000000  1.000000  1.000000  1.000000
 FoFCou: FMM=F IPFlag=           0 FMFlag=      100000 FMFlg1=           0
         NFxFlg=           0 DoJE=T BraDBF=F KetDBF=T FulRan=T
         wScrn=  0.000000 ICntrl=       500 IOpCl=  0 I1Cent=   200000004 NGrid=           0
         NMat0=    1 NMatS0=      1 NMatT0=    0 NMatD0=    1 NMtDS0=    0 NMtDT0=    0
 Petite list used in FoFCou.
 Harris En= -279.627482503055    
 JPrj=0 DoOrth=F DoCkMO=F.
 Initial guess orbital symmetries:
       Occupied  (A') (A') (A') (A') (A') (A') (A') (A') (A') (A')
                 (A") (A') (A') (A") (A") (A')
       Virtual   (A") (A') (A') (A') (A') (A') (A") (A') (A') (A')
                 (A") (A') (A") (A') (A') (A") (A') (A") (A') (A')
                 (A') (A') (A') (A') (A') (A") (A') (A") (A') (A')
                 (A") (A') (A") (A') (A') (A") (A') (A") (A') (A')
                 (A") (A') (A") (A') (A") (A') (A') (A') (A") (A")
                 (A') (A') (A') (A') (A") (A') (A") (A') (A") (A')
                 (A') (A') (A") (A') (A') (A") (A') (A") (A') (A')
                 (A") (A') (A') (A") (A") (A') (A') (A") (A') (A')
                 (A') (A") (A') (A") (A') (A") (A') (A") (A') (A')
                 (A') (A") (A') (A") (A') (A") (A") (A') (A') (A')
                 (A") (A') (A") (A') (A') (A') (A") (A') (A") (A')
                 (A") (A') (A') (A') (A") (A') (A') (A') (A") (A')
                 (A") (A') (A') (A") (A") (A') (A') (A") (A") (A')
                 (A') (A') (A') (A") (A") (A') (A") (A') (A') (A')
                 (A') (A") (A") (A') (A') (A") (A') (A') (A') (A')
                 (A') (A") (A') (A") (A') (A") (A') (A") (A") (A')
                 (A') (A") (A') (A") (A') (A") (A") (A") (A') (A')
                 (A") (A') (A") (A') (A') (A") (A") (A") (A') (A')
                 (A') (A') (A') (A') (A') (A') (A') (A') (A') (A')
                 (A')
 The electronic state of the initial guess is 1-A'.
 Leave Link  401 at Mon Feb 14 22:10:48 2022, MaxMem= 16106127360 cpu:               6.9 elap:               0.3
 (Enter /sw/contrib/gaussian/g16/B01/g16/l502.exe)
 Keep R1 ints in memory in symmetry-blocked form, NReq=348887737.
 FoFCou: FMM=F IPFlag=           0 FMFlag=           0 FMFlg1=           0
         NFxFlg=           0 DoJE=F BraDBF=F KetDBF=F FulRan=T
         wScrn=  0.000000 ICntrl=       600 IOpCl=  0 I1Cent=           0 NGrid=           0
         NMat0=    1 NMatS0=  21528 NMatT0=    0 NMatD0=    1 NMtDS0=    0 NMtDT0=    0
 Petite list used in FoFCou.
 Closed shell SCF:
 Using DIIS extrapolation, IDIIS=  1040.
 NGot= 16106127360 LenX= 15988850015 LenY= 15988789549
 Requested convergence on RMS density matrix=1.00D-08 within 128 cycles.
 Requested convergence on MAX density matrix=1.00D-06.
 Requested convergence on             energy=1.00D-06.
 No special actions if energy rises.

 Cycle   1  Pass 1  IDiag  1:
 E= -279.370366326378    
 DIIS: error= 2.75D-02 at cycle   1 NSaved=   1.
 NSaved= 1 IEnMin= 1 EnMin= -279.370366326378     IErMin= 1 ErrMin= 2.75D-02
 ErrMax= 2.75D-02  0.00D+00 EMaxC= 1.00D-01 BMatC= 4.34D-01 BMatP= 4.34D-01
 IDIUse=3 WtCom= 7.25D-01 WtEn= 2.75D-01
 Coeff-Com:  0.100D+01
 Coeff-En:   0.100D+01
 Coeff:      0.100D+01
 Gap=     0.498 Goal=   None    Shift=    0.000
 GapD=    0.498 DampG=2.000 DampE=0.500 DampFc=1.0000 IDamp=-1.
 RMSDP=1.60D-03 MaxDP=1.01D-01              OVMax= 1.05D-01

 Cycle   2  Pass 1  IDiag  1:
 E= -279.452896689435     Delta-E=       -0.082530363056 Rises=F Damp=F
 DIIS: error= 1.75D-02 at cycle   2 NSaved=   2.
 NSaved= 2 IEnMin= 2 EnMin= -279.452896689435     IErMin= 2 ErrMin= 1.75D-02
 ErrMax= 1.75D-02  0.00D+00 EMaxC= 1.00D-01 BMatC= 6.60D-02 BMatP= 4.34D-01
 IDIUse=3 WtCom= 8.25D-01 WtEn= 1.75D-01
 Coeff-Com:  0.184D+00 0.816D+00
 Coeff-En:   0.000D+00 0.100D+01
 Coeff:      0.152D+00 0.848D+00
 Gap=     0.524 Goal=   None    Shift=    0.000
 RMSDP=8.70D-04 MaxDP=3.62D-02 DE=-8.25D-02 OVMax= 7.12D-02

 Cycle   3  Pass 1  IDiag  1:
 E= -279.479396246085     Delta-E=       -0.026499556650 Rises=F Damp=F
 DIIS: error= 1.07D-02 at cycle   3 NSaved=   3.
 NSaved= 3 IEnMin= 3 EnMin= -279.479396246085     IErMin= 3 ErrMin= 1.07D-02
 ErrMax= 1.07D-02  0.00D+00 EMaxC= 1.00D-01 BMatC= 2.73D-02 BMatP= 6.60D-02
 IDIUse=3 WtCom= 8.93D-01 WtEn= 1.07D-01
 Coeff-Com: -0.322D-01 0.382D+00 0.650D+00
 Coeff-En:   0.000D+00 0.244D+00 0.756D+00
 Coeff:     -0.287D-01 0.368D+00 0.661D+00
 Gap=     0.509 Goal=   None    Shift=    0.000
 RMSDP=3.68D-04 MaxDP=1.60D-02 DE=-2.65D-02 OVMax= 3.52D-02

 Cycle   4  Pass 1  IDiag  1:
 E= -279.497484798509     Delta-E=       -0.018088552424 Rises=F Damp=F
 DIIS: error= 1.33D-03 at cycle   4 NSaved=   4.
 NSaved= 4 IEnMin= 4 EnMin= -279.497484798509     IErMin= 4 ErrMin= 1.33D-03
 ErrMax= 1.33D-03  0.00D+00 EMaxC= 1.00D-01 BMatC= 5.27D-04 BMatP= 2.73D-02
 IDIUse=3 WtCom= 9.87D-01 WtEn= 1.33D-02
 Coeff-Com: -0.123D-01 0.668D-01 0.173D+00 0.773D+00
 Coeff-En:   0.000D+00 0.000D+00 0.000D+00 0.100D+01
 Coeff:     -0.121D-01 0.659D-01 0.170D+00 0.776D+00
 Gap=     0.502 Goal=   None    Shift=    0.000
 RMSDP=9.05D-05 MaxDP=2.85D-03 DE=-1.81D-02 OVMax= 1.17D-02

 Cycle   5  Pass 1  IDiag  1:
 E= -279.498192503896     Delta-E=       -0.000707705388 Rises=F Damp=F
 DIIS: error= 7.86D-04 at cycle   5 NSaved=   5.
 NSaved= 5 IEnMin= 5 EnMin= -279.498192503896     IErMin= 5 ErrMin= 7.86D-04
 ErrMax= 7.86D-04  0.00D+00 EMaxC= 1.00D-01 BMatC= 9.26D-05 BMatP= 5.27D-04
 IDIUse=3 WtCom= 9.92D-01 WtEn= 7.86D-03
 Coeff-Com:  0.634D-02-0.761D-01-0.125D+00 0.854D-02 0.119D+01
 Coeff-En:   0.000D+00 0.000D+00 0.000D+00 0.000D+00 0.100D+01
 Coeff:      0.629D-02-0.755D-01-0.124D+00 0.847D-02 0.118D+01
 Gap=     0.502 Goal=   None    Shift=    0.000
 RMSDP=8.02D-05 MaxDP=2.17D-03 DE=-7.08D-04 OVMax= 1.15D-02

 Cycle   6  Pass 1  IDiag  1:
 E= -279.498538445426     Delta-E=       -0.000345941530 Rises=F Damp=F
 DIIS: error= 2.85D-04 at cycle   6 NSaved=   6.
 NSaved= 6 IEnMin= 6 EnMin= -279.498538445426     IErMin= 6 ErrMin= 2.85D-04
 ErrMax= 2.85D-04  0.00D+00 EMaxC= 1.00D-01 BMatC= 1.77D-05 BMatP= 9.26D-05
 IDIUse=3 WtCom= 9.97D-01 WtEn= 2.85D-03
 Coeff-Com:  0.688D-03 0.709D-03 0.354D-02-0.123D+00-0.244D+00 0.136D+01
 Coeff-En:   0.000D+00 0.000D+00 0.000D+00 0.000D+00 0.000D+00 0.100D+01
 Coeff:      0.686D-03 0.707D-03 0.353D-02-0.122D+00-0.243D+00 0.136D+01
 Gap=     0.502 Goal=   None    Shift=    0.000
 RMSDP=4.79D-05 MaxDP=1.34D-03 DE=-3.46D-04 OVMax= 5.83D-03

 Cycle   7  Pass 1  IDiag  1:
 E= -279.498619132406     Delta-E=       -0.000080686980 Rises=F Damp=F
 DIIS: error= 1.44D-04 at cycle   7 NSaved=   7.
 NSaved= 7 IEnMin= 7 EnMin= -279.498619132406     IErMin= 7 ErrMin= 1.44D-04
 ErrMax= 1.44D-04  0.00D+00 EMaxC= 1.00D-01 BMatC= 5.27D-06 BMatP= 1.77D-05
 IDIUse=3 WtCom= 9.99D-01 WtEn= 1.44D-03
 Coeff-Com: -0.976D-03 0.146D-01 0.287D-01-0.242D-01-0.310D+00 0.438D+00
 Coeff-Com:  0.854D+00
 Coeff-En:   0.000D+00 0.000D+00 0.000D+00 0.000D+00 0.000D+00 0.000D+00
 Coeff-En:   0.100D+01
 Coeff:     -0.975D-03 0.145D-01 0.287D-01-0.242D-01-0.310D+00 0.437D+00
 Coeff:      0.854D+00
 Gap=     0.502 Goal=   None    Shift=    0.000
 RMSDP=1.41D-05 MaxDP=4.05D-04 DE=-8.07D-05 OVMax= 1.63D-03

 Cycle   8  Pass 1  IDiag  1:
 E= -279.498629354087     Delta-E=       -0.000010221681 Rises=F Damp=F
 DIIS: error= 5.89D-05 at cycle   8 NSaved=   8.
 NSaved= 8 IEnMin= 8 EnMin= -279.498629354087     IErMin= 8 ErrMin= 5.89D-05
 ErrMax= 5.89D-05  0.00D+00 EMaxC= 1.00D-01 BMatC= 6.73D-07 BMatP= 5.27D-06
 IDIUse=1 WtCom= 1.00D+00 WtEn= 0.00D+00
 Coeff-Com: -0.491D-03 0.387D-02 0.854D-02 0.278D-01-0.404D-01-0.204D+00
 Coeff-Com:  0.142D+00 0.106D+01
 Coeff:     -0.491D-03 0.387D-02 0.854D-02 0.278D-01-0.404D-01-0.204D+00
 Coeff:      0.142D+00 0.106D+01
 Gap=     0.501 Goal=   None    Shift=    0.000
 RMSDP=7.73D-06 MaxDP=2.18D-04 DE=-1.02D-05 OVMax= 8.79D-04

 Cycle   9  Pass 1  IDiag  1:
 E= -279.498631441407     Delta-E=       -0.000002087320 Rises=F Damp=F
 DIIS: error= 1.61D-05 at cycle   9 NSaved=   9.
 NSaved= 9 IEnMin= 9 EnMin= -279.498631441407     IErMin= 9 ErrMin= 1.61D-05
 ErrMax= 1.61D-05  0.00D+00 EMaxC= 1.00D-01 BMatC= 7.17D-08 BMatP= 6.73D-07
 IDIUse=1 WtCom= 1.00D+00 WtEn= 0.00D+00
 Coeff-Com:  0.140D-03-0.191D-02-0.347D-02-0.328D-02 0.357D-01 0.594D-02
 Coeff-Com: -0.158D+00-0.146D+00 0.127D+01
 Coeff:      0.140D-03-0.191D-02-0.347D-02-0.328D-02 0.357D-01 0.594D-02
 Coeff:     -0.158D+00-0.146D+00 0.127D+01
 Gap=     0.501 Goal=   None    Shift=    0.000
 RMSDP=2.04D-06 MaxDP=6.95D-05 DE=-2.09D-06 OVMax= 1.77D-04

 Cycle  10  Pass 1  IDiag  1:
 E= -279.498631611552     Delta-E=       -0.000000170145 Rises=F Damp=F
 DIIS: error= 4.19D-06 at cycle  10 NSaved=  10.
 NSaved=10 IEnMin=10 EnMin= -279.498631611552     IErMin=10 ErrMin= 4.19D-06
 ErrMax= 4.19D-06  0.00D+00 EMaxC= 1.00D-01 BMatC= 5.40D-09 BMatP= 7.17D-08
 IDIUse=1 WtCom= 1.00D+00 WtEn= 0.00D+00
 Coeff-Com:  0.274D-04-0.203D-03-0.243D-03-0.243D-02 0.622D-03 0.182D-01
 Coeff-Com: -0.590D-02-0.685D-01-0.993D-01 0.116D+01
 Coeff:      0.274D-04-0.203D-03-0.243D-03-0.243D-02 0.622D-03 0.182D-01
 Coeff:     -0.590D-02-0.685D-01-0.993D-01 0.116D+01
 Gap=     0.501 Goal=   None    Shift=    0.000
 RMSDP=4.96D-07 MaxDP=2.07D-05 DE=-1.70D-07 OVMax= 3.97D-05

 Cycle  11  Pass 1  IDiag  1:
 E= -279.498631623498     Delta-E=       -0.000000011945 Rises=F Damp=F
 DIIS: error= 2.02D-06 at cycle  11 NSaved=  11.
 NSaved=11 IEnMin=11 EnMin= -279.498631623498     IErMin=11 ErrMin= 2.02D-06
 ErrMax= 2.02D-06  0.00D+00 EMaxC= 1.00D-01 BMatC= 6.33D-10 BMatP= 5.40D-09
 IDIUse=1 WtCom= 1.00D+00 WtEn= 0.00D+00
 Coeff-Com: -0.215D-04 0.249D-03 0.501D-03 0.533D-03-0.407D-02-0.365D-02
 Coeff-Com:  0.186D-01 0.318D-01-0.135D+00-0.151D+00 0.124D+01
 Coeff:     -0.215D-04 0.249D-03 0.501D-03 0.533D-03-0.407D-02-0.365D-02
 Coeff:      0.186D-01 0.318D-01-0.135D+00-0.151D+00 0.124D+01
 Gap=     0.501 Goal=   None    Shift=    0.000
 RMSDP=1.68D-07 MaxDP=5.89D-06 DE=-1.19D-08 OVMax= 1.72D-05

 Cycle  12  Pass 1  IDiag  1:
 E= -279.498631625187     Delta-E=       -0.000000001690 Rises=F Damp=F
 DIIS: error= 6.14D-07 at cycle  12 NSaved=  12.
 NSaved=12 IEnMin=12 EnMin= -279.498631625187     IErMin=12 ErrMin= 6.14D-07
 ErrMax= 6.14D-07  0.00D+00 EMaxC= 1.00D-01 BMatC= 7.65D-11 BMatP= 6.33D-10
 IDIUse=1 WtCom= 1.00D+00 WtEn= 0.00D+00
 Coeff-Com:  0.152D-05-0.327D-04-0.711D-04 0.138D-03 0.115D-02-0.221D-02
 Coeff-Com: -0.416D-02 0.473D-02 0.421D-01-0.125D+00-0.264D+00 0.135D+01
 Coeff:      0.152D-05-0.327D-04-0.711D-04 0.138D-03 0.115D-02-0.221D-02
 Coeff:     -0.416D-02 0.473D-02 0.421D-01-0.125D+00-0.264D+00 0.135D+01
 Gap=     0.501 Goal=   None    Shift=    0.000
 RMSDP=7.16D-08 MaxDP=2.78D-06 DE=-1.69D-09 OVMax= 7.14D-06

 Cycle  13  Pass 1  IDiag  1:
 E= -279.498631625430     Delta-E=       -0.000000000243 Rises=F Damp=F
 DIIS: error= 1.88D-07 at cycle  13 NSaved=  13.
 NSaved=13 IEnMin=13 EnMin= -279.498631625430     IErMin=13 ErrMin= 1.88D-07
 ErrMax= 1.88D-07  0.00D+00 EMaxC= 1.00D-01 BMatC= 4.83D-12 BMatP= 7.65D-11
 IDIUse=1 WtCom= 1.00D+00 WtEn= 0.00D+00
 Coeff-Com:  0.135D-05-0.149D-04-0.237D-04-0.896D-04 0.103D-03 0.819D-03
 Coeff-Com: -0.681D-03-0.353D-02 0.417D-03 0.457D-01-0.421D-01-0.355D+00
 Coeff-Com:  0.135D+01
 Coeff:      0.135D-05-0.149D-04-0.237D-04-0.896D-04 0.103D-03 0.819D-03
 Coeff:     -0.681D-03-0.353D-02 0.417D-03 0.457D-01-0.421D-01-0.355D+00
 Coeff:      0.135D+01
 Gap=     0.501 Goal=   None    Shift=    0.000
 RMSDP=2.09D-08 MaxDP=6.53D-07 DE=-2.43D-10 OVMax= 1.92D-06

 Cycle  14  Pass 1  IDiag  1:
 E= -279.498631625446     Delta-E=       -0.000000000016 Rises=F Damp=F
 DIIS: error= 2.89D-08 at cycle  14 NSaved=  14.
 NSaved=14 IEnMin=14 EnMin= -279.498631625446     IErMin=14 ErrMin= 2.89D-08
 ErrMax= 2.89D-08  0.00D+00 EMaxC= 1.00D-01 BMatC= 2.47D-13 BMatP= 4.83D-12
 IDIUse=1 WtCom= 1.00D+00 WtEn= 0.00D+00
 Coeff-Com: -0.233D-06 0.374D-05 0.683D-05 0.677D-05-0.914D-04 0.407D-04
 Coeff-Com:  0.277D-03 0.315D-03-0.267D-02 0.183D-02 0.183D-01-0.245D-01
 Coeff-Com: -0.216D+00 0.122D+01
 Coeff:     -0.233D-06 0.374D-05 0.683D-05 0.677D-05-0.914D-04 0.407D-04
 Coeff:      0.277D-03 0.315D-03-0.267D-02 0.183D-02 0.183D-01-0.245D-01
 Coeff:     -0.216D+00 0.122D+01
 Gap=     0.501 Goal=   None    Shift=    0.000
 RMSDP=4.24D-09 MaxDP=1.09D-07 DE=-1.58D-11 OVMax= 3.91D-07

 SCF Done:  E(RHF) =  -279.498631625     A.U. after   14 cycles
            NFock= 14  Conv=0.42D-08     -V/T= 2.0025
 KE= 2.787995479106D+02 PE=-8.934760280200D+02 EE= 2.190993662738D+02
 Leave Link  502 at Mon Feb 14 22:10:51 2022, MaxMem= 16106127360 cpu:              55.6 elap:               3.7
 (Enter /sw/contrib/gaussian/g16/B01/g16/l801.exe)
 ExpMin= 2.53D-02 ExpMax= 1.53D+04 ExpMxC= 5.22D+02 IAcc=3 IRadAn=         5 AccDes= 0.00D+00
 HarFok:  IExCor=  205 AccDes= 0.00D+00 IRadAn=         5 IDoV=-2 UseB2=F ITyADJ=14
 ICtDFT= 12500011 ScaDFX=  1.000000  1.000000  1.000000  1.000000
 DSYEVD-2 returned Info=          93 IAlg= 4 N=    46 NDim=    46 NE2=   350130240 trying  DSYEV.
 Largest valence mixing into a core orbital is  2.09D-04
 Largest core mixing into a valence orbital is  3.72D-05
 Range of M.O.s used for correlation:     5   207
 NBasis=   207 NAE=    16 NBE=    16 NFC=     4 NFV=     0
 NROrb=    203 NOA=    12 NOB=    12 NVA=   191 NVB=   191

 **** Warning!!: The largest alpha MO coefficient is  0.17155638D+02

 Leave Link  801 at Mon Feb 14 22:10:51 2022, MaxMem= 16106127360 cpu:               3.1 elap:               0.2
 (Enter /sw/contrib/gaussian/g16/B01/g16/l906.exe)
 Frozen-core derivative calculation, NFC=   4 NFV=   0.
 FulOut=F Deriv=T AODrv=F NAtomX=     5
   MMem=          76  MDisk=          12 MDiskD=          12
  W3Min=      811440 MinDsk=     1524655 NBas6D=         245
 NBas2D=       30762    NTT=       30135    LW2=     3500000
    MDV= 16105580011 MDiskM=      328644 NBas2p=       30466
 Fully in-core method, ICMem=   960157634.
 IMap=   1   2   3   4   5   6   7   8   9  10  11  12  13  14  15  16
 JobTyp=1 Pass  1 fully in-core, NPsUse= 28.
 Compute canonical integrals.
 FoFCou: FMM=F IPFlag=           0 FMFlag=           0 FMFlg1=           0
         NFxFlg=           0 DoJE=F BraDBF=F KetDBF=F FulRan=T
         wScrn=  0.000000 ICntrl=       600 IOpCl=  1 I1Cent=           0 NGrid=           0
         NMat0=    1 NMatS0=  30762 NMatT0=    0 NMatD0=    1 NMtDS0=    0 NMtDT0=    0
 Symmetry not used in FoFCou.
 Spin components of T(2) and E(2):
     alpha-alpha T2 =       0.3438190727D-01 E2=     -0.1227476193D+00
     alpha-beta  T2 =       0.1889588262D+00 E2=     -0.7024335995D+00
     beta-beta   T2 =       0.3438190727D-01 E2=     -0.1227476193D+00
 The integrals were generated   1 times.
 ANorm=    0.1121482341D+01
 E2 =    -0.9479288381D+00 EUMP2 =    -0.28044656046355D+03
 Leave Link  906 at Mon Feb 14 22:11:00 2022, MaxMem= 16106127360 cpu:             244.0 elap:               8.8
 (Enter /sw/contrib/gaussian/g16/B01/g16/l1002.exe)
 Minotr:  Closed shell wavefunction.
          Computing MP2/KS-MP2 derivatives.
          Using Z-Vector for PSCF gradient.
          Skipping F1 and S1 gradient terms here.
          Frozen-core window.
          Direct CPHF calculation.
          Differentiating once with respect to electric field.
                with respect to dipole field.
          Electric field/nuclear overlap derivatives assumed to be zero.
          Using symmetry in CPHF.
          Requested convergence is 1.0D-10 RMS, and 1.0D-09 maximum.
          NewPWx=F KeepS1=T KeepF1=T KeepIn=T MapXYZ=F SortEE=F KeepMc=T.
 Keep R1 ints in memory in symmetry-blocked form, NReq=348888868.
 FoFCou: FMM=F IPFlag=           0 FMFlag=           0 FMFlg1=           0
         NFxFlg=           0 DoJE=F BraDBF=F KetDBF=F FulRan=T
         wScrn=  0.000000 ICntrl=       600 IOpCl=  0 I1Cent=           0 NGrid=           0
         NMat0=    1 NMatS0=  21528 NMatT0=    0 NMatD0=    1 NMtDS0=    0 NMtDT0=    0
 Petite list used in FoFCou.
          MDV=   16106127360 using IRadAn=       5.
          Solving linear equations separately, MaxMat=       0.
          There are     1 degrees of freedom in the 1st order CPHF.  IDoFFX=0 NUNeed=     1.
 LinEq1:  Iter=  0 NonCon=     1 RMS=6.07D-03 Max=1.32D-01 NDo=     1
 AX will form     1 AO Fock derivatives at one time.
 LinEq1:  Iter=  1 NonCon=     1 RMS=1.99D-03 Max=4.02D-02 NDo=     1
 LinEq1:  Iter=  2 NonCon=     1 RMS=9.12D-04 Max=1.44D-02 NDo=     1
 LinEq1:  Iter=  3 NonCon=     1 RMS=4.08D-04 Max=7.83D-03 NDo=     1
 LinEq1:  Iter=  4 NonCon=     1 RMS=1.26D-04 Max=1.86D-03 NDo=     1
 LinEq1:  Iter=  5 NonCon=     1 RMS=4.76D-05 Max=7.51D-04 NDo=     1
 LinEq1:  Iter=  6 NonCon=     1 RMS=2.11D-05 Max=2.44D-04 NDo=     1
 LinEq1:  Iter=  7 NonCon=     1 RMS=8.66D-06 Max=1.77D-04 NDo=     1
 LinEq1:  Iter=  8 NonCon=     1 RMS=3.65D-06 Max=3.81D-05 NDo=     1
 LinEq1:  Iter=  9 NonCon=     1 RMS=9.98D-07 Max=1.52D-05 NDo=     1
 LinEq1:  Iter= 10 NonCon=     1 RMS=2.03D-07 Max=2.29D-06 NDo=     1
 LinEq1:  Iter= 11 NonCon=     1 RMS=3.88D-08 Max=4.57D-07 NDo=     1
 LinEq1:  Iter= 12 NonCon=     1 RMS=9.35D-09 Max=1.44D-07 NDo=     1
 LinEq1:  Iter= 13 NonCon=     1 RMS=1.65D-09 Max=2.96D-08 NDo=     1
 LinEq1:  Iter= 14 NonCon=     1 RMS=3.04D-10 Max=4.58D-09 NDo=     1
 LinEq1:  Iter= 15 NonCon=     0 RMS=5.47D-11 Max=6.52D-10 NDo=     1
 Linear equations converged to 1.000D-10 1.000D-09 after    15 iterations.
 End of Minotr F.D. properties file   721 does not exist.
 End of Minotr F.D. properties file   722 does not exist.
 End of Minotr F.D. properties file   788 does not exist.
 Leave Link 1002 at Mon Feb 14 22:11:04 2022, MaxMem= 16106127360 cpu:              52.5 elap:               3.9
 (Enter /sw/contrib/gaussian/g16/B01/g16/l601.exe)
 Copying SCF densities to generalized density rwf, IOpCl= 0 IROHF=0.

 **********************************************************************

            Population analysis using the MP2 Density.

 **********************************************************************

 Orbital symmetries:
       Occupied  (A') (A') (A') (A') (A') (A') (A') (A') (A') (A')
                 (A") (A') (A") (A') (A") (A')
       Virtual   (A') (A") (A') (A') (A") (A') (A') (A') (A") (A')
                 (A") (A') (A') (A') (A") (A') (A') (A") (A') (A')
                 (A') (A') (A') (A') (A") (A') (A') (A") (A') (A')
                 (A") (A') (A") (A') (A') (A") (A') (A') (A") (A')
                 (A") (A') (A") (A') (A') (A") (A') (A') (A") (A')
                 (A") (A') (A') (A') (A") (A') (A") (A') (A") (A')
                 (A') (A') (A") (A') (A') (A") (A') (A") (A') (A')
                 (A") (A') (A') (A") (A") (A') (A') (A") (A') (A')
                 (A') (A") (A') (A") (A') (A") (A') (A") (A') (A')
                 (A") (A') (A') (A") (A') (A") (A') (A") (A') (A')
                 (A") (A') (A") (A') (A') (A") (A') (A') (A") (A')
                 (A") (A') (A') (A') (A") (A') (A') (A') (A") (A')
                 (A") (A') (A") (A') (A') (A") (A") (A') (A") (A')
                 (A') (A') (A') (A") (A") (A") (A') (A') (A') (A')
                 (A") (A') (A") (A') (A') (A") (A') (A') (A') (A')
                 (A") (A') (A') (A") (A') (A") (A') (A") (A') (A")
                 (A') (A") (A') (A') (A") (A") (A") (A') (A") (A')
                 (A") (A') (A") (A') (A") (A') (A") (A') (A") (A')
                 (A') (A') (A') (A') (A') (A') (A') (A') (A') (A')
                 (A')
 The electronic state is 1-A'.
 Alpha  occ. eigenvalues --  -20.69125 -20.68590 -20.65636 -15.81761  -1.62315
 Alpha  occ. eigenvalues --   -1.49138  -1.24563  -0.95048  -0.77049  -0.75595
 Alpha  occ. eigenvalues --   -0.70715  -0.68085  -0.62184  -0.58780  -0.48205
 Alpha  occ. eigenvalues --   -0.47100
 Alpha virt. eigenvalues --    0.03044   0.06788   0.08537   0.10136   0.13378
 Alpha virt. eigenvalues --    0.13414   0.14470   0.15511   0.17890   0.19398
 Alpha virt. eigenvalues --    0.19966   0.20187   0.22156   0.23667   0.23705
 Alpha virt. eigenvalues --    0.26506   0.28239   0.30453   0.30971   0.34125
 Alpha virt. eigenvalues --    0.34876   0.38693   0.42306   0.43268   0.52586
 Alpha virt. eigenvalues --    0.52794   0.55534   0.58002   0.62378   0.63660
 Alpha virt. eigenvalues --    0.67335   0.68450   0.70734   0.71175   0.72447
 Alpha virt. eigenvalues --    0.73148   0.74580   0.78973   0.79312   0.80916
 Alpha virt. eigenvalues --    0.81484   0.82929   0.86597   0.90817   0.92306
 Alpha virt. eigenvalues --    0.92416   0.95938   0.97340   0.98585   1.01899
 Alpha virt. eigenvalues --    1.05081   1.05325   1.07975   1.11539   1.13836
 Alpha virt. eigenvalues --    1.18798   1.21984   1.23196   1.33558   1.34489
 Alpha virt. eigenvalues --    1.38926   1.44886   1.48757   1.50997   1.53605
 Alpha virt. eigenvalues --    1.56331   1.57438   1.61177   1.66165   1.66967
 Alpha virt. eigenvalues --    1.70039   1.79288   1.82970   1.82971   1.87914
 Alpha virt. eigenvalues --    1.90648   1.95569   1.98630   2.00188   2.06874
 Alpha virt. eigenvalues --    2.11745   2.12795   2.15351   2.21870   2.26138
 Alpha virt. eigenvalues --    2.26704   2.28692   2.31354   2.33685   2.38601
 Alpha virt. eigenvalues --    2.41990   2.42193   2.45139   2.45983   2.47157
 Alpha virt. eigenvalues --    2.49691   2.59218   2.59445   2.61386   2.62209
 Alpha virt. eigenvalues --    2.63697   2.66477   2.75263   2.81017   2.84248
 Alpha virt. eigenvalues --    2.87346   2.89589   2.89959   2.95644   3.01467
 Alpha virt. eigenvalues --    3.05580   3.11385   3.20582   3.22413   3.31162
 Alpha virt. eigenvalues --    3.33386   3.51208   3.63262   3.82437   3.83820
 Alpha virt. eigenvalues --    4.14828   4.17088   4.18045   4.24518   4.35194
 Alpha virt. eigenvalues --    4.39280   4.46543   4.51532   4.65133   4.70564
 Alpha virt. eigenvalues --    4.79616   4.80765   4.83270   4.89247   5.01329
 Alpha virt. eigenvalues --    5.06890   5.09036   5.14589   5.17029   5.23550
 Alpha virt. eigenvalues --    5.26139   5.30228   5.32812   5.34298   5.59653
 Alpha virt. eigenvalues --    5.66821   5.75105   5.83112   5.94266   6.15574
 Alpha virt. eigenvalues --    6.30847   6.32663   6.39060   6.48648   6.49924
 Alpha virt. eigenvalues --    6.61264   6.66916   6.69120   6.76218   6.76350
 Alpha virt. eigenvalues --    6.82353   6.88937   7.00684   7.05244   7.05978
 Alpha virt. eigenvalues --    7.09049   7.11560   7.14182   7.18050   7.21007
 Alpha virt. eigenvalues --    7.24341   7.31288   7.32046   7.33831   7.39035
 Alpha virt. eigenvalues --    7.41664   7.47680   7.59665   7.60319   7.61199
 Alpha virt. eigenvalues --    7.65244   7.77745   7.88024   8.05963   8.30087
 Alpha virt. eigenvalues --    8.40853   8.53070  13.33545  14.24168  15.13865
 Alpha virt. eigenvalues --   16.09835
          Condensed to atoms (all electrons):
               1          2          3          4          5
     1  H    0.590107   0.128575   0.019842   0.012188  -0.000673
     2  O    0.128575   8.321925  -0.176012  -0.085646   0.014772
     3  O    0.019842  -0.176012   8.477115  -0.121140  -0.033681
     4  N    0.012188  -0.085646  -0.121140   6.945761  -0.051325
     5  O   -0.000673   0.014772  -0.033681  -0.051325   8.251293
 Mulliken charges:
               1
     1  H    0.249961
     2  O   -0.203613
     3  O   -0.166124
     4  N    0.300162
     5  O   -0.180386
 Sum of Mulliken charges =  -0.00000
 Mulliken charges with hydrogens summed into heavy atoms:
               1
     2  O    0.046348
     3  O   -0.166124
     4  N    0.300162
     5  O   -0.180386
 Electronic spatial extent (au):  <R**2>=            255.9834
 Charge=             -0.0000 electrons
 Dipole moment (field-independent basis, Debye):
    X=              0.3754    Y=              1.1888    Z=              0.0000  Tot=              1.2467
 Quadrupole moment (field-independent basis, Debye-Ang):
   XX=            -22.4189   YY=            -18.4891   ZZ=            -22.0524
   XY=              3.3115   XZ=             -0.0000   YZ=             -0.0000
 Traceless Quadrupole moment (field-independent basis, Debye-Ang):
   XX=             -1.4321   YY=              2.4977   ZZ=             -1.0656
   XY=              3.3115   XZ=             -0.0000   YZ=             -0.0000
 Octapole moment (field-independent basis, Debye-Ang**2):
  XXX=              2.2875  YYY=             11.2316  ZZZ=             -0.0000  XYY=              7.8570
  XXY=              6.3335  XXZ=              0.0000  XZZ=             -1.6267  YZZ=             -0.9683
  YYZ=             -0.0000  XYZ=             -0.0000
 Hexadecapole moment (field-independent basis, Debye-Ang**3):
 XXXX=           -158.3132 YYYY=            -92.6438 ZZZZ=            -18.3315 XXXY=            -37.6352
 XXXZ=             -0.0000 YYYX=            -31.2013 YYYZ=             -0.0000 ZZZX=             -0.0000
 ZZZY=             -0.0000 XXYY=            -34.3278 XXZZ=            -30.8576 YYZZ=            -21.3011
 XXYZ=             -0.0000 YYXZ=             -0.0000 ZZXY=            -15.3758
 N-N= 1.160784822102D+02 E-N=-8.942836685148D+02  KE= 2.801629082875D+02
 Symmetry A'   KE= 2.662010933040D+02
 Symmetry A"   KE= 1.396181498348D+01
 No NMR shielding tensors so no spin-rotation constants.
 Leave Link  601 at Mon Feb 14 22:11:04 2022, MaxMem= 16106127360 cpu:               4.8 elap:               0.2
 (Enter /sw/contrib/gaussian/g16/B01/g16/l9999.exe)
 1\1\GINC-N2118\SP\RMP2-FC\Aug-CC-pVTZ\H1N1O3\CGAVINH\14-Feb-2022\0\\#p
  SP mp2/aug-cc-pvtz density=current\\title\\0,1\H\O,1,0.96897556\O,2,1
 .45491931,1,97.59494903\N,3,1.4882943503,2,102.29752444,1,180.,0\O,4,1
 .17072885,3,109.06955123,2,180.,0\\Version=ES64L-G16RevB.01\State=1-A'
 \HF=-279.4986316\MP2=-280.4465605\RMSD=4.238e-09\Dipole=-0.1028494,0.,
 -0.4795672\Quadrupole=-1.5018533,-0.7922438,2.2940971,0.,2.1431734,0.\
 PG=CS [SG(H1N1O3)]\\@


 IMAGINATION WILL OFTEN CARRY US TO WORLDS THAT NEVER WERE.
 BUT WITHOUT IT, WE GO NOWHERE. -- CARL SAGAN (COSMOS)
 Job cpu time:       0 days  0 hours  6 minutes 21.4 seconds.
 Elapsed time:       0 days  0 hours  0 minutes 17.7 seconds.
 File lengths (MBytes):  RWF=     22 Int=      0 D2E=      0 Chk=      8 Scr=      1
 Normal termination of Gaussian 16 at Mon Feb 14 22:11:04 2022.
