title                                                                   
SP        RMP2-FC                                                     Aug-CC-pVTZ         
Number of atoms                            I                5
Info1-9                                    I   N=           9
          33          24           0           0           0         110
           1           2           1
Full Title                                 C   N=           1
title       
Route                                      C   N=           4
#p SP mp2/aug-cc-pvtz density=current           
Charge                                     I                0
Multiplicity                               I                1
Number of electrons                        I               32
Number of alpha electrons                  I               16
Number of beta electrons                   I               16
Number of basis functions                  I              207
Number of independent functions            I              207
Number of point charges in /Mol/           I                0
Number of translation vectors              I                0
Atomic numbers                             I   N=           5
           1           8           8           7           8
Nuclear charges                            R   N=           5
  1.00000000E+00  8.00000000E+00  8.00000000E+00  7.00000000E+00  8.00000000E+00
Current cartesian coordinates              R   N=          15
  2.85101553E+00  3.27236880E+00 -3.53507412E-32  2.74207146E+00  1.44451414E+00
 -1.66579581E-32 -1.59237462E-16  1.24391727E+00  1.31461996E-32 -4.86784762E-01
 -1.46946594E+00 -2.47824496E-32 -2.67251174E+00 -1.81169481E+00  8.84078999E-32
Number of symbols in /Mol/                 I                0
Force Field                                I                0
Atom Types                                 C   N=           5
                                                            
Int Atom Types                             I   N=           5
           0           0           0           0           0
MM charges                                 R   N=           5
  0.00000000E+00  0.00000000E+00  0.00000000E+00  0.00000000E+00  0.00000000E+00
Integer atomic weights                     I   N=           5
           1          16          16          14          16
Real atomic weights                        R   N=           5
  1.00782504E+00  1.59949146E+01  1.59949146E+01  1.40030740E+01  1.59949146E+01
Atom fragment info                         I   N=           5
           0           0           0           0           0
Atom residue num                           I   N=           5
           0           0           0           0           0
Nuclear spins                              I   N=           5
           1           0           0           2           0
Nuclear ZEff                               R   N=           5
 -1.00000000E+00 -5.60000000E+00 -5.60000000E+00 -4.55000000E+00 -5.60000000E+00
Nuclear ZNuc                               R   N=           5
  1.00000000E+00  8.00000000E+00  8.00000000E+00  7.00000000E+00  8.00000000E+00
Nuclear QMom                               R   N=           5
  0.00000000E+00  0.00000000E+00  0.00000000E+00  2.04400000E+00  0.00000000E+00
Nuclear GFac                               R   N=           5
  2.79284600E+00  0.00000000E+00  0.00000000E+00  4.03761000E-01  0.00000000E+00
MicOpt                                     I   N=           5
          -1          -1          -1          -1          -1
Number of residues                         I                0
Number of secondary structures             I                0
SymInf integers                            I   N=          26
           1           2           1           1           1           1
           1          -1           0           0           0           0
           0           0           0           0           0           0
           0           0           0           0           0           0
           0           0
RotTr to input orientation                 R   N=          12
 -9.98228510E-01 -9.72605761E-17 -5.94965630E-02  5.94965630E-02 -7.44175930E-17
 -9.98228510E-01  9.26606890E-17 -1.00000000E+00  8.00724330E-17  2.65127029E+00
  0.00000000E+00  3.43619745E+00
Number of contracted shells                I               65
Number of primitive shells                 I              119
Pure/Cartesian d shells                    I                0
Pure/Cartesian f shells                    I                0
Highest angular momentum                   I                3
Largest degree of contraction              I                7
Shell types                                I   N=          65
           0           0           0           0           1           1
           1          -2          -2           0           0           0
           0           0           1           1           1           1
          -2          -2          -2          -3          -3           0
           0           0           0           0           1           1
           1           1          -2          -2          -2          -3
          -3           0           0           0           0           0
           1           1           1           1          -2          -2
          -2          -3          -3           0           0           0
           0           0           1           1           1           1
          -2          -2          -2          -3          -3
Number of primitives per shell             I   N=          65
           3           1           1           1           1           1
           1           1           1           7           6           1
           1           1           3           1           1           1
           1           1           1           1           1           7
           6           1           1           1           3           1
           1           1           1           1           1           1
           1           7           6           1           1           1
           3           1           1           1           1           1
           1           1           1           7           6           1
           1           1           3           1           1           1
           1           1           1           1           1
Shell to atom map                          I   N=          65
           1           1           1           1           1           1
           1           1           1           2           2           2
           2           2           2           2           2           2
           2           2           2           2           2           3
           3           3           3           3           3           3
           3           3           3           3           3           3
           3           4           4           4           4           4
           4           4           4           4           4           4
           4           4           4           5           5           5
           5           5           5           5           5           5
           5           5           5           5           5
Primitive exponents                        R   N=         119
  3.38700000E+01  5.09500000E+00  1.15900000E+00  3.25800000E-01  1.02700000E-01
  2.52600000E-02  1.40700000E+00  3.88000000E-01  1.02000000E-01  1.05700000E+00
  2.47000000E-01  1.53300000E+04  2.29900000E+03  5.22400000E+02  1.47300000E+02
  4.75500000E+01  1.67600000E+01  6.20700000E+00  5.22400000E+02  1.47300000E+02
  4.75500000E+01  1.67600000E+01  6.20700000E+00  6.88200000E-01  1.75200000E+00
  2.38400000E-01  7.37600000E-02  3.44600000E+01  7.74900000E+00  2.28000000E+00
  7.15600000E-01  2.14000000E-01  5.97400000E-02  2.31400000E+00  6.45000000E-01
  2.14000000E-01  1.42800000E+00  5.00000000E-01  1.53300000E+04  2.29900000E+03
  5.22400000E+02  1.47300000E+02  4.75500000E+01  1.67600000E+01  6.20700000E+00
  5.22400000E+02  1.47300000E+02  4.75500000E+01  1.67600000E+01  6.20700000E+00
  6.88200000E-01  1.75200000E+00  2.38400000E-01  7.37600000E-02  3.44600000E+01
  7.74900000E+00  2.28000000E+00  7.15600000E-01  2.14000000E-01  5.97400000E-02
  2.31400000E+00  6.45000000E-01  2.14000000E-01  1.42800000E+00  5.00000000E-01
  1.14200000E+04  1.71200000E+03  3.89300000E+02  1.10000000E+02  3.55700000E+01
  1.25400000E+01  4.64400000E+00  3.89300000E+02  1.10000000E+02  3.55700000E+01
  1.25400000E+01  4.64400000E+00  5.11800000E-01  1.29300000E+00  1.78700000E-01
  5.76000000E-02  2.66300000E+01  5.94800000E+00  1.74200000E+00  5.55000000E-01
  1.72500000E-01  4.91000000E-02  1.65400000E+00  4.69000000E-01  1.51000000E-01
  1.09300000E+00  3.64000000E-01  1.53300000E+04  2.29900000E+03  5.22400000E+02
  1.47300000E+02  4.75500000E+01  1.67600000E+01  6.20700000E+00  5.22400000E+02
  1.47300000E+02  4.75500000E+01  1.67600000E+01  6.20700000E+00  6.88200000E-01
  1.75200000E+00  2.38400000E-01  7.37600000E-02  3.44600000E+01  7.74900000E+00
  2.28000000E+00  7.15600000E-01  2.14000000E-01  5.97400000E-02  2.31400000E+00
  6.45000000E-01  2.14000000E-01  1.42800000E+00  5.00000000E-01
Contraction coefficients                   R   N=         119
  2.54948632E-02  1.90362766E-01  8.52162022E-01  1.00000000E+00  1.00000000E+00
  1.00000000E+00  1.00000000E+00  1.00000000E+00  1.00000000E+00  1.00000000E+00
  1.00000000E+00  5.19808943E-04  4.02025621E-03  2.07128267E-02  8.10105536E-02
  2.35962985E-01  4.42653446E-01  3.57064423E-01 -4.42115008E-05 -1.22591041E-03
 -1.05517725E-02 -6.74452633E-02 -1.71198607E-01  1.07329856E+00  1.00000000E+00
  1.00000000E+00  1.00000000E+00  4.11634896E-02  2.57762836E-01  8.02419274E-01
  1.00000000E+00  1.00000000E+00  1.00000000E+00  1.00000000E+00  1.00000000E+00
  1.00000000E+00  1.00000000E+00  1.00000000E+00  5.19808943E-04  4.02025621E-03
  2.07128267E-02  8.10105536E-02  2.35962985E-01  4.42653446E-01  3.57064423E-01
 -4.42115008E-05 -1.22591041E-03 -1.05517725E-02 -6.74452633E-02 -1.71198607E-01
  1.07329856E+00  1.00000000E+00  1.00000000E+00  1.00000000E+00  4.11634896E-02
  2.57762836E-01  8.02419274E-01  1.00000000E+00  1.00000000E+00  1.00000000E+00
  1.00000000E+00  1.00000000E+00  1.00000000E+00  1.00000000E+00  1.00000000E+00
  5.34563860E-04  4.13435660E-03  2.12335358E-02  8.25006224E-02  2.38138871E-01
  4.42551547E-01  3.53757422E-01 -4.89867350E-05 -1.19527323E-03 -1.03490714E-02
 -6.48680190E-02 -1.71552477E-01  1.07289568E+00  1.00000000E+00  1.00000000E+00
  1.00000000E+00  3.98072123E-02  2.49002660E-01  8.10479727E-01  1.00000000E+00
  1.00000000E+00  1.00000000E+00  1.00000000E+00  1.00000000E+00  1.00000000E+00
  1.00000000E+00  1.00000000E+00  5.19808943E-04  4.02025621E-03  2.07128267E-02
  8.10105536E-02  2.35962985E-01  4.42653446E-01  3.57064423E-01 -4.42115008E-05
 -1.22591041E-03 -1.05517725E-02 -6.74452633E-02 -1.71198607E-01  1.07329856E+00
  1.00000000E+00  1.00000000E+00  1.00000000E+00  4.11634896E-02  2.57762836E-01
  8.02419274E-01  1.00000000E+00  1.00000000E+00  1.00000000E+00  1.00000000E+00
  1.00000000E+00  1.00000000E+00  1.00000000E+00  1.00000000E+00
Coordinates of each shell                  R   N=         195
  2.85101553E+00  3.27236880E+00  0.00000000E+00  2.85101553E+00  3.27236880E+00
  0.00000000E+00  2.85101553E+00  3.27236880E+00  0.00000000E+00  2.85101553E+00
  3.27236880E+00  0.00000000E+00  2.85101553E+00  3.27236880E+00  0.00000000E+00
  2.85101553E+00  3.27236880E+00  0.00000000E+00  2.85101553E+00  3.27236880E+00
  0.00000000E+00  2.85101553E+00  3.27236880E+00  0.00000000E+00  2.85101553E+00
  3.27236880E+00  0.00000000E+00  2.74207146E+00  1.44451414E+00  0.00000000E+00
  2.74207146E+00  1.44451414E+00  0.00000000E+00  2.74207146E+00  1.44451414E+00
  0.00000000E+00  2.74207146E+00  1.44451414E+00  0.00000000E+00  2.74207146E+00
  1.44451414E+00  0.00000000E+00  2.74207146E+00  1.44451414E+00  0.00000000E+00
  2.74207146E+00  1.44451414E+00  0.00000000E+00  2.74207146E+00  1.44451414E+00
  0.00000000E+00  2.74207146E+00  1.44451414E+00  0.00000000E+00  2.74207146E+00
  1.44451414E+00  0.00000000E+00  2.74207146E+00  1.44451414E+00  0.00000000E+00
  2.74207146E+00  1.44451414E+00  0.00000000E+00  2.74207146E+00  1.44451414E+00
  0.00000000E+00  2.74207146E+00  1.44451414E+00  0.00000000E+00 -2.69341199E-18
  1.24391727E+00  0.00000000E+00 -2.69341199E-18  1.24391727E+00  0.00000000E+00
 -2.69341199E-18  1.24391727E+00  0.00000000E+00 -2.69341199E-18  1.24391727E+00
  0.00000000E+00 -2.69341199E-18  1.24391727E+00  0.00000000E+00 -2.69341199E-18
  1.24391727E+00  0.00000000E+00 -2.69341199E-18  1.24391727E+00  0.00000000E+00
 -2.69341199E-18  1.24391727E+00  0.00000000E+00 -2.69341199E-18  1.24391727E+00
  0.00000000E+00 -2.69341199E-18  1.24391727E+00  0.00000000E+00 -2.69341199E-18
  1.24391727E+00  0.00000000E+00 -2.69341199E-18  1.24391727E+00  0.00000000E+00
 -2.69341199E-18  1.24391727E+00  0.00000000E+00 -2.69341199E-18  1.24391727E+00
  0.00000000E+00 -4.86784762E-01 -1.46946594E+00  0.00000000E+00 -4.86784762E-01
 -1.46946594E+00  0.00000000E+00 -4.86784762E-01 -1.46946594E+00  0.00000000E+00
 -4.86784762E-01 -1.46946594E+00  0.00000000E+00 -4.86784762E-01 -1.46946594E+00
  0.00000000E+00 -4.86784762E-01 -1.46946594E+00  0.00000000E+00 -4.86784762E-01
 -1.46946594E+00  0.00000000E+00 -4.86784762E-01 -1.46946594E+00  0.00000000E+00
 -4.86784762E-01 -1.46946594E+00  0.00000000E+00 -4.86784762E-01 -1.46946594E+00
  0.00000000E+00 -4.86784762E-01 -1.46946594E+00  0.00000000E+00 -4.86784762E-01
 -1.46946594E+00  0.00000000E+00 -4.86784762E-01 -1.46946594E+00  0.00000000E+00
 -4.86784762E-01 -1.46946594E+00  0.00000000E+00 -2.67251174E+00 -1.81169481E+00
  0.00000000E+00 -2.67251174E+00 -1.81169481E+00  0.00000000E+00 -2.67251174E+00
 -1.81169481E+00  0.00000000E+00 -2.67251174E+00 -1.81169481E+00  0.00000000E+00
 -2.67251174E+00 -1.81169481E+00  0.00000000E+00 -2.67251174E+00 -1.81169481E+00
  0.00000000E+00 -2.67251174E+00 -1.81169481E+00  0.00000000E+00 -2.67251174E+00
 -1.81169481E+00  0.00000000E+00 -2.67251174E+00 -1.81169481E+00  0.00000000E+00
 -2.67251174E+00 -1.81169481E+00  0.00000000E+00 -2.67251174E+00 -1.81169481E+00
  0.00000000E+00 -2.67251174E+00 -1.81169481E+00  0.00000000E+00 -2.67251174E+00
 -1.81169481E+00  0.00000000E+00 -2.67251174E+00 -1.81169481E+00  0.00000000E+00
Num ILSW                                   I              100
ILSW                                       I   N=         100
           0           0           0           0           2           0
           0           0           0           0           0          -1
           5           0           0           0           0           0
           0           0           0           0           0           0
           1           0           0           0           0           0
           0           0      100000           0          -1           0
           0           0           0           0           0           0
           0           0           0           1           0           0
           0 -2000000000           1           0           0           0
           0           0           4          52           0           0
           0           0           0           0           0           0
           0           0           0           5           0           1
           0           0           0           0           0           0
           0           0           0           0           0           0
           0           0           0           0           0           0
           0           0           0           0           0           0
           0           0           0           0
Num RLSW                                   I               52
RLSW                                       R   N=          52
  1.00000000E+00  1.00000000E+00  1.00000000E+00  1.00000000E+00  1.00000000E+00
  0.00000000E+00  0.00000000E+00  1.00000000E+00  0.00000000E+00  0.00000000E+00
  0.00000000E+00  0.00000000E+00  1.00000000E+00  0.00000000E+00  0.00000000E+00
  0.00000000E+00  0.00000000E+00  1.00000000E+00  0.00000000E+00  0.00000000E+00
  0.00000000E+00  0.00000000E+00  1.00000000E+00  0.00000000E+00  0.00000000E+00
  0.00000000E+00  0.00000000E+00  1.00000000E+00  0.00000000E+00  0.00000000E+00
  0.00000000E+00  0.00000000E+00  1.00000000E+00  0.00000000E+00  0.00000000E+00
  0.00000000E+00  0.00000000E+00  0.00000000E+00  1.00000000E+00  1.00000000E+00
  0.00000000E+00  1.00000000E+00  0.00000000E+00  0.00000000E+00  0.00000000E+00
  0.00000000E+00  0.00000000E+00  0.00000000E+00  0.00000000E+00  0.00000000E+00
  0.00000000E+00  0.00000000E+00
MxBond                                     I                2
NBond                                      I   N=           5
           1           2           2           2           1
IBond                                      I   N=          10
           2           0           1           3           2           4
           3           5           4           0
RBond                                      R   N=          10
  1.00000000E+00  0.00000000E+00  1.00000000E+00  1.00000000E+00  1.00000000E+00
  1.00000000E+00  1.00000000E+00  2.00000000E+00  2.00000000E+00  0.00000000E+00
Virial Ratio                               R      2.002393937695072E+00
SCF Energy                                 R     -2.795016404860442E+02
MP2 Energy                                 R     -2.804465562976483E+02
Total Energy                               R     -2.804465562976483E+02
Post-SCF wavefunction norm                 R      1.120235841261625E+00
RMS Density                                R      3.812361485895362E-09
Job Status                                 I                1
Nuclear derivative order                   I                0
External E-field                           R   N=          35
  0.00000000E+00  0.00000000E+00  0.00000000E+00  0.00000000E+00  0.00000000E+00
  0.00000000E+00  0.00000000E+00  0.00000000E+00  0.00000000E+00  0.00000000E+00
  0.00000000E+00  0.00000000E+00  0.00000000E+00  0.00000000E+00  0.00000000E+00
  0.00000000E+00  0.00000000E+00  0.00000000E+00  0.00000000E+00  0.00000000E+00
  0.00000000E+00  0.00000000E+00  0.00000000E+00  0.00000000E+00  0.00000000E+00
  0.00000000E+00  0.00000000E+00  0.00000000E+00  0.00000000E+00  0.00000000E+00
  0.00000000E+00  0.00000000E+00  0.00000000E+00  0.00000000E+00  0.00000000E+00
IOpCl                                      I                0
IROHF                                      I                0
Alpha Orbital Energies                     R   N=         207
 -2.06902434E+01 -2.06847642E+01 -2.06606693E+01 -1.58134717E+01 -1.62396840E+00
 -1.49515280E+00 -1.25535941E+00 -9.47691883E-01 -7.71243846E-01 -7.59989275E-01
 -7.11490190E-01 -6.82377457E-01 -6.20990178E-01 -5.87868697E-01 -4.85037207E-01
 -4.72082901E-01  2.96344592E-02  7.14322594E-02  8.59826121E-02  1.02269170E-01
  1.33711407E-01  1.33732004E-01  1.43812840E-01  1.53815318E-01  1.78338654E-01
  1.94366691E-01  2.00026305E-01  2.05983226E-01  2.20616192E-01  2.35118728E-01
  2.37210828E-01  2.67597650E-01  2.93717469E-01  3.02779682E-01  3.11034578E-01
  3.43965022E-01  3.49059358E-01  3.86318613E-01  4.22552811E-01  4.33259312E-01
  5.27428546E-01  5.27629757E-01  5.56197543E-01  5.78538364E-01  6.25401999E-01
  6.39856765E-01  6.74934901E-01  6.84603397E-01  7.07560394E-01  7.09842716E-01
  7.24789724E-01  7.28299257E-01  7.44629490E-01  7.92149044E-01  7.93774542E-01
  8.11535556E-01  8.12610496E-01  8.28600383E-01  8.68200652E-01  9.08468385E-01
  9.21729226E-01  9.26898683E-01  9.53274577E-01  9.70542604E-01  9.82899496E-01
  1.01634477E+00  1.05035646E+00  1.05635040E+00  1.07673672E+00  1.11267292E+00
  1.13787373E+00  1.19205141E+00  1.21880428E+00  1.23542981E+00  1.34068873E+00
  1.35189276E+00  1.38365897E+00  1.45530944E+00  1.48834119E+00  1.50860283E+00
  1.53564354E+00  1.56489199E+00  1.57824958E+00  1.61063446E+00  1.65907944E+00
  1.67360314E+00  1.70328766E+00  1.79089710E+00  1.83727567E+00  1.83754404E+00
  1.87670949E+00  1.90651246E+00  1.95277155E+00  1.99061296E+00  2.00605148E+00
  2.07886644E+00  2.12581636E+00  2.13335588E+00  2.14940897E+00  2.22259925E+00
  2.26383942E+00  2.26559021E+00  2.29145798E+00  2.31148324E+00  2.33295212E+00
  2.38366669E+00  2.42065438E+00  2.42976509E+00  2.45566152E+00  2.46036085E+00
  2.47657397E+00  2.49567887E+00  2.58705355E+00  2.59830638E+00  2.61830640E+00
  2.62907312E+00  2.63975668E+00  2.66399410E+00  2.75261606E+00  2.81580365E+00
  2.83467864E+00  2.87170786E+00  2.89582494E+00  2.92809994E+00  2.96358749E+00
  3.01220595E+00  3.06309576E+00  3.11670984E+00  3.20226601E+00  3.22221983E+00
  3.31891167E+00  3.35176923E+00  3.53151353E+00  3.63162561E+00  3.83613657E+00
  3.84298540E+00  4.14624016E+00  4.16391484E+00  4.18159488E+00  4.25370088E+00
  4.35722948E+00  4.38888370E+00  4.46286145E+00  4.52123653E+00  4.64966886E+00
  4.70901962E+00  4.79777524E+00  4.82353448E+00  4.83230320E+00  4.89415449E+00
  5.02555095E+00  5.07778747E+00  5.10388776E+00  5.15369256E+00  5.17145057E+00
  5.23761961E+00  5.27376642E+00  5.30780371E+00  5.32422186E+00  5.34572861E+00
  5.58865239E+00  5.67328307E+00  5.76272974E+00  5.83260123E+00  5.95760488E+00
  6.16187449E+00  6.30905266E+00  6.34038447E+00  6.39664891E+00  6.49447093E+00
  6.50723608E+00  6.60978085E+00  6.67169366E+00  6.70167001E+00  6.75078258E+00
  6.76307376E+00  6.83112580E+00  6.90124112E+00  7.01862035E+00  7.05548066E+00
  7.06252617E+00  7.08966190E+00  7.12242461E+00  7.14565223E+00  7.18045474E+00
  7.22723130E+00  7.23909403E+00  7.30608521E+00  7.32584426E+00  7.33465376E+00
  7.39432558E+00  7.43483163E+00  7.48097428E+00  7.61379474E+00  7.61470635E+00
  7.61951599E+00  7.65993163E+00  7.78594371E+00  7.87722734E+00  8.09621578E+00
  8.31376158E+00  8.40965405E+00  8.54627075E+00  1.33723394E+01  1.44332195E+01
  1.51404033E+01  1.61494880E+01
Alpha MO coefficients                      R   N=       42849
  9.30598798E-05 -6.71742884E-04 -7.46325122E-04 -6.89178545E-06 -2.30057153E-05
 -2.74634290E-05  0.00000000E+00 -3.97825475E-05  7.02772234E-05  0.00000000E+00
  9.35110719E-05  4.37487553E-05  0.00000000E+00  3.26701601E-05  0.00000000E+00
  0.00000000E+00 -5.08769380E-05  1.71591683E-05 -3.80413337E-06  0.00000000E+00
  0.00000000E+00 -1.51643588E-04  1.07457050E-04  4.78430493E-03 -2.80482072E-04
  2.02522900E-05  1.64862615E-03  1.84698818E-03  1.07842596E-04  1.17406664E-05
  0.00000000E+00 -6.29555172E-04 -6.01310764E-05  0.00000000E+00 -1.17370533E-03
  7.73137029E-04  0.00000000E+00 -4.11418786E-04  4.87801048E-05  0.00000000E+00
  2.87900453E-05  0.00000000E+00  0.00000000E+00 -5.46428780E-05  1.54846804E-06
 -3.82704535E-04  0.00000000E+00  0.00000000E+00  7.45442698E-04  2.80808638E-05
 -4.51249121E-04  0.00000000E+00  0.00000000E+00  2.56834218E-04  1.20462435E-06
  0.00000000E+00  8.04005262E-05  1.60966816E-05  0.00000000E+00  0.00000000E+00
 -1.07771055E-04 -1.55270893E-05  0.00000000E+00  2.53702937E-04 -2.01749270E-05
  0.00000000E+00  0.00000000E+00 -3.64775625E-04  6.72542996E-06  9.76908180E-01
 -9.20224884E-03  4.33252540E-02  1.95193244E-03 -9.26135595E-04  1.52365505E-03
 -1.32103079E-03  0.00000000E+00 -1.45440510E-03  1.33885687E-03  0.00000000E+00
  5.45228517E-05 -1.16228362E-03  0.00000000E+00 -1.44918264E-04 -1.53843459E-05
  0.00000000E+00  4.31002910E-05  0.00000000E+00  0.00000000E+00 -3.50402951E-05
  2.51622105E-05  7.55633279E-04  0.00000000E+00  0.00000000E+00 -2.21433506E-04
 -4.43249211E-04 -3.58131815E-04  0.00000000E+00  0.00000000E+00 -3.05301883E-04
 -3.70285290E-04  0.00000000E+00  4.73539636E-05 -4.71310204E-05  0.00000000E+00
  0.00000000E+00 -3.82551896E-05 -1.92735701E-05  0.00000000E+00  2.57285806E-05
  2.28612099E-05  0.00000000E+00  0.00000000E+00 -3.05860027E-04 -1.68277547E-04
  4.04797970E-05  5.27453420E-05 -2.68291898E-04 -6.59755507E-04 -1.36387343E-04
 -2.75200921E-05 -9.90174404E-05  0.00000000E+00  2.84375003E-04  7.31811864E-04
  0.00000000E+00 -8.64923390E-04 -4.77926028E-04  0.00000000E+00 -1.19023373E-04
 -2.51992492E-05  0.00000000E+00 -1.87781893E-05  0.00000000E+00  0.00000000E+00
 -3.13874219E-05  1.48684553E-05 -3.31304259E-04  0.00000000E+00  0.00000000E+00
 -8.34158946E-04  1.29276040E-04 -3.62263539E-05  0.00000000E+00  0.00000000E+00
  1.02262802E-04 -1.22202829E-04  0.00000000E+00 -2.13295907E-05 -1.20761981E-04
  0.00000000E+00  0.00000000E+00 -5.94179130E-05 -1.37888696E-04  0.00000000E+00
  1.07346216E-05 -1.46006926E-04  0.00000000E+00  0.00000000E+00  4.46335309E-05
 -4.30266575E-04 -3.04920611E-03  1.25827815E-04 -1.46218505E-04 -2.75252955E-04
  1.26079497E-04 -8.93233014E-06 -2.93546689E-05  0.00000000E+00  6.97830770E-05
  1.73584244E-04  0.00000000E+00  2.31198285E-04  1.87477374E-04  0.00000000E+00
  1.24608636E-04  1.66822889E-05  0.00000000E+00 -3.54974191E-06  0.00000000E+00
  0.00000000E+00 -1.80956427E-05  1.12275573E-06  3.82610609E-08  0.00000000E+00
  0.00000000E+00  8.23139008E-05  9.18319541E-05 -1.00597173E-04  0.00000000E+00
  0.00000000E+00  1.75064233E-04  1.56460135E-04  0.00000000E+00  1.56496381E-05
 -3.80696290E-06  0.00000000E+00  0.00000000E+00 -4.71731153E-06 -1.16271909E-05
  0.00000000E+00 -3.40158020E-05  4.61739059E-05  0.00000000E+00  0.00000000E+00
  8.77970574E-05  9.08133089E-05  3.51523423E-05 -9.74849907E-04 -5.06714670E-04
 -9.05107700E-06 -2.25542998E-05  1.67563631E-05  0.00000000E+00 -7.33034522E-06
  2.78194706E-04  0.00000000E+00 -3.45275589E-05  1.40529140E-04  0.00000000E+00
  2.49435172E-05  0.00000000E+00  0.00000000E+00  1.37571839E-05  1.25397524E-05
 -2.13568138E-05  0.00000000E+00  0.00000000E+00  6.34442735E-06  2.99564381E-05
  1.13813321E-04  6.91348525E-05 -2.72559911E-05  7.90451316E-04  7.28138397E-04
  9.90750280E-06  2.77866616E-06  0.00000000E+00 -6.59090925E-05  1.92646253E-05
  0.00000000E+00  2.56127728E-04  8.40777342E-04  0.00000000E+00 -2.12073604E-05
  6.97744713E-05  0.00000000E+00 -1.41178808E-06  0.00000000E+00  0.00000000E+00
  3.06941734E-07 -8.46671732E-06 -3.91188934E-05  0.00000000E+00  0.00000000E+00
 -3.05779142E-05  9.38498327E-05 -3.00882901E-05  0.00000000E+00  0.00000000E+00
 -2.50282990E-04 -1.43701266E-04  0.00000000E+00  9.08337435E-06  5.96868850E-06
  0.00000000E+00  0.00000000E+00  3.34302434E-06 -1.91260895E-05  0.00000000E+00
 -3.71435304E-05 -3.60225199E-05  0.00000000E+00  0.00000000E+00 -6.93534231E-05
 -3.93682701E-07  3.08849080E-03  3.61246100E-05  1.11581243E-04 -7.04728373E-05
 -4.90948068E-04  7.65021214E-06  1.57603418E-05  0.00000000E+00 -6.26243175E-05
 -5.97095340E-05  0.00000000E+00  2.32120373E-04 -1.44382495E-04  0.00000000E+00
 -2.09923785E-04 -7.27878198E-05  0.00000000E+00 -8.65464052E-06  0.00000000E+00
  0.00000000E+00  2.25575110E-05  1.90023582E-05  3.95997582E-06  0.00000000E+00
  0.00000000E+00 -1.18699727E-04 -4.30874292E-05 -2.46310768E-06  0.00000000E+00
  0.00000000E+00 -2.21464702E-04 -1.79710366E-04  0.00000000E+00  3.38304713E-06
  4.43200146E-07  0.00000000E+00  0.00000000E+00  1.99163718E-06 -1.48432799E-05
  0.00000000E+00 -4.73629659E-05 -8.35878518E-07  0.00000000E+00  0.00000000E+00
 -8.05316023E-05  1.98100239E-04  2.58771643E-04  1.46600641E-03 -7.85374339E-05
 -1.55553665E-03  3.59358834E-04 -1.44734525E-04 -5.61641220E-07  0.00000000E+00
 -2.07765386E-03 -4.03746696E-04  0.00000000E+00  9.78149929E-04  7.33864040E-04
  0.00000000E+00 -1.67885696E-04  5.02116739E-05  0.00000000E+00 -1.23527507E-04
  0.00000000E+00  0.00000000E+00  2.42346387E-04  9.62454442E-05 -4.40472870E-04
  0.00000000E+00  0.00000000E+00  8.99858239E-04 -6.84966116E-05  1.47190062E-05
  0.00000000E+00  0.00000000E+00 -3.29023998E-04 -1.36595664E-04  0.00000000E+00
 -2.49184861E-06  1.46080102E-05  0.00000000E+00  0.00000000E+00  2.02493098E-05
  1.57319471E-05  0.00000000E+00  1.72871268E-04 -6.82270914E-05  0.00000000E+00
  0.00000000E+00 -2.42611950E-04  3.19083234E-05  9.76648413E-01 -9.85185465E-03
  4.35649557E-02  4.47343568E-03 -4.37778555E-04  2.14835320E-03  4.91035690E-04
  0.00000000E+00 -2.38345617E-03 -6.12170924E-04  0.00000000E+00  1.14773144E-03
  4.79836464E-08  0.00000000E+00  7.54380068E-06 -4.69945049E-05  0.00000000E+00
 -2.31528352E-04  0.00000000E+00  0.00000000E+00  1.02983888E-04  3.16008268E-05
  3.90439088E-04  0.00000000E+00  0.00000000E+00 -8.28197258E-04 -4.24364707E-04
 -1.59028620E-04  0.00000000E+00  0.00000000E+00  2.63042487E-04  2.23856180E-05
  0.00000000E+00  5.22460584E-05  1.81546754E-05  0.00000000E+00  0.00000000E+00
 -2.14791057E-05 -1.38146033E-05  0.00000000E+00  1.36906725E-04  8.82481393E-06
  0.00000000E+00  0.00000000E+00 -1.87311892E-04 -1.42001373E-04  4.69954735E-04
  1.94468733E-03  7.87563201E-05  1.39127858E-05 -3.38641794E-05 -2.43888336E-04
  0.00000000E+00  1.66195726E-04 -1.23439301E-03  0.00000000E+00  3.61649262E-04
 -3.09258867E-04  0.00000000E+00 -1.05138002E-06  0.00000000E+00  0.00000000E+00
  7.64091176E-05  2.36208660E-05 -1.62286859E-04  0.00000000E+00  0.00000000E+00
 -5.32554343E-04 -6.82501248E-05  9.76831414E-01 -9.15794068E-03  4.34452737E-02
  2.53184492E-04 -1.25148303E-03 -1.62610221E-03  1.37434327E-03  0.00000000E+00
  1.63362170E-03 -1.21414756E-03  0.00000000E+00 -5.27572811E-04 -7.38339779E-04
  0.00000000E+00  6.38684371E-05 -6.59193988E-05  0.00000000E+00  3.07072139E-05
  0.00000000E+00  0.00000000E+00 -1.15509685E-04 -1.45885807E-05  7.51334822E-04
  0.00000000E+00  0.00000000E+00 -1.99902676E-04 -2.47858990E-04 -2.66523536E-04
  0.00000000E+00  0.00000000E+00  1.57044680E-04  9.56422927E-05  0.00000000E+00
 -6.49214203E-05  3.24761458E-07  0.00000000E+00  0.00000000E+00  1.99700068E-05
  1.16967182E-05  0.00000000E+00 -6.50174942E-06  1.12001703E-04  0.00000000E+00
  0.00000000E+00  2.35401393E-04  1.16628070E-04 -4.87549335E-03 -2.09414934E-04