 Entering Gaussian System, Link 0=g16
 Input=hoono_r3_1p429273.gjf
 Output=hoono_r3_1p429273.log
 Initial command:
 /sw/contrib/gaussian/g16/B01/g16/l1.exe "/scr/Gau-1753.inp" -scrdir="/scr/"
 Entering Link 1 = /sw/contrib/gaussian/g16/B01/g16/l1.exe PID=      1754.
  
 Copyright (c) 1988-2017, Gaussian, Inc.  All Rights Reserved.
  
 This is part of the Gaussian(R) 16 program.  It is based on
 the Gaussian(R) 09 system (copyright 2009, Gaussian, Inc.),
 the Gaussian(R) 03 system (copyright 2003, Gaussian, Inc.),
 the Gaussian(R) 98 system (copyright 1998, Gaussian, Inc.),
 the Gaussian(R) 94 system (copyright 1995, Gaussian, Inc.),
 the Gaussian 92(TM) system (copyright 1992, Gaussian, Inc.),
 the Gaussian 90(TM) system (copyright 1990, Gaussian, Inc.),
 the Gaussian 88(TM) system (copyright 1988, Gaussian, Inc.),
 the Gaussian 86(TM) system (copyright 1986, Carnegie Mellon
 University), and the Gaussian 82(TM) system (copyright 1983,
 Carnegie Mellon University). Gaussian is a federally registered
 trademark of Gaussian, Inc.
  
 This software contains proprietary and confidential information,
 including trade secrets, belonging to Gaussian, Inc.
  
 This software is provided under written license and may be
 used, copied, transmitted, or stored only in accord with that
 written license.
  
 The following legend is applicable only to US Government
 contracts under FAR:
  
                    RESTRICTED RIGHTS LEGEND
  
 Use, reproduction and disclosure by the US Government is
 subject to restrictions as set forth in subparagraphs (a)
 and (c) of the Commercial Computer Software - Restricted
 Rights clause in FAR 52.227-19.
  
 Gaussian, Inc.
 340 Quinnipiac St., Bldg. 40, Wallingford CT 06492
  
  
 ---------------------------------------------------------------
 Warning -- This program may not be used in any manner that
 competes with the business of Gaussian, Inc. or will provide
 assistance to any competitor of Gaussian, Inc.  The licensee
 of this program is prohibited from giving any competitor of
 Gaussian, Inc. access to this program.  By using this program,
 the user acknowledges that Gaussian, Inc. is engaged in the
 business of creating and licensing software in the field of
 computational chemistry and represents and warrants to the
 licensee that it is not a competitor of Gaussian, Inc. and that
 it will not use this program in any manner prohibited above.
 ---------------------------------------------------------------
  

 Cite this work as:
 Gaussian 16, Revision B.01,
 M. J. Frisch, G. W. Trucks, H. B. Schlegel, G. E. Scuseria, 
 M. A. Robb, J. R. Cheeseman, G. Scalmani, V. Barone, 
 G. A. Petersson, H. Nakatsuji, X. Li, M. Caricato, A. V. Marenich, 
 J. Bloino, B. G. Janesko, R. Gomperts, B. Mennucci, H. P. Hratchian, 
 J. V. Ortiz, A. F. Izmaylov, J. L. Sonnenberg, D. Williams-Young, 
 F. Ding, F. Lipparini, F. Egidi, J. Goings, B. Peng, A. Petrone, 
 T. Henderson, D. Ranasinghe, V. G. Zakrzewski, J. Gao, N. Rega, 
 G. Zheng, W. Liang, M. Hada, M. Ehara, K. Toyota, R. Fukuda, 
 J. Hasegawa, M. Ishida, T. Nakajima, Y. Honda, O. Kitao, H. Nakai, 
 T. Vreven, K. Throssell, J. A. Montgomery, Jr., J. E. Peralta, 
 F. Ogliaro, M. J. Bearpark, J. J. Heyd, E. N. Brothers, K. N. Kudin, 
 V. N. Staroverov, T. A. Keith, R. Kobayashi, J. Normand, 
 K. Raghavachari, A. P. Rendell, J. C. Burant, S. S. Iyengar, 
 J. Tomasi, M. Cossi, J. M. Millam, M. Klene, C. Adamo, R. Cammi, 
 J. W. Ochterski, R. L. Martin, K. Morokuma, O. Farkas, 
 J. B. Foresman, and D. J. Fox, Gaussian, Inc., Wallingford CT, 2016.
 
 ******************************************
 Gaussian 16:  ES64L-G16RevB.01 20-Dec-2017
                14-Feb-2022 
 ******************************************
 %nproc=28
 Will use up to   28 processors via shared memory.
 %mem=120GB
 %chk=hoono_r3_1p429273.chk
 -------------------------------------
 #p SP mp2/aug-cc-pvtz density=current
 -------------------------------------
 1/30=1,38=1,172=1/1;
 2/12=2,17=6,18=5,40=1/2;
 3/5=16,6=1,7=10,11=9,25=1,30=1,71=1/1,2,3;
 4//1;
 5/5=2,38=5/2;
 8/6=4,10=1/1;
 9/15=1,16=-3/6;
 10/5=1,13=10/2;
 6/7=2,8=2,9=2,10=2,22=-1/1;
 99/5=1,9=1/99;
 Leave Link    1 at Mon Feb 14 22:11:05 2022, MaxMem= 16106127360 cpu:               2.1 elap:               0.1
 (Enter /sw/contrib/gaussian/g16/B01/g16/l101.exe)
 -----
 title
 -----
 Symbolic Z-matrix:
 Charge =  0 Multiplicity = 1
 H
 O                    1    r1
 O                    2    r2       1    a1
 N                    3    r3       2    a2       1    d1       0
 O                    4    r4       3    a3       2    d2       0
       Variables:
  r1                    0.96898                  
  r2                    1.45492                  
  r3                    1.42927                  
  r4                    1.17073                  
  a1                   97.59495                  
  a2                  102.29752                  
  a3                  109.06955                  
  d1                  180.                       
  d2                  180.                       
 
 ITRead=  0  0  0  0  0
 MicOpt= -1 -1 -1 -1 -1
 NAtoms=      5 NQM=        5 NQMF=       0 NMMI=      0 NMMIF=      0
                NMic=       0 NMicF=      0.
                    Isotopes and Nuclear Properties:
 (Nuclear quadrupole moments (NQMom) in fm**2, nuclear magnetic moments (NMagM)
  in nuclear magnetons)

  Atom         1           2           3           4           5
 IAtWgt=           1          16          16          14          16
 AtmWgt=   1.0078250  15.9949146  15.9949146  14.0030740  15.9949146
 NucSpn=           1           0           0           2           0
 AtZEff=  -0.0000000  -0.0000000  -0.0000000  -0.0000000  -0.0000000
 NQMom=    0.0000000   0.0000000   0.0000000   2.0440000   0.0000000
 NMagM=    2.7928460   0.0000000   0.0000000   0.4037610   0.0000000
 AtZNuc=   1.0000000   8.0000000   8.0000000   7.0000000   8.0000000
 Leave Link  101 at Mon Feb 14 22:11:05 2022, MaxMem= 16106127360 cpu:               3.5 elap:               0.2
 (Enter /sw/contrib/gaussian/g16/B01/g16/l202.exe)
                          Input orientation:                          
 ---------------------------------------------------------------------
 Center     Atomic      Atomic             Coordinates (Angstroms)
 Number     Number       Type             X           Y           Z
 ---------------------------------------------------------------------
      1          1           0        0.000000    0.000000    0.000000
      2          8           0        0.000000    0.000000    0.968976
      3          8           0        1.442156    0.000000    1.161271
      4          7           0        1.559332    0.000000    2.585733
      5          8           0        2.693448    0.000000    2.876228
 ---------------------------------------------------------------------
                    Distance matrix (angstroms):
                    1          2          3          4          5
     1  H    0.000000
     2  O    0.968976   0.000000
     3  O    1.851584   1.454919   0.000000
     4  N    3.019525   2.246202   1.429274   0.000000
     5  O    3.940476   3.300345   2.122925   1.170729   0.000000
 Stoichiometry    HNO3
 Framework group  CS[SG(HNO3)]
 Deg. of freedom     7
 Full point group                 CS      NOp   2
 Largest Abelian subgroup         CS      NOp   2
 Largest concise Abelian subgroup C1      NOp   1
                         Standard orientation:                         
 ---------------------------------------------------------------------
 Center     Atomic      Atomic             Coordinates (Angstroms)
 Number     Number       Type             X           Y           Z
 ---------------------------------------------------------------------
      1          1           0        1.552917    1.667776    0.000000
      2          8           0        1.454241    0.703838   -0.000000
      3          8           0        0.000000    0.659405    0.000000
      4          7           0       -0.261628   -0.745719   -0.000000
      5          8           0       -1.419431   -0.919211    0.000000
 ---------------------------------------------------------------------
 Rotational constants (GHZ):          56.2491747           5.0863871           4.6645872
 Leave Link  202 at Mon Feb 14 22:11:05 2022, MaxMem= 16106127360 cpu:               2.0 elap:               0.1
 (Enter /sw/contrib/gaussian/g16/B01/g16/l301.exe)
 Standard basis: Aug-CC-pVTZ (5D, 7F)
 Ernie: Thresh=  0.10000D-02 Tol=  0.10000D-05 Strict=F.
 Ernie:  12 primitive shells out of 131 were deleted.
 There are   166 symmetry adapted cartesian basis functions of A'  symmetry.
 There are    79 symmetry adapted cartesian basis functions of A"  symmetry.
 There are   136 symmetry adapted basis functions of A'  symmetry.
 There are    71 symmetry adapted basis functions of A"  symmetry.
   207 basis functions,   315 primitive gaussians,   245 cartesian basis functions
    16 alpha electrons       16 beta electrons
       nuclear repulsion energy       117.6879950589 Hartrees.
 IExCor=    0 DFT=F Ex=HF Corr=None ExCW=0 ScaHFX=  1.000000
 ScaDFX=  1.000000  1.000000  1.000000  1.000000 ScalE2=  1.000000  1.000000
 IRadAn=      5 IRanWt=     -1 IRanGd=            0 ICorTp=0 IEmpDi=  4
 NAtoms=    5 NActive=    5 NUniq=    5 SFac= 1.00D+00 NAtFMM=   60 NAOKFM=F Big=F
 Integral buffers will be    131072 words long.
 Raffenetti 1 integral format.
 Two-electron integral symmetry is turned on.
 Leave Link  301 at Mon Feb 14 22:11:05 2022, MaxMem= 16106127360 cpu:               1.5 elap:               0.1
 (Enter /sw/contrib/gaussian/g16/B01/g16/l302.exe)
 NPDir=0 NMtPBC=     1 NCelOv=     1 NCel=       1 NClECP=     1 NCelD=      1
         NCelK=      1 NCelE2=     1 NClLst=     1 CellRange=     0.0.
 One-electron integrals computed using PRISM.
 One-electron integral symmetry used in STVInt
 NBasis=   207 RedAO= T EigKep=  1.78D-04  NBF=   136    71
 NBsUse=   207 1.00D-06 EigRej= -1.00D+00 NBFU=   136    71
 Leave Link  302 at Mon Feb 14 22:11:05 2022, MaxMem= 16106127360 cpu:               4.6 elap:               0.2
 (Enter /sw/contrib/gaussian/g16/B01/g16/l303.exe)
 DipDrv:  MaxL=1.
 Leave Link  303 at Mon Feb 14 22:11:05 2022, MaxMem= 16106127360 cpu:               1.6 elap:               0.1
 (Enter /sw/contrib/gaussian/g16/B01/g16/l401.exe)
 ExpMin= 2.53D-02 ExpMax= 1.53D+04 ExpMxC= 5.22D+02 IAcc=3 IRadAn=         5 AccDes= 0.00D+00
 Harris functional with IExCor=  205 and IRadAn=       5 diagonalized for initial guess.
 HarFok:  IExCor=  205 AccDes= 0.00D+00 IRadAn=         5 IDoV= 1 UseB2=F ITyADJ=14
 ICtDFT=  3500011 ScaDFX=  1.000000  1.000000  1.000000  1.000000
 FoFCou: FMM=F IPFlag=           0 FMFlag=      100000 FMFlg1=           0
         NFxFlg=           0 DoJE=T BraDBF=F KetDBF=T FulRan=T
         wScrn=  0.000000 ICntrl=       500 IOpCl=  0 I1Cent=   200000004 NGrid=           0
         NMat0=    1 NMatS0=      1 NMatT0=    0 NMatD0=    1 NMtDS0=    0 NMtDT0=    0
 Petite list used in FoFCou.
 Harris En= -279.629756099285    
 JPrj=0 DoOrth=F DoCkMO=F.
 Initial guess orbital symmetries:
       Occupied  (A') (A') (A') (A') (A') (A') (A') (A') (A') (A')
                 (A") (A') (A') (A") (A") (A')
       Virtual   (A") (A') (A') (A') (A') (A') (A") (A') (A') (A')
                 (A") (A') (A") (A') (A') (A") (A') (A") (A') (A')
                 (A') (A') (A') (A') (A') (A") (A') (A") (A') (A')
                 (A") (A') (A") (A') (A') (A") (A') (A") (A') (A')
                 (A") (A') (A") (A') (A") (A') (A') (A') (A") (A")
                 (A') (A') (A') (A') (A") (A') (A") (A') (A") (A')
                 (A') (A') (A") (A') (A') (A") (A') (A") (A') (A')
                 (A") (A') (A') (A") (A") (A') (A') (A") (A') (A')
                 (A') (A") (A') (A") (A') (A") (A') (A") (A') (A')
                 (A') (A") (A') (A") (A') (A") (A") (A') (A") (A')
                 (A') (A') (A") (A') (A') (A') (A") (A') (A") (A')
                 (A") (A') (A') (A') (A") (A') (A') (A') (A") (A')
                 (A") (A') (A') (A") (A") (A') (A') (A") (A") (A')
                 (A') (A') (A') (A") (A") (A') (A") (A') (A') (A')
                 (A') (A") (A") (A') (A') (A") (A') (A') (A') (A')
                 (A") (A') (A') (A") (A') (A") (A') (A") (A') (A")
                 (A') (A") (A') (A") (A') (A") (A") (A") (A') (A')
                 (A") (A') (A") (A') (A") (A') (A") (A") (A') (A')
                 (A') (A') (A') (A') (A') (A') (A') (A') (A') (A')
                 (A')
 The electronic state of the initial guess is 1-A'.
 Leave Link  401 at Mon Feb 14 22:11:06 2022, MaxMem= 16106127360 cpu:               7.2 elap:               0.3
 (Enter /sw/contrib/gaussian/g16/B01/g16/l502.exe)
 Keep R1 ints in memory in symmetry-blocked form, NReq=348887737.
 FoFCou: FMM=F IPFlag=           0 FMFlag=           0 FMFlg1=           0
         NFxFlg=           0 DoJE=F BraDBF=F KetDBF=F FulRan=T
         wScrn=  0.000000 ICntrl=       600 IOpCl=  0 I1Cent=           0 NGrid=           0
         NMat0=    1 NMatS0=  21528 NMatT0=    0 NMatD0=    1 NMtDS0=    0 NMtDT0=    0
 Petite list used in FoFCou.
 Closed shell SCF:
 Using DIIS extrapolation, IDIIS=  1040.
 NGot= 16106127360 LenX= 15988850015 LenY= 15988789549
 Requested convergence on RMS density matrix=1.00D-08 within 128 cycles.
 Requested convergence on MAX density matrix=1.00D-06.
 Requested convergence on             energy=1.00D-06.
 No special actions if energy rises.

 Cycle   1  Pass 1  IDiag  1:
 E= -279.369721575304    
 DIIS: error= 2.55D-02 at cycle   1 NSaved=   1.
 NSaved= 1 IEnMin= 1 EnMin= -279.369721575304     IErMin= 1 ErrMin= 2.55D-02
 ErrMax= 2.55D-02  0.00D+00 EMaxC= 1.00D-01 BMatC= 4.43D-01 BMatP= 4.43D-01
 IDIUse=3 WtCom= 7.45D-01 WtEn= 2.55D-01
 Coeff-Com:  0.100D+01
 Coeff-En:   0.100D+01
 Coeff:      0.100D+01
 Gap=     0.522 Goal=   None    Shift=    0.000
 GapD=    0.522 DampG=2.000 DampE=0.500 DampFc=1.0000 IDamp=-1.
 RMSDP=1.65D-03 MaxDP=9.70D-02              OVMax= 1.18D-01

 Cycle   2  Pass 1  IDiag  1:
 E= -279.451321390111     Delta-E=       -0.081599814806 Rises=F Damp=F
 DIIS: error= 1.79D-02 at cycle   2 NSaved=   2.
 NSaved= 2 IEnMin= 2 EnMin= -279.451321390111     IErMin= 2 ErrMin= 1.79D-02
 ErrMax= 1.79D-02  0.00D+00 EMaxC= 1.00D-01 BMatC= 7.80D-02 BMatP= 4.43D-01
 IDIUse=3 WtCom= 8.21D-01 WtEn= 1.79D-01
 Coeff-Com:  0.206D+00 0.794D+00
 Coeff-En:   0.334D-01 0.967D+00
 Coeff:      0.175D+00 0.825D+00
 Gap=     0.534 Goal=   None    Shift=    0.000
 RMSDP=9.22D-04 MaxDP=3.81D-02 DE=-8.16D-02 OVMax= 6.63D-02

 Cycle   3  Pass 1  IDiag  1:
 E= -279.484094593788     Delta-E=       -0.032773203677 Rises=F Damp=F
 DIIS: error= 9.62D-03 at cycle   3 NSaved=   3.
 NSaved= 3 IEnMin= 3 EnMin= -279.484094593788     IErMin= 3 ErrMin= 9.62D-03
 ErrMax= 9.62D-03  0.00D+00 EMaxC= 1.00D-01 BMatC= 2.88D-02 BMatP= 7.80D-02
 IDIUse=3 WtCom= 9.04D-01 WtEn= 9.62D-02
 Coeff-Com: -0.338D-01 0.368D+00 0.666D+00
 Coeff-En:   0.000D+00 0.224D+00 0.776D+00
 Coeff:     -0.306D-01 0.354D+00 0.677D+00
 Gap=     0.510 Goal=   None    Shift=    0.000
 RMSDP=3.78D-04 MaxDP=1.48D-02 DE=-3.28D-02 OVMax= 4.05D-02

 Cycle   4  Pass 1  IDiag  1:
 E= -279.503285839644     Delta-E=       -0.019191245856 Rises=F Damp=F
 DIIS: error= 1.25D-03 at cycle   4 NSaved=   4.
 NSaved= 4 IEnMin= 4 EnMin= -279.503285839644     IErMin= 4 ErrMin= 1.25D-03
 ErrMax= 1.25D-03  0.00D+00 EMaxC= 1.00D-01 BMatC= 4.63D-04 BMatP= 2.88D-02
 IDIUse=3 WtCom= 9.87D-01 WtEn= 1.25D-02
 Coeff-Com: -0.110D-01 0.468D-01 0.145D+00 0.819D+00
 Coeff-En:   0.000D+00 0.000D+00 0.000D+00 0.100D+01
 Coeff:     -0.108D-01 0.462D-01 0.143D+00 0.821D+00
 Gap=     0.502 Goal=   None    Shift=    0.000
 RMSDP=8.98D-05 MaxDP=2.67D-03 DE=-1.92D-02 OVMax= 1.06D-02

 Cycle   5  Pass 1  IDiag  1:
 E= -279.503931573853     Delta-E=       -0.000645734210 Rises=F Damp=F
 DIIS: error= 6.83D-04 at cycle   5 NSaved=   5.
 NSaved= 5 IEnMin= 5 EnMin= -279.503931573853     IErMin= 5 ErrMin= 6.83D-04
 ErrMax= 6.83D-04  0.00D+00 EMaxC= 1.00D-01 BMatC= 8.18D-05 BMatP= 4.63D-04
 IDIUse=3 WtCom= 9.93D-01 WtEn= 6.83D-03
 Coeff-Com:  0.593D-02-0.681D-01-0.113D+00 0.304D-01 0.114D+01
 Coeff-En:   0.000D+00 0.000D+00 0.000D+00 0.000D+00 0.100D+01
 Coeff:      0.589D-02-0.676D-01-0.112D+00 0.302D-01 0.114D+01
 Gap=     0.502 Goal=   None    Shift=    0.000
 RMSDP=7.25D-05 MaxDP=2.03D-03 DE=-6.46D-04 OVMax= 1.07D-02

 Cycle   6  Pass 1  IDiag  1:
 E= -279.504218156605     Delta-E=       -0.000286582751 Rises=F Damp=F
 DIIS: error= 2.84D-04 at cycle   6 NSaved=   6.
 NSaved= 6 IEnMin= 6 EnMin= -279.504218156605     IErMin= 6 ErrMin= 2.84D-04
 ErrMax= 2.84D-04  0.00D+00 EMaxC= 1.00D-01 BMatC= 1.58D-05 BMatP= 8.18D-05
 IDIUse=3 WtCom= 9.97D-01 WtEn= 2.84D-03
 Coeff-Com:  0.509D-03 0.239D-02 0.543D-02-0.137D+00-0.215D+00 0.134D+01
 Coeff-En:   0.000D+00 0.000D+00 0.000D+00 0.000D+00 0.000D+00 0.100D+01
 Coeff:      0.507D-03 0.238D-02 0.541D-02-0.137D+00-0.215D+00 0.134D+01
 Gap=     0.502 Goal=   None    Shift=    0.000
 RMSDP=4.27D-05 MaxDP=1.16D-03 DE=-2.87D-04 OVMax= 5.34D-03

 Cycle   7  Pass 1  IDiag  1:
 E= -279.504283513449     Delta-E=       -0.000065356845 Rises=F Damp=F
 DIIS: error= 1.01D-04 at cycle   7 NSaved=   7.
 NSaved= 7 IEnMin= 7 EnMin= -279.504283513449     IErMin= 7 ErrMin= 1.01D-04
 ErrMax= 1.01D-04  0.00D+00 EMaxC= 1.00D-01 BMatC= 3.81D-06 BMatP= 1.58D-05
 IDIUse=3 WtCom= 9.99D-01 WtEn= 1.01D-03
 Coeff-Com: -0.903D-03 0.124D-01 0.246D-01-0.225D-01-0.263D+00 0.332D+00
 Coeff-Com:  0.918D+00
 Coeff-En:   0.000D+00 0.000D+00 0.000D+00 0.000D+00 0.000D+00 0.000D+00
 Coeff-En:   0.100D+01
 Coeff:     -0.902D-03 0.124D-01 0.246D-01-0.225D-01-0.263D+00 0.331D+00
 Coeff:      0.918D+00
 Gap=     0.502 Goal=   None    Shift=    0.000
 RMSDP=1.25D-05 MaxDP=3.52D-04 DE=-6.54D-05 OVMax= 1.49D-03

 Cycle   8  Pass 1  IDiag  1:
 E= -279.504291253572     Delta-E=       -0.000007740123 Rises=F Damp=F
 DIIS: error= 5.61D-05 at cycle   8 NSaved=   8.
 NSaved= 8 IEnMin= 8 EnMin= -279.504291253572     IErMin= 8 ErrMin= 5.61D-05
 ErrMax= 5.61D-05  0.00D+00 EMaxC= 1.00D-01 BMatC= 5.46D-07 BMatP= 3.81D-06
 IDIUse=1 WtCom= 1.00D+00 WtEn= 0.00D+00
 Coeff-Com: -0.410D-03 0.304D-02 0.690D-02 0.266D-01-0.418D-01-0.190D+00
 Coeff-Com:  0.206D+00 0.990D+00
 Coeff:     -0.410D-03 0.304D-02 0.690D-02 0.266D-01-0.418D-01-0.190D+00
 Coeff:      0.206D+00 0.990D+00
 Gap=     0.502 Goal=   None    Shift=    0.000
 RMSDP=6.08D-06 MaxDP=1.87D-04 DE=-7.74D-06 OVMax= 6.59D-04

 Cycle   9  Pass 1  IDiag  1:
 E= -279.504292743782     Delta-E=       -0.000001490209 Rises=F Damp=F
 DIIS: error= 1.60D-05 at cycle   9 NSaved=   9.
 NSaved= 9 IEnMin= 9 EnMin= -279.504292743782     IErMin= 9 ErrMin= 1.60D-05
 ErrMax= 1.60D-05  0.00D+00 EMaxC= 1.00D-01 BMatC= 6.85D-08 BMatP= 5.46D-07
 IDIUse=1 WtCom= 1.00D+00 WtEn= 0.00D+00
 Coeff-Com:  0.108D-03-0.155D-02-0.278D-02-0.795D-03 0.328D-01-0.622D-02
 Coeff-Com: -0.176D+00-0.537D-01 0.121D+01
 Coeff:      0.108D-03-0.155D-02-0.278D-02-0.795D-03 0.328D-01-0.622D-02
 Coeff:     -0.176D+00-0.537D-01 0.121D+01
 Gap=     0.502 Goal=   None    Shift=    0.000
 RMSDP=1.85D-06 MaxDP=6.35D-05 DE=-1.49D-06 OVMax= 1.73D-04

 Cycle  10  Pass 1  IDiag  1:
 E= -279.504292896757     Delta-E=       -0.000000152975 Rises=F Damp=F
 DIIS: error= 4.27D-06 at cycle  10 NSaved=  10.
 NSaved=10 IEnMin=10 EnMin= -279.504292896757     IErMin=10 ErrMin= 4.27D-06
 ErrMax= 4.27D-06  0.00D+00 EMaxC= 1.00D-01 BMatC= 5.71D-09 BMatP= 6.85D-08
 IDIUse=1 WtCom= 1.00D+00 WtEn= 0.00D+00
 Coeff-Com:  0.339D-04-0.269D-03-0.392D-03-0.292D-02 0.255D-02 0.211D-01
 Coeff-Com: -0.207D-01-0.790D-01-0.675D-01 0.115D+01
 Coeff:      0.339D-04-0.269D-03-0.392D-03-0.292D-02 0.255D-02 0.211D-01
 Coeff:     -0.207D-01-0.790D-01-0.675D-01 0.115D+01
 Gap=     0.502 Goal=   None    Shift=    0.000
 RMSDP=5.19D-07 MaxDP=2.16D-05 DE=-1.53D-07 OVMax= 4.53D-05

 Cycle  11  Pass 1  IDiag  1:
 E= -279.504292910050     Delta-E=       -0.000000013293 Rises=F Damp=F
 DIIS: error= 2.01D-06 at cycle  11 NSaved=  11.
 NSaved=11 IEnMin=11 EnMin= -279.504292910050     IErMin=11 ErrMin= 2.01D-06
 ErrMax= 2.01D-06  0.00D+00 EMaxC= 1.00D-01 BMatC= 6.82D-10 BMatP= 5.71D-09
 IDIUse=1 WtCom= 1.00D+00 WtEn= 0.00D+00
 Coeff-Com: -0.212D-04 0.237D-03 0.482D-03 0.525D-03-0.451D-02-0.351D-02
 Coeff-Com:  0.241D-01 0.294D-01-0.140D+00-0.208D+00 0.130D+01
 Coeff:     -0.212D-04 0.237D-03 0.482D-03 0.525D-03-0.451D-02-0.351D-02
 Coeff:      0.241D-01 0.294D-01-0.140D+00-0.208D+00 0.130D+01
 Gap=     0.502 Goal=   None    Shift=    0.000
 RMSDP=1.87D-07 MaxDP=7.10D-06 DE=-1.33D-08 OVMax= 1.74D-05

 Cycle  12  Pass 1  IDiag  1:
 E= -279.504292911954     Delta-E=       -0.000000001904 Rises=F Damp=F
 DIIS: error= 5.47D-07 at cycle  12 NSaved=  12.
 NSaved=12 IEnMin=12 EnMin= -279.504292911954     IErMin=12 ErrMin= 5.47D-07
 ErrMax= 5.47D-07  0.00D+00 EMaxC= 1.00D-01 BMatC= 6.52D-11 BMatP= 6.82D-10
 IDIUse=1 WtCom= 1.00D+00 WtEn= 0.00D+00
 Coeff-Com:  0.952D-06-0.250D-04-0.549D-04 0.216D-03 0.986D-03-0.236D-02
 Coeff-Com: -0.395D-02 0.627D-02 0.402D-01-0.101D+00-0.285D+00 0.134D+01
 Coeff:      0.952D-06-0.250D-04-0.549D-04 0.216D-03 0.986D-03-0.236D-02
 Coeff:     -0.395D-02 0.627D-02 0.402D-01-0.101D+00-0.285D+00 0.134D+01
 Gap=     0.502 Goal=   None    Shift=    0.000
 RMSDP=7.02D-08 MaxDP=2.78D-06 DE=-1.90D-09 OVMax= 6.15D-06

 Cycle  13  Pass 1  IDiag  1:
 E= -279.504292912161     Delta-E=       -0.000000000207 Rises=F Damp=F
 DIIS: error= 1.54D-07 at cycle  13 NSaved=  13.
 NSaved=13 IEnMin=13 EnMin= -279.504292912161     IErMin=13 ErrMin= 1.54D-07
 ErrMax= 1.54D-07  0.00D+00 EMaxC= 1.00D-01 BMatC= 3.25D-12 BMatP= 6.52D-11
 IDIUse=1 WtCom= 1.00D+00 WtEn= 0.00D+00
 Coeff-Com:  0.121D-05-0.130D-04-0.217D-04-0.847D-04 0.142D-03 0.693D-03
 Coeff-Com: -0.102D-02-0.295D-02 0.737D-03 0.366D-01-0.317D-01-0.296D+00
 Coeff-Com:  0.129D+01
 Coeff:      0.121D-05-0.130D-04-0.217D-04-0.847D-04 0.142D-03 0.693D-03
 Coeff:     -0.102D-02-0.295D-02 0.737D-03 0.366D-01-0.317D-01-0.296D+00
 Coeff:      0.129D+01
 Gap=     0.502 Goal=   None    Shift=    0.000
 RMSDP=1.73D-08 MaxDP=4.67D-07 DE=-2.07D-10 OVMax= 1.41D-06

 Cycle  14  Pass 1  IDiag  1:
 E= -279.504292912173     Delta-E=       -0.000000000011 Rises=F Damp=F
 DIIS: error= 2.06D-08 at cycle  14 NSaved=  14.
 NSaved=14 IEnMin=14 EnMin= -279.504292912173     IErMin=14 ErrMin= 2.06D-08
 ErrMax= 2.06D-08  0.00D+00 EMaxC= 1.00D-01 BMatC= 1.54D-13 BMatP= 3.25D-12
 IDIUse=1 WtCom= 1.00D+00 WtEn= 0.00D+00
 Coeff-Com: -0.159D-06 0.261D-05 0.471D-05 0.267D-05-0.744D-04 0.467D-04
 Coeff-Com:  0.288D-03 0.149D-03-0.223D-02 0.104D-02 0.158D-01-0.261D-01
 Coeff-Com: -0.188D+00 0.120D+01
 Coeff:     -0.159D-06 0.261D-05 0.471D-05 0.267D-05-0.744D-04 0.467D-04
 Coeff:      0.288D-03 0.149D-03-0.223D-02 0.104D-02 0.158D-01-0.261D-01
 Coeff:     -0.188D+00 0.120D+01
 Gap=     0.502 Goal=   None    Shift=    0.000
 RMSDP=3.43D-09 MaxDP=8.64D-08 DE=-1.12D-11 OVMax= 3.08D-07

 SCF Done:  E(RHF) =  -279.504292912     A.U. after   14 cycles
            NFock= 14  Conv=0.34D-08     -V/T= 2.0022
 KE= 2.788957446097D+02 PE=-8.967110164938D+02 EE= 2.206229839130D+02
 Leave Link  502 at Mon Feb 14 22:11:09 2022, MaxMem= 16106127360 cpu:              57.4 elap:               3.7
 (Enter /sw/contrib/gaussian/g16/B01/g16/l801.exe)
 ExpMin= 2.53D-02 ExpMax= 1.53D+04 ExpMxC= 5.22D+02 IAcc=3 IRadAn=         5 AccDes= 0.00D+00
 HarFok:  IExCor=  205 AccDes= 0.00D+00 IRadAn=         5 IDoV=-2 UseB2=F ITyADJ=14
 ICtDFT= 12500011 ScaDFX=  1.000000  1.000000  1.000000  1.000000
 Largest valence mixing into a core orbital is  2.07D-04
 Largest core mixing into a valence orbital is  3.53D-05
 Range of M.O.s used for correlation:     5   207
 NBasis=   207 NAE=    16 NBE=    16 NFC=     4 NFV=     0
 NROrb=    203 NOA=    12 NOB=    12 NVA=   191 NVB=   191

 **** Warning!!: The largest alpha MO coefficient is  0.17990353D+02

 Leave Link  801 at Mon Feb 14 22:11:10 2022, MaxMem= 16106127360 cpu:               2.0 elap:               0.1
 (Enter /sw/contrib/gaussian/g16/B01/g16/l906.exe)
 Frozen-core derivative calculation, NFC=   4 NFV=   0.
 FulOut=F Deriv=T AODrv=F NAtomX=     5
   MMem=          76  MDisk=          12 MDiskD=          12
  W3Min=      811440 MinDsk=     1524655 NBas6D=         245
 NBas2D=       30762    NTT=       30135    LW2=     3500000
    MDV= 16105579787 MDiskM=      328644 NBas2p=       30466
 Fully in-core method, ICMem=   960157634.
 IMap=   1   2   3   4   5   6   7   8   9  10  11  12  13  14  15  16
 JobTyp=1 Pass  1 fully in-core, NPsUse= 28.
 Compute canonical integrals.
 FoFCou: FMM=F IPFlag=           0 FMFlag=           0 FMFlg1=           0
         NFxFlg=           0 DoJE=F BraDBF=F KetDBF=F FulRan=T
         wScrn=  0.000000 ICntrl=       600 IOpCl=  1 I1Cent=           0 NGrid=           0
         NMat0=    1 NMatS0=  30762 NMatT0=    0 NMatD0=    1 NMtDS0=    0 NMtDT0=    0
 Symmetry not used in FoFCou.
 Spin components of T(2) and E(2):
     alpha-alpha T2 =       0.3367616660D-01 E2=     -0.1220801192D+00
     alpha-beta  T2 =       0.1848153578D+00 E2=     -0.6980896007D+00
     beta-beta   T2 =       0.3367616660D-01 E2=     -0.1220801192D+00
 The integrals were generated   1 times.
 ANorm=    0.1119002990D+01
 E2 =    -0.9422498391D+00 EUMP2 =    -0.28044654275123D+03
 Leave Link  906 at Mon Feb 14 22:11:19 2022, MaxMem= 16106127360 cpu:             249.9 elap:               9.0
 (Enter /sw/contrib/gaussian/g16/B01/g16/l1002.exe)
 Minotr:  Closed shell wavefunction.
          Computing MP2/KS-MP2 derivatives.
          Using Z-Vector for PSCF gradient.
          Skipping F1 and S1 gradient terms here.
          Frozen-core window.
          Direct CPHF calculation.
          Differentiating once with respect to electric field.
                with respect to dipole field.
          Electric field/nuclear overlap derivatives assumed to be zero.
          Using symmetry in CPHF.
          Requested convergence is 1.0D-10 RMS, and 1.0D-09 maximum.
          NewPWx=F KeepS1=T KeepF1=T KeepIn=T MapXYZ=F SortEE=F KeepMc=T.
 Keep R1 ints in memory in symmetry-blocked form, NReq=348888868.
 FoFCou: FMM=F IPFlag=           0 FMFlag=           0 FMFlg1=           0
         NFxFlg=           0 DoJE=F BraDBF=F KetDBF=F FulRan=T
         wScrn=  0.000000 ICntrl=       600 IOpCl=  0 I1Cent=           0 NGrid=           0
         NMat0=    1 NMatS0=  21528 NMatT0=    0 NMatD0=    1 NMtDS0=    0 NMtDT0=    0
 Petite list used in FoFCou.
          MDV=   16106127360 using IRadAn=       5.
          Solving linear equations separately, MaxMat=       0.
          There are     1 degrees of freedom in the 1st order CPHF.  IDoFFX=0 NUNeed=     1.
 LinEq1:  Iter=  0 NonCon=     1 RMS=5.85D-03 Max=1.33D-01 NDo=     1
 AX will form     1 AO Fock derivatives at one time.
 LinEq1:  Iter=  1 NonCon=     1 RMS=1.82D-03 Max=3.58D-02 NDo=     1
 LinEq1:  Iter=  2 NonCon=     1 RMS=8.26D-04 Max=1.17D-02 NDo=     1
 LinEq1:  Iter=  3 NonCon=     1 RMS=3.66D-04 Max=7.77D-03 NDo=     1
 LinEq1:  Iter=  4 NonCon=     1 RMS=1.13D-04 Max=1.35D-03 NDo=     1
 LinEq1:  Iter=  5 NonCon=     1 RMS=4.35D-05 Max=6.94D-04 NDo=     1
 LinEq1:  Iter=  6 NonCon=     1 RMS=1.96D-05 Max=2.20D-04 NDo=     1
 LinEq1:  Iter=  7 NonCon=     1 RMS=7.69D-06 Max=1.40D-04 NDo=     1
 LinEq1:  Iter=  8 NonCon=     1 RMS=3.29D-06 Max=2.97D-05 NDo=     1
 LinEq1:  Iter=  9 NonCon=     1 RMS=8.88D-07 Max=1.12D-05 NDo=     1
 LinEq1:  Iter= 10 NonCon=     1 RMS=1.69D-07 Max=1.75D-06 NDo=     1
 LinEq1:  Iter= 11 NonCon=     1 RMS=3.07D-08 Max=3.05D-07 NDo=     1
 LinEq1:  Iter= 12 NonCon=     1 RMS=7.38D-09 Max=1.10D-07 NDo=     1
 LinEq1:  Iter= 13 NonCon=     1 RMS=1.36D-09 Max=2.18D-08 NDo=     1
 LinEq1:  Iter= 14 NonCon=     1 RMS=2.42D-10 Max=3.07D-09 NDo=     1
 LinEq1:  Iter= 15 NonCon=     0 RMS=4.38D-11 Max=4.45D-10 NDo=     1
 Linear equations converged to 1.000D-10 1.000D-09 after    15 iterations.
 End of Minotr F.D. properties file   721 does not exist.
 End of Minotr F.D. properties file   722 does not exist.
 End of Minotr F.D. properties file   788 does not exist.
 Leave Link 1002 at Mon Feb 14 22:11:23 2022, MaxMem= 16106127360 cpu:              52.9 elap:               3.9
 (Enter /sw/contrib/gaussian/g16/B01/g16/l601.exe)
 Copying SCF densities to generalized density rwf, IOpCl= 0 IROHF=0.

 **********************************************************************

            Population analysis using the MP2 Density.

 **********************************************************************

 Orbital symmetries:
       Occupied  (A') (A') (A') (A') (A') (A') (A') (A') (A') (A')
                 (A") (A') (A") (A') (A") (A')
       Virtual   (A') (A") (A') (A') (A') (A") (A') (A') (A") (A')
                 (A") (A') (A') (A') (A") (A') (A') (A") (A') (A')
                 (A') (A') (A') (A') (A") (A') (A') (A") (A') (A')
                 (A") (A') (A") (A') (A') (A") (A') (A") (A') (A")
                 (A') (A') (A") (A') (A') (A") (A') (A') (A") (A')
                 (A") (A') (A') (A') (A") (A') (A") (A') (A") (A')
                 (A') (A') (A") (A') (A') (A") (A') (A") (A') (A')
                 (A") (A') (A') (A") (A") (A') (A') (A") (A') (A')
                 (A') (A") (A') (A") (A") (A') (A') (A") (A') (A')
                 (A") (A') (A') (A") (A') (A") (A') (A") (A') (A')
                 (A") (A') (A") (A') (A') (A') (A") (A') (A") (A')
                 (A") (A') (A') (A') (A") (A') (A') (A') (A") (A')
                 (A") (A') (A") (A') (A') (A") (A") (A') (A") (A')
                 (A') (A') (A') (A") (A") (A") (A') (A') (A') (A')
                 (A") (A') (A") (A') (A') (A") (A') (A') (A') (A')
                 (A") (A') (A') (A") (A') (A") (A') (A") (A') (A")
                 (A') (A") (A') (A") (A') (A") (A") (A') (A") (A')
                 (A") (A') (A") (A') (A") (A') (A") (A") (A') (A')
                 (A') (A') (A') (A') (A') (A') (A') (A') (A') (A')
                 (A')
 The electronic state is 1-A'.
 Alpha  occ. eigenvalues --  -20.69588 -20.67723 -20.66358 -15.80812  -1.62625
 Alpha  occ. eigenvalues --   -1.49967  -1.26335  -0.94600  -0.77523  -0.76284
 Alpha  occ. eigenvalues --   -0.71721  -0.67785  -0.61888  -0.59092  -0.48815
 Alpha  occ. eigenvalues --   -0.47351
 Alpha virt. eigenvalues --    0.02882   0.07550   0.08646   0.10203   0.13369
 Alpha virt. eigenvalues --    0.13408   0.14349   0.15395   0.17761   0.19420
 Alpha virt. eigenvalues --    0.19997   0.20983   0.21989   0.23410   0.23776
 Alpha virt. eigenvalues --    0.26612   0.30258   0.30324   0.31452   0.34562
 Alpha virt. eigenvalues --    0.35119   0.38913   0.42088   0.43069   0.52874
 Alpha virt. eigenvalues --    0.53046   0.56183   0.58323   0.62808   0.64006
 Alpha virt. eigenvalues --    0.67526   0.68433   0.70524   0.71048   0.72380
 Alpha virt. eigenvalues --    0.72743   0.74374   0.79099   0.79347   0.81069
 Alpha virt. eigenvalues --    0.81151   0.83213   0.87040   0.90839   0.92084
 Alpha virt. eigenvalues --    0.92849   0.95381   0.98165   0.98349   1.01408
 Alpha virt. eigenvalues --    1.05340   1.05627   1.08519   1.11991   1.14430
 Alpha virt. eigenvalues --    1.19103   1.22156   1.23349   1.34224   1.35599
 Alpha virt. eigenvalues --    1.38281   1.45798   1.48795   1.50754   1.53994
 Alpha virt. eigenvalues --    1.57033   1.58556   1.61477   1.66604   1.67028
 Alpha virt. eigenvalues --    1.70602   1.79334   1.83291   1.83982   1.87767
 Alpha virt. eigenvalues --    1.91375   1.95636   1.99812   2.00808   2.08737
 Alpha virt. eigenvalues --    2.12408   2.13616   2.14587   2.23021   2.26252
 Alpha virt. eigenvalues --    2.26436   2.29495   2.31519   2.35150   2.38587
 Alpha virt. eigenvalues --    2.42866   2.43548   2.45843   2.46653   2.48139
 Alpha virt. eigenvalues --    2.50586   2.58689   2.59908   2.62706   2.62810
 Alpha virt. eigenvalues --    2.63237   2.67133   2.76250   2.83751   2.86851
 Alpha virt. eigenvalues --    2.89232   2.89512   2.94780   2.95950   3.03669
 Alpha virt. eigenvalues --    3.07924   3.13144   3.20016   3.23440   3.32196
 Alpha virt. eigenvalues --    3.35052   3.52159   3.65460   3.85240   3.85252
 Alpha virt. eigenvalues --    4.14882   4.15728   4.18878   4.27096   4.35145
 Alpha virt. eigenvalues --    4.39457   4.46177   4.52283   4.67251   4.71424
 Alpha virt. eigenvalues --    4.81059   4.82492   4.84877   4.89862   5.03307
 Alpha virt. eigenvalues --    5.08638   5.11346   5.14383   5.18723   5.25048
 Alpha virt. eigenvalues --    5.28233   5.31474   5.33318   5.36764   5.61223
 Alpha virt. eigenvalues --    5.67901   5.78626   5.82720   5.96414   6.18143
 Alpha virt. eigenvalues --    6.30923   6.34978   6.40212   6.50059   6.51179
 Alpha virt. eigenvalues --    6.61492   6.66645   6.71110   6.75508   6.76286
 Alpha virt. eigenvalues --    6.84050   6.90858   7.02161   7.05452   7.06179
 Alpha virt. eigenvalues --    7.08980   7.13357   7.15815   7.18291   7.23796
 Alpha virt. eigenvalues --    7.23980   7.30234   7.33037   7.35513   7.40825
 Alpha virt. eigenvalues --    7.44502   7.49257   7.61347   7.63062   7.65218
 Alpha virt. eigenvalues --    7.68486   7.80060   7.89594   8.12879   8.32721
 Alpha virt. eigenvalues --    8.40891   8.55891  13.47810  14.56186  15.18817
 Alpha virt. eigenvalues --   16.21278
          Condensed to atoms (all electrons):
               1          2          3          4          5
     1  H    0.589040   0.128197   0.020284   0.012621  -0.000627
     2  O    0.128197   8.322115  -0.171134  -0.095894   0.016294
     3  O    0.020284  -0.171134   8.461746  -0.138321  -0.044915
     4  N    0.012621  -0.095894  -0.138321   6.998390  -0.059653
     5  O   -0.000627   0.016294  -0.044915  -0.059653   8.295005
 Mulliken charges:
               1
     1  H    0.250485
     2  O   -0.199578
     3  O   -0.127660
     4  N    0.282858
     5  O   -0.206104
 Sum of Mulliken charges =  -0.00000
 Mulliken charges with hydrogens summed into heavy atoms:
               1
     2  O    0.050907
     3  O   -0.127660
     4  N    0.282858
     5  O   -0.206104
 Electronic spatial extent (au):  <R**2>=            249.8550
 Charge=             -0.0000 electrons
 Dipole moment (field-independent basis, Debye):
    X=              0.6435    Y=              1.5285    Z=              0.0000  Tot=              1.6584
 Quadrupole moment (field-independent basis, Debye-Ang):
   XX=            -22.5202   YY=            -18.7399   ZZ=            -21.9677
   XY=              3.2000   XZ=              0.0000   YZ=             -0.0000
 Traceless Quadrupole moment (field-independent basis, Debye-Ang):
   XX=             -1.4443   YY=              2.3361   ZZ=             -0.8918
   XY=              3.2000   XZ=              0.0000   YZ=             -0.0000
 Octapole moment (field-independent basis, Debye-Ang**2):
  XXX=              3.4417  YYY=             11.3442  ZZZ=              0.0000  XYY=              7.9538
  XXY=              6.8161  XXZ=              0.0000  XZZ=             -1.5280  YZZ=             -0.7417
  YYZ=             -0.0000  XYZ=              0.0000
 Hexadecapole moment (field-independent basis, Debye-Ang**3):
 XXXX=           -158.6118 YYYY=            -86.8649 ZZZZ=            -18.1549 XXXY=            -35.7241
 XXXZ=              0.0000 YYYX=            -30.2525 YYYZ=             -0.0000 ZZZX=              0.0000
 ZZZY=             -0.0000 XXYY=            -33.6117 XXZZ=            -30.8901 YYZZ=            -20.0503
 XXYZ=              0.0000 YYXZ=              0.0000 ZZXY=            -14.7400
 N-N= 1.176879950589D+02 E-N=-8.974704839872D+02  KE= 2.802361541731D+02
 Symmetry A'   KE= 2.662540087196D+02
 Symmetry A"   KE= 1.398214545358D+01
 No NMR shielding tensors so no spin-rotation constants.
 Leave Link  601 at Mon Feb 14 22:11:23 2022, MaxMem= 16106127360 cpu:               4.8 elap:               0.2
 (Enter /sw/contrib/gaussian/g16/B01/g16/l9999.exe)
 1\1\GINC-N2118\SP\RMP2-FC\Aug-CC-pVTZ\H1N1O3\CGAVINH\14-Feb-2022\0\\#p
  SP mp2/aug-cc-pvtz density=current\\title\\0,1\H\O,1,0.96897556\O,2,1
 .45491931,1,97.59494903\N,3,1.4292737697,2,102.29752444,1,180.,0\O,4,1
 .17072885,3,109.06955123,2,180.,0\\Version=ES64L-G16RevB.01\State=1-A'
 \HF=-279.5042929\MP2=-280.4465428\RMSD=3.425e-09\Dipole=-0.1906033,0.,
 -0.6240169\Quadrupole=-1.5266926,-0.6630158,2.1897084,0.,2.0450578,0.\
 PG=CS [SG(H1N1O3)]\\@


 LAW OF COMPENSATION:
      NO CALCULATION IS EVER A COMPLETE FAILURE; IT 
      CAN ALWAYS SERVE AS A BAD EXAMPLE.

                                           -- ANON
 Job cpu time:       0 days  0 hours  6 minutes 31.8 seconds.
 Elapsed time:       0 days  0 hours  0 minutes 18.1 seconds.
 File lengths (MBytes):  RWF=     22 Int=      0 D2E=      0 Chk=      8 Scr=      1
 Normal termination of Gaussian 16 at Mon Feb 14 22:11:23 2022.
