 Entering Gaussian System, Link 0=g16
 Input=hoono_r2_1p473967.gjf
 Output=hoono_r2_1p473967.log
 Initial command:
 /sw/contrib/gaussian/g16/B01/g16/l1.exe "/scr/Gau-431.inp" -scrdir="/scr/"
 Entering Link 1 = /sw/contrib/gaussian/g16/B01/g16/l1.exe PID=       432.
  
 Copyright (c) 1988-2017, Gaussian, Inc.  All Rights Reserved.
  
 This is part of the Gaussian(R) 16 program.  It is based on
 the Gaussian(R) 09 system (copyright 2009, Gaussian, Inc.),
 the Gaussian(R) 03 system (copyright 2003, Gaussian, Inc.),
 the Gaussian(R) 98 system (copyright 1998, Gaussian, Inc.),
 the Gaussian(R) 94 system (copyright 1995, Gaussian, Inc.),
 the Gaussian 92(TM) system (copyright 1992, Gaussian, Inc.),
 the Gaussian 90(TM) system (copyright 1990, Gaussian, Inc.),
 the Gaussian 88(TM) system (copyright 1988, Gaussian, Inc.),
 the Gaussian 86(TM) system (copyright 1986, Carnegie Mellon
 University), and the Gaussian 82(TM) system (copyright 1983,
 Carnegie Mellon University). Gaussian is a federally registered
 trademark of Gaussian, Inc.
  
 This software contains proprietary and confidential information,
 including trade secrets, belonging to Gaussian, Inc.
  
 This software is provided under written license and may be
 used, copied, transmitted, or stored only in accord with that
 written license.
  
 The following legend is applicable only to US Government
 contracts under FAR:
  
                    RESTRICTED RIGHTS LEGEND
  
 Use, reproduction and disclosure by the US Government is
 subject to restrictions as set forth in subparagraphs (a)
 and (c) of the Commercial Computer Software - Restricted
 Rights clause in FAR 52.227-19.
  
 Gaussian, Inc.
 340 Quinnipiac St., Bldg. 40, Wallingford CT 06492
  
  
 ---------------------------------------------------------------
 Warning -- This program may not be used in any manner that
 competes with the business of Gaussian, Inc. or will provide
 assistance to any competitor of Gaussian, Inc.  The licensee
 of this program is prohibited from giving any competitor of
 Gaussian, Inc. access to this program.  By using this program,
 the user acknowledges that Gaussian, Inc. is engaged in the
 business of creating and licensing software in the field of
 computational chemistry and represents and warrants to the
 licensee that it is not a competitor of Gaussian, Inc. and that
 it will not use this program in any manner prohibited above.
 ---------------------------------------------------------------
  

 Cite this work as:
 Gaussian 16, Revision B.01,
 M. J. Frisch, G. W. Trucks, H. B. Schlegel, G. E. Scuseria, 
 M. A. Robb, J. R. Cheeseman, G. Scalmani, V. Barone, 
 G. A. Petersson, H. Nakatsuji, X. Li, M. Caricato, A. V. Marenich, 
 J. Bloino, B. G. Janesko, R. Gomperts, B. Mennucci, H. P. Hratchian, 
 J. V. Ortiz, A. F. Izmaylov, J. L. Sonnenberg, D. Williams-Young, 
 F. Ding, F. Lipparini, F. Egidi, J. Goings, B. Peng, A. Petrone, 
 T. Henderson, D. Ranasinghe, V. G. Zakrzewski, J. Gao, N. Rega, 
 G. Zheng, W. Liang, M. Hada, M. Ehara, K. Toyota, R. Fukuda, 
 J. Hasegawa, M. Ishida, T. Nakajima, Y. Honda, O. Kitao, H. Nakai, 
 T. Vreven, K. Throssell, J. A. Montgomery, Jr., J. E. Peralta, 
 F. Ogliaro, M. J. Bearpark, J. J. Heyd, E. N. Brothers, K. N. Kudin, 
 V. N. Staroverov, T. A. Keith, R. Kobayashi, J. Normand, 
 K. Raghavachari, A. P. Rendell, J. C. Burant, S. S. Iyengar, 
 J. Tomasi, M. Cossi, J. M. Millam, M. Klene, C. Adamo, R. Cammi, 
 J. W. Ochterski, R. L. Martin, K. Morokuma, O. Farkas, 
 J. B. Foresman, and D. J. Fox, Gaussian, Inc., Wallingford CT, 2016.
 
 ******************************************
 Gaussian 16:  ES64L-G16RevB.01 20-Dec-2017
                14-Feb-2022 
 ******************************************
 %nproc=28
 Will use up to   28 processors via shared memory.
 %mem=120GB
 %chk=hoono_r2_1p473967.chk
 -------------------------------------
 #p SP mp2/aug-cc-pvtz density=current
 -------------------------------------
 1/30=1,38=1,172=1/1;
 2/12=2,17=6,18=5,40=1/2;
 3/5=16,6=1,7=10,11=9,25=1,30=1,71=1/1,2,3;
 4//1;
 5/5=2,38=5/2;
 8/6=4,10=1/1;
 9/15=1,16=-3/6;
 10/5=1,13=10/2;
 6/7=2,8=2,9=2,10=2,22=-1/1;
 99/5=1,9=1/99;
 Leave Link    1 at Mon Feb 14 22:10:11 2022, MaxMem= 16106127360 cpu:               3.9 elap:               0.2
 (Enter /sw/contrib/gaussian/g16/B01/g16/l101.exe)
 -----
 title
 -----
 Symbolic Z-matrix:
 Charge =  0 Multiplicity = 1
 H
 O                    1    r1
 O                    2    r2       1    a1
 N                    3    r3       2    a2       1    d1       0
 O                    4    r4       3    a3       2    d2       0
       Variables:
  r1                    0.96898                  
  r2                    1.47397                  
  r3                    1.45878                  
  r4                    1.17073                  
  a1                   97.59495                  
  a2                  102.29752                  
  a3                  109.06955                  
  d1                  180.                       
  d2                  180.                       
 
 ITRead=  0  0  0  0  0
 MicOpt= -1 -1 -1 -1 -1
 NAtoms=      5 NQM=        5 NQMF=       0 NMMI=      0 NMMIF=      0
                NMic=       0 NMicF=      0.
                    Isotopes and Nuclear Properties:
 (Nuclear quadrupole moments (NQMom) in fm**2, nuclear magnetic moments (NMagM)
  in nuclear magnetons)

  Atom         1           2           3           4           5
 IAtWgt=           1          16          16          14          16
 AtmWgt=   1.0078250  15.9949146  15.9949146  14.0030740  15.9949146
 NucSpn=           1           0           0           2           0
 AtZEff=  -0.0000000  -0.0000000  -0.0000000  -0.0000000  -0.0000000
 NQMom=    0.0000000   0.0000000   0.0000000   2.0440000   0.0000000
 NMagM=    2.7928460   0.0000000   0.0000000   0.4037610   0.0000000
 AtZNuc=   1.0000000   8.0000000   8.0000000   7.0000000   8.0000000
 Leave Link  101 at Mon Feb 14 22:10:11 2022, MaxMem= 16106127360 cpu:               2.1 elap:               0.1
 (Enter /sw/contrib/gaussian/g16/B01/g16/l202.exe)
                          Input orientation:                          
 ---------------------------------------------------------------------
 Center     Atomic      Atomic             Coordinates (Angstroms)
 Number     Number       Type             X           Y           Z
 ---------------------------------------------------------------------
      1          1           0        0.000000    0.000000    0.000000
      2          8           0        0.000000    0.000000    0.968976
      3          8           0        1.461036    0.000000    1.163788
      4          7           0        1.580632    0.000000    2.617662
      5          8           0        2.714748    0.000000    2.908156
 ---------------------------------------------------------------------
                    Distance matrix (angstroms):
                    1          2          3          4          5
     1  H    0.000000
     2  O    0.968976   0.000000
     3  O    1.867895   1.473967   0.000000
     4  N    3.057867   2.283980   1.458784   0.000000
     5  O    3.978345   3.336207   2.148165   1.170729   0.000000
 Stoichiometry    HNO3
 Framework group  CS[SG(HNO3)]
 Deg. of freedom     7
 Full point group                 CS      NOp   2
 Largest Abelian subgroup         CS      NOp   2
 Largest concise Abelian subgroup C1      NOp   1
                         Standard orientation:                         
 ---------------------------------------------------------------------
 Center     Atomic      Atomic             Coordinates (Angstroms)
 Number     Number       Type             X           Y           Z
 ---------------------------------------------------------------------
      1          1           0        1.576174    1.675196   -0.000000
      2          8           0        1.473456    0.711681   -0.000000
      3          8           0        0.000000    0.672847    0.000000
      4          7           0       -0.273044   -0.760157    0.000000
      5          8           0       -1.431564   -0.928790    0.000000
 ---------------------------------------------------------------------
 Rotational constants (GHZ):          54.4915369           4.9665639           4.5517044
 Leave Link  202 at Mon Feb 14 22:10:11 2022, MaxMem= 16106127360 cpu:               0.6 elap:               0.0
 (Enter /sw/contrib/gaussian/g16/B01/g16/l301.exe)
 Standard basis: Aug-CC-pVTZ (5D, 7F)
 Ernie: Thresh=  0.10000D-02 Tol=  0.10000D-05 Strict=F.
 Ernie:  12 primitive shells out of 131 were deleted.
 There are   166 symmetry adapted cartesian basis functions of A'  symmetry.
 There are    79 symmetry adapted cartesian basis functions of A"  symmetry.
 There are   136 symmetry adapted basis functions of A'  symmetry.
 There are    71 symmetry adapted basis functions of A"  symmetry.
   207 basis functions,   315 primitive gaussians,   245 cartesian basis functions
    16 alpha electrons       16 beta electrons
       nuclear repulsion energy       116.4062078937 Hartrees.
 IExCor=    0 DFT=F Ex=HF Corr=None ExCW=0 ScaHFX=  1.000000
 ScaDFX=  1.000000  1.000000  1.000000  1.000000 ScalE2=  1.000000  1.000000
 IRadAn=      5 IRanWt=     -1 IRanGd=            0 ICorTp=0 IEmpDi=  4
 NAtoms=    5 NActive=    5 NUniq=    5 SFac= 1.00D+00 NAtFMM=   60 NAOKFM=F Big=F
 Integral buffers will be    131072 words long.
 Raffenetti 1 integral format.
 Two-electron integral symmetry is turned on.
 Leave Link  301 at Mon Feb 14 22:10:11 2022, MaxMem= 16106127360 cpu:               1.5 elap:               0.1
 (Enter /sw/contrib/gaussian/g16/B01/g16/l302.exe)
 NPDir=0 NMtPBC=     1 NCelOv=     1 NCel=       1 NClECP=     1 NCelD=      1
         NCelK=      1 NCelE2=     1 NClLst=     1 CellRange=     0.0.
 One-electron integrals computed using PRISM.
 One-electron integral symmetry used in STVInt
 NBasis=   207 RedAO= T EigKep=  1.84D-04  NBF=   136    71
 NBsUse=   207 1.00D-06 EigRej= -1.00D+00 NBFU=   136    71
 Leave Link  302 at Mon Feb 14 22:10:11 2022, MaxMem= 16106127360 cpu:               6.5 elap:               0.3
 (Enter /sw/contrib/gaussian/g16/B01/g16/l303.exe)
 DipDrv:  MaxL=1.
 Leave Link  303 at Mon Feb 14 22:10:11 2022, MaxMem= 16106127360 cpu:               0.8 elap:               0.1
 (Enter /sw/contrib/gaussian/g16/B01/g16/l401.exe)
 ExpMin= 2.53D-02 ExpMax= 1.53D+04 ExpMxC= 5.22D+02 IAcc=3 IRadAn=         5 AccDes= 0.00D+00
 Harris functional with IExCor=  205 and IRadAn=       5 diagonalized for initial guess.
 HarFok:  IExCor=  205 AccDes= 0.00D+00 IRadAn=         5 IDoV= 1 UseB2=F ITyADJ=14
 ICtDFT=  3500011 ScaDFX=  1.000000  1.000000  1.000000  1.000000
 FoFCou: FMM=F IPFlag=           0 FMFlag=      100000 FMFlg1=           0
         NFxFlg=           0 DoJE=T BraDBF=F KetDBF=T FulRan=T
         wScrn=  0.000000 ICntrl=       500 IOpCl=  0 I1Cent=   200000004 NGrid=           0
         NMat0=    1 NMatS0=      1 NMatT0=    0 NMatD0=    1 NMtDS0=    0 NMtDT0=    0
 Petite list used in FoFCou.
 Harris En= -279.627740600443    
 JPrj=0 DoOrth=F DoCkMO=F.
 Initial guess orbital symmetries:
       Occupied  (A') (A') (A') (A') (A') (A') (A') (A') (A') (A')
                 (A") (A') (A') (A") (A") (A')
       Virtual   (A") (A') (A') (A') (A') (A') (A") (A') (A') (A')
                 (A") (A') (A") (A') (A') (A") (A') (A") (A') (A')
                 (A') (A') (A') (A') (A') (A") (A') (A") (A') (A')
                 (A") (A') (A") (A') (A') (A") (A') (A") (A') (A')
                 (A") (A') (A") (A') (A") (A') (A') (A') (A") (A")
                 (A') (A') (A') (A') (A") (A') (A") (A') (A") (A')
                 (A') (A') (A") (A') (A') (A") (A') (A") (A') (A')
                 (A") (A') (A') (A") (A") (A') (A') (A") (A') (A')
                 (A') (A") (A') (A") (A') (A") (A') (A") (A') (A')
                 (A') (A") (A') (A") (A') (A") (A") (A') (A') (A")
                 (A') (A') (A") (A') (A') (A') (A') (A") (A") (A')
                 (A") (A') (A') (A') (A") (A') (A') (A') (A") (A')
                 (A") (A') (A') (A") (A") (A') (A") (A') (A") (A')
                 (A') (A') (A') (A") (A") (A') (A") (A') (A') (A')
                 (A') (A") (A") (A') (A') (A") (A') (A') (A') (A')
                 (A') (A") (A') (A") (A') (A") (A') (A") (A") (A')
                 (A') (A") (A') (A") (A') (A") (A") (A") (A') (A')
                 (A") (A') (A") (A') (A') (A") (A") (A") (A') (A')
                 (A') (A') (A') (A') (A') (A') (A') (A') (A') (A')
                 (A')
 The electronic state of the initial guess is 1-A'.
 Leave Link  401 at Mon Feb 14 22:10:12 2022, MaxMem= 16106127360 cpu:               6.9 elap:               0.3
 (Enter /sw/contrib/gaussian/g16/B01/g16/l502.exe)
 Keep R1 ints in memory in symmetry-blocked form, NReq=348887737.
 FoFCou: FMM=F IPFlag=           0 FMFlag=           0 FMFlg1=           0
         NFxFlg=           0 DoJE=F BraDBF=F KetDBF=F FulRan=T
         wScrn=  0.000000 ICntrl=       600 IOpCl=  0 I1Cent=           0 NGrid=           0
         NMat0=    1 NMatS0=  21528 NMatT0=    0 NMatD0=    1 NMtDS0=    0 NMtDT0=    0
 Petite list used in FoFCou.
 Closed shell SCF:
 Using DIIS extrapolation, IDIIS=  1040.
 NGot= 16106127360 LenX= 15988850015 LenY= 15988789549
 Requested convergence on RMS density matrix=1.00D-08 within 128 cycles.
 Requested convergence on MAX density matrix=1.00D-06.
 Requested convergence on             energy=1.00D-06.
 No special actions if energy rises.

 Cycle   1  Pass 1  IDiag  1:
 E= -279.368166867469    
 DIIS: error= 2.95D-02 at cycle   1 NSaved=   1.
 NSaved= 1 IEnMin= 1 EnMin= -279.368166867469     IErMin= 1 ErrMin= 2.95D-02
 ErrMax= 2.95D-02  0.00D+00 EMaxC= 1.00D-01 BMatC= 4.38D-01 BMatP= 4.38D-01
 IDIUse=3 WtCom= 7.05D-01 WtEn= 2.95D-01
 Coeff-Com:  0.100D+01
 Coeff-En:   0.100D+01
 Coeff:      0.100D+01
 Gap=     0.516 Goal=   None    Shift=    0.000
 GapD=    0.516 DampG=2.000 DampE=0.500 DampFc=1.0000 IDamp=-1.
 RMSDP=1.62D-03 MaxDP=9.92D-02              OVMax= 1.15D-01

 Cycle   2  Pass 1  IDiag  1:
 E= -279.449517287704     Delta-E=       -0.081350420235 Rises=F Damp=F
 DIIS: error= 1.82D-02 at cycle   2 NSaved=   2.
 NSaved= 2 IEnMin= 2 EnMin= -279.449517287704     IErMin= 2 ErrMin= 1.82D-02
 ErrMax= 1.82D-02  0.00D+00 EMaxC= 1.00D-01 BMatC= 7.35D-02 BMatP= 4.38D-01
 IDIUse=3 WtCom= 8.18D-01 WtEn= 1.82D-01
 Coeff-Com:  0.198D+00 0.802D+00
 Coeff-En:   0.656D-02 0.993D+00
 Coeff:      0.163D+00 0.837D+00
 Gap=     0.530 Goal=   None    Shift=    0.000
 RMSDP=9.08D-04 MaxDP=3.72D-02 DE=-8.14D-02 OVMax= 7.01D-02

 Cycle   3  Pass 1  IDiag  1:
 E= -279.479320249201     Delta-E=       -0.029802961497 Rises=F Damp=F
 DIIS: error= 1.06D-02 at cycle   3 NSaved=   3.
 NSaved= 3 IEnMin= 3 EnMin= -279.479320249201     IErMin= 3 ErrMin= 1.06D-02
 ErrMax= 1.06D-02  0.00D+00 EMaxC= 1.00D-01 BMatC= 2.94D-02 BMatP= 7.35D-02
 IDIUse=3 WtCom= 8.94D-01 WtEn= 1.06D-01
 Coeff-Com: -0.332D-01 0.378D+00 0.655D+00
 Coeff-En:   0.000D+00 0.242D+00 0.758D+00
 Coeff:     -0.297D-01 0.364D+00 0.666D+00
 Gap=     0.511 Goal=   None    Shift=    0.000
 RMSDP=3.79D-04 MaxDP=1.51D-02 DE=-2.98D-02 OVMax= 3.86D-02

 Cycle   4  Pass 1  IDiag  1:
 E= -279.498856533547     Delta-E=       -0.019536284346 Rises=F Damp=F
 DIIS: error= 1.31D-03 at cycle   4 NSaved=   4.
 NSaved= 4 IEnMin= 4 EnMin= -279.498856533547     IErMin= 4 ErrMin= 1.31D-03
 ErrMax= 1.31D-03  0.00D+00 EMaxC= 1.00D-01 BMatC= 5.09D-04 BMatP= 2.94D-02
 IDIUse=3 WtCom= 9.87D-01 WtEn= 1.31D-02
 Coeff-Com: -0.120D-01 0.590D-01 0.162D+00 0.791D+00
 Coeff-En:   0.000D+00 0.000D+00 0.000D+00 0.100D+01
 Coeff:     -0.118D-01 0.582D-01 0.160D+00 0.794D+00
 Gap=     0.503 Goal=   None    Shift=    0.000
 RMSDP=9.04D-05 MaxDP=2.84D-03 DE=-1.95D-02 OVMax= 1.13D-02

 Cycle   5  Pass 1  IDiag  1:
 E= -279.499535786028     Delta-E=       -0.000679252481 Rises=F Damp=F
 DIIS: error= 7.47D-04 at cycle   5 NSaved=   5.
 NSaved= 5 IEnMin= 5 EnMin= -279.499535786028     IErMin= 5 ErrMin= 7.47D-04
 ErrMax= 7.47D-04  0.00D+00 EMaxC= 1.00D-01 BMatC= 8.81D-05 BMatP= 5.09D-04
 IDIUse=3 WtCom= 9.93D-01 WtEn= 7.47D-03
 Coeff-Com:  0.610D-02-0.719D-01-0.116D+00 0.262D-01 0.116D+01
 Coeff-En:   0.000D+00 0.000D+00 0.000D+00 0.000D+00 0.100D+01
 Coeff:      0.606D-02-0.713D-01-0.116D+00 0.260D-01 0.115D+01
 Gap=     0.502 Goal=   None    Shift=    0.000
 RMSDP=7.52D-05 MaxDP=2.07D-03 DE=-6.79D-04 OVMax= 1.08D-02

 Cycle   6  Pass 1  IDiag  1:
 E= -279.499847763288     Delta-E=       -0.000311977260 Rises=F Damp=F
 DIIS: error= 2.97D-04 at cycle   6 NSaved=   6.
 NSaved= 6 IEnMin= 6 EnMin= -279.499847763288     IErMin= 6 ErrMin= 2.97D-04
 ErrMax= 2.97D-04  0.00D+00 EMaxC= 1.00D-01 BMatC= 1.70D-05 BMatP= 8.81D-05
 IDIUse=3 WtCom= 9.97D-01 WtEn= 2.97D-03
 Coeff-Com:  0.856D-03-0.162D-02-0.113D-02-0.124D+00-0.186D+00 0.131D+01
 Coeff-En:   0.000D+00 0.000D+00 0.000D+00 0.000D+00 0.000D+00 0.100D+01
 Coeff:      0.853D-03-0.161D-02-0.113D-02-0.124D+00-0.186D+00 0.131D+01
 Gap=     0.503 Goal=   None    Shift=    0.000
 RMSDP=4.41D-05 MaxDP=1.23D-03 DE=-3.12D-04 OVMax= 5.36D-03

 Cycle   7  Pass 1  IDiag  1:
 E= -279.499919425621     Delta-E=       -0.000071662332 Rises=F Damp=F
 DIIS: error= 1.31D-04 at cycle   7 NSaved=   7.
 NSaved= 7 IEnMin= 7 EnMin= -279.499919425621     IErMin= 7 ErrMin= 1.31D-04
 ErrMax= 1.31D-04  0.00D+00 EMaxC= 1.00D-01 BMatC= 5.44D-06 BMatP= 1.70D-05
 IDIUse=3 WtCom= 9.99D-01 WtEn= 1.31D-03
 Coeff-Com: -0.947D-03 0.140D-01 0.271D-01-0.307D-01-0.309D+00 0.459D+00
 Coeff-Com:  0.841D+00
 Coeff-En:   0.000D+00 0.000D+00 0.000D+00 0.000D+00 0.000D+00 0.000D+00
 Coeff-En:   0.100D+01
 Coeff:     -0.946D-03 0.140D-01 0.271D-01-0.307D-01-0.309D+00 0.458D+00
 Coeff:      0.841D+00
 Gap=     0.503 Goal=   None    Shift=    0.000
 RMSDP=1.39D-05 MaxDP=3.88D-04 DE=-7.17D-05 OVMax= 1.60D-03

 Cycle   8  Pass 1  IDiag  1:
 E= -279.499929549467     Delta-E=       -0.000010123846 Rises=F Damp=F
 DIIS: error= 5.31D-05 at cycle   8 NSaved=   8.
 NSaved= 8 IEnMin= 8 EnMin= -279.499929549467     IErMin= 8 ErrMin= 5.31D-05
 ErrMax= 5.31D-05  0.00D+00 EMaxC= 1.00D-01 BMatC= 6.08D-07 BMatP= 5.44D-06
 IDIUse=1 WtCom= 1.00D+00 WtEn= 0.00D+00
 Coeff-Com: -0.446D-03 0.340D-02 0.749D-02 0.275D-01-0.407D-01-0.191D+00
 Coeff-Com:  0.873D-01 0.111D+01
 Coeff:     -0.446D-03 0.340D-02 0.749D-02 0.275D-01-0.407D-01-0.191D+00
 Coeff:      0.873D-01 0.111D+01
 Gap=     0.502 Goal=   None    Shift=    0.000
 RMSDP=7.41D-06 MaxDP=2.14D-04 DE=-1.01D-05 OVMax= 8.01D-04

 Cycle   9  Pass 1  IDiag  1:
 E= -279.499931502426     Delta-E=       -0.000001952959 Rises=F Damp=F
 DIIS: error= 1.59D-05 at cycle   9 NSaved=   9.
 NSaved= 9 IEnMin= 9 EnMin= -279.499931502426     IErMin= 9 ErrMin= 1.59D-05
 ErrMax= 1.59D-05  0.00D+00 EMaxC= 1.00D-01 BMatC= 6.63D-08 BMatP= 6.08D-07
 IDIUse=1 WtCom= 1.00D+00 WtEn= 0.00D+00
 Coeff-Com:  0.124D-03-0.172D-02-0.306D-02-0.192D-02 0.342D-01 0.473D-03
 Coeff-Com: -0.142D+00-0.143D+00 0.126D+01
 Coeff:      0.124D-03-0.172D-02-0.306D-02-0.192D-02 0.342D-01 0.473D-03
 Coeff:     -0.142D+00-0.143D+00 0.126D+01
 Gap=     0.503 Goal=   None    Shift=    0.000
 RMSDP=1.94D-06 MaxDP=6.62D-05 DE=-1.95D-06 OVMax= 1.72D-04

 Cycle  10  Pass 1  IDiag  1:
 E= -279.499931661947     Delta-E=       -0.000000159520 Rises=F Damp=F
 DIIS: error= 4.10D-06 at cycle  10 NSaved=  10.
 NSaved=10 IEnMin=10 EnMin= -279.499931661947     IErMin=10 ErrMin= 4.10D-06
 ErrMax= 4.10D-06  0.00D+00 EMaxC= 1.00D-01 BMatC= 5.54D-09 BMatP= 6.63D-08
 IDIUse=1 WtCom= 1.00D+00 WtEn= 0.00D+00
 Coeff-Com:  0.299D-04-0.228D-03-0.298D-03-0.265D-02 0.127D-02 0.192D-01
 Coeff-Com: -0.655D-02-0.789D-01-0.851D-01 0.115D+01
 Coeff:      0.299D-04-0.228D-03-0.298D-03-0.265D-02 0.127D-02 0.192D-01
 Coeff:     -0.655D-02-0.789D-01-0.851D-01 0.115D+01
 Gap=     0.502 Goal=   None    Shift=    0.000
 RMSDP=5.09D-07 MaxDP=2.11D-05 DE=-1.60D-07 OVMax= 4.10D-05

 Cycle  11  Pass 1  IDiag  1:
 E= -279.499931674519     Delta-E=       -0.000000012573 Rises=F Damp=F
 DIIS: error= 2.01D-06 at cycle  11 NSaved=  11.
 NSaved=11 IEnMin=11 EnMin= -279.499931674519     IErMin=11 ErrMin= 2.01D-06
 ErrMax= 2.01D-06  0.00D+00 EMaxC= 1.00D-01 BMatC= 6.48D-10 BMatP= 5.54D-09
 IDIUse=1 WtCom= 1.00D+00 WtEn= 0.00D+00
 Coeff-Com: -0.213D-04 0.243D-03 0.480D-03 0.505D-03-0.428D-02-0.328D-02
 Coeff-Com:  0.164D-01 0.366D-01-0.138D+00-0.179D+00 0.127D+01
 Coeff:     -0.213D-04 0.243D-03 0.480D-03 0.505D-03-0.428D-02-0.328D-02
 Coeff:      0.164D-01 0.366D-01-0.138D+00-0.179D+00 0.127D+01
 Gap=     0.502 Goal=   None    Shift=    0.000
 RMSDP=1.77D-07 MaxDP=6.44D-06 DE=-1.26D-08 OVMax= 1.74D-05

 Cycle  12  Pass 1  IDiag  1:
 E= -279.499931676304     Delta-E=       -0.000000001785 Rises=F Damp=F
 DIIS: error= 5.80D-07 at cycle  12 NSaved=  12.
 NSaved=12 IEnMin=12 EnMin= -279.499931676304     IErMin=12 ErrMin= 5.80D-07
 ErrMax= 5.80D-07  0.00D+00 EMaxC= 1.00D-01 BMatC= 7.14D-11 BMatP= 6.48D-10
 IDIUse=1 WtCom= 1.00D+00 WtEn= 0.00D+00
 Coeff-Com:  0.123D-05-0.292D-04-0.624D-04 0.188D-03 0.109D-02-0.224D-02
 Coeff-Com: -0.408D-02 0.505D-02 0.419D-01-0.115D+00-0.275D+00 0.135D+01
 Coeff:      0.123D-05-0.292D-04-0.624D-04 0.188D-03 0.109D-02-0.224D-02
 Coeff:     -0.408D-02 0.505D-02 0.419D-01-0.115D+00-0.275D+00 0.135D+01
 Gap=     0.503 Goal=   None    Shift=    0.000
 RMSDP=7.16D-08 MaxDP=2.83D-06 DE=-1.78D-09 OVMax= 6.74D-06

 Cycle  13  Pass 1  IDiag  1:
 E= -279.499931676534     Delta-E=       -0.000000000230 Rises=F Damp=F
 DIIS: error= 1.75D-07 at cycle  13 NSaved=  13.
 NSaved=13 IEnMin=13 EnMin= -279.499931676534     IErMin=13 ErrMin= 1.75D-07
 ErrMax= 1.75D-07  0.00D+00 EMaxC= 1.00D-01 BMatC= 4.12D-12 BMatP= 7.14D-11
 IDIUse=1 WtCom= 1.00D+00 WtEn= 0.00D+00
 Coeff-Com:  0.130D-05-0.141D-04-0.228D-04-0.872D-04 0.120D-03 0.729D-03
 Coeff-Com: -0.539D-03-0.356D-02 0.581D-03 0.417D-01-0.389D-01-0.324D+00
 Coeff-Com:  0.132D+01
 Coeff:      0.130D-05-0.141D-04-0.228D-04-0.872D-04 0.120D-03 0.729D-03
 Coeff:     -0.539D-03-0.356D-02 0.581D-03 0.417D-01-0.389D-01-0.324D+00
 Coeff:      0.132D+01
 Gap=     0.503 Goal=   None    Shift=    0.000
 RMSDP=1.94D-08 MaxDP=5.64D-07 DE=-2.30D-10 OVMax= 1.62D-06

 Cycle  14  Pass 1  IDiag  1:
 E= -279.499931676547     Delta-E=       -0.000000000013 Rises=F Damp=F
 DIIS: error= 2.60D-08 at cycle  14 NSaved=  14.
 NSaved=14 IEnMin=14 EnMin= -279.499931676547     IErMin=14 ErrMin= 2.60D-08
 ErrMax= 2.60D-08  0.00D+00 EMaxC= 1.00D-01 BMatC= 2.19D-13 BMatP= 4.12D-12
 IDIUse=1 WtCom= 1.00D+00 WtEn= 0.00D+00
 Coeff-Com: -0.199D-06 0.325D-05 0.573D-05 0.451D-05-0.860D-04 0.476D-04
 Coeff-Com:  0.248D-03 0.291D-03-0.253D-02 0.148D-02 0.178D-01-0.260D-01
 Coeff-Com: -0.209D+00 0.122D+01
 Coeff:     -0.199D-06 0.325D-05 0.573D-05 0.451D-05-0.860D-04 0.476D-04
 Coeff:      0.248D-03 0.291D-03-0.253D-02 0.148D-02 0.178D-01-0.260D-01
 Coeff:     -0.209D+00 0.122D+01
 Gap=     0.503 Goal=   None    Shift=    0.000
 RMSDP=3.98D-09 MaxDP=9.29D-08 DE=-1.30D-11 OVMax= 3.70D-07

 SCF Done:  E(RHF) =  -279.499931677     A.U. after   14 cycles
            NFock= 14  Conv=0.40D-08     -V/T= 2.0025
 KE= 2.788137005599D+02 PE=-8.941184819819D+02 EE= 2.193986418518D+02
 Leave Link  502 at Mon Feb 14 22:10:15 2022, MaxMem= 16106127360 cpu:              55.4 elap:               3.6
 (Enter /sw/contrib/gaussian/g16/B01/g16/l801.exe)
 ExpMin= 2.53D-02 ExpMax= 1.53D+04 ExpMxC= 5.22D+02 IAcc=3 IRadAn=         5 AccDes= 0.00D+00
 HarFok:  IExCor=  205 AccDes= 0.00D+00 IRadAn=         5 IDoV=-2 UseB2=F ITyADJ=14
 ICtDFT= 12500011 ScaDFX=  1.000000  1.000000  1.000000  1.000000
 Largest valence mixing into a core orbital is  2.08D-04
 Largest core mixing into a valence orbital is  3.64D-05
 Range of M.O.s used for correlation:     5   207
 NBasis=   207 NAE=    16 NBE=    16 NFC=     4 NFV=     0
 NROrb=    203 NOA=    12 NOB=    12 NVA=   191 NVB=   191

 **** Warning!!: The largest alpha MO coefficient is  0.17527999D+02

 Leave Link  801 at Mon Feb 14 22:10:15 2022, MaxMem= 16106127360 cpu:               2.4 elap:               0.1
 (Enter /sw/contrib/gaussian/g16/B01/g16/l906.exe)
 Frozen-core derivative calculation, NFC=   4 NFV=   0.
 FulOut=F Deriv=T AODrv=F NAtomX=     5
   MMem=          76  MDisk=          12 MDiskD=          12
  W3Min=      811440 MinDsk=     1524655 NBas6D=         245
 NBas2D=       30762    NTT=       30135    LW2=     3500000
    MDV= 16105579927 MDiskM=      328644 NBas2p=       30466
 Fully in-core method, ICMem=   960157634.
 IMap=   1   2   3   4   5   6   7   8   9  10  11  12  13  14  15  16
 JobTyp=1 Pass  1 fully in-core, NPsUse= 28.
 Compute canonical integrals.
 FoFCou: FMM=F IPFlag=           0 FMFlag=           0 FMFlg1=           0
         NFxFlg=           0 DoJE=F BraDBF=F KetDBF=F FulRan=T
         wScrn=  0.000000 ICntrl=       600 IOpCl=  1 I1Cent=           0 NGrid=           0
         NMat0=    1 NMatS0=  30762 NMatT0=    0 NMatD0=    1 NMtDS0=    0 NMtDT0=    0
 Symmetry not used in FoFCou.
 Spin components of T(2) and E(2):
     alpha-alpha T2 =       0.3420438828D-01 E2=     -0.1225254277D+00
     alpha-beta  T2 =       0.1882471588D+00 E2=     -0.7015676921D+00
     beta-beta   T2 =       0.3420438828D-01 E2=     -0.1225254277D+00
 The integrals were generated   1 times.
 ANorm=    0.1121006662D+01
 E2 =    -0.9466185475D+00 EUMP2 =    -0.28044655022405D+03
 Leave Link  906 at Mon Feb 14 22:10:24 2022, MaxMem= 16106127360 cpu:             243.9 elap:               8.7
 (Enter /sw/contrib/gaussian/g16/B01/g16/l1002.exe)
 Minotr:  Closed shell wavefunction.
          Computing MP2/KS-MP2 derivatives.
          Using Z-Vector for PSCF gradient.
          Skipping F1 and S1 gradient terms here.
          Frozen-core window.
          Direct CPHF calculation.
          Differentiating once with respect to electric field.
                with respect to dipole field.
          Electric field/nuclear overlap derivatives assumed to be zero.
          Using symmetry in CPHF.
          Requested convergence is 1.0D-10 RMS, and 1.0D-09 maximum.
          NewPWx=F KeepS1=T KeepF1=T KeepIn=T MapXYZ=F SortEE=F KeepMc=T.
 Keep R1 ints in memory in symmetry-blocked form, NReq=348888868.
 FoFCou: FMM=F IPFlag=           0 FMFlag=           0 FMFlg1=           0
         NFxFlg=           0 DoJE=F BraDBF=F KetDBF=F FulRan=T
         wScrn=  0.000000 ICntrl=       600 IOpCl=  0 I1Cent=           0 NGrid=           0
         NMat0=    1 NMatS0=  21528 NMatT0=    0 NMatD0=    1 NMtDS0=    0 NMtDT0=    0
 Petite list used in FoFCou.
          MDV=   16106127360 using IRadAn=       5.
          Solving linear equations separately, MaxMat=       0.
          There are     1 degrees of freedom in the 1st order CPHF.  IDoFFX=0 NUNeed=     1.
 LinEq1:  Iter=  0 NonCon=     1 RMS=5.99D-03 Max=1.34D-01 NDo=     1
 AX will form     1 AO Fock derivatives at one time.
 LinEq1:  Iter=  1 NonCon=     1 RMS=1.91D-03 Max=3.79D-02 NDo=     1
 LinEq1:  Iter=  2 NonCon=     1 RMS=8.72D-04 Max=1.44D-02 NDo=     1
 LinEq1:  Iter=  3 NonCon=     1 RMS=3.87D-04 Max=7.72D-03 NDo=     1
 LinEq1:  Iter=  4 NonCon=     1 RMS=1.19D-04 Max=1.87D-03 NDo=     1
 LinEq1:  Iter=  5 NonCon=     1 RMS=4.37D-05 Max=6.90D-04 NDo=     1
 LinEq1:  Iter=  6 NonCon=     1 RMS=2.00D-05 Max=2.17D-04 NDo=     1
 LinEq1:  Iter=  7 NonCon=     1 RMS=8.17D-06 Max=1.35D-04 NDo=     1
 LinEq1:  Iter=  8 NonCon=     1 RMS=3.51D-06 Max=3.39D-05 NDo=     1
 LinEq1:  Iter=  9 NonCon=     1 RMS=9.57D-07 Max=1.34D-05 NDo=     1
 LinEq1:  Iter= 10 NonCon=     1 RMS=1.89D-07 Max=2.07D-06 NDo=     1
 LinEq1:  Iter= 11 NonCon=     1 RMS=3.51D-08 Max=3.60D-07 NDo=     1
 LinEq1:  Iter= 12 NonCon=     1 RMS=8.55D-09 Max=1.09D-07 NDo=     1
 LinEq1:  Iter= 13 NonCon=     1 RMS=1.59D-09 Max=2.25D-08 NDo=     1
 LinEq1:  Iter= 14 NonCon=     1 RMS=2.89D-10 Max=4.05D-09 NDo=     1
 LinEq1:  Iter= 15 NonCon=     0 RMS=5.25D-11 Max=5.37D-10 NDo=     1
 Linear equations converged to 1.000D-10 1.000D-09 after    15 iterations.
 End of Minotr F.D. properties file   721 does not exist.
 End of Minotr F.D. properties file   722 does not exist.
 End of Minotr F.D. properties file   788 does not exist.
 Leave Link 1002 at Mon Feb 14 22:10:28 2022, MaxMem= 16106127360 cpu:              53.0 elap:               3.9
 (Enter /sw/contrib/gaussian/g16/B01/g16/l601.exe)
 Copying SCF densities to generalized density rwf, IOpCl= 0 IROHF=0.

 **********************************************************************

            Population analysis using the MP2 Density.

 **********************************************************************

 Orbital symmetries:
       Occupied  (A') (A') (A') (A') (A') (A') (A') (A') (A') (A')
                 (A") (A') (A") (A') (A") (A')
       Virtual   (A') (A") (A') (A') (A') (A") (A') (A') (A") (A')
                 (A") (A') (A') (A') (A") (A') (A') (A") (A') (A')
                 (A') (A') (A') (A') (A") (A') (A') (A") (A') (A')
                 (A") (A') (A") (A') (A') (A") (A') (A') (A") (A')
                 (A") (A') (A") (A') (A') (A") (A') (A') (A") (A')
                 (A") (A') (A') (A') (A") (A') (A") (A') (A") (A')
                 (A') (A') (A") (A') (A') (A") (A') (A") (A') (A')
                 (A") (A') (A') (A") (A") (A') (A') (A") (A') (A')
                 (A') (A") (A') (A") (A') (A") (A') (A") (A') (A')
                 (A") (A') (A') (A") (A') (A") (A') (A") (A') (A')
                 (A") (A') (A") (A') (A') (A") (A') (A') (A") (A')
                 (A") (A') (A') (A') (A") (A') (A') (A') (A") (A')
                 (A") (A') (A") (A') (A') (A") (A") (A') (A") (A')
                 (A') (A') (A') (A") (A") (A") (A') (A') (A') (A')
                 (A") (A') (A") (A') (A') (A") (A') (A') (A') (A')
                 (A') (A") (A') (A") (A') (A") (A') (A") (A") (A')
                 (A') (A") (A') (A") (A') (A") (A") (A') (A") (A')
                 (A") (A') (A") (A') (A") (A') (A") (A") (A') (A')
                 (A') (A') (A') (A') (A') (A') (A') (A') (A') (A')
                 (A')
 The electronic state is 1-A'.
 Alpha  occ. eigenvalues --  -20.69195 -20.68462 -20.66161 -15.81320  -1.62352
 Alpha  occ. eigenvalues --   -1.48833  -1.25777  -0.94781  -0.77084  -0.75769
 Alpha  occ. eigenvalues --   -0.71016  -0.67939  -0.61865  -0.58673  -0.48858
 Alpha  occ. eigenvalues --   -0.47291
 Alpha virt. eigenvalues --    0.02959   0.07165   0.08544   0.10162   0.13293
 Alpha virt. eigenvalues --    0.13397   0.14398   0.15445   0.17830   0.19435
 Alpha virt. eigenvalues --    0.19989   0.20612   0.21677   0.22923   0.23722
 Alpha virt. eigenvalues --    0.26592   0.29328   0.30372   0.31002   0.34237
 Alpha virt. eigenvalues --    0.34901   0.38697   0.42110   0.43133   0.52703
 Alpha virt. eigenvalues --    0.52887   0.55818   0.58111   0.62559   0.63843
 Alpha virt. eigenvalues --    0.67457   0.68467   0.70484   0.71170   0.72310
 Alpha virt. eigenvalues --    0.72987   0.74484   0.79021   0.79183   0.81033
 Alpha virt. eigenvalues --    0.81238   0.82929   0.86804   0.90637   0.92162
 Alpha virt. eigenvalues --    0.92471   0.95734   0.97654   0.98339   1.01639
 Alpha virt. eigenvalues --    1.05064   1.05525   1.08059   1.11560   1.13838
 Alpha virt. eigenvalues --    1.18818   1.22076   1.23128   1.33830   1.34927
 Alpha virt. eigenvalues --    1.38602   1.45287   1.48811   1.51025   1.53690
 Alpha virt. eigenvalues --    1.56542   1.57854   1.61209   1.66066   1.66879
 Alpha virt. eigenvalues --    1.70298   1.79071   1.82998   1.83431   1.87641
 Alpha virt. eigenvalues --    1.90848   1.95588   1.98985   2.00771   2.07663
 Alpha virt. eigenvalues --    2.11657   2.13172   2.14630   2.22354   2.26044
 Alpha virt. eigenvalues --    2.26341   2.28840   2.31228   2.33867   2.38827
 Alpha virt. eigenvalues --    2.42129   2.42578   2.45274   2.46311   2.47449
 Alpha virt. eigenvalues --    2.49938   2.58701   2.59393   2.61437   2.62200
 Alpha virt. eigenvalues --    2.62933   2.66204   2.75631   2.82338   2.85039
 Alpha virt. eigenvalues --    2.87487   2.88443   2.91795   2.95340   3.01197
 Alpha virt. eigenvalues --    3.06838   3.12555   3.18151   3.22127   3.30959
 Alpha virt. eigenvalues --    3.34835   3.51052   3.64033   3.83821   3.83988
 Alpha virt. eigenvalues --    4.14534   4.15690   4.18078   4.25529   4.34720
 Alpha virt. eigenvalues --    4.38889   4.44579   4.52213   4.65902   4.70058
 Alpha virt. eigenvalues --    4.80304   4.82325   4.83129   4.89414   5.02178
 Alpha virt. eigenvalues --    5.07679   5.09939   5.14487   5.17835   5.23996
 Alpha virt. eigenvalues --    5.27200   5.30762   5.32699   5.35061   5.59522
 Alpha virt. eigenvalues --    5.67333   5.76403   5.79511   5.95104   6.16471
 Alpha virt. eigenvalues --    6.33535   6.33862   6.39888   6.49522   6.50565
 Alpha virt. eigenvalues --    6.61786   6.68032   6.70180   6.75530   6.75900
 Alpha virt. eigenvalues --    6.83192   6.89659   6.99833   7.02917   7.04183
 Alpha virt. eigenvalues --    7.07695   7.12216   7.13775   7.17585   7.22011
 Alpha virt. eigenvalues --    7.23709   7.30367   7.32448   7.34755   7.39478
 Alpha virt. eigenvalues --    7.40842   7.48265   7.59385   7.61107   7.61757
 Alpha virt. eigenvalues --    7.65879   7.77048   7.88234   8.06148   8.28944
 Alpha virt. eigenvalues --    8.38820   8.54506  13.33589  14.37077  15.14214
 Alpha virt. eigenvalues --   16.15005
          Condensed to atoms (all electrons):
               1          2          3          4          5
     1  H    0.588304   0.127950   0.020977   0.011998  -0.000575
     2  O    0.127950   8.299179  -0.150802  -0.087344   0.014906
     3  O    0.020977  -0.150802   8.447877  -0.131960  -0.038014
     4  N    0.011998  -0.087344  -0.131960   6.969169  -0.055122
     5  O   -0.000575   0.014906  -0.038014  -0.055122   8.271441
 Mulliken charges:
               1
     1  H    0.251346
     2  O   -0.203890
     3  O   -0.148077
     4  N    0.293258
     5  O   -0.192637
 Sum of Mulliken charges =  -0.00000
 Mulliken charges with hydrogens summed into heavy atoms:
               1
     2  O    0.047456
     3  O   -0.148077
     4  N    0.293258
     5  O   -0.192637
 Electronic spatial extent (au):  <R**2>=            254.7245
 Charge=             -0.0000 electrons
 Dipole moment (field-independent basis, Debye):
    X=              0.5117    Y=              1.3439    Z=             -0.0000  Tot=              1.4381
 Quadrupole moment (field-independent basis, Debye-Ang):
   XX=            -22.3643   YY=            -18.6859   ZZ=            -22.0367
   XY=              3.3150   XZ=              0.0000   YZ=             -0.0000
 Traceless Quadrupole moment (field-independent basis, Debye-Ang):
   XX=             -1.3354   YY=              2.3431   ZZ=             -1.0077
   XY=              3.3150   XZ=              0.0000   YZ=             -0.0000
 Octapole moment (field-independent basis, Debye-Ang**2):
  XXX=              3.1405  YYY=             11.0397  ZZZ=              0.0000  XYY=              7.9289
  XXY=              6.7680  XXZ=             -0.0000  XZZ=             -1.6163  YZZ=             -0.8674
  YYZ=             -0.0000  XYZ=             -0.0000
 Hexadecapole moment (field-independent basis, Debye-Ang**3):
 XXXX=           -161.3140 YYYY=            -88.8882 ZZZZ=            -18.2928 XXXY=            -36.2434
 XXXZ=              0.0000 YYYX=            -30.8330 YYYZ=              0.0000 ZZZX=              0.0000
 ZZZY=              0.0000 XXYY=            -33.9939 XXZZ=            -31.4782 YYZZ=            -20.4647
 XXYZ=              0.0000 YYXZ=              0.0000 ZZXY=            -15.0890
 N-N= 1.164062078937D+02 E-N=-8.949107424579D+02  KE= 2.801717566517D+02
 Symmetry A'   KE= 2.662109904163D+02
 Symmetry A"   KE= 1.396076623542D+01
 No NMR shielding tensors so no spin-rotation constants.
 Leave Link  601 at Mon Feb 14 22:10:28 2022, MaxMem= 16106127360 cpu:               4.7 elap:               0.2
 (Enter /sw/contrib/gaussian/g16/B01/g16/l9999.exe)
 1\1\GINC-N2118\SP\RMP2-FC\Aug-CC-pVTZ\H1N1O3\CGAVINH\14-Feb-2022\0\\#p
  SP mp2/aug-cc-pvtz density=current\\title\\0,1\H\O,1,0.96897556\O,2,1
 .4739671928,1,97.59494903\N,3,1.45878406,2,102.29752444,1,180.,0\O,4,1
 .17072885,3,109.06955123,2,180.,0\\Version=ES64L-G16RevB.01\State=1-A'
 \HF=-279.4999317\MP2=-280.4465502\RMSD=3.984e-09\Dipole=-0.144139,0.,-
 0.5471102\Quadrupole=-1.4816627,-0.7492149,2.2308777,0.,2.1209334,0.\P
 G=CS [SG(H1N1O3)]\\@


 ... IT IS NO ONE DREAME THAT
     CAN PLEASE THESE ALL ...

                -- BEN JONSON
 Job cpu time:       0 days  0 hours  6 minutes 22.6 seconds.
 Elapsed time:       0 days  0 hours  0 minutes 17.7 seconds.
 File lengths (MBytes):  RWF=     22 Int=      0 D2E=      0 Chk=      8 Scr=      1
 Normal termination of Gaussian 16 at Mon Feb 14 22:10:28 2022.
