title                                                                   
SP        RMP2-FC                                                     Aug-CC-pVTZ         
Number of atoms                            I                5
Info1-9                                    I   N=           9
          33          24           0           0           0         110
           1           2           1
Full Title                                 C   N=           1
title       
Route                                      C   N=           4
#p SP mp2/aug-cc-pvtz density=current           
Charge                                     I                0
Multiplicity                               I                1
Number of electrons                        I               32
Number of alpha electrons                  I               16
Number of beta electrons                   I               16
Number of basis functions                  I              207
Number of independent functions            I              207
Number of point charges in /Mol/           I                0
Number of translation vectors              I                0
Atomic numbers                             I   N=           5
           1           8           8           7           8
Nuclear charges                            R   N=           5
  1.00000000E+00  8.00000000E+00  8.00000000E+00  7.00000000E+00  8.00000000E+00
Current cartesian coordinates              R   N=          15
  2.93458719E+00  3.15164024E+00 -1.52227229E-31  2.74811657E+00  1.33006120E+00
 -7.44981430E-32 -1.64796777E-17  1.24609486E+00  3.04712751E-31 -4.94405458E-01
 -1.40920520E+00  2.05290086E-31 -2.68233519E+00 -1.73705654E+00  2.86734829E-31
Number of symbols in /Mol/                 I                0
Force Field                                I                0
Atom Types                                 C   N=           5
                                                            
Int Atom Types                             I   N=           5
           0           0           0           0           0
MM charges                                 R   N=           5
  0.00000000E+00  0.00000000E+00  0.00000000E+00  0.00000000E+00  0.00000000E+00
Integer atomic weights                     I   N=           5
           1          16          16          14          16
Real atomic weights                        R   N=           5
  1.00782504E+00  1.59949146E+01  1.59949146E+01  1.40030740E+01  1.59949146E+01
Atom fragment info                         I   N=           5
           0           0           0           0           0
Atom residue num                           I   N=           5
           0           0           0           0           0
Nuclear spins                              I   N=           5
           1           0           0           2           0
Nuclear ZEff                               R   N=           5
 -1.00000000E+00 -5.60000000E+00 -5.60000000E+00 -4.55000000E+00 -5.60000000E+00
Nuclear ZNuc                               R   N=           5
  1.00000000E+00  8.00000000E+00  8.00000000E+00  7.00000000E+00  8.00000000E+00
Nuclear QMom                               R   N=           5
  0.00000000E+00  0.00000000E+00  0.00000000E+00  2.04400000E+00  0.00000000E+00
Nuclear GFac                               R   N=           5
  2.79284600E+00  0.00000000E+00  0.00000000E+00  4.03761000E-01  0.00000000E+00
MicOpt                                     I   N=           5
          -1          -1          -1          -1          -1
Number of residues                         I                0
Number of secondary structures             I                0
SymInf integers                            I   N=          26
           1           2           1           1           1           1
           1          -1           0           0           0           0
           0           0           0           0           0           0
           0           0           0           0           0           0
           0           0
RotTr to input orientation                 R   N=          12
 -9.94801264E-01  7.19915106E-16 -1.01835387E-01  1.01835387E-01 -7.71891065E-16
 -9.94801264E-01 -7.94778283E-16 -1.00000000E+00  6.94565373E-16  2.59838254E+00
  0.00000000E+00  3.43410051E+00
Number of contracted shells                I               65
Number of primitive shells                 I              119
Pure/Cartesian d shells                    I                0
Pure/Cartesian f shells                    I                0
Highest angular momentum                   I                3
Largest degree of contraction              I                7
Shell types                                I   N=          65
           0           0           0           0           1           1
           1          -2          -2           0           0           0
           0           0           1           1           1           1
          -2          -2          -2          -3          -3           0
           0           0           0           0           1           1
           1           1          -2          -2          -2          -3
          -3           0           0           0           0           0
           1           1           1           1          -2          -2
          -2          -3          -3           0           0           0
           0           0           1           1           1           1
          -2          -2          -2          -3          -3
Number of primitives per shell             I   N=          65
           3           1           1           1           1           1
           1           1           1           7           6           1
           1           1           3           1           1           1
           1           1           1           1           1           7
           6           1           1           1           3           1
           1           1           1           1           1           1
           1           7           6           1           1           1
           3           1           1           1           1           1
           1           1           1           7           6           1
           1           1           3           1           1           1
           1           1           1           1           1
Shell to atom map                          I   N=          65
           1           1           1           1           1           1
           1           1           1           2           2           2
           2           2           2           2           2           2
           2           2           2           2           2           3
           3           3           3           3           3           3
           3           3           3           3           3           3
           3           4           4           4           4           4
           4           4           4           4           4           4
           4           4           4           5           5           5
           5           5           5           5           5           5
           5           5           5           5           5
Primitive exponents                        R   N=         119
  3.38700000E+01  5.09500000E+00  1.15900000E+00  3.25800000E-01  1.02700000E-01
  2.52600000E-02  1.40700000E+00  3.88000000E-01  1.02000000E-01  1.05700000E+00
  2.47000000E-01  1.53300000E+04  2.29900000E+03  5.22400000E+02  1.47300000E+02
  4.75500000E+01  1.67600000E+01  6.20700000E+00  5.22400000E+02  1.47300000E+02
  4.75500000E+01  1.67600000E+01  6.20700000E+00  6.88200000E-01  1.75200000E+00
  2.38400000E-01  7.37600000E-02  3.44600000E+01  7.74900000E+00  2.28000000E+00
  7.15600000E-01  2.14000000E-01  5.97400000E-02  2.31400000E+00  6.45000000E-01
  2.14000000E-01  1.42800000E+00  5.00000000E-01  1.53300000E+04  2.29900000E+03
  5.22400000E+02  1.47300000E+02  4.75500000E+01  1.67600000E+01  6.20700000E+00
  5.22400000E+02  1.47300000E+02  4.75500000E+01  1.67600000E+01  6.20700000E+00
  6.88200000E-01  1.75200000E+00  2.38400000E-01  7.37600000E-02  3.44600000E+01
  7.74900000E+00  2.28000000E+00  7.15600000E-01  2.14000000E-01  5.97400000E-02
  2.31400000E+00  6.45000000E-01  2.14000000E-01  1.42800000E+00  5.00000000E-01
  1.14200000E+04  1.71200000E+03  3.89300000E+02  1.10000000E+02  3.55700000E+01
  1.25400000E+01  4.64400000E+00  3.89300000E+02  1.10000000E+02  3.55700000E+01
  1.25400000E+01  4.64400000E+00  5.11800000E-01  1.29300000E+00  1.78700000E-01
  5.76000000E-02  2.66300000E+01  5.94800000E+00  1.74200000E+00  5.55000000E-01
  1.72500000E-01  4.91000000E-02  1.65400000E+00  4.69000000E-01  1.51000000E-01
  1.09300000E+00  3.64000000E-01  1.53300000E+04  2.29900000E+03  5.22400000E+02
  1.47300000E+02  4.75500000E+01  1.67600000E+01  6.20700000E+00  5.22400000E+02
  1.47300000E+02  4.75500000E+01  1.67600000E+01  6.20700000E+00  6.88200000E-01
  1.75200000E+00  2.38400000E-01  7.37600000E-02  3.44600000E+01  7.74900000E+00
  2.28000000E+00  7.15600000E-01  2.14000000E-01  5.97400000E-02  2.31400000E+00
  6.45000000E-01  2.14000000E-01  1.42800000E+00  5.00000000E-01
Contraction coefficients                   R   N=         119
  2.54948632E-02  1.90362766E-01  8.52162022E-01  1.00000000E+00  1.00000000E+00
  1.00000000E+00  1.00000000E+00  1.00000000E+00  1.00000000E+00  1.00000000E+00
  1.00000000E+00  5.19808943E-04  4.02025621E-03  2.07128267E-02  8.10105536E-02
  2.35962985E-01  4.42653446E-01  3.57064423E-01 -4.42115008E-05 -1.22591041E-03
 -1.05517725E-02 -6.74452633E-02 -1.71198607E-01  1.07329856E+00  1.00000000E+00
  1.00000000E+00  1.00000000E+00  4.11634896E-02  2.57762836E-01  8.02419274E-01
  1.00000000E+00  1.00000000E+00  1.00000000E+00  1.00000000E+00  1.00000000E+00
  1.00000000E+00  1.00000000E+00  1.00000000E+00  5.19808943E-04  4.02025621E-03
  2.07128267E-02  8.10105536E-02  2.35962985E-01  4.42653446E-01  3.57064423E-01
 -4.42115008E-05 -1.22591041E-03 -1.05517725E-02 -6.74452633E-02 -1.71198607E-01
  1.07329856E+00  1.00000000E+00  1.00000000E+00  1.00000000E+00  4.11634896E-02
  2.57762836E-01  8.02419274E-01  1.00000000E+00  1.00000000E+00  1.00000000E+00
  1.00000000E+00  1.00000000E+00  1.00000000E+00  1.00000000E+00  1.00000000E+00
  5.34563860E-04  4.13435660E-03  2.12335358E-02  8.25006224E-02  2.38138871E-01
  4.42551547E-01  3.53757422E-01 -4.89867350E-05 -1.19527323E-03 -1.03490714E-02
 -6.48680190E-02 -1.71552477E-01  1.07289568E+00  1.00000000E+00  1.00000000E+00
  1.00000000E+00  3.98072123E-02  2.49002660E-01  8.10479727E-01  1.00000000E+00
  1.00000000E+00  1.00000000E+00  1.00000000E+00  1.00000000E+00  1.00000000E+00
  1.00000000E+00  1.00000000E+00  5.19808943E-04  4.02025621E-03  2.07128267E-02
  8.10105536E-02  2.35962985E-01  4.42653446E-01  3.57064423E-01 -4.42115008E-05
 -1.22591041E-03 -1.05517725E-02 -6.74452633E-02 -1.71198607E-01  1.07329856E+00
  1.00000000E+00  1.00000000E+00  1.00000000E+00  4.11634896E-02  2.57762836E-01
  8.02419274E-01  1.00000000E+00  1.00000000E+00  1.00000000E+00  1.00000000E+00
  1.00000000E+00  1.00000000E+00  1.00000000E+00  1.00000000E+00
Coordinates of each shell                  R   N=         195
  2.93458719E+00  3.15164024E+00  2.46279084E-32  2.93458719E+00  3.15164024E+00
  2.46279084E-32  2.93458719E+00  3.15164024E+00  2.46279084E-32  2.93458719E+00
  3.15164024E+00  2.46279084E-32  2.93458719E+00  3.15164024E+00  2.46279084E-32
  2.93458719E+00  3.15164024E+00  2.46279084E-32  2.93458719E+00  3.15164024E+00
  2.46279084E-32  2.93458719E+00  3.15164024E+00  2.46279084E-32  2.93458719E+00
  3.15164024E+00  2.46279084E-32  2.74811657E+00  1.33006120E+00 -5.64585031E-32
  2.74811657E+00  1.33006120E+00 -5.64585031E-32  2.74811657E+00  1.33006120E+00
 -5.64585031E-32  2.74811657E+00  1.33006120E+00 -5.64585031E-32  2.74811657E+00
  1.33006120E+00 -5.64585031E-32  2.74811657E+00  1.33006120E+00 -5.64585031E-32
  2.74811657E+00  1.33006120E+00 -5.64585031E-32  2.74811657E+00  1.33006120E+00
 -5.64585031E-32  2.74811657E+00  1.33006120E+00 -5.64585031E-32  2.74811657E+00
  1.33006120E+00 -5.64585031E-32  2.74811657E+00  1.33006120E+00 -5.64585031E-32
  2.74811657E+00  1.33006120E+00 -5.64585031E-32  2.74811657E+00  1.33006120E+00
 -5.64585031E-32  2.74811657E+00  1.33006120E+00 -5.64585031E-32  1.25639108E-17
  1.24609486E+00  6.11178240E-32  1.25639108E-17  1.24609486E+00  6.11178240E-32
  1.25639108E-17  1.24609486E+00  6.11178240E-32  1.25639108E-17  1.24609486E+00
  6.11178240E-32  1.25639108E-17  1.24609486E+00  6.11178240E-32  1.25639108E-17
  1.24609486E+00  6.11178240E-32  1.25639108E-17  1.24609486E+00  6.11178240E-32
  1.25639108E-17  1.24609486E+00  6.11178240E-32  1.25639108E-17  1.24609486E+00
  6.11178240E-32  1.25639108E-17  1.24609486E+00  6.11178240E-32  1.25639108E-17
  1.24609486E+00  6.11178240E-32  1.25639108E-17  1.24609486E+00  6.11178240E-32
  1.25639108E-17  1.24609486E+00  6.11178240E-32  1.25639108E-17  1.24609486E+00
  6.11178240E-32 -4.94405458E-01 -1.40920520E+00 -4.72242524E-32 -4.94405458E-01
 -1.40920520E+00 -4.72242524E-32 -4.94405458E-01 -1.40920520E+00 -4.72242524E-32
 -4.94405458E-01 -1.40920520E+00 -4.72242524E-32 -4.94405458E-01 -1.40920520E+00
 -4.72242524E-32 -4.94405458E-01 -1.40920520E+00 -4.72242524E-32 -4.94405458E-01
 -1.40920520E+00 -4.72242524E-32 -4.94405458E-01 -1.40920520E+00 -4.72242524E-32
 -4.94405458E-01 -1.40920520E+00 -4.72242524E-32 -4.94405458E-01 -1.40920520E+00
 -4.72242524E-32 -4.94405458E-01 -1.40920520E+00 -4.72242524E-32 -4.94405458E-01
 -1.40920520E+00 -4.72242524E-32 -4.94405458E-01 -1.40920520E+00 -4.72242524E-32
 -4.94405458E-01 -1.40920520E+00 -4.72242524E-32 -2.68233519E+00 -1.73705654E+00
  3.35834115E-32 -2.68233519E+00 -1.73705654E+00  3.35834115E-32 -2.68233519E+00
 -1.73705654E+00  3.35834115E-32 -2.68233519E+00 -1.73705654E+00  3.35834115E-32
 -2.68233519E+00 -1.73705654E+00  3.35834115E-32 -2.68233519E+00 -1.73705654E+00
  3.35834115E-32 -2.68233519E+00 -1.73705654E+00  3.35834115E-32 -2.68233519E+00
 -1.73705654E+00  3.35834115E-32 -2.68233519E+00 -1.73705654E+00  3.35834115E-32
 -2.68233519E+00 -1.73705654E+00  3.35834115E-32 -2.68233519E+00 -1.73705654E+00
  3.35834115E-32 -2.68233519E+00 -1.73705654E+00  3.35834115E-32 -2.68233519E+00
 -1.73705654E+00  3.35834115E-32 -2.68233519E+00 -1.73705654E+00  3.35834115E-32
Num ILSW                                   I              100
ILSW                                       I   N=         100
           0           0           0           0           2           0
           0           0           0           0           0          -1
           5           0           0           0           0           0
           0           0           0           0           0           0
           1           0           0           0           0           0
           0           0      100000           0          -1           0
           0           0           0           0           0           0
           0           0           0           1           0           0
           0 -2000000000           1           0           0           0
           0           0           4          52           0           0
           0           0           0           0           0           0
           0           0           0           5           0           1
           0           0           0           0           0           0
           0           0           0           0           0           0
           0           0           0           0           0           0
           0           0           0           0           0           0
           0           0           0           0
Num RLSW                                   I               52
RLSW                                       R   N=          52
  1.00000000E+00  1.00000000E+00  1.00000000E+00  1.00000000E+00  1.00000000E+00
  0.00000000E+00  0.00000000E+00  1.00000000E+00  0.00000000E+00  0.00000000E+00
  0.00000000E+00  0.00000000E+00  1.00000000E+00  0.00000000E+00  0.00000000E+00
  0.00000000E+00  0.00000000E+00  1.00000000E+00  0.00000000E+00  0.00000000E+00
  0.00000000E+00  0.00000000E+00  1.00000000E+00  0.00000000E+00  0.00000000E+00
  0.00000000E+00  0.00000000E+00  1.00000000E+00  0.00000000E+00  0.00000000E+00
  0.00000000E+00  0.00000000E+00  1.00000000E+00  0.00000000E+00  0.00000000E+00
  0.00000000E+00  0.00000000E+00  0.00000000E+00  1.00000000E+00  1.00000000E+00
  0.00000000E+00  1.00000000E+00  0.00000000E+00  0.00000000E+00  0.00000000E+00
  0.00000000E+00  0.00000000E+00  0.00000000E+00  0.00000000E+00  0.00000000E+00
  0.00000000E+00  0.00000000E+00
MxBond                                     I                2
NBond                                      I   N=           5
           1           2           2           2           1
IBond                                      I   N=          10
           2           0           1           3           2           4
           3           5           4           0
RBond                                      R   N=          10
  1.00000000E+00  0.00000000E+00  1.00000000E+00  1.00000000E+00  1.00000000E+00
  1.00000000E+00  1.00000000E+00  2.00000000E+00  2.00000000E+00  0.00000000E+00
Virial Ratio                               R      2.002181992067615E+00
SCF Energy                                 R     -2.795042929121726E+02
MP2 Energy                                 R     -2.804465427512269E+02
Total Energy                               R     -2.804465427512269E+02
Post-SCF wavefunction norm                 R      1.119002989717469E+00
RMS Density                                R      3.425491113517812E-09
Job Status                                 I                1
Nuclear derivative order                   I                0
External E-field                           R   N=          35
  0.00000000E+00  0.00000000E+00  0.00000000E+00  0.00000000E+00  0.00000000E+00
  0.00000000E+00  0.00000000E+00  0.00000000E+00  0.00000000E+00  0.00000000E+00
  0.00000000E+00  0.00000000E+00  0.00000000E+00  0.00000000E+00  0.00000000E+00
  0.00000000E+00  0.00000000E+00  0.00000000E+00  0.00000000E+00  0.00000000E+00
  0.00000000E+00  0.00000000E+00  0.00000000E+00  0.00000000E+00  0.00000000E+00
  0.00000000E+00  0.00000000E+00  0.00000000E+00  0.00000000E+00  0.00000000E+00
  0.00000000E+00  0.00000000E+00  0.00000000E+00  0.00000000E+00  0.00000000E+00
IOpCl                                      I                0
IROHF                                      I                0
Alpha Orbital Energies                     R   N=         207
 -2.06958783E+01 -2.06772332E+01 -2.06635792E+01 -1.58081214E+01 -1.62624724E+00
 -1.49966529E+00 -1.26335242E+00 -9.46002070E-01 -7.75226798E-01 -7.62835957E-01
 -7.17210576E-01 -6.77850792E-01 -6.18879298E-01 -5.90917621E-01 -4.88145793E-01
 -4.73505825E-01  2.88150967E-02  7.54978177E-02  8.64553146E-02  1.02026203E-01
  1.33690050E-01  1.34077213E-01  1.43485107E-01  1.53951427E-01  1.77607668E-01
  1.94200663E-01  1.99965928E-01  2.09832631E-01  2.19885189E-01  2.34100332E-01
  2.37758781E-01  2.66122048E-01  3.02580030E-01  3.03244914E-01  3.14522852E-01
  3.45617490E-01  3.51191707E-01  3.89125956E-01  4.20876878E-01  4.30692027E-01
  5.28739525E-01  5.30462895E-01  5.61833906E-01  5.83225902E-01  6.28081684E-01
  6.40063313E-01  6.75255811E-01  6.84332852E-01  7.05240588E-01  7.10479951E-01
  7.23797778E-01  7.27426774E-01  7.43738288E-01  7.90985692E-01  7.93472175E-01
  8.10694666E-01  8.11509106E-01  8.32133839E-01  8.70401059E-01  9.08393986E-01
  9.20838737E-01  9.28493062E-01  9.53809721E-01  9.81653804E-01  9.83493229E-01
  1.01408089E+00  1.05340438E+00  1.05626780E+00  1.08518730E+00  1.11991129E+00
  1.14430442E+00  1.19103424E+00  1.22155604E+00  1.23348514E+00  1.34223524E+00
  1.35598716E+00  1.38281461E+00  1.45798182E+00  1.48795205E+00  1.50753502E+00
  1.53993829E+00  1.57033027E+00  1.58556213E+00  1.61477461E+00  1.66604480E+00
  1.67027607E+00  1.70602382E+00  1.79334008E+00  1.83291424E+00  1.83982315E+00
  1.87767203E+00  1.91374879E+00  1.95636208E+00  1.99812122E+00  2.00808170E+00
  2.08737081E+00  2.12407915E+00  2.13615551E+00  2.14587116E+00  2.23021166E+00
  2.26252100E+00  2.26435725E+00  2.29494584E+00  2.31519314E+00  2.35150146E+00
  2.38587433E+00  2.42865806E+00  2.43547925E+00  2.45842763E+00  2.46653342E+00
  2.48139283E+00  2.50585994E+00  2.58689273E+00  2.59907999E+00  2.62706026E+00
  2.62810054E+00  2.63236559E+00  2.67133235E+00  2.76250151E+00  2.83751441E+00
  2.86851492E+00  2.89231745E+00  2.89512415E+00  2.94780100E+00  2.95950426E+00
  3.03668974E+00  3.07923960E+00  3.13144326E+00  3.20015829E+00  3.23439963E+00
  3.32195600E+00  3.35052267E+00  3.52158660E+00  3.65460161E+00  3.85240145E+00
  3.85251980E+00  4.14882386E+00  4.15727745E+00  4.18878031E+00  4.27095725E+00
  4.35145068E+00  4.39457392E+00  4.46176778E+00  4.52283111E+00  4.67251175E+00
  4.71424255E+00  4.81059117E+00  4.82491930E+00  4.84877377E+00  4.89862268E+00
  5.03306980E+00  5.08638093E+00  5.11345963E+00  5.14383022E+00  5.18723001E+00
  5.25047572E+00  5.28232772E+00  5.31474371E+00  5.33318166E+00  5.36764026E+00
  5.61222518E+00  5.67900520E+00  5.78626354E+00  5.82720262E+00  5.96414282E+00
  6.18143205E+00  6.30922831E+00  6.34978158E+00  6.40211604E+00  6.50058829E+00
  6.51178904E+00  6.61492041E+00  6.66645186E+00  6.71110362E+00  6.75507856E+00
  6.76285529E+00  6.84049677E+00  6.90857603E+00  7.02160828E+00  7.05451783E+00
  7.06179131E+00  7.08980463E+00  7.13356780E+00  7.15814505E+00  7.18291325E+00
  7.23796220E+00  7.23979552E+00  7.30233984E+00  7.33036867E+00  7.35513366E+00
  7.40825278E+00  7.44501715E+00  7.49257309E+00  7.61347136E+00  7.63062484E+00
  7.65217648E+00  7.68486007E+00  7.80060405E+00  7.89593948E+00  8.12879340E+00
  8.32721238E+00  8.40891164E+00  8.55891069E+00  1.34781004E+01  1.45618646E+01
  1.51881692E+01  1.62127764E+01
Alpha MO coefficients                      R   N=       42849
  9.00003440E-05 -5.95103849E-04 -6.78561485E-04 -3.97974472E-06 -1.96118301E-05
 -2.70523933E-05  0.00000000E+00 -3.63274086E-05  4.60545324E-05  0.00000000E+00
  8.44020747E-05  2.07313365E-05  0.00000000E+00  3.08570795E-05  0.00000000E+00
  0.00000000E+00 -5.11013082E-05  1.97856680E-05 -6.05602566E-06  0.00000000E+00
  0.00000000E+00 -1.36786204E-04  1.18987853E-04  4.38413964E-03 -2.84995996E-04
  7.08511696E-06  1.57674056E-03  1.81704360E-03  1.06233908E-04  6.75928307E-06
  0.00000000E+00 -6.19895185E-04 -3.58625084E-05  0.00000000E+00 -1.15584014E-03
  7.67786793E-04  0.00000000E+00 -4.08372476E-04  6.06440215E-05  0.00000000E+00
  2.89700548E-05  0.00000000E+00  0.00000000E+00 -5.34070426E-05  7.17251947E-06
 -3.77728042E-04  0.00000000E+00  0.00000000E+00  7.39717543E-04 -4.54212162E-05
 -4.44534287E-04  0.00000000E+00  0.00000000E+00  2.63140383E-04 -2.81999655E-05
  0.00000000E+00  7.97761752E-05  1.23349065E-05  0.00000000E+00  0.00000000E+00
 -1.09290536E-04 -2.17694428E-06  0.00000000E+00  2.54810441E-04 -2.86298769E-05
  0.00000000E+00  0.00000000E+00 -3.45768485E-04  5.88047887E-05  9.76895518E-01
 -9.23668809E-03  4.33591845E-02  1.79577260E-03 -1.02759996E-03  1.47365689E-03
 -1.42402053E-03  0.00000000E+00 -1.39985505E-03  1.48755473E-03  0.00000000E+00
  3.96304002E-05 -1.07899708E-03  0.00000000E+00 -1.33710360E-04  5.55993794E-06
  0.00000000E+00  3.80333418E-05  0.00000000E+00  0.00000000E+00 -4.31477242E-05
  2.39763344E-05  7.74052483E-04  0.00000000E+00  0.00000000E+00 -1.89303504E-04
 -4.08524381E-04 -3.37735746E-04  0.00000000E+00  0.00000000E+00 -3.12921847E-04
 -3.80303333E-04  0.00000000E+00  4.47028909E-05 -5.19549652E-05  0.00000000E+00
  0.00000000E+00 -4.05721572E-05 -1.69093322E-05  0.00000000E+00  2.78789552E-05
  8.66159960E-06  0.00000000E+00  0.00000000E+00 -3.13186741E-04 -1.56655039E-04
  5.14232461E-05  1.24271611E-04 -2.88297337E-04 -6.23410718E-04 -1.12684660E-04
 -2.72815259E-05 -1.00946889E-04  0.00000000E+00  2.91070854E-04  8.57774184E-04
  0.00000000E+00 -7.98071147E-04 -3.17848132E-04  0.00000000E+00 -1.23027332E-04
 -1.25914351E-05  0.00000000E+00 -3.07476327E-05  0.00000000E+00  0.00000000E+00
 -5.26363440E-05  2.24344009E-05 -3.58920142E-04  0.00000000E+00  0.00000000E+00
 -8.75355432E-04  1.35572397E-04 -4.76807672E-05  0.00000000E+00  0.00000000E+00
  8.05141043E-05 -1.32226405E-04  0.00000000E+00 -2.16551378E-05 -1.23538999E-04
  0.00000000E+00  0.00000000E+00 -6.89254905E-05 -1.37235617E-04  0.00000000E+00
 -6.02577271E-06 -1.64383710E-04  0.00000000E+00  0.00000000E+00  1.57388624E-05
 -4.03655053E-04 -9.30774373E-04  9.65752308E-05 -4.80569484E-05 -1.88965132E-04
  1.79397862E-04 -5.34286708E-06 -2.32162782E-05  0.00000000E+00  7.04893966E-05
  1.44896569E-04  0.00000000E+00  2.75134258E-04  1.46859624E-04  0.00000000E+00
  1.40068328E-04  2.46437247E-05  0.00000000E+00 -2.44850333E-06  0.00000000E+00
  0.00000000E+00 -1.83005753E-05  2.31873772E-06 -3.53035054E-06  0.00000000E+00
  0.00000000E+00  8.90096063E-05  6.85154097E-05 -1.07199210E-04  0.00000000E+00
  0.00000000E+00  1.78411006E-04  1.41083028E-04  0.00000000E+00  1.68985203E-05
 -1.33567928E-06  0.00000000E+00  0.00000000E+00 -2.75882497E-07 -1.46956005E-05
  0.00000000E+00 -3.91769466E-05  4.29099804E-05  0.00000000E+00  0.00000000E+00
  8.41159281E-05  8.30104972E-05  4.01554363E-05 -1.00185190E-03 -4.83132300E-04
 -8.18276371E-06 -2.10361789E-05  1.52817332E-05  0.00000000E+00 -4.66294072E-06
  2.72592754E-04  0.00000000E+00 -4.54158285E-05  1.32473443E-04  0.00000000E+00
  2.61130176E-05  0.00000000E+00  0.00000000E+00  1.14682175E-05  1.18042707E-05
 -3.15644285E-05  0.00000000E+00  0.00000000E+00  1.53202450E-05  3.95049827E-05
  1.79276635E-04  8.33548814E-05 -2.53219826E-05  7.92703457E-04  6.69938007E-04
  1.06993717E-05  2.72566772E-06  0.00000000E+00 -7.78482621E-05  1.19435820E-05
  0.00000000E+00  3.29516291E-04  9.45476022E-04  0.00000000E+00  7.14671957E-07
  8.62605292E-05  0.00000000E+00 -2.32880588E-06  0.00000000E+00  0.00000000E+00
 -2.64332627E-07 -4.98874895E-06 -3.60520553E-05  0.00000000E+00  0.00000000E+00
 -1.53077770E-05  7.91697687E-05 -2.31120518E-05  0.00000000E+00  0.00000000E+00
 -2.71920976E-04 -1.83310859E-04  0.00000000E+00  9.31876197E-06  6.45992556E-06
  0.00000000E+00  0.00000000E+00  2.11052554E-06 -1.89736766E-05  0.00000000E+00
 -4.04858802E-05 -4.06733224E-05  0.00000000E+00  0.00000000E+00 -7.92266396E-05
  2.77201248E-05  9.67183269E-04  5.45828459E-05  1.95805338E-05 -3.28140101E-05
 -4.38214910E-04  2.20972338E-06  1.79558615E-05  0.00000000E+00 -5.34853071E-05
 -6.38114196E-05  0.00000000E+00  2.06314017E-04 -3.09242330E-04  0.00000000E+00
 -2.02598328E-04 -8.47983240E-05  0.00000000E+00 -9.36716497E-06  0.00000000E+00
  0.00000000E+00  2.49853297E-05  2.18682545E-05  3.93403780E-06  0.00000000E+00
  0.00000000E+00 -1.38276148E-04 -6.02560025E-05 -8.93078171E-06  0.00000000E+00
  0.00000000E+00 -2.69481813E-04 -2.27204730E-04  0.00000000E+00  2.75932129E-07
 -2.37842238E-06  0.00000000E+00  0.00000000E+00 -2.12136716E-06 -8.19161093E-06
  0.00000000E+00 -4.27564615E-05  1.01596983E-05  0.00000000E+00  0.00000000E+00
 -7.56269228E-05  1.91083617E-04  2.56435775E-04  1.45985081E-03 -7.21348936E-05
 -1.65230819E-03  3.53520756E-04 -1.42120271E-04  2.08029846E-06  0.00000000E+00
 -2.12360976E-03 -4.19895407E-04  0.00000000E+00  1.06572738E-03  7.42305934E-04
  0.00000000E+00 -1.66689310E-04  5.23822374E-05  0.00000000E+00 -1.23099436E-04
  0.00000000E+00  0.00000000E+00  2.46447702E-04  9.36985941E-05 -4.36860160E-04
  0.00000000E+00  0.00000000E+00  9.06284805E-04 -1.02572791E-04  1.98201713E-05
  0.00000000E+00  0.00000000E+00 -3.44340219E-04 -1.36022624E-04  0.00000000E+00
  5.15921662E-07  1.62758608E-05  0.00000000E+00  0.00000000E+00  2.14994373E-05
  1.36316414E-05  0.00000000E+00  1.59231109E-04 -7.65705299E-05  0.00000000E+00
  0.00000000E+00 -2.28946682E-04  5.92100723E-05  9.76645353E-01 -9.84175746E-03
  4.35847637E-02  4.53919781E-03 -4.37389842E-04  2.15512444E-03  4.78568375E-04
  0.00000000E+00 -2.38807386E-03 -6.05068291E-04  0.00000000E+00  1.13254153E-03
 -2.03650550E-05  0.00000000E+00  5.02680707E-06 -4.63996420E-05  0.00000000E+00
 -2.32623964E-04  0.00000000E+00  0.00000000E+00  1.01103962E-04  3.29192800E-05
  3.96185454E-04  0.00000000E+00  0.00000000E+00 -8.43305427E-04 -4.22543400E-04
 -1.48403452E-04  0.00000000E+00  0.00000000E+00  2.46612819E-04  6.16583973E-06
  0.00000000E+00  5.27174448E-05  1.77111610E-05  0.00000000E+00  0.00000000E+00
 -2.16796782E-05 -1.28859781E-05  0.00000000E+00  1.42241880E-04  9.25825830E-06
  0.00000000E+00  0.00000000E+00 -1.93378953E-04 -1.43821890E-04  4.74367105E-04
  2.10843140E-03  1.52904946E-04  1.65637529E-05 -4.13166101E-05 -2.48117469E-04
  0.00000000E+00  1.03495538E-04 -1.29213210E-03  0.00000000E+00  3.12196059E-04
 -3.53436884E-04  0.00000000E+00 -3.91058680E-06  0.00000000E+00  0.00000000E+00
  7.50234542E-05  1.51480154E-05 -1.61084026E-04  0.00000000E+00  0.00000000E+00
 -5.37812384E-04 -1.91563376E-05  9.76830790E-01 -9.16824954E-03  4.34509870E-02
  1.31713510E-04 -1.19186685E-03 -1.55988106E-03  1.45302923E-03  0.00000000E+00
  1.57421032E-03 -1.29919848E-03  0.00000000E+00 -5.80866556E-04 -9.04012262E-04
  0.00000000E+00  5.81446162E-05 -4.12830766E-05  0.00000000E+00  2.96789633E-05
  0.00000000E+00  0.00000000E+00 -1.18974885E-04 -1.23256893E-06  7.61870212E-04
  0.00000000E+00  0.00000000E+00 -2.05614671E-04 -2.34974390E-04 -2.59704295E-04
  0.00000000E+00  0.00000000E+00  1.73222246E-04  1.27299662E-04  0.00000000E+00
 -6.40986742E-05  1.60366301E-06  0.00000000E+00  0.00000000E+00  1.88195774E-05
  9.41805757E-06  0.00000000E+00 -2.55775034E-06  1.24274927E-04  0.00000000E+00
  0.00000000E+00  2.63040334E-04  9.10628498E-05 -4.47925441E-03 -2.25381303E-04