 Entering Gaussian System, Link 0=g16
 Input=hoono_r2_1p435871.gjf
 Output=hoono_r2_1p435871.log
 Initial command:
 /sw/contrib/gaussian/g16/B01/g16/l1.exe "/scr/Gau-899.inp" -scrdir="/scr/"
 Entering Link 1 = /sw/contrib/gaussian/g16/B01/g16/l1.exe PID=       900.
  
 Copyright (c) 1988-2017, Gaussian, Inc.  All Rights Reserved.
  
 This is part of the Gaussian(R) 16 program.  It is based on
 the Gaussian(R) 09 system (copyright 2009, Gaussian, Inc.),
 the Gaussian(R) 03 system (copyright 2003, Gaussian, Inc.),
 the Gaussian(R) 98 system (copyright 1998, Gaussian, Inc.),
 the Gaussian(R) 94 system (copyright 1995, Gaussian, Inc.),
 the Gaussian 92(TM) system (copyright 1992, Gaussian, Inc.),
 the Gaussian 90(TM) system (copyright 1990, Gaussian, Inc.),
 the Gaussian 88(TM) system (copyright 1988, Gaussian, Inc.),
 the Gaussian 86(TM) system (copyright 1986, Carnegie Mellon
 University), and the Gaussian 82(TM) system (copyright 1983,
 Carnegie Mellon University). Gaussian is a federally registered
 trademark of Gaussian, Inc.
  
 This software contains proprietary and confidential information,
 including trade secrets, belonging to Gaussian, Inc.
  
 This software is provided under written license and may be
 used, copied, transmitted, or stored only in accord with that
 written license.
  
 The following legend is applicable only to US Government
 contracts under FAR:
  
                    RESTRICTED RIGHTS LEGEND
  
 Use, reproduction and disclosure by the US Government is
 subject to restrictions as set forth in subparagraphs (a)
 and (c) of the Commercial Computer Software - Restricted
 Rights clause in FAR 52.227-19.
  
 Gaussian, Inc.
 340 Quinnipiac St., Bldg. 40, Wallingford CT 06492
  
  
 ---------------------------------------------------------------
 Warning -- This program may not be used in any manner that
 competes with the business of Gaussian, Inc. or will provide
 assistance to any competitor of Gaussian, Inc.  The licensee
 of this program is prohibited from giving any competitor of
 Gaussian, Inc. access to this program.  By using this program,
 the user acknowledges that Gaussian, Inc. is engaged in the
 business of creating and licensing software in the field of
 computational chemistry and represents and warrants to the
 licensee that it is not a competitor of Gaussian, Inc. and that
 it will not use this program in any manner prohibited above.
 ---------------------------------------------------------------
  

 Cite this work as:
 Gaussian 16, Revision B.01,
 M. J. Frisch, G. W. Trucks, H. B. Schlegel, G. E. Scuseria, 
 M. A. Robb, J. R. Cheeseman, G. Scalmani, V. Barone, 
 G. A. Petersson, H. Nakatsuji, X. Li, M. Caricato, A. V. Marenich, 
 J. Bloino, B. G. Janesko, R. Gomperts, B. Mennucci, H. P. Hratchian, 
 J. V. Ortiz, A. F. Izmaylov, J. L. Sonnenberg, D. Williams-Young, 
 F. Ding, F. Lipparini, F. Egidi, J. Goings, B. Peng, A. Petrone, 
 T. Henderson, D. Ranasinghe, V. G. Zakrzewski, J. Gao, N. Rega, 
 G. Zheng, W. Liang, M. Hada, M. Ehara, K. Toyota, R. Fukuda, 
 J. Hasegawa, M. Ishida, T. Nakajima, Y. Honda, O. Kitao, H. Nakai, 
 T. Vreven, K. Throssell, J. A. Montgomery, Jr., J. E. Peralta, 
 F. Ogliaro, M. J. Bearpark, J. J. Heyd, E. N. Brothers, K. N. Kudin, 
 V. N. Staroverov, T. A. Keith, R. Kobayashi, J. Normand, 
 K. Raghavachari, A. P. Rendell, J. C. Burant, S. S. Iyengar, 
 J. Tomasi, M. Cossi, J. M. Millam, M. Klene, C. Adamo, R. Cammi, 
 J. W. Ochterski, R. L. Martin, K. Morokuma, O. Farkas, 
 J. B. Foresman, and D. J. Fox, Gaussian, Inc., Wallingford CT, 2016.
 
 ******************************************
 Gaussian 16:  ES64L-G16RevB.01 20-Dec-2017
                14-Feb-2022 
 ******************************************
 %nproc=28
 Will use up to   28 processors via shared memory.
 %mem=120GB
 %chk=hoono_r2_1p435871.chk
 -------------------------------------
 #p SP mp2/aug-cc-pvtz density=current
 -------------------------------------
 1/30=1,38=1,172=1/1;
 2/12=2,17=6,18=5,40=1/2;
 3/5=16,6=1,7=10,11=9,25=1,30=1,71=1/1,2,3;
 4//1;
 5/5=2,38=5/2;
 8/6=4,10=1/1;
 9/15=1,16=-3/6;
 10/5=1,13=10/2;
 6/7=2,8=2,9=2,10=2,22=-1/1;
 99/5=1,9=1/99;
 Leave Link    1 at Mon Feb 14 22:10:29 2022, MaxMem= 16106127360 cpu:               3.7 elap:               0.1
 (Enter /sw/contrib/gaussian/g16/B01/g16/l101.exe)
 -----
 title
 -----
 Symbolic Z-matrix:
 Charge =  0 Multiplicity = 1
 H
 O                    1    r1
 O                    2    r2       1    a1
 N                    3    r3       2    a2       1    d1       0
 O                    4    r4       3    a3       2    d2       0
       Variables:
  r1                    0.96898                  
  r2                    1.43587                  
  r3                    1.45878                  
  r4                    1.17073                  
  a1                   97.59495                  
  a2                  102.29752                  
  a3                  109.06955                  
  d1                  180.                       
  d2                  180.                       
 
 ITRead=  0  0  0  0  0
 MicOpt= -1 -1 -1 -1 -1
 NAtoms=      5 NQM=        5 NQMF=       0 NMMI=      0 NMMIF=      0
                NMic=       0 NMicF=      0.
                    Isotopes and Nuclear Properties:
 (Nuclear quadrupole moments (NQMom) in fm**2, nuclear magnetic moments (NMagM)
  in nuclear magnetons)

  Atom         1           2           3           4           5
 IAtWgt=           1          16          16          14          16
 AtmWgt=   1.0078250  15.9949146  15.9949146  14.0030740  15.9949146
 NucSpn=           1           0           0           2           0
 AtZEff=  -0.0000000  -0.0000000  -0.0000000  -0.0000000  -0.0000000
 NQMom=    0.0000000   0.0000000   0.0000000   2.0440000   0.0000000
 NMagM=    2.7928460   0.0000000   0.0000000   0.4037610   0.0000000
 AtZNuc=   1.0000000   8.0000000   8.0000000   7.0000000   8.0000000
 Leave Link  101 at Mon Feb 14 22:10:29 2022, MaxMem= 16106127360 cpu:               2.4 elap:               0.1
 (Enter /sw/contrib/gaussian/g16/B01/g16/l202.exe)
                          Input orientation:                          
 ---------------------------------------------------------------------
 Center     Atomic      Atomic             Coordinates (Angstroms)
 Number     Number       Type             X           Y           Z
 ---------------------------------------------------------------------
      1          1           0        0.000000    0.000000    0.000000
      2          8           0        0.000000    0.000000    0.968976
      3          8           0        1.423275    0.000000    1.158753
      4          7           0        1.542871    0.000000    2.612627
      5          8           0        2.676987    0.000000    2.903121
 ---------------------------------------------------------------------
                    Distance matrix (angstroms):
                    1          2          3          4          5
     1  H    0.000000
     2  O    0.968976   0.000000
     3  O    1.835326   1.435871   0.000000
     4  N    3.034183   2.254338   1.458784   0.000000
     5  O    3.948971   3.302602   2.148165   1.170729   0.000000
 Stoichiometry    HNO3
 Framework group  CS[SG(HNO3)]
 Deg. of freedom     7
 Full point group                 CS      NOp   2
 Largest Abelian subgroup         CS      NOp   2
 Largest concise Abelian subgroup C1      NOp   1
                         Standard orientation:                         
 ---------------------------------------------------------------------
 Center     Atomic      Atomic             Coordinates (Angstroms)
 Number     Number       Type             X           Y           Z
 ---------------------------------------------------------------------
      1          1           0        1.521966    1.698904    0.000000
      2          8           0        1.434589    0.733876    0.000000
      3          8           0        0.000000    0.673214    0.000000
      4          7           0       -0.250210   -0.763952   -0.000000
      5          8           0       -1.405901   -0.950995   -0.000000
 ---------------------------------------------------------------------
 Rotational constants (GHZ):          55.4266867           5.0560442           4.6333850
 Leave Link  202 at Mon Feb 14 22:10:29 2022, MaxMem= 16106127360 cpu:               2.3 elap:               0.1
 (Enter /sw/contrib/gaussian/g16/B01/g16/l301.exe)
 Standard basis: Aug-CC-pVTZ (5D, 7F)
 Ernie: Thresh=  0.10000D-02 Tol=  0.10000D-05 Strict=F.
 Ernie:  12 primitive shells out of 131 were deleted.
 There are   166 symmetry adapted cartesian basis functions of A'  symmetry.
 There are    79 symmetry adapted cartesian basis functions of A"  symmetry.
 There are   136 symmetry adapted basis functions of A'  symmetry.
 There are    71 symmetry adapted basis functions of A"  symmetry.
   207 basis functions,   315 primitive gaussians,   245 cartesian basis functions
    16 alpha electrons       16 beta electrons
       nuclear repulsion energy       117.3473113590 Hartrees.
 IExCor=    0 DFT=F Ex=HF Corr=None ExCW=0 ScaHFX=  1.000000
 ScaDFX=  1.000000  1.000000  1.000000  1.000000 ScalE2=  1.000000  1.000000
 IRadAn=      5 IRanWt=     -1 IRanGd=            0 ICorTp=0 IEmpDi=  4
 NAtoms=    5 NActive=    5 NUniq=    5 SFac= 1.00D+00 NAtFMM=   60 NAOKFM=F Big=F
 Integral buffers will be    131072 words long.
 Raffenetti 1 integral format.
 Two-electron integral symmetry is turned on.
 Leave Link  301 at Mon Feb 14 22:10:29 2022, MaxMem= 16106127360 cpu:               2.1 elap:               0.1
 (Enter /sw/contrib/gaussian/g16/B01/g16/l302.exe)
 NPDir=0 NMtPBC=     1 NCelOv=     1 NCel=       1 NClECP=     1 NCelD=      1
         NCelK=      1 NCelE2=     1 NClLst=     1 CellRange=     0.0.
 One-electron integrals computed using PRISM.
 One-electron integral symmetry used in STVInt
 NBasis=   207 RedAO= T EigKep=  1.79D-04  NBF=   136    71
 NBsUse=   207 1.00D-06 EigRej= -1.00D+00 NBFU=   136    71
 Leave Link  302 at Mon Feb 14 22:10:29 2022, MaxMem= 16106127360 cpu:               4.5 elap:               0.2
 (Enter /sw/contrib/gaussian/g16/B01/g16/l303.exe)
 DipDrv:  MaxL=1.
 Leave Link  303 at Mon Feb 14 22:10:29 2022, MaxMem= 16106127360 cpu:               0.8 elap:               0.1
 (Enter /sw/contrib/gaussian/g16/B01/g16/l401.exe)
 ExpMin= 2.53D-02 ExpMax= 1.53D+04 ExpMxC= 5.22D+02 IAcc=3 IRadAn=         5 AccDes= 0.00D+00
 Harris functional with IExCor=  205 and IRadAn=       5 diagonalized for initial guess.
 HarFok:  IExCor=  205 AccDes= 0.00D+00 IRadAn=         5 IDoV= 1 UseB2=F ITyADJ=14
 ICtDFT=  3500011 ScaDFX=  1.000000  1.000000  1.000000  1.000000
 FoFCou: FMM=F IPFlag=           0 FMFlag=      100000 FMFlg1=           0
         NFxFlg=           0 DoJE=T BraDBF=F KetDBF=T FulRan=T
         wScrn=  0.000000 ICntrl=       500 IOpCl=  0 I1Cent=   200000004 NGrid=           0
         NMat0=    1 NMatS0=      1 NMatT0=    0 NMatD0=    1 NMtDS0=    0 NMtDT0=    0
 Petite list used in FoFCou.
 Harris En= -279.629333341527    
 JPrj=0 DoOrth=F DoCkMO=F.
 Initial guess orbital symmetries:
       Occupied  (A') (A') (A') (A') (A') (A') (A') (A') (A') (A')
                 (A") (A') (A") (A') (A") (A')
       Virtual   (A") (A') (A') (A') (A') (A') (A") (A') (A') (A')
                 (A") (A') (A") (A') (A') (A") (A') (A") (A') (A')
                 (A') (A') (A') (A') (A') (A") (A') (A") (A') (A')
                 (A") (A') (A") (A') (A') (A") (A') (A") (A') (A')
                 (A") (A') (A") (A') (A") (A') (A') (A') (A") (A")
                 (A') (A') (A') (A') (A") (A') (A") (A') (A") (A')
                 (A') (A') (A") (A') (A') (A") (A') (A") (A') (A')
                 (A") (A') (A') (A") (A") (A') (A') (A") (A') (A')
                 (A') (A") (A') (A") (A") (A') (A') (A") (A') (A')
                 (A') (A") (A') (A") (A') (A") (A") (A') (A') (A")
                 (A') (A') (A") (A') (A') (A') (A') (A") (A") (A')
                 (A") (A') (A') (A') (A") (A') (A') (A') (A") (A')
                 (A") (A') (A') (A") (A') (A") (A') (A") (A") (A')
                 (A') (A') (A') (A") (A") (A') (A") (A') (A') (A')
                 (A') (A") (A") (A') (A') (A") (A') (A') (A') (A')
                 (A") (A') (A') (A") (A') (A") (A') (A") (A') (A")
                 (A') (A") (A') (A") (A') (A") (A") (A") (A') (A')
                 (A") (A') (A") (A') (A") (A') (A") (A") (A') (A')
                 (A') (A') (A') (A') (A') (A') (A') (A') (A') (A')
                 (A')
 The electronic state of the initial guess is 1-A'.
 Leave Link  401 at Mon Feb 14 22:10:30 2022, MaxMem= 16106127360 cpu:               7.4 elap:               0.3
 (Enter /sw/contrib/gaussian/g16/B01/g16/l502.exe)
 Keep R1 ints in memory in symmetry-blocked form, NReq=348887737.
 FoFCou: FMM=F IPFlag=           0 FMFlag=           0 FMFlg1=           0
         NFxFlg=           0 DoJE=F BraDBF=F KetDBF=F FulRan=T
         wScrn=  0.000000 ICntrl=       600 IOpCl=  0 I1Cent=           0 NGrid=           0
         NMat0=    1 NMatS0=  21528 NMatT0=    0 NMatD0=    1 NMtDS0=    0 NMtDT0=    0
 Petite list used in FoFCou.
 Closed shell SCF:
 Using DIIS extrapolation, IDIIS=  1040.
 NGot= 16106127360 LenX= 15988850015 LenY= 15988789549
 Requested convergence on RMS density matrix=1.00D-08 within 128 cycles.
 Requested convergence on MAX density matrix=1.00D-06.
 Requested convergence on             energy=1.00D-06.
 No special actions if energy rises.

 Cycle   1  Pass 1  IDiag  1:
 E= -279.372294879724    
 DIIS: error= 2.45D-02 at cycle   1 NSaved=   1.
 NSaved= 1 IEnMin= 1 EnMin= -279.372294879724     IErMin= 1 ErrMin= 2.45D-02
 ErrMax= 2.45D-02  0.00D+00 EMaxC= 1.00D-01 BMatC= 4.39D-01 BMatP= 4.39D-01
 IDIUse=3 WtCom= 7.55D-01 WtEn= 2.45D-01
 Coeff-Com:  0.100D+01
 Coeff-En:   0.100D+01
 Coeff:      0.100D+01
 Gap=     0.510 Goal=   None    Shift=    0.000
 GapD=    0.510 DampG=2.000 DampE=0.500 DampFc=1.0000 IDamp=-1.
 RMSDP=1.62D-03 MaxDP=9.92D-02              OVMax= 1.12D-01

 Cycle   2  Pass 1  IDiag  1:
 E= -279.454800877122     Delta-E=       -0.082505997398 Rises=F Damp=F
 DIIS: error= 1.75D-02 at cycle   2 NSaved=   2.
 NSaved= 2 IEnMin= 2 EnMin= -279.454800877122     IErMin= 2 ErrMin= 1.75D-02
 ErrMax= 1.75D-02  0.00D+00 EMaxC= 1.00D-01 BMatC= 7.03D-02 BMatP= 4.39D-01
 IDIUse=3 WtCom= 8.25D-01 WtEn= 1.75D-01
 Coeff-Com:  0.192D+00 0.808D+00
 Coeff-En:   0.000D+00 0.100D+01
 Coeff:      0.158D+00 0.842D+00
 Gap=     0.527 Goal=   None    Shift=    0.000
 RMSDP=8.93D-04 MaxDP=3.75D-02 DE=-8.25D-02 OVMax= 6.83D-02

 Cycle   3  Pass 1  IDiag  1:
 E= -279.483397776822     Delta-E=       -0.028596899700 Rises=F Damp=F
 DIIS: error= 1.02D-02 at cycle   3 NSaved=   3.
 NSaved= 3 IEnMin= 3 EnMin= -279.483397776822     IErMin= 3 ErrMin= 1.02D-02
 ErrMax= 1.02D-02  0.00D+00 EMaxC= 1.00D-01 BMatC= 2.80D-02 BMatP= 7.03D-02
 IDIUse=3 WtCom= 8.98D-01 WtEn= 1.02D-01
 Coeff-Com: -0.327D-01 0.378D+00 0.655D+00
 Coeff-En:   0.000D+00 0.238D+00 0.762D+00
 Coeff:     -0.294D-01 0.363D+00 0.666D+00
 Gap=     0.510 Goal=   None    Shift=    0.000
 RMSDP=3.73D-04 MaxDP=1.57D-02 DE=-2.86D-02 OVMax= 3.77D-02

 Cycle   4  Pass 1  IDiag  1:
 E= -279.501968736881     Delta-E=       -0.018570960059 Rises=F Damp=F
 DIIS: error= 1.27D-03 at cycle   4 NSaved=   4.
 NSaved= 4 IEnMin= 4 EnMin= -279.501968736881     IErMin= 4 ErrMin= 1.27D-03
 ErrMax= 1.27D-03  0.00D+00 EMaxC= 1.00D-01 BMatC= 4.83D-04 BMatP= 2.80D-02
 IDIUse=3 WtCom= 9.87D-01 WtEn= 1.27D-02
 Coeff-Com: -0.114D-01 0.561D-01 0.156D+00 0.799D+00
 Coeff-En:   0.000D+00 0.000D+00 0.000D+00 0.100D+01
 Coeff:     -0.113D-01 0.554D-01 0.154D+00 0.802D+00
 Gap=     0.502 Goal=   None    Shift=    0.000
 RMSDP=9.04D-05 MaxDP=2.71D-03 DE=-1.86D-02 OVMax= 1.11D-02

 Cycle   5  Pass 1  IDiag  1:
 E= -279.502645777330     Delta-E=       -0.000677040449 Rises=F Damp=F
 DIIS: error= 7.28D-04 at cycle   5 NSaved=   5.
 NSaved= 5 IEnMin= 5 EnMin= -279.502645777330     IErMin= 5 ErrMin= 7.28D-04
 ErrMax= 7.28D-04  0.00D+00 EMaxC= 1.00D-01 BMatC= 8.68D-05 BMatP= 4.83D-04
 IDIUse=3 WtCom= 9.93D-01 WtEn= 7.28D-03
 Coeff-Com:  0.615D-02-0.728D-01-0.119D+00 0.145D-01 0.117D+01
 Coeff-En:   0.000D+00 0.000D+00 0.000D+00 0.000D+00 0.100D+01
 Coeff:      0.610D-02-0.723D-01-0.118D+00 0.144D-01 0.117D+01
 Gap=     0.501 Goal=   None    Shift=    0.000
 RMSDP=7.76D-05 MaxDP=2.14D-03 DE=-6.77D-04 OVMax= 1.14D-02

 Cycle   6  Pass 1  IDiag  1:
 E= -279.502966327689     Delta-E=       -0.000320550359 Rises=F Damp=F
 DIIS: error= 2.71D-04 at cycle   6 NSaved=   6.
 NSaved= 6 IEnMin= 6 EnMin= -279.502966327689     IErMin= 6 ErrMin= 2.71D-04
 ErrMax= 2.71D-04  0.00D+00 EMaxC= 1.00D-01 BMatC= 1.66D-05 BMatP= 8.68D-05
 IDIUse=3 WtCom= 9.97D-01 WtEn= 2.71D-03
 Coeff-Com:  0.410D-03 0.405D-02 0.878D-02-0.135D+00-0.263D+00 0.138D+01
 Coeff-En:   0.000D+00 0.000D+00 0.000D+00 0.000D+00 0.000D+00 0.100D+01
 Coeff:      0.409D-03 0.404D-02 0.875D-02-0.135D+00-0.262D+00 0.138D+01
 Gap=     0.502 Goal=   None    Shift=    0.000
 RMSDP=4.65D-05 MaxDP=1.26D-03 DE=-3.21D-04 OVMax= 5.76D-03

 Cycle   7  Pass 1  IDiag  1:
 E= -279.503040682258     Delta-E=       -0.000074354569 Rises=F Damp=F
 DIIS: error= 1.13D-04 at cycle   7 NSaved=   7.
 NSaved= 7 IEnMin= 7 EnMin= -279.503040682258     IErMin= 7 ErrMin= 1.13D-04
 ErrMax= 1.13D-04  0.00D+00 EMaxC= 1.00D-01 BMatC= 3.72D-06 BMatP= 1.66D-05
 IDIUse=3 WtCom= 9.99D-01 WtEn= 1.13D-03
 Coeff-Com: -0.945D-03 0.130D-01 0.257D-01-0.127D-01-0.259D+00 0.272D+00
 Coeff-Com:  0.962D+00
 Coeff-En:   0.000D+00 0.000D+00 0.000D+00 0.000D+00 0.000D+00 0.000D+00
 Coeff-En:   0.100D+01
 Coeff:     -0.944D-03 0.130D-01 0.256D-01-0.127D-01-0.258D+00 0.271D+00
 Coeff:      0.962D+00
 Gap=     0.502 Goal=   None    Shift=    0.000
 RMSDP=1.32D-05 MaxDP=3.82D-04 DE=-7.44D-05 OVMax= 1.57D-03

 Cycle   8  Pass 1  IDiag  1:
 E= -279.503048836186     Delta-E=       -0.000008153928 Rises=F Damp=F
 DIIS: error= 6.05D-05 at cycle   8 NSaved=   8.
 NSaved= 8 IEnMin= 8 EnMin= -279.503048836186     IErMin= 8 ErrMin= 6.05D-05
 ErrMax= 6.05D-05  0.00D+00 EMaxC= 1.00D-01 BMatC= 6.01D-07 BMatP= 3.72D-06
 IDIUse=1 WtCom= 1.00D+00 WtEn= 0.00D+00
 Coeff-Com: -0.445D-03 0.342D-02 0.760D-02 0.271D-01-0.400D-01-0.201D+00
 Coeff-Com:  0.264D+00 0.940D+00
 Coeff:     -0.445D-03 0.342D-02 0.760D-02 0.271D-01-0.400D-01-0.201D+00
 Coeff:      0.264D+00 0.940D+00
 Gap=     0.502 Goal=   None    Shift=    0.000
 RMSDP=6.16D-06 MaxDP=1.84D-04 DE=-8.15D-06 OVMax= 6.67D-04

 Cycle   9  Pass 1  IDiag  1:
 E= -279.503050361505     Delta-E=       -0.000001525318 Rises=F Damp=F
 DIIS: error= 1.58D-05 at cycle   9 NSaved=   9.
 NSaved= 9 IEnMin= 9 EnMin= -279.503050361505     IErMin= 9 ErrMin= 1.58D-05
 ErrMax= 1.58D-05  0.00D+00 EMaxC= 1.00D-01 BMatC= 7.36D-08 BMatP= 6.01D-07
 IDIUse=1 WtCom= 1.00D+00 WtEn= 0.00D+00
 Coeff-Com:  0.122D-03-0.172D-02-0.309D-02-0.220D-02 0.341D-01-0.147D-03
 Coeff-Com: -0.194D+00-0.483D-01 0.122D+01
 Coeff:      0.122D-03-0.172D-02-0.309D-02-0.220D-02 0.341D-01-0.147D-03
 Coeff:     -0.194D+00-0.483D-01 0.122D+01
 Gap=     0.502 Goal=   None    Shift=    0.000
 RMSDP=1.94D-06 MaxDP=6.65D-05 DE=-1.53D-06 OVMax= 1.77D-04

 Cycle  10  Pass 1  IDiag  1:
 E= -279.503050522071     Delta-E=       -0.000000160567 Rises=F Damp=F
 DIIS: error= 4.20D-06 at cycle  10 NSaved=  10.
 NSaved=10 IEnMin=10 EnMin= -279.503050522071     IErMin=10 ErrMin= 4.20D-06
 ErrMax= 4.20D-06  0.00D+00 EMaxC= 1.00D-01 BMatC= 5.56D-09 BMatP= 7.36D-08
 IDIUse=1 WtCom= 1.00D+00 WtEn= 0.00D+00
 Coeff-Com:  0.324D-04-0.260D-03-0.354D-03-0.275D-02 0.197D-02 0.200D-01
 Coeff-Com: -0.207D-01-0.700D-01-0.716D-01 0.114D+01
 Coeff:      0.324D-04-0.260D-03-0.354D-03-0.275D-02 0.197D-02 0.200D-01
 Coeff:     -0.207D-01-0.700D-01-0.716D-01 0.114D+01
 Gap=     0.502 Goal=   None    Shift=    0.000
 RMSDP=5.00D-07 MaxDP=2.09D-05 DE=-1.61D-07 OVMax= 4.24D-05

 Cycle  11  Pass 1  IDiag  1:
 E= -279.503050534544     Delta-E=       -0.000000012473 Rises=F Damp=F
 DIIS: error= 2.05D-06 at cycle  11 NSaved=  11.
 NSaved=11 IEnMin=11 EnMin= -279.503050534544     IErMin=11 ErrMin= 2.05D-06
 ErrMax= 2.05D-06  0.00D+00 EMaxC= 1.00D-01 BMatC= 6.75D-10 BMatP= 5.56D-09
 IDIUse=1 WtCom= 1.00D+00 WtEn= 0.00D+00
 Coeff-Com: -0.213D-04 0.245D-03 0.496D-03 0.561D-03-0.428D-02-0.384D-02
 Coeff-Com:  0.265D-01 0.234D-01-0.138D+00-0.178D+00 0.127D+01
 Coeff:     -0.213D-04 0.245D-03 0.496D-03 0.561D-03-0.428D-02-0.384D-02
 Coeff:      0.265D-01 0.234D-01-0.138D+00-0.178D+00 0.127D+01
 Gap=     0.502 Goal=   None    Shift=    0.000
 RMSDP=1.79D-07 MaxDP=6.62D-06 DE=-1.25D-08 OVMax= 1.73D-05

 Cycle  12  Pass 1  IDiag  1:
 E= -279.503050536379     Delta-E=       -0.000000001835 Rises=F Damp=F
 DIIS: error= 5.97D-07 at cycle  12 NSaved=  12.
 NSaved=12 IEnMin=12 EnMin= -279.503050536379     IErMin=12 ErrMin= 5.97D-07
 ErrMax= 5.97D-07  0.00D+00 EMaxC= 1.00D-01 BMatC= 7.22D-11 BMatP= 6.75D-10
 IDIUse=1 WtCom= 1.00D+00 WtEn= 0.00D+00
 Coeff-Com:  0.125D-05-0.290D-04-0.637D-04 0.173D-03 0.107D-02-0.233D-02
 Coeff-Com: -0.416D-02 0.634D-02 0.409D-01-0.111D+00-0.287D+00 0.136D+01
 Coeff:      0.125D-05-0.290D-04-0.637D-04 0.173D-03 0.107D-02-0.233D-02
 Coeff:     -0.416D-02 0.634D-02 0.409D-01-0.111D+00-0.287D+00 0.136D+01
 Gap=     0.502 Goal=   None    Shift=    0.000
 RMSDP=7.20D-08 MaxDP=2.82D-06 DE=-1.83D-09 OVMax= 6.69D-06

 Cycle  13  Pass 1  IDiag  1:
 E= -279.503050536610     Delta-E=       -0.000000000230 Rises=F Damp=F
 DIIS: error= 1.60D-07 at cycle  13 NSaved=  13.
 NSaved=13 IEnMin=13 EnMin= -279.503050536610     IErMin=13 ErrMin= 1.60D-07
 ErrMax= 1.60D-07  0.00D+00 EMaxC= 1.00D-01 BMatC= 3.93D-12 BMatP= 7.22D-11
 IDIUse=1 WtCom= 1.00D+00 WtEn= 0.00D+00
 Coeff-Com:  0.126D-05-0.138D-04-0.222D-04-0.906D-04 0.122D-03 0.789D-03
 Coeff-Com: -0.119D-02-0.292D-02 0.569D-03 0.405D-01-0.319D-01-0.330D+00
 Coeff-Com:  0.132D+01
 Coeff:      0.126D-05-0.138D-04-0.222D-04-0.906D-04 0.122D-03 0.789D-03
 Coeff:     -0.119D-02-0.292D-02 0.569D-03 0.405D-01-0.319D-01-0.330D+00
 Coeff:      0.132D+01
 Gap=     0.502 Goal=   None    Shift=    0.000
 RMSDP=1.89D-08 MaxDP=5.59D-07 DE=-2.30D-10 OVMax= 1.53D-06

 Cycle  14  Pass 1  IDiag  1:
 E= -279.503050536624     Delta-E=       -0.000000000014 Rises=F Damp=F
 DIIS: error= 2.32D-08 at cycle  14 NSaved=  14.
 NSaved=14 IEnMin=14 EnMin= -279.503050536624     IErMin=14 ErrMin= 2.32D-08
 ErrMax= 2.32D-08  0.00D+00 EMaxC= 1.00D-01 BMatC= 1.77D-13 BMatP= 3.93D-12
 IDIUse=1 WtCom= 1.00D+00 WtEn= 0.00D+00
 Coeff-Com: -0.183D-06 0.299D-05 0.544D-05 0.471D-05-0.787D-04 0.410D-04
 Coeff-Com:  0.321D-03 0.141D-03-0.234D-02 0.135D-02 0.163D-01-0.248D-01
 Coeff-Com: -0.192D+00 0.120D+01
 Coeff:     -0.183D-06 0.299D-05 0.544D-05 0.471D-05-0.787D-04 0.410D-04
 Coeff:      0.321D-03 0.141D-03-0.234D-02 0.135D-02 0.163D-01-0.248D-01
 Coeff:     -0.192D+00 0.120D+01
 Gap=     0.502 Goal=   None    Shift=    0.000
 RMSDP=3.62D-09 MaxDP=9.00D-08 DE=-1.41D-11 OVMax= 3.16D-07

 SCF Done:  E(RHF) =  -279.503050537     A.U. after   14 cycles
            NFock= 14  Conv=0.36D-08     -V/T= 2.0022
 KE= 2.788792800545D+02 PE=-8.960426171479D+02 EE= 2.203129751978D+02
 Leave Link  502 at Mon Feb 14 22:10:33 2022, MaxMem= 16106127360 cpu:              55.2 elap:               3.6
 (Enter /sw/contrib/gaussian/g16/B01/g16/l801.exe)
 ExpMin= 2.53D-02 ExpMax= 1.53D+04 ExpMxC= 5.22D+02 IAcc=3 IRadAn=         5 AccDes= 0.00D+00
 HarFok:  IExCor=  205 AccDes= 0.00D+00 IRadAn=         5 IDoV=-2 UseB2=F ITyADJ=14
 ICtDFT= 12500011 ScaDFX=  1.000000  1.000000  1.000000  1.000000
 Largest valence mixing into a core orbital is  2.08D-04
 Largest core mixing into a valence orbital is  3.62D-05
 Range of M.O.s used for correlation:     5   207
 NBasis=   207 NAE=    16 NBE=    16 NFC=     4 NFV=     0
 NROrb=    203 NOA=    12 NOB=    12 NVA=   191 NVB=   191

 **** Warning!!: The largest alpha MO coefficient is  0.17747164D+02

 Leave Link  801 at Mon Feb 14 22:10:33 2022, MaxMem= 16106127360 cpu:               2.1 elap:               0.1
 (Enter /sw/contrib/gaussian/g16/B01/g16/l906.exe)
 Frozen-core derivative calculation, NFC=   4 NFV=   0.
 FulOut=F Deriv=T AODrv=F NAtomX=     5
   MMem=          76  MDisk=          12 MDiskD=          12
  W3Min=      811440 MinDsk=     1524655 NBas6D=         245
 NBas2D=       30762    NTT=       30135    LW2=     3500000
    MDV= 16105579885 MDiskM=      328644 NBas2p=       30466
 Fully in-core method, ICMem=   960157634.
 IMap=   1   2   3   4   5   6   7   8   9  10  11  12  13  14  15  16
 JobTyp=1 Pass  1 fully in-core, NPsUse= 28.
 Compute canonical integrals.
 FoFCou: FMM=F IPFlag=           0 FMFlag=           0 FMFlg1=           0
         NFxFlg=           0 DoJE=F BraDBF=F KetDBF=F FulRan=T
         wScrn=  0.000000 ICntrl=       600 IOpCl=  1 I1Cent=           0 NGrid=           0
         NMat0=    1 NMatS0=  30762 NMatT0=    0 NMatD0=    1 NMtDS0=    0 NMtDT0=    0
 Symmetry not used in FoFCou.
 Spin components of T(2) and E(2):
     alpha-alpha T2 =       0.3384763233D-01 E2=     -0.1222877734D+00
     alpha-beta  T2 =       0.1854957385D+00 E2=     -0.6989283955D+00
     beta-beta   T2 =       0.3384763233D-01 E2=     -0.1222877734D+00
 The integrals were generated   1 times.
 ANorm=    0.1119460139D+01
 E2 =    -0.9435039423D+00 EUMP2 =    -0.28044655447889D+03
 Leave Link  906 at Mon Feb 14 22:10:42 2022, MaxMem= 16106127360 cpu:             243.6 elap:               8.7
 (Enter /sw/contrib/gaussian/g16/B01/g16/l1002.exe)
 Minotr:  Closed shell wavefunction.
          Computing MP2/KS-MP2 derivatives.
          Using Z-Vector for PSCF gradient.
          Skipping F1 and S1 gradient terms here.
          Frozen-core window.
          Direct CPHF calculation.
          Differentiating once with respect to electric field.
                with respect to dipole field.
          Electric field/nuclear overlap derivatives assumed to be zero.
          Using symmetry in CPHF.
          Requested convergence is 1.0D-10 RMS, and 1.0D-09 maximum.
          NewPWx=F KeepS1=T KeepF1=T KeepIn=T MapXYZ=F SortEE=F KeepMc=T.
 Keep R1 ints in memory in symmetry-blocked form, NReq=348888868.
 FoFCou: FMM=F IPFlag=           0 FMFlag=           0 FMFlg1=           0
         NFxFlg=           0 DoJE=F BraDBF=F KetDBF=F FulRan=T
         wScrn=  0.000000 ICntrl=       600 IOpCl=  0 I1Cent=           0 NGrid=           0
         NMat0=    1 NMatS0=  21528 NMatT0=    0 NMatD0=    1 NMtDS0=    0 NMtDT0=    0
 Petite list used in FoFCou.
          MDV=   16106127360 using IRadAn=       5.
          Solving linear equations separately, MaxMat=       0.
          There are     1 degrees of freedom in the 1st order CPHF.  IDoFFX=0 NUNeed=     1.
 LinEq1:  Iter=  0 NonCon=     1 RMS=5.93D-03 Max=1.31D-01 NDo=     1
 AX will form     1 AO Fock derivatives at one time.
 LinEq1:  Iter=  1 NonCon=     1 RMS=1.90D-03 Max=3.86D-02 NDo=     1
 LinEq1:  Iter=  2 NonCon=     1 RMS=8.65D-04 Max=1.37D-02 NDo=     1
 LinEq1:  Iter=  3 NonCon=     1 RMS=3.86D-04 Max=7.90D-03 NDo=     1
 LinEq1:  Iter=  4 NonCon=     1 RMS=1.20D-04 Max=1.93D-03 NDo=     1
 LinEq1:  Iter=  5 NonCon=     1 RMS=4.71D-05 Max=7.53D-04 NDo=     1
 LinEq1:  Iter=  6 NonCon=     1 RMS=2.05D-05 Max=2.62D-04 NDo=     1
 LinEq1:  Iter=  7 NonCon=     1 RMS=8.09D-06 Max=1.57D-04 NDo=     1
 LinEq1:  Iter=  8 NonCon=     1 RMS=3.43D-06 Max=3.45D-05 NDo=     1
 LinEq1:  Iter=  9 NonCon=     1 RMS=9.34D-07 Max=1.29D-05 NDo=     1
 LinEq1:  Iter= 10 NonCon=     1 RMS=1.83D-07 Max=1.94D-06 NDo=     1
 LinEq1:  Iter= 11 NonCon=     1 RMS=3.41D-08 Max=3.73D-07 NDo=     1
 LinEq1:  Iter= 12 NonCon=     1 RMS=8.12D-09 Max=1.35D-07 NDo=     1
 LinEq1:  Iter= 13 NonCon=     1 RMS=1.42D-09 Max=2.73D-08 NDo=     1
 LinEq1:  Iter= 14 NonCon=     1 RMS=2.56D-10 Max=3.57D-09 NDo=     1
 LinEq1:  Iter= 15 NonCon=     0 RMS=4.58D-11 Max=5.06D-10 NDo=     1
 Linear equations converged to 1.000D-10 1.000D-09 after    15 iterations.
 End of Minotr F.D. properties file   721 does not exist.
 End of Minotr F.D. properties file   722 does not exist.
 End of Minotr F.D. properties file   788 does not exist.
 Leave Link 1002 at Mon Feb 14 22:10:46 2022, MaxMem= 16106127360 cpu:              54.0 elap:               4.0
 (Enter /sw/contrib/gaussian/g16/B01/g16/l601.exe)
 Copying SCF densities to generalized density rwf, IOpCl= 0 IROHF=0.

 **********************************************************************

            Population analysis using the MP2 Density.

 **********************************************************************

 Orbital symmetries:
       Occupied  (A') (A') (A') (A') (A') (A') (A') (A') (A') (A')
                 (A") (A') (A") (A') (A") (A')
       Virtual   (A') (A") (A') (A') (A") (A') (A') (A') (A") (A')
                 (A") (A') (A') (A") (A') (A') (A') (A") (A') (A')
                 (A') (A') (A') (A') (A") (A') (A') (A") (A') (A')
                 (A") (A') (A") (A') (A') (A") (A') (A") (A') (A')
                 (A") (A') (A") (A') (A') (A") (A') (A') (A") (A')
                 (A") (A') (A') (A') (A") (A') (A") (A') (A") (A')
                 (A') (A') (A") (A') (A') (A") (A') (A") (A') (A')
                 (A") (A') (A') (A") (A") (A') (A') (A") (A') (A')
                 (A') (A") (A') (A") (A") (A') (A') (A") (A') (A')
                 (A") (A') (A') (A") (A') (A") (A') (A") (A') (A')
                 (A") (A') (A") (A') (A') (A") (A') (A') (A") (A')
                 (A") (A') (A') (A') (A") (A') (A') (A') (A") (A')
                 (A") (A') (A") (A') (A') (A") (A") (A') (A") (A')
                 (A') (A') (A') (A") (A") (A") (A') (A') (A') (A')
                 (A") (A') (A") (A') (A') (A") (A') (A') (A') (A')
                 (A") (A') (A') (A") (A') (A") (A') (A") (A') (A")
                 (A') (A") (A') (A') (A") (A") (A") (A') (A") (A')
                 (A") (A') (A") (A') (A") (A') (A") (A") (A') (A')
                 (A') (A') (A') (A') (A') (A') (A') (A') (A') (A')
                 (A')
 The electronic state is 1-A'.
 Alpha  occ. eigenvalues --  -20.68979 -20.68395 -20.65834 -15.81243  -1.62468
 Alpha  occ. eigenvalues --   -1.50348  -1.25098  -0.94834  -0.77489  -0.76076
 Alpha  occ. eigenvalues --   -0.71363  -0.67947  -0.62228  -0.59192  -0.48173
 Alpha  occ. eigenvalues --   -0.47203
 Alpha virt. eigenvalues --    0.02966   0.07170   0.08638   0.10179   0.13394
 Alpha virt. eigenvalues --    0.13476   0.14418   0.15461   0.17821   0.19400
 Alpha virt. eigenvalues --    0.19973   0.20652   0.22237   0.23754   0.24440
 Alpha virt. eigenvalues --    0.26624   0.29359   0.30404   0.31094   0.34473
 Alpha virt. eigenvalues --    0.35049   0.38762   0.42304   0.43197   0.52765
 Alpha virt. eigenvalues --    0.52966   0.55882   0.58217   0.62632   0.63816
 Alpha virt. eigenvalues --    0.67437   0.68421   0.70793   0.71059   0.72515
 Alpha virt. eigenvalues --    0.72893   0.74450   0.79222   0.79290   0.81032
 Alpha virt. eigenvalues --    0.81306   0.83198   0.86844   0.91020   0.92230
 Alpha virt. eigenvalues --    0.92794   0.95581   0.97850   0.98586   1.01655
 Alpha virt. eigenvalues --    1.05330   1.05440   1.08421   1.11973   1.14406
 Alpha virt. eigenvalues --    1.19082   1.22076   1.23406   1.33932   1.35157
 Alpha virt. eigenvalues --    1.38642   1.45410   1.48749   1.50759   1.53913
 Alpha virt. eigenvalues --    1.56844   1.58094   1.61442   1.66604   1.67218
 Alpha virt. eigenvalues --    1.70361   1.79537   1.83273   1.83512   1.88025
 Alpha virt. eigenvalues --    1.91174   1.95633   1.99454   2.00386   2.07876
 Alpha virt. eigenvalues --    2.12453   2.13235   2.15469   2.22538   2.26615
 Alpha virt. eigenvalues --    2.26850   2.29073   2.31650   2.34962   2.38388
 Alpha virt. eigenvalues --    2.42738   2.43171   2.45541   2.46260   2.47913
 Alpha virt. eigenvalues --    2.50353   2.59188   2.59880   2.62370   2.62946
 Alpha virt. eigenvalues --    2.64033   2.67551   2.75881   2.82579   2.86096
 Alpha virt. eigenvalues --    2.89377   2.90279   2.93046   2.96261   3.03654
 Alpha virt. eigenvalues --    3.06799   3.11764   3.22286   3.24079   3.32267
 Alpha virt. eigenvalues --    3.33463   3.52459   3.64678   3.83864   3.84904
 Alpha virt. eigenvalues --    4.15224   4.16987   4.18659   4.26001   4.35653
 Alpha virt. eigenvalues --    4.39749   4.48267   4.51656   4.66482   4.72069
 Alpha virt. eigenvalues --    4.80642   4.82249   4.83104   4.89744   5.02483
 Alpha virt. eigenvalues --    5.07824   5.10695   5.14454   5.17993   5.24519
 Alpha virt. eigenvalues --    5.27242   5.30881   5.33239   5.36000   5.61685
 Alpha virt. eigenvalues --    5.67397   5.77498   5.85918   5.96649   6.17326
 Alpha virt. eigenvalues --    6.27922   6.34126   6.39026   6.49231   6.50514
 Alpha virt. eigenvalues --    6.60829   6.65578   6.69727   6.75626   6.77260
 Alpha virt. eigenvalues --    6.83302   6.90020   7.02925   7.06891   7.07788
 Alpha virt. eigenvalues --    7.10651   7.12771   7.16495   7.18942   7.23009
 Alpha virt. eigenvalues --    7.24902   7.30945   7.32579   7.34808   7.40409
 Alpha virt. eigenvalues --    7.45570   7.48657   7.62170   7.62485   7.63555
 Alpha virt. eigenvalues --    7.67245   7.80925   7.89202   8.12371   8.33866
 Alpha virt. eigenvalues --    8.42752   8.54750  13.44971  14.41922  15.18889
 Alpha virt. eigenvalues --   16.15507
          Condensed to atoms (all electrons):
               1          2          3          4          5
     1  H    0.590812   0.129075   0.018841   0.012820  -0.000731
     2  O    0.129075   8.346337  -0.198412  -0.093735   0.016155
     3  O    0.018841  -0.198412   8.492929  -0.127829  -0.039616
     4  N    0.012820  -0.093735  -0.127829   6.975176  -0.056467
     5  O   -0.000731   0.016155  -0.039616  -0.056467   8.274548
 Mulliken charges:
               1
     1  H    0.249184
     2  O   -0.199418
     3  O   -0.145913
     4  N    0.290036
     5  O   -0.193889
 Sum of Mulliken charges =  -0.00000
 Mulliken charges with hydrogens summed into heavy atoms:
               1
     2  O    0.049766
     3  O   -0.145913
     4  N    0.290036
     5  O   -0.193889
 Electronic spatial extent (au):  <R**2>=            251.0828
 Charge=             -0.0000 electrons
 Dipole moment (field-independent basis, Debye):
    X=              0.5046    Y=              1.3782    Z=              0.0000  Tot=              1.4677
 Quadrupole moment (field-independent basis, Debye-Ang):
   XX=            -22.5734   YY=            -18.5465   ZZ=            -21.9835
   XY=              3.1941   XZ=             -0.0000   YZ=              0.0000
 Traceless Quadrupole moment (field-independent basis, Debye-Ang):
   XX=             -1.5389   YY=              2.4880   ZZ=             -0.9491
   XY=              3.1941   XZ=             -0.0000   YZ=              0.0000
 Octapole moment (field-independent basis, Debye-Ang**2):
  XXX=              2.5889  YYY=             11.5582  ZZZ=             -0.0000  XYY=              7.8840
  XXY=              6.3894  XXZ=              0.0000  XZZ=             -1.5405  YZZ=             -0.8399
  YYZ=              0.0000  XYZ=              0.0000
 Hexadecapole moment (field-independent basis, Debye-Ang**3):
 XXXX=           -155.6065 YYYY=            -90.5717 ZZZZ=            -18.1900 XXXY=            -37.0901
 XXXZ=             -0.0000 YYYX=            -30.6297 YYYZ=             -0.0000 ZZZX=             -0.0000
 ZZZY=             -0.0000 XXYY=            -33.9475 XXZZ=            -30.2719 YYZZ=            -20.8729
 XXYZ=             -0.0000 YYXZ=             -0.0000 ZZXY=            -15.0202
 N-N= 1.173473113590D+02 E-N=-8.968177303716D+02  KE= 2.802251835338D+02
 Symmetry A'   KE= 2.662426585320D+02
 Symmetry A"   KE= 1.398252500177D+01
 No NMR shielding tensors so no spin-rotation constants.
 Leave Link  601 at Mon Feb 14 22:10:46 2022, MaxMem= 16106127360 cpu:               4.9 elap:               0.2
 (Enter /sw/contrib/gaussian/g16/B01/g16/l9999.exe)
 1\1\GINC-N2118\SP\RMP2-FC\Aug-CC-pVTZ\H1N1O3\CGAVINH\14-Feb-2022\0\\#p
  SP mp2/aug-cc-pvtz density=current\\title\\0,1\H\O,1,0.96897556\O,2,1
 .4358714272,1,97.59494903\N,3,1.45878406,2,102.29752444,1,180.,0\O,4,1
 .17072885,3,109.06955123,2,180.,0\\Version=ES64L-G16RevB.01\State=1-A'
 \HF=-279.5030505\MP2=-280.4465545\RMSD=3.619e-09\Dipole=-0.1488325,0.,
 -0.5579377\Quadrupole=-1.5463213,-0.7056019,2.2519232,0.,2.0672506,0.\
 PG=CS [SG(H1N1O3)]\\@


 THEREFORE SHALL EVIL COME UPON THEE...
 THOU SHALT NOT KNOW FROM WHENCE IT RISETH...
 AND MISCHIEF SHALL FALL UPON THEE...
 THOU SHALT NOT BE ABLE TO PUT IT OFF...
 AND DESOLATION SHALL COME UPON THEE SUDDENLY...
 WHICH THOU SHALT NOT KNOW...

                                         ISAIAH 47.11
 Job cpu time:       0 days  0 hours  6 minutes 24.6 seconds.
 Elapsed time:       0 days  0 hours  0 minutes 17.8 seconds.
 File lengths (MBytes):  RWF=     22 Int=      0 D2E=      0 Chk=      8 Scr=      1
 Normal termination of Gaussian 16 at Mon Feb 14 22:10:46 2022.
