title                                                                   
SP        RMP2-FC                                                     Aug-CC-pVTZ         
Number of atoms                            I                5
Info1-9                                    I   N=           9
          33          24           0           0           0         110
           1           2           1
Full Title                                 C   N=           1
title       
Route                                      C   N=           4
#p SP mp2/aug-cc-pvtz density=current           
Charge                                     I                0
Multiplicity                               I                1
Number of electrons                        I               32
Number of alpha electrons                  I               16
Number of beta electrons                   I               16
Number of basis functions                  I              207
Number of independent functions            I              207
Number of point charges in /Mol/           I                0
Number of translation vectors              I                0
Atomic numbers                             I   N=           5
           1           8           8           7           8
Nuclear charges                            R   N=           5
  1.00000000E+00  8.00000000E+00  8.00000000E+00  7.00000000E+00  8.00000000E+00
Current cartesian coordinates              R   N=          15
  2.99778054E+00  3.10430207E+00  2.77741228E-33  2.74938201E+00  1.29013018E+00
  1.33624949E-32 -9.39785964E-17  1.29980298E+00 -1.39819506E-32 -4.99617512E-01
 -1.41124667E+00  1.26233448E-32 -2.68693926E+00 -1.74313008E+00 -3.77358215E-33
Number of symbols in /Mol/                 I                0
Force Field                                I                0
Atom Types                                 C   N=           5
                                                            
Int Atom Types                             I   N=           5
           0           0           0           0           0
MM charges                                 R   N=           5
  0.00000000E+00  0.00000000E+00  0.00000000E+00  0.00000000E+00  0.00000000E+00
Integer atomic weights                     I   N=           5
           1          16          16          14          16
Real atomic weights                        R   N=           5
  1.00782504E+00  1.59949146E+01  1.59949146E+01  1.40030740E+01  1.59949146E+01
Atom fragment info                         I   N=           5
           0           0           0           0           0
Atom residue num                           I   N=           5
           0           0           0           0           0
Nuclear spins                              I   N=           5
           1           0           0           2           0
Nuclear ZEff                               R   N=           5
 -1.00000000E+00 -5.60000000E+00 -5.60000000E+00 -4.55000000E+00 -5.60000000E+00
Nuclear ZNuc                               R   N=           5
  1.00000000E+00  8.00000000E+00  8.00000000E+00  7.00000000E+00  8.00000000E+00
Nuclear QMom                               R   N=           5
  0.00000000E+00  0.00000000E+00  0.00000000E+00  2.04400000E+00  0.00000000E+00
Nuclear GFac                               R   N=           5
  2.79284600E+00  0.00000000E+00  0.00000000E+00  4.03761000E-01  0.00000000E+00
MicOpt                                     I   N=           5
          -1          -1          -1          -1          -1
Number of residues                         I                0
Number of secondary structures             I                0
SymInf integers                            I   N=          26
           1           2           1           1           1           1
           1          -1           0           0           0           0
           0           0           0           0           0           0
           0           0           0           0           0           0
           0           0
RotTr to input orientation                 R   N=          12
 -9.90756071E-01 -9.95199219E-17 -1.35655475E-01  1.35655475E-01 -7.13679408E-17
 -9.90756071E-01  8.89185148E-17 -1.00000000E+00  8.42086429E-17  2.54895370E+00
  0.00000000E+00  3.48227146E+00
Number of contracted shells                I               65
Number of primitive shells                 I              119
Pure/Cartesian d shells                    I                0
Pure/Cartesian f shells                    I                0
Highest angular momentum                   I                3
Largest degree of contraction              I                7
Shell types                                I   N=          65
           0           0           0           0           1           1
           1          -2          -2           0           0           0
           0           0           1           1           1           1
          -2          -2          -2          -3          -3           0
           0           0           0           0           1           1
           1           1          -2          -2          -2          -3
          -3           0           0           0           0           0
           1           1           1           1          -2          -2
          -2          -3          -3           0           0           0
           0           0           1           1           1           1
          -2          -2          -2          -3          -3
Number of primitives per shell             I   N=          65
           3           1           1           1           1           1
           1           1           1           7           6           1
           1           1           3           1           1           1
           1           1           1           1           1           7
           6           1           1           1           3           1
           1           1           1           1           1           1
           1           7           6           1           1           1
           3           1           1           1           1           1
           1           1           1           7           6           1
           1           1           3           1           1           1
           1           1           1           1           1
Shell to atom map                          I   N=          65
           1           1           1           1           1           1
           1           1           1           2           2           2
           2           2           2           2           2           2
           2           2           2           2           2           3
           3           3           3           3           3           3
           3           3           3           3           3           3
           3           4           4           4           4           4
           4           4           4           4           4           4
           4           4           4           5           5           5
           5           5           5           5           5           5
           5           5           5           5           5
Primitive exponents                        R   N=         119
  3.38700000E+01  5.09500000E+00  1.15900000E+00  3.25800000E-01  1.02700000E-01
  2.52600000E-02  1.40700000E+00  3.88000000E-01  1.02000000E-01  1.05700000E+00
  2.47000000E-01  1.53300000E+04  2.29900000E+03  5.22400000E+02  1.47300000E+02
  4.75500000E+01  1.67600000E+01  6.20700000E+00  5.22400000E+02  1.47300000E+02
  4.75500000E+01  1.67600000E+01  6.20700000E+00  6.88200000E-01  1.75200000E+00
  2.38400000E-01  7.37600000E-02  3.44600000E+01  7.74900000E+00  2.28000000E+00
  7.15600000E-01  2.14000000E-01  5.97400000E-02  2.31400000E+00  6.45000000E-01
  2.14000000E-01  1.42800000E+00  5.00000000E-01  1.53300000E+04  2.29900000E+03
  5.22400000E+02  1.47300000E+02  4.75500000E+01  1.67600000E+01  6.20700000E+00
  5.22400000E+02  1.47300000E+02  4.75500000E+01  1.67600000E+01  6.20700000E+00
  6.88200000E-01  1.75200000E+00  2.38400000E-01  7.37600000E-02  3.44600000E+01
  7.74900000E+00  2.28000000E+00  7.15600000E-01  2.14000000E-01  5.97400000E-02
  2.31400000E+00  6.45000000E-01  2.14000000E-01  1.42800000E+00  5.00000000E-01
  1.14200000E+04  1.71200000E+03  3.89300000E+02  1.10000000E+02  3.55700000E+01
  1.25400000E+01  4.64400000E+00  3.89300000E+02  1.10000000E+02  3.55700000E+01
  1.25400000E+01  4.64400000E+00  5.11800000E-01  1.29300000E+00  1.78700000E-01
  5.76000000E-02  2.66300000E+01  5.94800000E+00  1.74200000E+00  5.55000000E-01
  1.72500000E-01  4.91000000E-02  1.65400000E+00  4.69000000E-01  1.51000000E-01
  1.09300000E+00  3.64000000E-01  1.53300000E+04  2.29900000E+03  5.22400000E+02
  1.47300000E+02  4.75500000E+01  1.67600000E+01  6.20700000E+00  5.22400000E+02
  1.47300000E+02  4.75500000E+01  1.67600000E+01  6.20700000E+00  6.88200000E-01
  1.75200000E+00  2.38400000E-01  7.37600000E-02  3.44600000E+01  7.74900000E+00
  2.28000000E+00  7.15600000E-01  2.14000000E-01  5.97400000E-02  2.31400000E+00
  6.45000000E-01  2.14000000E-01  1.42800000E+00  5.00000000E-01
Contraction coefficients                   R   N=         119
  2.54948632E-02  1.90362766E-01  8.52162022E-01  1.00000000E+00  1.00000000E+00
  1.00000000E+00  1.00000000E+00  1.00000000E+00  1.00000000E+00  1.00000000E+00
  1.00000000E+00  5.19808943E-04  4.02025621E-03  2.07128267E-02  8.10105536E-02
  2.35962985E-01  4.42653446E-01  3.57064423E-01 -4.42115008E-05 -1.22591041E-03
 -1.05517725E-02 -6.74452633E-02 -1.71198607E-01  1.07329856E+00  1.00000000E+00
  1.00000000E+00  1.00000000E+00  4.11634896E-02  2.57762836E-01  8.02419274E-01
  1.00000000E+00  1.00000000E+00  1.00000000E+00  1.00000000E+00  1.00000000E+00
  1.00000000E+00  1.00000000E+00  1.00000000E+00  5.19808943E-04  4.02025621E-03
  2.07128267E-02  8.10105536E-02  2.35962985E-01  4.42653446E-01  3.57064423E-01
 -4.42115008E-05 -1.22591041E-03 -1.05517725E-02 -6.74452633E-02 -1.71198607E-01
  1.07329856E+00  1.00000000E+00  1.00000000E+00  1.00000000E+00  4.11634896E-02
  2.57762836E-01  8.02419274E-01  1.00000000E+00  1.00000000E+00  1.00000000E+00
  1.00000000E+00  1.00000000E+00  1.00000000E+00  1.00000000E+00  1.00000000E+00
  5.34563860E-04  4.13435660E-03  2.12335358E-02  8.25006224E-02  2.38138871E-01
  4.42551547E-01  3.53757422E-01 -4.89867350E-05 -1.19527323E-03 -1.03490714E-02
 -6.48680190E-02 -1.71552477E-01  1.07289568E+00  1.00000000E+00  1.00000000E+00
  1.00000000E+00  3.98072123E-02  2.49002660E-01  8.10479727E-01  1.00000000E+00
  1.00000000E+00  1.00000000E+00  1.00000000E+00  1.00000000E+00  1.00000000E+00
  1.00000000E+00  1.00000000E+00  5.19808943E-04  4.02025621E-03  2.07128267E-02
  8.10105536E-02  2.35962985E-01  4.42653446E-01  3.57064423E-01 -4.42115008E-05
 -1.22591041E-03 -1.05517725E-02 -6.74452633E-02 -1.71198607E-01  1.07329856E+00
  1.00000000E+00  1.00000000E+00  1.00000000E+00  4.11634896E-02  2.57762836E-01
  8.02419274E-01  1.00000000E+00  1.00000000E+00  1.00000000E+00  1.00000000E+00
  1.00000000E+00  1.00000000E+00  1.00000000E+00  1.00000000E+00
Coordinates of each shell                  R   N=         195
  2.99778054E+00  3.10430207E+00 -2.14611548E-32  2.99778054E+00  3.10430207E+00
 -2.14611548E-32  2.99778054E+00  3.10430207E+00 -2.14611548E-32  2.99778054E+00
  3.10430207E+00 -2.14611548E-32  2.99778054E+00  3.10430207E+00 -2.14611548E-32
  2.99778054E+00  3.10430207E+00 -2.14611548E-32  2.99778054E+00  3.10430207E+00
 -2.14611548E-32  2.99778054E+00  3.10430207E+00 -2.14611548E-32  2.99778054E+00
  3.10430207E+00 -2.14611548E-32  2.74938201E+00  1.29013018E+00 -1.01761395E-32
  2.74938201E+00  1.29013018E+00 -1.01761395E-32  2.74938201E+00  1.29013018E+00
 -1.01761395E-32  2.74938201E+00  1.29013018E+00 -1.01761395E-32  2.74938201E+00
  1.29013018E+00 -1.01761395E-32  2.74938201E+00  1.29013018E+00 -1.01761395E-32
  2.74938201E+00  1.29013018E+00 -1.01761395E-32  2.74938201E+00  1.29013018E+00
 -1.01761395E-32  2.74938201E+00  1.29013018E+00 -1.01761395E-32  2.74938201E+00
  1.29013018E+00 -1.01761395E-32  2.74938201E+00  1.29013018E+00 -1.01761395E-32
  2.74938201E+00  1.29013018E+00 -1.01761395E-32  2.74938201E+00  1.29013018E+00
 -1.01761395E-32  2.74938201E+00  1.29013018E+00 -1.01761395E-32 -4.12717443E-18
  1.29980298E+00 -7.93660440E-33 -4.12717443E-18  1.29980298E+00 -7.93660440E-33
 -4.12717443E-18  1.29980298E+00 -7.93660440E-33 -4.12717443E-18  1.29980298E+00
 -7.93660440E-33 -4.12717443E-18  1.29980298E+00 -7.93660440E-33 -4.12717443E-18
  1.29980298E+00 -7.93660440E-33 -4.12717443E-18  1.29980298E+00 -7.93660440E-33
 -4.12717443E-18  1.29980298E+00 -7.93660440E-33 -4.12717443E-18  1.29980298E+00
 -7.93660440E-33 -4.12717443E-18  1.29980298E+00 -7.93660440E-33 -4.12717443E-18
  1.29980298E+00 -7.93660440E-33 -4.12717443E-18  1.29980298E+00 -7.93660440E-33
 -4.12717443E-18  1.29980298E+00 -7.93660440E-33 -4.12717443E-18  1.29980298E+00
 -7.93660440E-33 -4.99617512E-01 -1.41124667E+00  9.03478115E-33 -4.99617512E-01
 -1.41124667E+00  9.03478115E-33 -4.99617512E-01 -1.41124667E+00  9.03478115E-33
 -4.99617512E-01 -1.41124667E+00  9.03478115E-33 -4.99617512E-01 -1.41124667E+00
  9.03478115E-33 -4.99617512E-01 -1.41124667E+00  9.03478115E-33 -4.99617512E-01
 -1.41124667E+00  9.03478115E-33 -4.99617512E-01 -1.41124667E+00  9.03478115E-33
 -4.99617512E-01 -1.41124667E+00  9.03478115E-33 -4.99617512E-01 -1.41124667E+00
  9.03478115E-33 -4.99617512E-01 -1.41124667E+00  9.03478115E-33 -4.99617512E-01
 -1.41124667E+00  9.03478115E-33 -4.99617512E-01 -1.41124667E+00  9.03478115E-33
 -4.99617512E-01 -1.41124667E+00  9.03478115E-33 -2.68693926E+00 -1.74313008E+00
  1.28899547E-32 -2.68693926E+00 -1.74313008E+00  1.28899547E-32 -2.68693926E+00
 -1.74313008E+00  1.28899547E-32 -2.68693926E+00 -1.74313008E+00  1.28899547E-32
 -2.68693926E+00 -1.74313008E+00  1.28899547E-32 -2.68693926E+00 -1.74313008E+00
  1.28899547E-32 -2.68693926E+00 -1.74313008E+00  1.28899547E-32 -2.68693926E+00
 -1.74313008E+00  1.28899547E-32 -2.68693926E+00 -1.74313008E+00  1.28899547E-32
 -2.68693926E+00 -1.74313008E+00  1.28899547E-32 -2.68693926E+00 -1.74313008E+00
  1.28899547E-32 -2.68693926E+00 -1.74313008E+00  1.28899547E-32 -2.68693926E+00
 -1.74313008E+00  1.28899547E-32 -2.68693926E+00 -1.74313008E+00  1.28899547E-32
Num ILSW                                   I              100
ILSW                                       I   N=         100
           0           0           0           0           2           0
           0           0           0           0           0          -1
           5           0           0           0           0           0
           0           0           0           0           0           0
           1           0           0           0           0           0
           0           0      100000           0          -1           0
           0           0           0           0           0           0
           0           0           0           1           0           0
           0 -2000000000           1           0           0           0
           0           0           4          52           0           0
           0           0           0           0           0           0
           0           0           0           5           0           1
           0           0           0           0           0           0
           0           0           0           0           0           0
           0           0           0           0           0           0
           0           0           0           0           0           0
           0           0           0           0
Num RLSW                                   I               52
RLSW                                       R   N=          52
  1.00000000E+00  1.00000000E+00  1.00000000E+00  1.00000000E+00  1.00000000E+00
  0.00000000E+00  0.00000000E+00  1.00000000E+00  0.00000000E+00  0.00000000E+00
  0.00000000E+00  0.00000000E+00  1.00000000E+00  0.00000000E+00  0.00000000E+00
  0.00000000E+00  0.00000000E+00  1.00000000E+00  0.00000000E+00  0.00000000E+00
  0.00000000E+00  0.00000000E+00  1.00000000E+00  0.00000000E+00  0.00000000E+00
  0.00000000E+00  0.00000000E+00  1.00000000E+00  0.00000000E+00  0.00000000E+00
  0.00000000E+00  0.00000000E+00  1.00000000E+00  0.00000000E+00  0.00000000E+00
  0.00000000E+00  0.00000000E+00  0.00000000E+00  1.00000000E+00  1.00000000E+00
  0.00000000E+00  1.00000000E+00  0.00000000E+00  0.00000000E+00  0.00000000E+00
  0.00000000E+00  0.00000000E+00  0.00000000E+00  0.00000000E+00  0.00000000E+00
  0.00000000E+00  0.00000000E+00
MxBond                                     I                2
NBond                                      I   N=           5
           1           2           2           2           1
IBond                                      I   N=          10
           2           0           1           3           2           4
           3           5           4           0
RBond                                      R   N=          10
  1.00000000E+00  0.00000000E+00  1.00000000E+00  1.00000000E+00  1.00000000E+00
  1.00000000E+00  1.00000000E+00  2.00000000E+00  2.00000000E+00  0.00000000E+00
Virial Ratio                               R      2.002306099899338E+00
SCF Energy                                 R     -2.795012915972100E+02
MP2 Energy                                 R     -2.804465483100649E+02
Total Energy                               R     -2.804465483100649E+02
Post-SCF wavefunction norm                 R      1.120230147820202E+00
RMS Density                                R      3.775537634489724E-09
Job Status                                 I                1
Nuclear derivative order                   I                0
External E-field                           R   N=          35
  0.00000000E+00  0.00000000E+00  0.00000000E+00  0.00000000E+00  0.00000000E+00
  0.00000000E+00  0.00000000E+00  0.00000000E+00  0.00000000E+00  0.00000000E+00
  0.00000000E+00  0.00000000E+00  0.00000000E+00  0.00000000E+00  0.00000000E+00
  0.00000000E+00  0.00000000E+00  0.00000000E+00  0.00000000E+00  0.00000000E+00
  0.00000000E+00  0.00000000E+00  0.00000000E+00  0.00000000E+00  0.00000000E+00
  0.00000000E+00  0.00000000E+00  0.00000000E+00  0.00000000E+00  0.00000000E+00
  0.00000000E+00  0.00000000E+00  0.00000000E+00  0.00000000E+00  0.00000000E+00
IOpCl                                      I                0
IROHF                                      I                0
Alpha Orbital Energies                     R   N=         207
 -2.06913653E+01 -2.06838362E+01 -2.06592819E+01 -1.58122043E+01 -1.62411465E+00
 -1.49634152E+00 -1.25337926E+00 -9.48507195E-01 -7.74435432E-01 -7.58310891E-01
 -7.12101235E-01 -6.76077032E-01 -6.19875267E-01 -5.90933135E-01 -4.85380257E-01
 -4.72922234E-01  2.96171978E-02  7.19252023E-02  8.59059529E-02  1.01164016E-01
  1.34131806E-01  1.34185343E-01  1.44327840E-01  1.55158337E-01  1.78164153E-01
  1.93910271E-01  1.99610826E-01  2.06367025E-01  2.21147050E-01  2.35544147E-01
  2.37559684E-01  2.64651892E-01  2.93064749E-01  3.05056579E-01  3.10119177E-01
  3.42979006E-01  3.50400291E-01  3.88170444E-01  4.21207964E-01  4.30365513E-01
  5.27019309E-01  5.30770350E-01  5.61351425E-01  5.84818487E-01  6.26262926E-01
  6.36552017E-01  6.74098367E-01  6.84293525E-01  7.05172764E-01  7.12632750E-01
  7.23669943E-01  7.30596692E-01  7.44754680E-01  7.89259362E-01  7.91862150E-01
  8.09325243E-01  8.13013441E-01  8.32576844E-01  8.68258806E-01  9.07112101E-01
  9.23089168E-01  9.25693869E-01  9.59841723E-01  9.84892975E-01  9.86440931E-01
  1.01655771E+00  1.05325852E+00  1.05344386E+00  1.08813193E+00  1.12268276E+00
  1.14500040E+00  1.18732905E+00  1.22269267E+00  1.23076849E+00  1.33716524E+00
  1.34883904E+00  1.38861821E+00  1.45222625E+00  1.48745315E+00  1.50877250E+00
  1.54059876E+00  1.56879790E+00  1.58115469E+00  1.61654995E+00  1.66470922E+00
  1.67072947E+00  1.70321700E+00  1.79205939E+00  1.82678554E+00  1.83219295E+00
  1.88013942E+00  1.91340616E+00  1.95970007E+00  1.99405244E+00  2.00639195E+00
  2.07646190E+00  2.11630736E+00  2.13055874E+00  2.15061891E+00  2.22510467E+00
  2.26350758E+00  2.26555491E+00  2.28744613E+00  2.31835918E+00  2.35565685E+00
  2.38875279E+00  2.42793143E+00  2.42865226E+00  2.45319256E+00  2.46485440E+00
  2.47728172E+00  2.50926987E+00  2.59000964E+00  2.59425618E+00  2.61788294E+00
  2.62820117E+00  2.63009834E+00  2.67156694E+00  2.76344368E+00  2.83310732E+00
  2.87019565E+00  2.89324285E+00  2.89842651E+00  2.92220208E+00  2.95583887E+00
  3.03740872E+00  3.07376476E+00  3.12709280E+00  3.20762326E+00  3.23396073E+00
  3.31445548E+00  3.33098754E+00  3.50183980E+00  3.65572523E+00  3.84073812E+00
  3.84458394E+00  4.15139399E+00  4.16182810E+00  4.18613713E+00  4.26312237E+00
  4.34561479E+00  4.39749380E+00  4.46420943E+00  4.51736361E+00  4.67472436E+00
  4.71192453E+00  4.81078499E+00  4.82262459E+00  4.83117720E+00  4.89768930E+00
  5.02125334E+00  5.07690535E+00  5.09980766E+00  5.13879549E+00  5.18641812E+00
  5.24852877E+00  5.27092260E+00  5.30836983E+00  5.33563589E+00  5.36741811E+00
  5.62278817E+00  5.67406440E+00  5.77321829E+00  5.82922438E+00  5.95750323E+00
  6.17611107E+00  6.30872564E+00  6.33598448E+00  6.39262622E+00  6.49270933E+00
  6.50372336E+00  6.61774166E+00  6.66413120E+00  6.69706403E+00  6.76370697E+00
  6.76447203E+00  6.83480900E+00  6.89549986E+00  7.00830544E+00  7.05008482E+00
  7.05815016E+00  7.09044201E+00  7.12695092E+00  7.15328282E+00  7.18336742E+00
  7.22178250E+00  7.24468941E+00  7.31144770E+00  7.32445138E+00  7.35913055E+00
  7.40392664E+00  7.42838014E+00  7.48812203E+00  7.60135778E+00  7.61747089E+00
  7.63759857E+00  7.67181615E+00  7.79686468E+00  7.89777708E+00  8.08539779E+00
  8.31621367E+00  8.40943051E+00  8.54333059E+00  1.34082636E+01  1.43521740E+01
  1.51873901E+01  1.61572577E+01
Alpha MO coefficients                      R   N=       42849
  9.05520929E-05 -6.03240508E-04 -7.06636916E-04 -2.32208787E-06 -1.99949096E-05
 -2.66774169E-05  0.00000000E+00 -4.84279130E-05  5.05297496E-05  0.00000000E+00
  7.96404278E-05  2.95467155E-05  0.00000000E+00  3.10170157E-05  0.00000000E+00
  0.00000000E+00 -4.83372950E-05  2.48803133E-05 -5.85232651E-06  0.00000000E+00
  0.00000000E+00 -1.25710831E-04  1.26766668E-04  4.41686296E-03 -2.83335735E-04
  1.01102141E-05  1.46409139E-03  1.80060918E-03  1.04535912E-04  3.64076801E-06
  0.00000000E+00 -6.04135108E-04 -1.37523009E-05  0.00000000E+00 -1.03419539E-03
  7.99433880E-04  0.00000000E+00 -3.93943239E-04  7.71948152E-05  0.00000000E+00
  2.89418894E-05  0.00000000E+00  0.00000000E+00 -5.33362103E-05  9.71663577E-06
 -3.74347084E-04  0.00000000E+00  0.00000000E+00  7.30928534E-04 -8.88086763E-05
 -4.41888267E-04  0.00000000E+00  0.00000000E+00  2.30819163E-04 -2.62634345E-05
  0.00000000E+00  7.97015408E-05  9.55502445E-06  0.00000000E+00  0.00000000E+00
 -1.10045399E-04  8.71781225E-06  0.00000000E+00  2.55832802E-04 -3.51267570E-05
  0.00000000E+00  0.00000000E+00 -3.37926598E-04  8.92982009E-05  9.76913165E-01
 -9.22926968E-03  4.33122839E-02  2.11634731E-03 -9.11771338E-04  1.46507456E-03
 -1.38659994E-03  0.00000000E+00 -1.41737503E-03  1.42632679E-03  0.00000000E+00
  1.03715173E-04 -1.15558788E-03  0.00000000E+00 -1.28077359E-04 -1.00681281E-05
  0.00000000E+00  4.92154814E-05  0.00000000E+00  0.00000000E+00 -3.59165892E-05
  1.75103667E-05  7.39443860E-04  0.00000000E+00  0.00000000E+00 -2.38947930E-04
 -3.35938040E-04 -3.61899310E-04  0.00000000E+00  0.00000000E+00 -3.18819536E-04
 -3.72765292E-04  0.00000000E+00  4.74385973E-05 -5.07069120E-05  0.00000000E+00
  0.00000000E+00 -3.92850262E-05 -1.23114336E-05  0.00000000E+00  2.15730859E-05
  2.07964089E-05  0.00000000E+00  0.00000000E+00 -3.00883241E-04 -1.12424267E-04
  3.77405858E-05  3.92209750E-05 -2.61226062E-04 -7.35080072E-04 -1.47627410E-04
 -2.64002084E-05 -9.59858196E-05  0.00000000E+00  2.53840657E-04  6.87283998E-04
  0.00000000E+00 -8.03223268E-04 -4.74960729E-04  0.00000000E+00 -1.30134869E-04
 -2.84739163E-05  0.00000000E+00 -1.74261457E-05  0.00000000E+00  0.00000000E+00
 -2.81240724E-05  1.49894462E-05 -3.27332760E-04  0.00000000E+00  0.00000000E+00
 -8.20967108E-04  1.27483451E-04 -3.70256061E-05  0.00000000E+00  0.00000000E+00
  9.07092699E-05 -1.09443184E-04  0.00000000E+00 -1.98951201E-05 -1.19441391E-04
  0.00000000E+00  0.00000000E+00 -6.60089416E-05 -1.37929648E-04  0.00000000E+00
 -4.71032792E-06 -1.59349548E-04  0.00000000E+00  0.00000000E+00  4.37177381E-05
 -4.04972853E-04 -2.28632273E-03  1.18953649E-04 -1.08694557E-04 -2.19166309E-04
  1.41776015E-04 -7.24998053E-06 -2.62991507E-05  0.00000000E+00  6.73054771E-05
  1.53980762E-04  0.00000000E+00  2.31784969E-04  2.10154606E-04  0.00000000E+00
  1.28068918E-04  2.97327279E-05  0.00000000E+00 -3.06746724E-06  0.00000000E+00
  0.00000000E+00 -1.77433065E-05  1.29198969E-06  1.55306688E-06  0.00000000E+00
  0.00000000E+00  7.75180115E-05  8.36461029E-05 -9.86411244E-05  0.00000000E+00
  0.00000000E+00  1.57839493E-04  1.65639823E-04  0.00000000E+00  1.60535968E-05
 -3.26671813E-06  0.00000000E+00  0.00000000E+00 -4.06513439E-06 -1.23010992E-05
  0.00000000E+00 -3.30478847E-05  4.46886689E-05  0.00000000E+00  0.00000000E+00
  7.93562676E-05  8.94163282E-05  4.23690416E-05 -9.98854166E-04 -4.65079658E-04
 -1.30095904E-05 -2.18150625E-05  1.51384974E-05  0.00000000E+00  7.38679587E-06
  2.68919736E-04  0.00000000E+00 -5.12701863E-05  1.26671846E-04  0.00000000E+00
  2.66833030E-05  0.00000000E+00  0.00000000E+00  1.07500903E-05  9.64755134E-06
 -3.36162355E-05  0.00000000E+00  0.00000000E+00  1.63982708E-05  3.97452183E-05
  1.11824159E-04  9.82094573E-05 -2.83874711E-05  7.01392027E-04  5.71028394E-04
  1.02972164E-05  2.17329620E-06  0.00000000E+00 -7.85710922E-05  1.25413979E-05
  0.00000000E+00  4.18168526E-04  9.58318140E-04  0.00000000E+00  3.09052766E-05
  9.35843736E-05  0.00000000E+00 -3.05272854E-06  0.00000000E+00  0.00000000E+00
 -2.01134457E-07 -3.52922958E-06 -3.22414219E-05  0.00000000E+00  0.00000000E+00
 -1.13870011E-05  7.09136756E-05 -1.58317171E-05  0.00000000E+00  0.00000000E+00
 -2.86071396E-04 -1.79939615E-04  0.00000000E+00  9.11331459E-06  6.08779693E-06
  0.00000000E+00  0.00000000E+00  2.39818439E-06 -1.79742456E-05  0.00000000E+00
 -4.30468573E-05 -4.03941599E-05  0.00000000E+00  0.00000000E+00 -8.12315658E-05
  4.05408240E-05  2.32467418E-03  4.00740843E-05  7.90423635E-05 -7.20999540E-05
 -4.44696543E-04  7.22619567E-06  1.56264764E-05  0.00000000E+00 -6.27052488E-05
 -5.13584178E-05  0.00000000E+00  2.37435419E-04 -2.29192211E-04  0.00000000E+00
 -1.67623311E-04 -5.84766406E-05  0.00000000E+00 -8.74838859E-06  0.00000000E+00
  0.00000000E+00  2.22591926E-05  2.06881368E-05  5.07358293E-06  0.00000000E+00
  0.00000000E+00 -1.16952157E-04 -5.03185584E-05 -7.74239486E-06  0.00000000E+00
  0.00000000E+00 -2.24467104E-04 -2.31715977E-04  0.00000000E+00  3.18269227E-06
 -1.55827725E-06  0.00000000E+00  0.00000000E+00  1.65407075E-06 -1.23475475E-05
  0.00000000E+00 -4.58251496E-05  7.78451886E-06  0.00000000E+00  0.00000000E+00
 -7.43243973E-05  1.77660488E-04  2.58596715E-04  1.46390819E-03 -7.79327642E-05
 -1.51205660E-03  4.40628529E-04 -1.44137131E-04  6.71569403E-07  0.00000000E+00
 -2.10314405E-03 -4.05808636E-04  0.00000000E+00  1.10648067E-03  8.00875333E-04
  0.00000000E+00 -1.71403574E-04  6.26138278E-05  0.00000000E+00 -1.23064239E-04
  0.00000000E+00  0.00000000E+00  2.43489632E-04  9.21588096E-05 -4.45302398E-04
  0.00000000E+00  0.00000000E+00  8.99713409E-04 -6.19902622E-05  7.65293638E-06
  0.00000000E+00  0.00000000E+00 -3.48192622E-04 -1.09699279E-04  0.00000000E+00
  6.16576041E-08  1.59869171E-05  0.00000000E+00  0.00000000E+00  1.73138443E-05
  1.09216939E-05  0.00000000E+00  1.55840234E-04 -7.56395626E-05  0.00000000E+00
  0.00000000E+00 -2.38211374E-04  5.30752535E-05  9.76649567E-01 -9.84441229E-03
  4.35712314E-02  4.52889031E-03 -4.56671134E-04  2.14717592E-03  4.72613815E-04
  0.00000000E+00 -2.38462315E-03 -5.97812442E-04  0.00000000E+00  1.12851025E-03
 -9.82839917E-06  0.00000000E+00  9.39557119E-07 -3.90577244E-05  0.00000000E+00
 -2.33148605E-04  0.00000000E+00  0.00000000E+00  1.02469121E-04  3.23080725E-05
  3.91080737E-04  0.00000000E+00  0.00000000E+00 -8.39528919E-04 -4.16023749E-04
 -1.47215347E-04  0.00000000E+00  0.00000000E+00  2.48536889E-04  1.00086060E-05
  0.00000000E+00  5.22738383E-05  1.72769662E-05  0.00000000E+00  0.00000000E+00
 -2.27712309E-05 -1.27973307E-05  0.00000000E+00  1.39921362E-04  9.93304592E-06
  0.00000000E+00  0.00000000E+00 -1.91742178E-04 -1.40070230E-04  4.80060293E-04
  2.18529079E-03  1.58884023E-04  1.48520596E-05 -4.85373348E-05 -2.49758765E-04
  0.00000000E+00  5.43826067E-05 -1.31568196E-03  0.00000000E+00  2.60402039E-04
 -3.67137228E-04  0.00000000E+00 -4.23694377E-06  0.00000000E+00  0.00000000E+00
  7.46154226E-05  7.63842145E-06 -1.58151983E-04  0.00000000E+00  0.00000000E+00
 -5.38654675E-04  2.04414327E-05  9.76828583E-01 -9.16792373E-03  4.34547606E-02
  6.65704625E-05 -1.05647289E-03 -1.49624494E-03  1.50714371E-03  0.00000000E+00
  1.51279521E-03 -1.35334581E-03  0.00000000E+00 -6.16538654E-04 -1.00067654E-03
  0.00000000E+00  5.37169966E-05  3.12388790E-06  0.00000000E+00  2.81989041E-05
  0.00000000E+00  0.00000000E+00 -1.19503560E-04  9.08369555E-06  7.64507589E-04
  0.00000000E+00  0.00000000E+00 -2.03845924E-04 -2.24491169E-04 -2.63630343E-04
  0.00000000E+00  0.00000000E+00  1.84628210E-04  1.57505998E-04  0.00000000E+00
 -6.33242852E-05  2.08179562E-06  0.00000000E+00  0.00000000E+00  1.75887399E-05
  8.20277734E-06  0.00000000E+00  4.26692643E-06  1.33701366E-04  0.00000000E+00
  0.00000000E+00  2.76826552E-04  6.52456542E-05 -4.51019511E-03 -2.13132875E-04