title                                                                   
SP        RMP2-FC                                                     Aug-CC-pVTZ         
Number of atoms                            I                5
Info1-9                                    I   N=           9
          33          24           0           0           0         110
           1           2           1
Full Title                                 C   N=           1
title       
Route                                      C   N=           4
#p SP mp2/aug-cc-pvtz density=current           
Charge                                     I                0
Multiplicity                               I                1
Number of electrons                        I               32
Number of alpha electrons                  I               16
Number of beta electrons                   I               16
Number of basis functions                  I              207
Number of independent functions            I              207
Number of point charges in /Mol/           I                0
Number of translation vectors              I                0
Atomic numbers                             I   N=           5
           1           8           8           7           8
Nuclear charges                            R   N=           5
  1.00000000E+00  8.00000000E+00  8.00000000E+00  7.00000000E+00  8.00000000E+00
Current cartesian coordinates              R   N=          15
  4.24881940E+00  8.19752931E-01 -5.15769028E-02  3.01949089E+00 -5.37279278E-01
 -3.98946038E-02  7.57053432E-01  1.02265064E+00  4.49017017E-02 -1.25484878E+00
 -8.61775937E-01  6.92698725E-02 -3.20965407E+00  1.66213467E-01 -5.91711234E-02
Number of symbols in /Mol/                 I                0
Force Field                                I                0
Atom Types                                 C   N=           5
                                                            
Int Atom Types                             I   N=           5
           0           0           0           0           0
MM charges                                 R   N=           5
  0.00000000E+00  0.00000000E+00  0.00000000E+00  0.00000000E+00  0.00000000E+00
Integer atomic weights                     I   N=           5
           1          16          16          14          16
Real atomic weights                        R   N=           5
  1.00782504E+00  1.59949146E+01  1.59949146E+01  1.40030740E+01  1.59949146E+01
Atom fragment info                         I   N=           5
           0           0           0           0           0
Atom residue num                           I   N=           5
           0           0           0           0           0
Nuclear spins                              I   N=           5
           1           0           0           2           0
Nuclear ZEff                               R   N=           5
 -1.00000000E+00 -5.60000000E+00 -5.60000000E+00 -4.55000000E+00 -5.60000000E+00
Nuclear ZNuc                               R   N=           5
  1.00000000E+00  8.00000000E+00  8.00000000E+00  7.00000000E+00  8.00000000E+00
Nuclear QMom                               R   N=           5
  0.00000000E+00  0.00000000E+00  0.00000000E+00  2.04400000E+00  0.00000000E+00
Nuclear GFac                               R   N=           5
  2.79284600E+00  0.00000000E+00  0.00000000E+00  4.03761000E-01  0.00000000E+00
MicOpt                                     I   N=           5
          -1          -1          -1          -1          -1
Number of residues                         I                0
Number of secondary structures             I                0
SymInf integers                            I   N=          26
           1           1           1           1           1           0
           0           0           0           0           0           0
           0           0           0           0           0           0
           0           0           0           0           0           0
           0           0
RotTr to input orientation                 R   N=          12
 -7.40648778E-01 -2.67110409E-02 -6.71361235E-01  6.71210455E-01  1.55928016E-02
 -7.41102820E-01  3.02640302E-02 -9.99521578E-01  6.37994047E-03  2.59821708E+00
  4.91559164E-02  3.46034290E+00
Number of contracted shells                I               65
Number of primitive shells                 I              119
Pure/Cartesian d shells                    I                0
Pure/Cartesian f shells                    I                0
Highest angular momentum                   I                3
Largest degree of contraction              I                7
Shell types                                I   N=          65
           0           0           0           0           1           1
           1          -2          -2           0           0           0
           0           0           1           1           1           1
          -2          -2          -2          -3          -3           0
           0           0           0           0           1           1
           1           1          -2          -2          -2          -3
          -3           0           0           0           0           0
           1           1           1           1          -2          -2
          -2          -3          -3           0           0           0
           0           0           1           1           1           1
          -2          -2          -2          -3          -3
Number of primitives per shell             I   N=          65
           3           1           1           1           1           1
           1           1           1           7           6           1
           1           1           3           1           1           1
           1           1           1           1           1           7
           6           1           1           1           3           1
           1           1           1           1           1           1
           1           7           6           1           1           1
           3           1           1           1           1           1
           1           1           1           7           6           1
           1           1           3           1           1           1
           1           1           1           1           1
Shell to atom map                          I   N=          65
           1           1           1           1           1           1
           1           1           1           2           2           2
           2           2           2           2           2           2
           2           2           2           2           2           3
           3           3           3           3           3           3
           3           3           3           3           3           3
           3           4           4           4           4           4
           4           4           4           4           4           4
           4           4           4           5           5           5
           5           5           5           5           5           5
           5           5           5           5           5
Primitive exponents                        R   N=         119
  3.38700000E+01  5.09500000E+00  1.15900000E+00  3.25800000E-01  1.02700000E-01
  2.52600000E-02  1.40700000E+00  3.88000000E-01  1.02000000E-01  1.05700000E+00
  2.47000000E-01  1.53300000E+04  2.29900000E+03  5.22400000E+02  1.47300000E+02
  4.75500000E+01  1.67600000E+01  6.20700000E+00  5.22400000E+02  1.47300000E+02
  4.75500000E+01  1.67600000E+01  6.20700000E+00  6.88200000E-01  1.75200000E+00
  2.38400000E-01  7.37600000E-02  3.44600000E+01  7.74900000E+00  2.28000000E+00
  7.15600000E-01  2.14000000E-01  5.97400000E-02  2.31400000E+00  6.45000000E-01
  2.14000000E-01  1.42800000E+00  5.00000000E-01  1.53300000E+04  2.29900000E+03
  5.22400000E+02  1.47300000E+02  4.75500000E+01  1.67600000E+01  6.20700000E+00
  5.22400000E+02  1.47300000E+02  4.75500000E+01  1.67600000E+01  6.20700000E+00
  6.88200000E-01  1.75200000E+00  2.38400000E-01  7.37600000E-02  3.44600000E+01
  7.74900000E+00  2.28000000E+00  7.15600000E-01  2.14000000E-01  5.97400000E-02
  2.31400000E+00  6.45000000E-01  2.14000000E-01  1.42800000E+00  5.00000000E-01
  1.14200000E+04  1.71200000E+03  3.89300000E+02  1.10000000E+02  3.55700000E+01
  1.25400000E+01  4.64400000E+00  3.89300000E+02  1.10000000E+02  3.55700000E+01
  1.25400000E+01  4.64400000E+00  5.11800000E-01  1.29300000E+00  1.78700000E-01
  5.76000000E-02  2.66300000E+01  5.94800000E+00  1.74200000E+00  5.55000000E-01
  1.72500000E-01  4.91000000E-02  1.65400000E+00  4.69000000E-01  1.51000000E-01
  1.09300000E+00  3.64000000E-01  1.53300000E+04  2.29900000E+03  5.22400000E+02
  1.47300000E+02  4.75500000E+01  1.67600000E+01  6.20700000E+00  5.22400000E+02
  1.47300000E+02  4.75500000E+01  1.67600000E+01  6.20700000E+00  6.88200000E-01
  1.75200000E+00  2.38400000E-01  7.37600000E-02  3.44600000E+01  7.74900000E+00
  2.28000000E+00  7.15600000E-01  2.14000000E-01  5.97400000E-02  2.31400000E+00
  6.45000000E-01  2.14000000E-01  1.42800000E+00  5.00000000E-01
Contraction coefficients                   R   N=         119
  2.54948632E-02  1.90362766E-01  8.52162022E-01  1.00000000E+00  1.00000000E+00
  1.00000000E+00  1.00000000E+00  1.00000000E+00  1.00000000E+00  1.00000000E+00
  1.00000000E+00  5.19808943E-04  4.02025621E-03  2.07128267E-02  8.10105536E-02
  2.35962985E-01  4.42653446E-01  3.57064423E-01 -4.42115008E-05 -1.22591041E-03
 -1.05517725E-02 -6.74452633E-02 -1.71198607E-01  1.07329856E+00  1.00000000E+00
  1.00000000E+00  1.00000000E+00  4.11634896E-02  2.57762836E-01  8.02419274E-01
  1.00000000E+00  1.00000000E+00  1.00000000E+00  1.00000000E+00  1.00000000E+00
  1.00000000E+00  1.00000000E+00  1.00000000E+00  5.19808943E-04  4.02025621E-03
  2.07128267E-02  8.10105536E-02  2.35962985E-01  4.42653446E-01  3.57064423E-01
 -4.42115008E-05 -1.22591041E-03 -1.05517725E-02 -6.74452633E-02 -1.71198607E-01
  1.07329856E+00  1.00000000E+00  1.00000000E+00  1.00000000E+00  4.11634896E-02
  2.57762836E-01  8.02419274E-01  1.00000000E+00  1.00000000E+00  1.00000000E+00
  1.00000000E+00  1.00000000E+00  1.00000000E+00  1.00000000E+00  1.00000000E+00
  5.34563860E-04  4.13435660E-03  2.12335358E-02  8.25006224E-02  2.38138871E-01
  4.42551547E-01  3.53757422E-01 -4.89867350E-05 -1.19527323E-03 -1.03490714E-02
 -6.48680190E-02 -1.71552477E-01  1.07289568E+00  1.00000000E+00  1.00000000E+00
  1.00000000E+00  3.98072123E-02  2.49002660E-01  8.10479727E-01  1.00000000E+00
  1.00000000E+00  1.00000000E+00  1.00000000E+00  1.00000000E+00  1.00000000E+00
  1.00000000E+00  1.00000000E+00  5.19808943E-04  4.02025621E-03  2.07128267E-02
  8.10105536E-02  2.35962985E-01  4.42653446E-01  3.57064423E-01 -4.42115008E-05
 -1.22591041E-03 -1.05517725E-02 -6.74452633E-02 -1.71198607E-01  1.07329856E+00
  1.00000000E+00  1.00000000E+00  1.00000000E+00  4.11634896E-02  2.57762836E-01
  8.02419274E-01  1.00000000E+00  1.00000000E+00  1.00000000E+00  1.00000000E+00
  1.00000000E+00  1.00000000E+00  1.00000000E+00  1.00000000E+00
Coordinates of each shell                  R   N=         195
  4.24881940E+00  8.19752931E-01 -5.15769028E-02  4.24881940E+00  8.19752931E-01
 -5.15769028E-02  4.24881940E+00  8.19752931E-01 -5.15769028E-02  4.24881940E+00
  8.19752931E-01 -5.15769028E-02  4.24881940E+00  8.19752931E-01 -5.15769028E-02
  4.24881940E+00  8.19752931E-01 -5.15769028E-02  4.24881940E+00  8.19752931E-01
 -5.15769028E-02  4.24881940E+00  8.19752931E-01 -5.15769028E-02  4.24881940E+00
  8.19752931E-01 -5.15769028E-02  3.01949089E+00 -5.37279278E-01 -3.98946038E-02
  3.01949089E+00 -5.37279278E-01 -3.98946038E-02  3.01949089E+00 -5.37279278E-01
 -3.98946038E-02  3.01949089E+00 -5.37279278E-01 -3.98946038E-02  3.01949089E+00
 -5.37279278E-01 -3.98946038E-02  3.01949089E+00 -5.37279278E-01 -3.98946038E-02
  3.01949089E+00 -5.37279278E-01 -3.98946038E-02  3.01949089E+00 -5.37279278E-01
 -3.98946038E-02  3.01949089E+00 -5.37279278E-01 -3.98946038E-02  3.01949089E+00
 -5.37279278E-01 -3.98946038E-02  3.01949089E+00 -5.37279278E-01 -3.98946038E-02
  3.01949089E+00 -5.37279278E-01 -3.98946038E-02  3.01949089E+00 -5.37279278E-01
 -3.98946038E-02  3.01949089E+00 -5.37279278E-01 -3.98946038E-02  7.57053432E-01
  1.02265064E+00  4.49017017E-02  7.57053432E-01  1.02265064E+00  4.49017017E-02
  7.57053432E-01  1.02265064E+00  4.49017017E-02  7.57053432E-01  1.02265064E+00
  4.49017017E-02  7.57053432E-01  1.02265064E+00  4.49017017E-02  7.57053432E-01
  1.02265064E+00  4.49017017E-02  7.57053432E-01  1.02265064E+00  4.49017017E-02
  7.57053432E-01  1.02265064E+00  4.49017017E-02  7.57053432E-01  1.02265064E+00
  4.49017017E-02  7.57053432E-01  1.02265064E+00  4.49017017E-02  7.57053432E-01
  1.02265064E+00  4.49017017E-02  7.57053432E-01  1.02265064E+00  4.49017017E-02
  7.57053432E-01  1.02265064E+00  4.49017017E-02  7.57053432E-01  1.02265064E+00
  4.49017017E-02 -1.25484878E+00 -8.61775937E-01  6.92698725E-02 -1.25484878E+00
 -8.61775937E-01  6.92698725E-02 -1.25484878E+00 -8.61775937E-01  6.92698725E-02
 -1.25484878E+00 -8.61775937E-01  6.92698725E-02 -1.25484878E+00 -8.61775937E-01
  6.92698725E-02 -1.25484878E+00 -8.61775937E-01  6.92698725E-02 -1.25484878E+00
 -8.61775937E-01  6.92698725E-02 -1.25484878E+00 -8.61775937E-01  6.92698725E-02
 -1.25484878E+00 -8.61775937E-01  6.92698725E-02 -1.25484878E+00 -8.61775937E-01
  6.92698725E-02 -1.25484878E+00 -8.61775937E-01  6.92698725E-02 -1.25484878E+00
 -8.61775937E-01  6.92698725E-02 -1.25484878E+00 -8.61775937E-01  6.92698725E-02
 -1.25484878E+00 -8.61775937E-01  6.92698725E-02 -3.20965407E+00  1.66213467E-01
 -5.91711234E-02 -3.20965407E+00  1.66213467E-01 -5.91711234E-02 -3.20965407E+00
  1.66213467E-01 -5.91711234E-02 -3.20965407E+00  1.66213467E-01 -5.91711234E-02
 -3.20965407E+00  1.66213467E-01 -5.91711234E-02 -3.20965407E+00  1.66213467E-01
 -5.91711234E-02 -3.20965407E+00  1.66213467E-01 -5.91711234E-02 -3.20965407E+00
  1.66213467E-01 -5.91711234E-02 -3.20965407E+00  1.66213467E-01 -5.91711234E-02
 -3.20965407E+00  1.66213467E-01 -5.91711234E-02 -3.20965407E+00  1.66213467E-01
 -5.91711234E-02 -3.20965407E+00  1.66213467E-01 -5.91711234E-02 -3.20965407E+00
  1.66213467E-01 -5.91711234E-02 -3.20965407E+00  1.66213467E-01 -5.91711234E-02
Num ILSW                                   I              100
ILSW                                       I   N=         100
           0           0           0           0           2           0
           0           0           0           0           0          -1
           5           0           0           0           0           0
           0           0           0           0           0           0
           1           0           0           0           0           0
           0           0      100000           0          -1           0
           0           0           0           0           0           0
           0           0           0           1           0           0
           0 -2000000000           1           0           0           0
           0           0           4          52           0           0
           0           0           0           0           0           0
           0           0           0           5           0           1
           0           0           0           0           0           0
           0           0           0           0           0           0
           0           0           0           0           0           0
           0           0           0           0           0           0
           0           0           0           0
Num RLSW                                   I               52
RLSW                                       R   N=          52
  1.00000000E+00  1.00000000E+00  1.00000000E+00  1.00000000E+00  1.00000000E+00
  0.00000000E+00  0.00000000E+00  1.00000000E+00  0.00000000E+00  0.00000000E+00
  0.00000000E+00  0.00000000E+00  1.00000000E+00  0.00000000E+00  0.00000000E+00
  0.00000000E+00  0.00000000E+00  1.00000000E+00  0.00000000E+00  0.00000000E+00
  0.00000000E+00  0.00000000E+00  1.00000000E+00  0.00000000E+00  0.00000000E+00
  0.00000000E+00  0.00000000E+00  1.00000000E+00  0.00000000E+00  0.00000000E+00
  0.00000000E+00  0.00000000E+00  1.00000000E+00  0.00000000E+00  0.00000000E+00
  0.00000000E+00  0.00000000E+00  0.00000000E+00  1.00000000E+00  1.00000000E+00
  0.00000000E+00  1.00000000E+00  0.00000000E+00  0.00000000E+00  0.00000000E+00
  0.00000000E+00  0.00000000E+00  0.00000000E+00  0.00000000E+00  0.00000000E+00
  0.00000000E+00  0.00000000E+00
MxBond                                     I                2
NBond                                      I   N=           5
           1           2           2           2           1
IBond                                      I   N=          10
           2           0           1           3           2           4
           3           5           4           0
RBond                                      R   N=          10
  1.00000000E+00  0.00000000E+00  1.00000000E+00  1.00000000E+00  1.00000000E+00
  1.00000000E+00  1.00000000E+00  2.00000000E+00  2.00000000E+00  0.00000000E+00
Virial Ratio                               R      2.002351494039298E+00
SCF Energy                                 R     -2.795015676868914E+02
MP2 Energy                                 R     -2.804465528999441E+02
Total Energy                               R     -2.804465528999441E+02
Post-SCF wavefunction norm                 R      1.120206304683206E+00
RMS Density                                R      9.940422936849493E-09
Job Status                                 I                1
Nuclear derivative order                   I                0
External E-field                           R   N=          35
  0.00000000E+00  0.00000000E+00  0.00000000E+00  0.00000000E+00  0.00000000E+00
  0.00000000E+00  0.00000000E+00  0.00000000E+00  0.00000000E+00  0.00000000E+00
  0.00000000E+00  0.00000000E+00  0.00000000E+00  0.00000000E+00  0.00000000E+00
  0.00000000E+00  0.00000000E+00  0.00000000E+00  0.00000000E+00  0.00000000E+00
  0.00000000E+00  0.00000000E+00  0.00000000E+00  0.00000000E+00  0.00000000E+00
  0.00000000E+00  0.00000000E+00  0.00000000E+00  0.00000000E+00  0.00000000E+00
  0.00000000E+00  0.00000000E+00  0.00000000E+00  0.00000000E+00  0.00000000E+00
IOpCl                                      I                0
IROHF                                      I                0
Alpha Orbital Energies                     R   N=         207
 -2.06907357E+01 -2.06843929E+01 -2.06599952E+01 -1.58127689E+01 -1.62404838E+00
 -1.49571066E+00 -1.25438982E+00 -9.48062394E-01 -7.72757629E-01 -7.59155290E-01
 -7.12090747E-01 -6.79050506E-01 -6.20555027E-01 -5.89355403E-01 -4.85220998E-01
 -4.72484498E-01  2.96291400E-02  7.15432633E-02  8.60167179E-02  1.01716035E-01
  1.32287988E-01  1.35507001E-01  1.44097919E-01  1.54544574E-01  1.78063842E-01
  1.94110677E-01  1.99526947E-01  2.06627838E-01  2.20913495E-01  2.34451839E-01
  2.38563723E-01  2.65514916E-01  2.93425855E-01  3.03198312E-01  3.11569611E-01
  3.43401829E-01  3.49887454E-01  3.87198498E-01  4.21277855E-01  4.30751565E-01
  5.25476779E-01  5.31236943E-01  5.58331758E-01  5.81271014E-01  6.26019927E-01
  6.38451111E-01  6.72073320E-01  6.87106743E-01  7.06485399E-01  7.11369444E-01
  7.25042394E-01  7.29804692E-01  7.44756593E-01  7.89820829E-01  7.94223465E-01
  8.07761268E-01  8.15437909E-01  8.30170029E-01  8.68077818E-01  9.07865524E-01
  9.21914764E-01  9.26341956E-01  9.56144070E-01  9.76115483E-01  9.85393871E-01
  1.01612650E+00  1.04968371E+00  1.05526815E+00  1.08513543E+00  1.11693742E+00
  1.13990156E+00  1.19047521E+00  1.22166170E+00  1.23217359E+00  1.33834069E+00
  1.35113523E+00  1.38789510E+00  1.45180149E+00  1.48750724E+00  1.50857860E+00
  1.53808041E+00  1.56532591E+00  1.58160231E+00  1.61323186E+00  1.66311084E+00
  1.66911509E+00  1.70392091E+00  1.79153554E+00  1.82864588E+00  1.83758164E+00
  1.87982170E+00  1.91085769E+00  1.95598329E+00  1.99101260E+00  2.00769208E+00
  2.07753502E+00  2.11995460E+00  2.13072853E+00  2.15126166E+00  2.22545259E+00
  2.26393169E+00  2.26568257E+00  2.28995064E+00  2.31403173E+00  2.34498976E+00
  2.38645558E+00  2.41888044E+00  2.43275334E+00  2.45396186E+00  2.46267376E+00
  2.47750696E+00  2.50251922E+00  2.59037569E+00  2.59647086E+00  2.61877656E+00
  2.62449624E+00  2.63539853E+00  2.66672678E+00  2.75514917E+00  2.82111712E+00
  2.85424172E+00  2.88529809E+00  2.90027552E+00  2.92295085E+00  2.96151105E+00
  3.02674618E+00  3.06902895E+00  3.12185312E+00  3.20507678E+00  3.22577615E+00
  3.31530581E+00  3.34213142E+00  3.51522291E+00  3.64048857E+00  3.83696367E+00
  3.84673172E+00  4.14890251E+00  4.16198914E+00  4.18404366E+00  4.25674168E+00
  4.35180969E+00  4.39349801E+00  4.46422170E+00  4.51920256E+00  4.65882658E+00
  4.70977958E+00  4.80570651E+00  4.82420398E+00  4.82737340E+00  4.89861597E+00
  5.02273876E+00  5.07519792E+00  5.10446778E+00  5.14622486E+00  5.17909451E+00
  5.24358384E+00  5.27280240E+00  5.30588560E+00  5.32920322E+00  5.35518346E+00
  5.60597808E+00  5.67413503E+00  5.76887587E+00  5.82887025E+00  5.95796921E+00
  6.16897924E+00  6.30963174E+00  6.33740752E+00  6.39417314E+00  6.49346763E+00
  6.50539479E+00  6.61444899E+00  6.66740194E+00  6.69880919E+00  6.75681677E+00
  6.76390449E+00  6.83240727E+00  6.89812055E+00  7.01439599E+00  7.05424698E+00
  7.05843973E+00  7.09027093E+00  7.12497644E+00  7.15195675E+00  7.18157170E+00
  7.22530888E+00  7.24192471E+00  7.30782904E+00  7.32609066E+00  7.34814326E+00
  7.39931212E+00  7.43196134E+00  7.48363682E+00  7.59267446E+00  7.62556514E+00
  7.63063736E+00  7.66863969E+00  7.78977901E+00  7.88642434E+00  8.09209762E+00
  8.31327474E+00  8.40875606E+00  8.54349920E+00  1.33928947E+01  1.43907514E+01
  1.51629212E+01  1.61499558E+01
Alpha MO coefficients                      R   N=       42849
  9.19821564E-05 -6.46351323E-04 -7.30425926E-04 -4.74154680E-06 -3.32520804E-05
 -8.81820561E-06  2.17285947E-07  1.48660397E-06  7.56914918E-05 -2.32898936E-06
  9.19042165E-05 -2.27237108E-05 -1.96314016E-06  3.18285550E-05  2.93589973E-06
 -2.22916939E-06  5.82416859E-06  5.36513153E-05 -5.57062560E-06 -1.32454375E-06
 -3.80013885E-06  7.23763121E-05  1.67084413E-04  4.60658634E-03 -2.81933337E-04
  1.55305810E-05  1.55979014E-03  1.82724788E-03  8.97491475E-05 -5.71178185E-05
 -3.85981890E-06 -5.16863484E-04  3.38274961E-04  2.14739091E-05 -4.06201053E-04
  1.29719348E-03  2.90327528E-05 -2.86003651E-04  2.91825600E-04  7.96551878E-06
  2.87150086E-05  2.79632153E-06 -2.45706697E-06 -1.02172421E-05  5.33796968E-05
 -3.77065334E-04 -3.52146936E-05  2.90247165E-05  1.84689707E-04 -7.16364983E-04
 -4.46405290E-04 -1.88347018E-05  1.95350667E-05  5.39213509E-05 -2.34218134E-04
 -5.57317382E-06  7.16688162E-05 -3.71836605E-05  2.97052538E-06 -7.74988989E-06
  3.35813284E-05  1.04139569E-04 -2.22550761E-05  1.86536656E-04 -1.73116761E-04
  3.08854812E-06 -2.53882061E-05  1.65709327E-04  3.15952036E-04  9.76910331E-01
 -9.21702556E-03  4.33190294E-02  2.04642854E-03 -9.19399849E-04  3.92905414E-04
 -1.97847759E-03 -2.81898751E-05 -3.29030922E-04  1.96702056E-03  3.40582294E-05
 -6.27426895E-04 -9.84600801E-04  1.34960566E-05 -1.15586623E-04  7.13887685E-05
  4.61792857E-06  4.64205884E-05  2.92090780E-06 -2.61752663E-06  1.01224461E-05
  3.98607433E-05  7.45976983E-04  4.76142480E-05 -2.02956655E-05 -4.39151616E-04
  1.08409850E-04 -3.58655502E-04 -4.78665633E-06  1.30033625E-06 -4.51231959E-04
  1.90769387E-04 -3.00853825E-06  8.88838294E-06 -6.73715967E-05  2.77317417E-06
 -5.26914440E-06 -1.91344533E-06  4.19207355E-05 -1.98181779E-06  3.12336822E-05
  3.69501832E-06 -2.02157293E-06 -8.41157513E-06 -2.84717174E-05  3.34073368E-04
  3.93253767E-05  4.74369779E-05 -2.64199627E-04 -7.09037295E-04 -1.48364082E-04
 -7.96147307E-05 -6.22102063E-05 -1.78998917E-06  6.38009524E-04  4.09366543E-04
  1.28994164E-05 -9.58212967E-04  1.03764504E-04  2.03029302E-05 -1.16582206E-04
  5.02320219E-05  1.23221961E-05 -1.80503779E-05 -2.58282380E-06 -1.33987553E-06
  5.63572255E-06  3.27015167E-05 -3.29538517E-04 -7.83619558E-06  6.43414084E-06
 -1.17768563E-04  8.30318822E-04 -3.62510431E-05  1.81417673E-05  1.06783192E-05
 -7.99817270E-05 -1.25391402E-04  5.18984174E-07 -8.80032525E-05 -8.40989384E-05
  1.91779649E-06 -5.08966237E-06 -1.08972440E-04  1.05223284E-04  1.17987839E-05
 -8.89001752E-05 -1.25019059E-04 -1.67171120E-05 -1.19201509E-05 -4.08232054E-04
  9.87176404E-05 -2.67283989E-03  1.20504696E-04 -1.27631419E-04 -2.38931880E-04
  1.41036744E-04 -2.31120517E-05 -1.75023125E-05 -2.03908643E-06  1.52576236E-04
  9.06018581E-05  1.50362455E-05  3.13655526E-04  2.82480912E-05 -1.43542321E-05
  1.16967310E-04 -5.50487700E-05 -8.89478580E-06 -3.45846948E-06 -1.27799206E-06
  2.72671552E-07 -4.18756027E-06  1.72977747E-05  1.32366026E-06  1.19214900E-05
  2.45829078E-06  1.08165583E-04 -5.03475511E-05 -1.00475934E-04 -4.36657078E-06
 -8.31074908E-06  2.05823068E-04 -1.08969273E-04  1.30193692E-06  1.04356312E-05
 -1.18749484E-05  1.14065129E-06  2.41594239E-06 -9.78742896E-06  7.82277994E-06
 -2.26457977E-06  4.12154446E-07  5.51111429E-05 -2.89515976E-06 -8.15283031E-06
  5.77439097E-05 -1.07937747E-04  3.82398775E-05 -9.68008986E-04 -4.78757780E-04
 -1.04263495E-05 -8.62328655E-06  2.55549966E-05  3.72810203E-07  1.59142384E-04
  2.16324682E-04 -3.06303000E-06  4.62830770E-05  1.30459639E-04  1.45115337E-06
  2.54889483E-05  3.44495880E-08  5.65586485E-07  1.40673192E-05 -8.12485356E-06
 -2.68202214E-05 -3.62400014E-07  1.15866218E-06  3.62351287E-05 -2.50641030E-07
  1.12371155E-04  8.36351612E-05 -2.75168613E-05  7.30132355E-04  6.37175315E-04
  9.55708765E-06 -3.87024898E-06  5.46289217E-08 -4.91450966E-05  5.41638238E-05
 -1.46276538E-06  7.95797402E-04  5.14863451E-04  2.34381741E-05  5.02041905E-05
  6.09861660E-05  1.17602295E-05 -2.28930971E-06  9.31881318E-07  6.49502342E-08
 -5.62979942E-06 -1.55310724E-06 -3.48201496E-05 -5.34289416E-06 -3.37070432E-07
  7.28132878E-05  4.17514991E-05 -2.03076539E-05 -1.79059870E-05  1.82219372E-06
 -2.29606617E-04  2.03587526E-04  4.62428188E-07  1.11006445E-05 -5.04689635E-07
 -4.53241446E-07 -6.16177282E-07 -1.81246898E-05  3.42206920E-06 -3.35685196E-06
 -5.55666775E-05 -6.82232596E-06  7.85836200E-06 -7.20800462E-07  4.46149017E-05
  6.61607274E-05  2.71119707E-03  3.75550057E-05  9.56867300E-05 -7.55461629E-05
 -4.59071455E-04  1.53478998E-05  8.00719871E-06 -6.58070973E-07 -8.34499604E-05
 -6.47773501E-06  2.12449328E-06  8.05673083E-05 -2.86937391E-04 -2.49345476E-05
 -1.84732824E-04  5.80607851E-05 -7.22162401E-06 -8.67121437E-06  2.01572175E-06
 -6.25374441E-08  2.54089467E-05 -1.54811672E-05  4.66400013E-06 -7.33462188E-06
  1.07694280E-07 -7.85230129E-05  9.83134526E-05 -5.22887466E-06 -1.13456196E-05
  1.95566679E-05 -2.58850230E-04  1.50353084E-04 -1.60472235E-06  2.24034352E-06
 -2.42670692E-06 -1.45487153E-06 -4.81477902E-07 -1.31967282E-05  2.96297959E-06
  3.78874533E-07 -3.48222709E-05  3.04633007E-05  1.11349369E-05  6.85779500E-06
  2.01421369E-04  9.04410429E-06  2.58567776E-04  1.46439903E-03 -7.80343033E-05
 -1.53754173E-03  3.98483746E-04 -1.15842677E-04  8.57918369E-05 -9.68832401E-06
 -1.91610186E-03  9.16083069E-04 -1.14681332E-04  1.29167218E-03 -4.41611493E-06
  3.48526592E-05 -1.03819436E-04  1.46122910E-04 -6.85083178E-06 -1.22017899E-04
  2.45456351E-05 -1.11815997E-05  1.60551180E-04 -2.04268246E-04 -4.36756829E-04
  9.15648037E-05 -5.70834188E-05  1.99337670E-04 -8.74322698E-04  1.01276249E-05
 -2.60239343E-05  4.12832913E-06 -2.13841792E-04  2.88240766E-04 -3.14819400E-06
  8.09790798E-06  1.29703659E-05  3.09907941E-06 -9.80580368E-07  6.11216090E-06
 -2.22146693E-05  3.71246784E-05  8.64970166E-05 -1.53096657E-04 -1.81217029E-05
  3.93397400E-05  1.18830087E-04  2.12202028E-04  9.76648862E-01 -9.84983978E-03
  4.35676684E-02  4.50368691E-03 -4.44888601E-04  2.00905996E-03 -8.88703511E-04
  1.30853718E-04 -2.27154830E-03  9.31016421E-04 -1.34431627E-04  9.13168798E-04
 -6.78846697E-04  8.80539737E-05 -2.13670293E-05 -3.61672638E-05 -4.33644133E-06
 -2.30996906E-04  1.99957034E-05 -2.17432960E-05  6.05939929E-05 -8.80538260E-05
  3.86780393E-04 -8.61253573E-05  2.10860185E-05 -6.42011476E-04  6.72976916E-04
 -1.50792422E-04  3.19428814E-05 -2.38337204E-05  9.08016837E-05 -2.39263756E-04
  7.55013479E-06  5.15795739E-05 -1.61852051E-05 -3.38693883E-06  6.97282904E-06
 -5.16433015E-06  2.49574250E-05  1.91977114E-05  1.14806098E-04 -7.44871605E-05
 -2.16979691E-05  1.76299560E-05 -6.88751588E-05  2.24564591E-04  4.74855255E-04
  2.05829030E-03  1.17060578E-04  1.49471037E-05 -1.79917751E-04 -1.73668395E-04
  2.56850393E-06 -6.69444488E-04 -1.09022572E-03 -2.96235036E-06  4.65193520E-05
 -4.56087084E-04 -1.22033069E-05 -2.53201585E-06 -2.28331923E-06  1.19150019E-06
  3.68072733E-05 -6.82159740E-05 -1.60329745E-04  4.73850498E-06 -4.00253446E-06
 -1.78434901E-04  5.06990201E-04  9.76829965E-01 -9.16331079E-03  4.34496761E-02
  1.68519276E-04 -1.13823139E-03 -3.95177862E-04  2.08846370E-03  4.71840592E-05
  4.98624144E-04 -1.96890717E-03 -4.63445748E-05 -9.73751738E-04 -3.54859226E-04
  2.00229969E-05  2.68660458E-05 -5.81007517E-05 -3.37194782E-06  2.93339080E-05
  5.16478668E-06 -3.38618952E-06 -3.70460772E-05  1.12030784E-04  7.55824038E-04
  4.58181393E-05 -2.13207649E-05 -2.83412106E-04  1.24376589E-04 -2.66636719E-04
 -9.88412858E-06  1.11984794E-05  1.71164244E-04 -1.24155613E-04  4.95400095E-06
 -5.05303069E-05  3.90623898E-05 -1.50112948E-06  3.22278390E-06  2.95803743E-06
 -2.09777526E-05 -5.49258118E-07  7.24303753E-05  9.89012918E-05 -2.14038049E-07
  1.34535432E-05 -1.57186497E-07 -2.72713084E-04 -4.69881716E-03 -2.10867435E-04