 Entering Gaussian System, Link 0=g16
 Input=hoono_d1_192p4108.gjf
 Output=hoono_d1_192p4108.log
 Initial command:
 /sw/contrib/gaussian/g16/B01/g16/l1.exe "/scr/Gau-5545.inp" -scrdir="/scr/"
 Entering Link 1 = /sw/contrib/gaussian/g16/B01/g16/l1.exe PID=      5546.
  
 Copyright (c) 1988-2017, Gaussian, Inc.  All Rights Reserved.
  
 This is part of the Gaussian(R) 16 program.  It is based on
 the Gaussian(R) 09 system (copyright 2009, Gaussian, Inc.),
 the Gaussian(R) 03 system (copyright 2003, Gaussian, Inc.),
 the Gaussian(R) 98 system (copyright 1998, Gaussian, Inc.),
 the Gaussian(R) 94 system (copyright 1995, Gaussian, Inc.),
 the Gaussian 92(TM) system (copyright 1992, Gaussian, Inc.),
 the Gaussian 90(TM) system (copyright 1990, Gaussian, Inc.),
 the Gaussian 88(TM) system (copyright 1988, Gaussian, Inc.),
 the Gaussian 86(TM) system (copyright 1986, Carnegie Mellon
 University), and the Gaussian 82(TM) system (copyright 1983,
 Carnegie Mellon University). Gaussian is a federally registered
 trademark of Gaussian, Inc.
  
 This software contains proprietary and confidential information,
 including trade secrets, belonging to Gaussian, Inc.
  
 This software is provided under written license and may be
 used, copied, transmitted, or stored only in accord with that
 written license.
  
 The following legend is applicable only to US Government
 contracts under FAR:
  
                    RESTRICTED RIGHTS LEGEND
  
 Use, reproduction and disclosure by the US Government is
 subject to restrictions as set forth in subparagraphs (a)
 and (c) of the Commercial Computer Software - Restricted
 Rights clause in FAR 52.227-19.
  
 Gaussian, Inc.
 340 Quinnipiac St., Bldg. 40, Wallingford CT 06492
  
  
 ---------------------------------------------------------------
 Warning -- This program may not be used in any manner that
 competes with the business of Gaussian, Inc. or will provide
 assistance to any competitor of Gaussian, Inc.  The licensee
 of this program is prohibited from giving any competitor of
 Gaussian, Inc. access to this program.  By using this program,
 the user acknowledges that Gaussian, Inc. is engaged in the
 business of creating and licensing software in the field of
 computational chemistry and represents and warrants to the
 licensee that it is not a competitor of Gaussian, Inc. and that
 it will not use this program in any manner prohibited above.
 ---------------------------------------------------------------
  

 Cite this work as:
 Gaussian 16, Revision B.01,
 M. J. Frisch, G. W. Trucks, H. B. Schlegel, G. E. Scuseria, 
 M. A. Robb, J. R. Cheeseman, G. Scalmani, V. Barone, 
 G. A. Petersson, H. Nakatsuji, X. Li, M. Caricato, A. V. Marenich, 
 J. Bloino, B. G. Janesko, R. Gomperts, B. Mennucci, H. P. Hratchian, 
 J. V. Ortiz, A. F. Izmaylov, J. L. Sonnenberg, D. Williams-Young, 
 F. Ding, F. Lipparini, F. Egidi, J. Goings, B. Peng, A. Petrone, 
 T. Henderson, D. Ranasinghe, V. G. Zakrzewski, J. Gao, N. Rega, 
 G. Zheng, W. Liang, M. Hada, M. Ehara, K. Toyota, R. Fukuda, 
 J. Hasegawa, M. Ishida, T. Nakajima, Y. Honda, O. Kitao, H. Nakai, 
 T. Vreven, K. Throssell, J. A. Montgomery, Jr., J. E. Peralta, 
 F. Ogliaro, M. J. Bearpark, J. J. Heyd, E. N. Brothers, K. N. Kudin, 
 V. N. Staroverov, T. A. Keith, R. Kobayashi, J. Normand, 
 K. Raghavachari, A. P. Rendell, J. C. Burant, S. S. Iyengar, 
 J. Tomasi, M. Cossi, J. M. Millam, M. Klene, C. Adamo, R. Cammi, 
 J. W. Ochterski, R. L. Martin, K. Morokuma, O. Farkas, 
 J. B. Foresman, and D. J. Fox, Gaussian, Inc., Wallingford CT, 2016.
 
 ******************************************
 Gaussian 16:  ES64L-G16RevB.01 20-Dec-2017
                14-Feb-2022 
 ******************************************
 %nproc=28
 Will use up to   28 processors via shared memory.
 %mem=120GB
 %chk=hoono_d1_192p4108.chk
 -------------------------------------
 #p SP mp2/aug-cc-pvtz density=current
 -------------------------------------
 1/30=1,38=1,172=1/1;
 2/12=2,17=6,18=5,40=1/2;
 3/5=16,6=1,7=10,11=9,25=1,30=1,71=1/1,2,3;
 4//1;
 5/5=2,38=5/2;
 8/6=4,10=1/1;
 9/15=1,16=-3/6;
 10/5=1,13=10/2;
 6/7=2,8=2,9=2,10=2,22=-1/1;
 99/5=1,9=1/99;
 Leave Link    1 at Mon Feb 14 22:13:50 2022, MaxMem= 16106127360 cpu:               3.1 elap:               0.1
 (Enter /sw/contrib/gaussian/g16/B01/g16/l101.exe)
 -----
 title
 -----
 Symbolic Z-matrix:
 Charge =  0 Multiplicity = 1
 H
 O                    1    r1
 O                    2    r2       1    a1
 N                    3    r3       2    a2       1    d1       0
 O                    4    r4       3    a3       2    d2       0
       Variables:
  r1                    0.96898                  
  r2                    1.45492                  
  r3                    1.45878                  
  r4                    1.17073                  
  a1                   97.59495                  
  a2                  102.29752                  
  a3                  109.06955                  
  d1                  192.41083                  
  d2                  180.                       
 
 ITRead=  0  0  0  0  0
 MicOpt= -1 -1 -1 -1 -1
 NAtoms=      5 NQM=        5 NQMF=       0 NMMI=      0 NMMIF=      0
                NMic=       0 NMicF=      0.
                    Isotopes and Nuclear Properties:
 (Nuclear quadrupole moments (NQMom) in fm**2, nuclear magnetic moments (NMagM)
  in nuclear magnetons)

  Atom         1           2           3           4           5
 IAtWgt=           1          16          16          14          16
 AtmWgt=   1.0078250  15.9949146  15.9949146  14.0030740  15.9949146
 NucSpn=           1           0           0           2           0
 AtZEff=  -0.0000000  -0.0000000  -0.0000000  -0.0000000  -0.0000000
 NQMom=    0.0000000   0.0000000   0.0000000   2.0440000   0.0000000
 NMagM=    2.7928460   0.0000000   0.0000000   0.4037610   0.0000000
 AtZNuc=   1.0000000   8.0000000   8.0000000   7.0000000   8.0000000
 Leave Link  101 at Mon Feb 14 22:13:50 2022, MaxMem= 16106127360 cpu:               2.5 elap:               0.1
 (Enter /sw/contrib/gaussian/g16/B01/g16/l202.exe)
                          Input orientation:                          
 ---------------------------------------------------------------------
 Center     Atomic      Atomic             Coordinates (Angstroms)
 Number     Number       Type             X           Y           Z
 ---------------------------------------------------------------------
      1          1           0        0.000000    0.000000    0.000000
      2          8           0        0.000000    0.000000    0.968976
      3          8           0        1.442156    0.000000    1.161271
      4          7           0        1.566154   -0.306328    2.582129
      5          8           0        2.700696   -0.335998    2.869426
 ---------------------------------------------------------------------
                    Distance matrix (angstroms):
                    1          2          3          4          5
     1  H    0.000000
     2  O    0.968976   0.000000
     3  O    1.851584   1.454919   0.000000
     4  N    3.035468   2.269127   1.458784   0.000000
     5  O    3.954777   3.319392   2.148165   1.170729   0.000000
 Stoichiometry    HNO3
 Framework group  C1[X(HNO3)]
 Deg. of freedom     9
 Full point group                 C1      NOp   1
 Largest Abelian subgroup         C1      NOp   1
 Largest concise Abelian subgroup C1      NOp   1
                         Standard orientation:                         
 ---------------------------------------------------------------------
 Center     Atomic      Atomic             Coordinates (Angstroms)
 Number     Number       Type             X           Y           Z
 ---------------------------------------------------------------------
      1          1           0        2.237816    0.422219    0.172626
      2          8           0        1.599399   -0.282105   -0.015165
      3          8           0        0.400160    0.541662   -0.020024
      4          7           0       -0.662864   -0.456964    0.007837
      5          8           0       -1.699279    0.087509    0.006753
 ---------------------------------------------------------------------
 Rotational constants (GHZ):          54.8186792           5.0119278           4.5953504
 Leave Link  202 at Mon Feb 14 22:13:50 2022, MaxMem= 16106127360 cpu:               0.2 elap:               0.0
 (Enter /sw/contrib/gaussian/g16/B01/g16/l301.exe)
 Standard basis: Aug-CC-pVTZ (5D, 7F)
 Ernie: Thresh=  0.10000D-02 Tol=  0.10000D-05 Strict=F.
 Ernie:  12 primitive shells out of 131 were deleted.
 There are   245 symmetry adapted cartesian basis functions of A   symmetry.
 There are   207 symmetry adapted basis functions of A   symmetry.
   207 basis functions,   315 primitive gaussians,   245 cartesian basis functions
    16 alpha electrons       16 beta electrons
       nuclear repulsion energy       116.8786200076 Hartrees.
 IExCor=    0 DFT=F Ex=HF Corr=None ExCW=0 ScaHFX=  1.000000
 ScaDFX=  1.000000  1.000000  1.000000  1.000000 ScalE2=  1.000000  1.000000
 IRadAn=      5 IRanWt=     -1 IRanGd=            0 ICorTp=0 IEmpDi=  4
 NAtoms=    5 NActive=    5 NUniq=    5 SFac= 1.00D+00 NAtFMM=   60 NAOKFM=F Big=F
 Integral buffers will be    131072 words long.
 Raffenetti 1 integral format.
 Two-electron integral symmetry is turned on.
 Leave Link  301 at Mon Feb 14 22:13:50 2022, MaxMem= 16106127360 cpu:               1.8 elap:               0.1
 (Enter /sw/contrib/gaussian/g16/B01/g16/l302.exe)
 NPDir=0 NMtPBC=     1 NCelOv=     1 NCel=       1 NClECP=     1 NCelD=      1
         NCelK=      1 NCelE2=     1 NClLst=     1 CellRange=     0.0.
 One-electron integrals computed using PRISM.
 One-electron integral symmetry used in STVInt
 NBasis=   207 RedAO= T EigKep=  1.83D-04  NBF=   207
 NBsUse=   207 1.00D-06 EigRej= -1.00D+00 NBFU=   207
 Leave Link  302 at Mon Feb 14 22:13:50 2022, MaxMem= 16106127360 cpu:               4.7 elap:               0.2
 (Enter /sw/contrib/gaussian/g16/B01/g16/l303.exe)
 DipDrv:  MaxL=1.
 Leave Link  303 at Mon Feb 14 22:13:50 2022, MaxMem= 16106127360 cpu:               0.8 elap:               0.1
 (Enter /sw/contrib/gaussian/g16/B01/g16/l401.exe)
 ExpMin= 2.53D-02 ExpMax= 1.53D+04 ExpMxC= 5.22D+02 IAcc=3 IRadAn=         5 AccDes= 0.00D+00
 Harris functional with IExCor=  205 and IRadAn=       5 diagonalized for initial guess.
 HarFok:  IExCor=  205 AccDes= 0.00D+00 IRadAn=         5 IDoV= 1 UseB2=F ITyADJ=14
 ICtDFT=  3500011 ScaDFX=  1.000000  1.000000  1.000000  1.000000
 FoFCou: FMM=F IPFlag=           0 FMFlag=      100000 FMFlg1=           0
         NFxFlg=           0 DoJE=T BraDBF=F KetDBF=T FulRan=T
         wScrn=  0.000000 ICntrl=       500 IOpCl=  0 I1Cent=   200000004 NGrid=           0
         NMat0=    1 NMatS0=      1 NMatT0=    0 NMatD0=    1 NMtDS0=    0 NMtDT0=    0
 Petite list used in FoFCou.
 Harris En= -279.628780828514    
 JPrj=0 DoOrth=F DoCkMO=F.
 Leave Link  401 at Mon Feb 14 22:13:51 2022, MaxMem= 16106127360 cpu:               8.1 elap:               0.4
 (Enter /sw/contrib/gaussian/g16/B01/g16/l502.exe)
 Keep R1 ints in memory in canonical form, NReq=245616981.
 FoFCou: FMM=F IPFlag=           0 FMFlag=           0 FMFlg1=           0
         NFxFlg=           0 DoJE=F BraDBF=F KetDBF=F FulRan=T
         wScrn=  0.000000 ICntrl=       600 IOpCl=  0 I1Cent=           0 NGrid=           0
         NMat0=    1 NMatS0=  21528 NMatT0=    0 NMatD0=    1 NMtDS0=    0 NMtDT0=    0
 Symmetry not used in FoFCou.
 Two-electron integral symmetry not used.
 Closed shell SCF:
 Using DIIS extrapolation, IDIIS=  1040.
 NGot= 16106127360 LenX= 15874260251 LenY= 15874199785
 Requested convergence on RMS density matrix=1.00D-08 within 128 cycles.
 Requested convergence on MAX density matrix=1.00D-06.
 Requested convergence on             energy=1.00D-06.
 No special actions if energy rises.

 Cycle   1  Pass 1  IDiag  1:
 E= -279.370653756588    
 DIIS: error= 2.28D-02 at cycle   1 NSaved=   1.
 NSaved= 1 IEnMin= 1 EnMin= -279.370653756588     IErMin= 1 ErrMin= 2.28D-02
 ErrMax= 2.28D-02  0.00D+00 EMaxC= 1.00D-01 BMatC= 4.38D-01 BMatP= 4.38D-01
 IDIUse=3 WtCom= 7.72D-01 WtEn= 2.28D-01
 Coeff-Com:  0.100D+01
 Coeff-En:   0.100D+01
 Coeff:      0.100D+01
 Gap=     0.517 Goal=   None    Shift=    0.000
 GapD=    0.517 DampG=2.000 DampE=0.500 DampFc=1.0000 IDamp=-1.
 RMSDP=1.62D-03 MaxDP=9.91D-02              OVMax= 1.12D-01

 Cycle   2  Pass 1  IDiag  1:
 E= -279.452577894750     Delta-E=       -0.081924138163 Rises=F Damp=F
 DIIS: error= 1.69D-02 at cycle   2 NSaved=   2.
 NSaved= 2 IEnMin= 2 EnMin= -279.452577894750     IErMin= 2 ErrMin= 1.69D-02
 ErrMax= 1.69D-02  0.00D+00 EMaxC= 1.00D-01 BMatC= 7.18D-02 BMatP= 4.38D-01
 IDIUse=3 WtCom= 8.31D-01 WtEn= 1.69D-01
 Coeff-Com:  0.195D+00 0.805D+00
 Coeff-En:   0.000D+00 0.100D+01
 Coeff:      0.162D+00 0.838D+00
 Gap=     0.531 Goal=   None    Shift=    0.000
 RMSDP=8.99D-04 MaxDP=3.72D-02 DE=-8.19D-02 OVMax= 6.63D-02

 Cycle   3  Pass 1  IDiag  1:
 E= -279.481873007722     Delta-E=       -0.029295112971 Rises=F Damp=F
 DIIS: error= 9.73D-03 at cycle   3 NSaved=   3.
 NSaved= 3 IEnMin= 3 EnMin= -279.481873007722     IErMin= 3 ErrMin= 9.73D-03
 ErrMax= 9.73D-03  0.00D+00 EMaxC= 1.00D-01 BMatC= 2.84D-02 BMatP= 7.18D-02
 IDIUse=3 WtCom= 9.03D-01 WtEn= 9.73D-02
 Coeff-Com: -0.330D-01 0.377D+00 0.656D+00
 Coeff-En:   0.000D+00 0.238D+00 0.762D+00
 Coeff:     -0.298D-01 0.363D+00 0.666D+00
 Gap=     0.509 Goal=   None    Shift=    0.000
 RMSDP=3.74D-04 MaxDP=1.54D-02 DE=-2.93D-02 OVMax= 3.77D-02

 Cycle   4  Pass 1  IDiag  1:
 E= -279.500755292589     Delta-E=       -0.018882284867 Rises=F Damp=F
 DIIS: error= 1.22D-03 at cycle   4 NSaved=   4.
 NSaved= 4 IEnMin= 4 EnMin= -279.500755292589     IErMin= 4 ErrMin= 1.22D-03
 ErrMax= 1.22D-03  0.00D+00 EMaxC= 1.00D-01 BMatC= 4.85D-04 BMatP= 2.84D-02
 IDIUse=3 WtCom= 9.88D-01 WtEn= 1.22D-02
 Coeff-Com: -0.117D-01 0.576D-01 0.158D+00 0.796D+00
 Coeff-En:   0.000D+00 0.000D+00 0.000D+00 0.100D+01
 Coeff:     -0.115D-01 0.569D-01 0.156D+00 0.799D+00
 Gap=     0.501 Goal=   None    Shift=    0.000
 RMSDP=8.99D-05 MaxDP=2.18D-03 DE=-1.89D-02 OVMax= 1.07D-02

 Cycle   5  Pass 1  IDiag  1:
 E= -279.501423517673     Delta-E=       -0.000668225084 Rises=F Damp=F
 DIIS: error= 6.92D-04 at cycle   5 NSaved=   5.
 NSaved= 5 IEnMin= 5 EnMin= -279.501423517673     IErMin= 5 ErrMin= 6.92D-04
 ErrMax= 6.92D-04  0.00D+00 EMaxC= 1.00D-01 BMatC= 8.68D-05 BMatP= 4.85D-04
 IDIUse=3 WtCom= 9.93D-01 WtEn= 6.92D-03
 Coeff-Com:  0.612D-02-0.721D-01-0.118D+00 0.202D-01 0.116D+01
 Coeff-En:   0.000D+00 0.000D+00 0.000D+00 0.000D+00 0.100D+01
 Coeff:      0.608D-02-0.716D-01-0.117D+00 0.201D-01 0.116D+01
 Gap=     0.501 Goal=   None    Shift=    0.000
 RMSDP=7.60D-05 MaxDP=2.09D-03 DE=-6.68D-04 OVMax= 1.09D-02

 Cycle   6  Pass 1  IDiag  1:
 E= -279.501736572816     Delta-E=       -0.000313055142 Rises=F Damp=F
 DIIS: error= 2.80D-04 at cycle   6 NSaved=   6.
 NSaved= 6 IEnMin= 6 EnMin= -279.501736572816     IErMin= 6 ErrMin= 2.80D-04
 ErrMax= 2.80D-04  0.00D+00 EMaxC= 1.00D-01 BMatC= 1.66D-05 BMatP= 8.68D-05
 IDIUse=3 WtCom= 9.97D-01 WtEn= 2.80D-03
 Coeff-Com:  0.596D-03 0.151D-02 0.459D-02-0.130D+00-0.230D+00 0.135D+01
 Coeff-En:   0.000D+00 0.000D+00 0.000D+00 0.000D+00 0.000D+00 0.100D+01
 Coeff:      0.595D-03 0.150D-02 0.457D-02-0.129D+00-0.229D+00 0.135D+01
 Gap=     0.501 Goal=   None    Shift=    0.000
 RMSDP=4.51D-05 MaxDP=1.05D-03 DE=-3.13D-04 OVMax= 5.50D-03

 Cycle   7  Pass 1  IDiag  1:
 E= -279.501808675502     Delta-E=       -0.000072102687 Rises=F Damp=F
 DIIS: error= 9.71D-05 at cycle   7 NSaved=   7.
 NSaved= 7 IEnMin= 7 EnMin= -279.501808675502     IErMin= 7 ErrMin= 9.71D-05
 ErrMax= 9.71D-05  0.00D+00 EMaxC= 1.00D-01 BMatC= 4.49D-06 BMatP= 1.66D-05
 IDIUse=1 WtCom= 1.00D+00 WtEn= 0.00D+00
 Coeff-Com: -0.935D-03 0.134D-01 0.265D-01-0.241D-01-0.286D+00 0.389D+00
 Coeff-Com:  0.882D+00
 Coeff:     -0.935D-03 0.134D-01 0.265D-01-0.241D-01-0.286D+00 0.389D+00
 Coeff:      0.882D+00
 Gap=     0.501 Goal=   None    Shift=    0.000
 RMSDP=1.32D-05 MaxDP=3.77D-04 DE=-7.21D-05 OVMax= 1.54D-03

 Cycle   8  Pass 1  IDiag  1:
 E= -279.501817524648     Delta-E=       -0.000008849146 Rises=F Damp=F
 DIIS: error= 4.73D-05 at cycle   8 NSaved=   8.
 NSaved= 8 IEnMin= 8 EnMin= -279.501817524648     IErMin= 8 ErrMin= 4.73D-05
 ErrMax= 4.73D-05  0.00D+00 EMaxC= 1.00D-01 BMatC= 6.05D-07 BMatP= 4.49D-06
 IDIUse=1 WtCom= 1.00D+00 WtEn= 0.00D+00
 Coeff-Com: -0.449D-03 0.345D-02 0.761D-02 0.274D-01-0.411D-01-0.197D+00
 Coeff-Com:  0.172D+00 0.103D+01
 Coeff:     -0.449D-03 0.345D-02 0.761D-02 0.274D-01-0.411D-01-0.197D+00
 Coeff:      0.172D+00 0.103D+01
 Gap=     0.501 Goal=   None    Shift=    0.000
 RMSDP=6.89D-06 MaxDP=2.02D-04 DE=-8.85D-06 OVMax= 7.46D-04

 Cycle   9  Pass 1  IDiag  1:
 E= -279.501819293901     Delta-E=       -0.000001769254 Rises=F Damp=F
 DIIS: error= 1.54D-05 at cycle   9 NSaved=   9.
 NSaved= 9 IEnMin= 9 EnMin= -279.501819293901     IErMin= 9 ErrMin= 1.54D-05
 ErrMax= 1.54D-05  0.00D+00 EMaxC= 1.00D-01 BMatC= 6.91D-08 BMatP= 6.05D-07
 IDIUse=1 WtCom= 1.00D+00 WtEn= 0.00D+00
 Coeff-Com:  0.123D-03-0.172D-02-0.308D-02-0.204D-02 0.342D-01-0.349D-04
 Coeff-Com: -0.167D+00-0.102D+00 0.124D+01
 Coeff:      0.123D-03-0.172D-02-0.308D-02-0.204D-02 0.342D-01-0.349D-04
 Coeff:     -0.167D+00-0.102D+00 0.124D+01
 Gap=     0.501 Goal=   None    Shift=    0.000
 RMSDP=1.94D-06 MaxDP=5.16D-05 DE=-1.77D-06 OVMax= 1.70D-04

 Cycle  10  Pass 1  IDiag  1:
 E= -279.501819454226     Delta-E=       -0.000000160325 Rises=F Damp=F
 DIIS: error= 3.91D-06 at cycle  10 NSaved=  10.
 NSaved=10 IEnMin=10 EnMin= -279.501819454226     IErMin=10 ErrMin= 3.91D-06
 ErrMax= 3.91D-06  0.00D+00 EMaxC= 1.00D-01 BMatC= 5.56D-09 BMatP= 6.91D-08
 IDIUse=1 WtCom= 1.00D+00 WtEn= 0.00D+00
 Coeff-Com:  0.310D-04-0.243D-03-0.324D-03-0.270D-02 0.165D-02 0.196D-01
 Coeff-Com: -0.130D-01-0.745D-01-0.810D-01 0.115D+01
 Coeff:      0.310D-04-0.243D-03-0.324D-03-0.270D-02 0.165D-02 0.196D-01
 Coeff:     -0.130D-01-0.745D-01-0.810D-01 0.115D+01
 Gap=     0.501 Goal=   None    Shift=    0.000
 RMSDP=5.09D-07 MaxDP=2.10D-05 DE=-1.60D-07 OVMax= 4.05D-05

 Cycle  11  Pass 1  IDiag  1:
 E= -279.501819466982     Delta-E=       -0.000000012755 Rises=F Damp=F
 DIIS: error= 1.77D-06 at cycle  11 NSaved=  11.
 NSaved=11 IEnMin=11 EnMin= -279.501819466982     IErMin=11 ErrMin= 1.77D-06
 ErrMax= 1.77D-06  0.00D+00 EMaxC= 1.00D-01 BMatC= 6.77D-10 BMatP= 5.56D-09
 IDIUse=1 WtCom= 1.00D+00 WtEn= 0.00D+00
 Coeff-Com: -0.215D-04 0.246D-03 0.492D-03 0.543D-03-0.432D-02-0.366D-02
 Coeff-Com:  0.213D-01 0.314D-01-0.139D+00-0.183D+00 0.128D+01
 Coeff:     -0.215D-04 0.246D-03 0.492D-03 0.543D-03-0.432D-02-0.366D-02
 Coeff:      0.213D-01 0.314D-01-0.139D+00-0.183D+00 0.128D+01
 Gap=     0.501 Goal=   None    Shift=    0.000
 RMSDP=1.85D-07 MaxDP=6.50D-06 DE=-1.28D-08 OVMax= 1.66D-05

 Cycle  12  Pass 1  IDiag  1:
 E= -279.501819468921     Delta-E=       -0.000000001939 Rises=F Damp=F
 DIIS: error= 5.38D-07 at cycle  12 NSaved=  12.
 NSaved=12 IEnMin=12 EnMin= -279.501819468921     IErMin=12 ErrMin= 5.38D-07
 ErrMax= 5.38D-07  0.00D+00 EMaxC= 1.00D-01 BMatC= 7.96D-11 BMatP= 6.77D-10
 IDIUse=1 WtCom= 1.00D+00 WtEn= 0.00D+00
 Coeff-Com:  0.142D-05-0.314D-04-0.687D-04 0.185D-03 0.113D-02-0.232D-02
 Coeff-Com: -0.435D-02 0.533D-02 0.438D-01-0.115D+00-0.296D+00 0.137D+01
 Coeff:      0.142D-05-0.314D-04-0.687D-04 0.185D-03 0.113D-02-0.232D-02
 Coeff:     -0.435D-02 0.533D-02 0.438D-01-0.115D+00-0.296D+00 0.137D+01
 Gap=     0.501 Goal=   None    Shift=    0.000
 RMSDP=8.09D-08 MaxDP=2.83D-06 DE=-1.94D-09 OVMax= 8.87D-06

 Cycle  13  Pass 1  IDiag  1:
 E= -279.501819469213     Delta-E=       -0.000000000292 Rises=F Damp=F
 DIIS: error= 1.80D-07 at cycle  13 NSaved=  13.
 NSaved=13 IEnMin=13 EnMin= -279.501819469213     IErMin=13 ErrMin= 1.80D-07
 ErrMax= 1.80D-07  0.00D+00 EMaxC= 1.00D-01 BMatC= 7.14D-12 BMatP= 7.96D-11
 IDIUse=1 WtCom= 1.00D+00 WtEn= 0.00D+00
 Coeff-Com:  0.141D-05-0.147D-04-0.235D-04-0.106D-03 0.977D-04 0.945D-03
 Coeff-Com: -0.787D-03-0.394D-02-0.810D-03 0.506D-01-0.306D-01-0.406D+00
 Coeff-Com:  0.139D+01
 Coeff:      0.141D-05-0.147D-04-0.235D-04-0.106D-03 0.977D-04 0.945D-03
 Coeff:     -0.787D-03-0.394D-02-0.810D-03 0.506D-01-0.306D-01-0.406D+00
 Coeff:      0.139D+01
 Gap=     0.501 Goal=   None    Shift=    0.000
 RMSDP=2.94D-08 MaxDP=6.56D-07 DE=-2.92D-10 OVMax= 4.33D-06

 Cycle  14  Pass 1  IDiag  1:
 E= -279.501819469248     Delta-E=       -0.000000000035 Rises=F Damp=F
 DIIS: error= 1.12D-07 at cycle  14 NSaved=  14.
 NSaved=14 IEnMin=14 EnMin= -279.501819469248     IErMin=14 ErrMin= 1.12D-07
 ErrMax= 1.12D-07  0.00D+00 EMaxC= 1.00D-01 BMatC= 1.49D-12 BMatP= 7.14D-12
 IDIUse=1 WtCom= 1.00D+00 WtEn= 0.00D+00
 Coeff-Com: -0.609D-06 0.846D-05 0.145D-04 0.257D-04-0.167D-03-0.840D-04
 Coeff-Com:  0.699D-03 0.991D-03-0.430D-02-0.616D-02 0.377D-01 0.205D-01
 Coeff-Com: -0.558D+00 0.151D+01
 Coeff:     -0.609D-06 0.846D-05 0.145D-04 0.257D-04-0.167D-03-0.840D-04
 Coeff:      0.699D-03 0.991D-03-0.430D-02-0.616D-02 0.377D-01 0.205D-01
 Coeff:     -0.558D+00 0.151D+01
 Gap=     0.501 Goal=   None    Shift=    0.000
 RMSDP=1.52D-08 MaxDP=4.37D-07 DE=-3.52D-11 OVMax= 2.70D-06

 Cycle  15  Pass 1  IDiag  1:
 E= -279.501819469259     Delta-E=       -0.000000000011 Rises=F Damp=F
 DIIS: error= 6.92D-08 at cycle  15 NSaved=  15.
 NSaved=15 IEnMin=15 EnMin= -279.501819469259     IErMin=15 ErrMin= 6.92D-08
 ErrMax= 6.92D-08  0.00D+00 EMaxC= 1.00D-01 BMatC= 4.84D-13 BMatP= 1.49D-12
 IDIUse=1 WtCom= 1.00D+00 WtEn= 0.00D+00
 Coeff-Com:  0.958D-07-0.229D-05-0.564D-05 0.962D-05 0.109D-03-0.198D-03
 Coeff-Com: -0.311D-03 0.204D-03 0.369D-02-0.881D-02-0.213D-01 0.102D+00
 Coeff-Com:  0.311D-01-0.123D+01 0.212D+01
 Coeff:      0.958D-07-0.229D-05-0.564D-05 0.962D-05 0.109D-03-0.198D-03
 Coeff:     -0.311D-03 0.204D-03 0.369D-02-0.881D-02-0.213D-01 0.102D+00
 Coeff:      0.311D-01-0.123D+01 0.212D+01
 Gap=     0.501 Goal=   None    Shift=    0.000
 RMSDP=1.46D-08 MaxDP=4.33D-07 DE=-1.13D-11 OVMax= 2.66D-06

 Cycle  16  Pass 1  IDiag  1:
 E= -279.501819469264     Delta-E=       -0.000000000005 Rises=F Damp=F
 DIIS: error= 2.19D-08 at cycle  16 NSaved=  16.
 NSaved=16 IEnMin=16 EnMin= -279.501819469264     IErMin=16 ErrMin= 2.19D-08
 ErrMax= 2.19D-08  0.00D+00 EMaxC= 1.00D-01 BMatC= 5.61D-14 BMatP= 4.84D-13
 IDIUse=1 WtCom= 1.00D+00 WtEn= 0.00D+00
 Coeff-Com:  0.589D-07-0.722D-06-0.213D-06-0.942D-05-0.827D-05 0.822D-04
 Coeff-Com: -0.522D-06-0.270D-03-0.519D-03 0.407D-02 0.587D-03-0.428D-01
 Coeff-Com:  0.116D+00 0.100D+00-0.723D+00 0.155D+01
 Coeff:      0.589D-07-0.722D-06-0.213D-06-0.942D-05-0.827D-05 0.822D-04
 Coeff:     -0.522D-06-0.270D-03-0.519D-03 0.407D-02 0.587D-03-0.428D-01
 Coeff:      0.116D+00 0.100D+00-0.723D+00 0.155D+01
 Gap=     0.501 Goal=   None    Shift=    0.000
 RMSDP=5.06D-09 MaxDP=1.50D-07 DE=-4.66D-12 OVMax= 9.39D-07

 SCF Done:  E(RHF) =  -279.501819469     A.U. after   16 cycles
            NFock= 16  Conv=0.51D-08     -V/T= 2.0024
 KE= 2.788455864826D+02 PE=-8.950832675127D+02 EE= 2.198572415532D+02
 Leave Link  502 at Mon Feb 14 22:13:59 2022, MaxMem= 16106127360 cpu:              64.9 elap:               8.3
 (Enter /sw/contrib/gaussian/g16/B01/g16/l801.exe)
 ExpMin= 2.53D-02 ExpMax= 1.53D+04 ExpMxC= 5.22D+02 IAcc=3 IRadAn=         5 AccDes= 0.00D+00
 HarFok:  IExCor=  205 AccDes= 0.00D+00 IRadAn=         5 IDoV=-2 UseB2=F ITyADJ=14
 ICtDFT= 12500011 ScaDFX=  1.000000  1.000000  1.000000  1.000000
 Largest valence mixing into a core orbital is  2.08D-04
 Largest core mixing into a valence orbital is  3.63D-05
 Range of M.O.s used for correlation:     5   207
 NBasis=   207 NAE=    16 NBE=    16 NFC=     4 NFV=     0
 NROrb=    203 NOA=    12 NOB=    12 NVA=   191 NVB=   191

 **** Warning!!: The largest alpha MO coefficient is  0.18034063D+02

 Leave Link  801 at Mon Feb 14 22:13:59 2022, MaxMem= 16106127360 cpu:               5.2 elap:               0.2
 (Enter /sw/contrib/gaussian/g16/B01/g16/l906.exe)
 Frozen-core derivative calculation, NFC=   4 NFV=   0.
 FulOut=F Deriv=T AODrv=F NAtomX=     5
   MMem=          76  MDisk=          12 MDiskD=          12
  W3Min=      811440 MinDsk=     1524655 NBas6D=         245
 NBas2D=       30762    NTT=       30135    LW2=     3500000
    MDV= 16105643525 MDiskM=      328645 NBas2p=       30466
 Fully in-core method, ICMem=   960157634.
 IMap=   1   2   3   4   5   6   7   8   9  10  11  12  13  14  15  16
 JobTyp=1 Pass  1 fully in-core, NPsUse= 28.
 Compute canonical integrals.
 FoFCou: FMM=F IPFlag=           0 FMFlag=           0 FMFlg1=           0
         NFxFlg=           0 DoJE=F BraDBF=F KetDBF=F FulRan=T
         wScrn=  0.000000 ICntrl=       600 IOpCl=  1 I1Cent=           0 NGrid=           0
         NMat0=    1 NMatS0=  30762 NMatT0=    0 NMatD0=    1 NMtDS0=    0 NMtDT0=    0
 Symmetry not used in FoFCou.
 Spin components of T(2) and E(2):
     alpha-alpha T2 =       0.3402760876D-01 E2=     -0.1224125092D+00
     alpha-beta  T2 =       0.1868598016D+00 E2=     -0.7002688721D+00
     beta-beta   T2 =       0.3402760876D-01 E2=     -0.1224125092D+00
 The integrals were generated   1 times.
 ANorm=    0.1120229896D+01
 E2 =    -0.9450938906D+00 EUMP2 =    -0.28044691335982D+03
 Leave Link  906 at Mon Feb 14 22:14:08 2022, MaxMem= 16106127360 cpu:             248.3 elap:               8.9
 (Enter /sw/contrib/gaussian/g16/B01/g16/l1002.exe)
 Minotr:  Closed shell wavefunction.
          Computing MP2/KS-MP2 derivatives.
          Using Z-Vector for PSCF gradient.
          Skipping F1 and S1 gradient terms here.
          Frozen-core window.
          Direct CPHF calculation.
          Differentiating once with respect to electric field.
                with respect to dipole field.
          Electric field/nuclear overlap derivatives assumed to be zero.
          Requested convergence is 1.0D-10 RMS, and 1.0D-09 maximum.
          NewPWx=F KeepS1=T KeepF1=T KeepIn=T MapXYZ=F SortEE=F KeepMc=T.
 Keep R1 ints in memory in canonical form, NReq=245621348.
 FoFCou: FMM=F IPFlag=           0 FMFlag=           0 FMFlg1=           0
         NFxFlg=           0 DoJE=F BraDBF=F KetDBF=F FulRan=T
         wScrn=  0.000000 ICntrl=       600 IOpCl=  0 I1Cent=           0 NGrid=           0
         NMat0=    1 NMatS0=  21528 NMatT0=    0 NMatD0=    1 NMtDS0=    0 NMtDT0=    0
 Symmetry not used in FoFCou.
 Two-electron integral symmetry not used.
          MDV=   16106127360 using IRadAn=       5.
          Solving linear equations separately, MaxMat=       0.
          There are     1 degrees of freedom in the 1st order CPHF.  IDoFFX=0 NUNeed=     1.
 LinEq1:  Iter=  0 NonCon=     1 RMS=5.95D-03 Max=1.28D-01 NDo=     1
 AX will form     1 AO Fock derivatives at one time.
 LinEq1:  Iter=  1 NonCon=     1 RMS=1.90D-03 Max=3.73D-02 NDo=     1
 LinEq1:  Iter=  2 NonCon=     1 RMS=8.67D-04 Max=1.20D-02 NDo=     1
 LinEq1:  Iter=  3 NonCon=     1 RMS=3.86D-04 Max=7.60D-03 NDo=     1
 LinEq1:  Iter=  4 NonCon=     1 RMS=1.19D-04 Max=1.64D-03 NDo=     1
 LinEq1:  Iter=  5 NonCon=     1 RMS=4.56D-05 Max=7.03D-04 NDo=     1
 LinEq1:  Iter=  6 NonCon=     1 RMS=2.04D-05 Max=2.36D-04 NDo=     1
 LinEq1:  Iter=  7 NonCon=     1 RMS=8.27D-06 Max=1.57D-04 NDo=     1
 LinEq1:  Iter=  8 NonCon=     1 RMS=3.65D-06 Max=5.47D-05 NDo=     1
 LinEq1:  Iter=  9 NonCon=     1 RMS=1.09D-06 Max=2.46D-05 NDo=     1
 LinEq1:  Iter= 10 NonCon=     1 RMS=2.90D-07 Max=8.16D-06 NDo=     1
 LinEq1:  Iter= 11 NonCon=     1 RMS=8.09D-08 Max=1.73D-06 NDo=     1
 LinEq1:  Iter= 12 NonCon=     1 RMS=2.03D-08 Max=2.03D-07 NDo=     1
 LinEq1:  Iter= 13 NonCon=     1 RMS=3.88D-09 Max=4.12D-08 NDo=     1
 LinEq1:  Iter= 14 NonCon=     1 RMS=6.33D-10 Max=9.99D-09 NDo=     1
 LinEq1:  Iter= 15 NonCon=     1 RMS=1.42D-10 Max=2.30D-09 NDo=     1
 LinEq1:  Iter= 16 NonCon=     0 RMS=3.69D-11 Max=4.96D-10 NDo=     1
 Linear equations converged to 1.000D-10 1.000D-09 after    16 iterations.
 End of Minotr F.D. properties file   721 does not exist.
 End of Minotr F.D. properties file   722 does not exist.
 End of Minotr F.D. properties file   788 does not exist.
 Leave Link 1002 at Mon Feb 14 22:14:17 2022, MaxMem= 16106127360 cpu:              45.1 elap:               8.8
 (Enter /sw/contrib/gaussian/g16/B01/g16/l601.exe)
 Copying SCF densities to generalized density rwf, IOpCl= 0 IROHF=0.

 **********************************************************************

            Population analysis using the MP2 Density.

 **********************************************************************

 Orbital symmetries:
       Occupied  (A) (A) (A) (A) (A) (A) (A) (A) (A) (A) (A) (A)
                 (A) (A) (A) (A)
       Virtual   (A) (A) (A) (A) (A) (A) (A) (A) (A) (A) (A) (A)
                 (A) (A) (A) (A) (A) (A) (A) (A) (A) (A) (A) (A)
                 (A) (A) (A) (A) (A) (A) (A) (A) (A) (A) (A) (A)
                 (A) (A) (A) (A) (A) (A) (A) (A) (A) (A) (A) (A)
                 (A) (A) (A) (A) (A) (A) (A) (A) (A) (A) (A) (A)
                 (A) (A) (A) (A) (A) (A) (A) (A) (A) (A) (A) (A)
                 (A) (A) (A) (A) (A) (A) (A) (A) (A) (A) (A) (A)
                 (A) (A) (A) (A) (A) (A) (A) (A) (A) (A) (A) (A)
                 (A) (A) (A) (A) (A) (A) (A) (A) (A) (A) (A) (A)
                 (A) (A) (A) (A) (A) (A) (A) (A) (A) (A) (A) (A)
                 (A) (A) (A) (A) (A) (A) (A) (A) (A) (A) (A) (A)
                 (A) (A) (A) (A) (A) (A) (A) (A) (A) (A) (A) (A)
                 (A) (A) (A) (A) (A) (A) (A) (A) (A) (A) (A) (A)
                 (A) (A) (A) (A) (A) (A) (A) (A) (A) (A) (A) (A)
                 (A) (A) (A) (A) (A) (A) (A) (A) (A) (A) (A) (A)
                 (A) (A) (A) (A) (A) (A) (A) (A) (A) (A) (A)
 The electronic state is 1-A.
 Alpha  occ. eigenvalues --  -20.69106 -20.68426 -20.66015 -15.81269  -1.62403
 Alpha  occ. eigenvalues --   -1.49584  -1.25444  -0.94809  -0.77248  -0.75951
 Alpha  occ. eigenvalues --   -0.71299  -0.67874  -0.61982  -0.58874  -0.48714
 Alpha  occ. eigenvalues --   -0.47162
 Alpha virt. eigenvalues --    0.02958   0.07164   0.08592   0.10176   0.13229
 Alpha virt. eigenvalues --    0.13506   0.14388   0.15444   0.17810   0.19409
 Alpha virt. eigenvalues --    0.19918   0.20665   0.22080   0.23535   0.23724
 Alpha virt. eigenvalues --    0.26709   0.29216   0.29971   0.31203   0.34349
 Alpha virt. eigenvalues --    0.35445   0.38759   0.41590   0.42891   0.52715
 Alpha virt. eigenvalues --    0.53126   0.55861   0.58087   0.62597   0.63810
 Alpha virt. eigenvalues --    0.67341   0.68350   0.70690   0.71338   0.71877
 Alpha virt. eigenvalues --    0.73267   0.74844   0.78517   0.79382   0.81064
 Alpha virt. eigenvalues --    0.81455   0.83463   0.86756   0.90836   0.91511
 Alpha virt. eigenvalues --    0.93437   0.95507   0.97089   0.98863   1.01524
 Alpha virt. eigenvalues --    1.05427   1.06007   1.08415   1.11280   1.12765
 Alpha virt. eigenvalues --    1.19994   1.21853   1.23447   1.33639   1.35099
 Alpha virt. eigenvalues --    1.38936   1.45594   1.49336   1.50812   1.53684
 Alpha virt. eigenvalues --    1.56732   1.58112   1.60174   1.66313   1.66707
 Alpha virt. eigenvalues --    1.70658   1.78822   1.82926   1.83743   1.88163
 Alpha virt. eigenvalues --    1.90404   1.95624   1.98164   2.02946   2.07751
 Alpha virt. eigenvalues --    2.11419   2.12680   2.15667   2.22072   2.25696
 Alpha virt. eigenvalues --    2.27274   2.28652   2.31194   2.34341   2.38800
 Alpha virt. eigenvalues --    2.40261   2.44944   2.45359   2.46716   2.47889
 Alpha virt. eigenvalues --    2.50770   2.58934   2.59880   2.61831   2.62695
 Alpha virt. eigenvalues --    2.63853   2.66510   2.74922   2.82962   2.84546
 Alpha virt. eigenvalues --    2.88742   2.90175   2.91606   2.96034   3.02025
 Alpha virt. eigenvalues --    3.07734   3.11927   3.20450   3.22965   3.31586
 Alpha virt. eigenvalues --    3.34053   3.51277   3.64880   3.83716   3.84952
 Alpha virt. eigenvalues --    4.13407   4.16510   4.20525   4.25366   4.33838
 Alpha virt. eigenvalues --    4.39372   4.47762   4.52531   4.64905   4.71110
 Alpha virt. eigenvalues --    4.80387   4.82195   4.82595   4.89719   5.02252
 Alpha virt. eigenvalues --    5.07157   5.10064   5.14605   5.18386   5.25153
 Alpha virt. eigenvalues --    5.27155   5.30321   5.33046   5.35116   5.59825
 Alpha virt. eigenvalues --    5.67360   5.75975   5.83301   5.95404   6.16979
 Alpha virt. eigenvalues --    6.31230   6.34255   6.39204   6.49441   6.50505
 Alpha virt. eigenvalues --    6.62376   6.65277   6.70679   6.74624   6.77013
 Alpha virt. eigenvalues --    6.83556   6.89831   7.01089   7.05409   7.05806
 Alpha virt. eigenvalues --    7.09502   7.12774   7.14558   7.19060   7.22495
 Alpha virt. eigenvalues --    7.23764   7.30325   7.32200   7.35800   7.39040
 Alpha virt. eigenvalues --    7.42797   7.48645   7.60610   7.61812   7.63421
 Alpha virt. eigenvalues --    7.67642   7.78415   7.88347   8.09127   8.31059
 Alpha virt. eigenvalues --    8.39797   8.54048  13.38369  14.40154  15.16047
 Alpha virt. eigenvalues --   16.14991
          Condensed to atoms (all electrons):
               1          2          3          4          5
     1  H    0.590470   0.128479   0.020181   0.011388  -0.000588
     2  O    0.128479   8.320087  -0.172118  -0.089725   0.015011
     3  O    0.020181  -0.172118   8.466739  -0.129130  -0.038668
     4  N    0.011388  -0.089725  -0.129130   6.969676  -0.054259
     5  O   -0.000588   0.015011  -0.038668  -0.054259   8.271884
 Mulliken charges:
               1
     1  H    0.250070
     2  O   -0.201734
     3  O   -0.147005
     4  N    0.292049
     5  O   -0.193379
 Sum of Mulliken charges =  -0.00000
 Mulliken charges with hydrogens summed into heavy atoms:
               1
     2  O    0.048335
     3  O   -0.147005
     4  N    0.292049
     5  O   -0.193379
 Electronic spatial extent (au):  <R**2>=            252.8254
 Charge=             -0.0000 electrons
 Dipole moment (field-independent basis, Debye):
    X=              1.2002    Y=              0.7674    Z=              0.3275  Tot=              1.4617
 Quadrupole moment (field-independent basis, Debye-Ang):
   XX=            -18.1016   YY=            -23.1260   ZZ=            -21.9252
   XY=              2.7133   XZ=              0.8614   YZ=              0.2616
 Traceless Quadrupole moment (field-independent basis, Debye-Ang):
   XX=              2.9493   YY=             -2.0751   ZZ=             -0.8743
   XY=              2.7133   XZ=              0.8614   YZ=              0.2616
 Octapole moment (field-independent basis, Debye-Ang**2):
  XXX=             17.8059  YYY=              1.7477  ZZZ=              0.1127  XYY=              1.0195
  XXY=              5.9832  XXZ=              2.0584  XZZ=             -1.5936  YZZ=              0.2732
  YYZ=              0.0416  XYZ=              0.4461
 Hexadecapole moment (field-independent basis, Debye-Ang**3):
 XXXX=           -191.2311 YYYY=            -41.0869 ZZZZ=            -18.2990 XXXY=             11.5516
 XXXZ=              5.2080 YYYX=              0.9483 YYYZ=              0.2401 ZZZX=              0.3323
 ZZZY=              0.1773 XXYY=            -42.5953 XXZZ=            -41.2502 YYZZ=             -9.8634
 XXYZ=              1.0566 YYXZ=              0.2238 ZZXY=              0.5266
 N-N= 1.168786200076D+02 E-N=-8.958675667595D+02  KE= 2.801979630493D+02
 No NMR shielding tensors so no spin-rotation constants.
 Leave Link  601 at Mon Feb 14 22:14:18 2022, MaxMem= 16106127360 cpu:               4.6 elap:               0.2
 (Enter /sw/contrib/gaussian/g16/B01/g16/l9999.exe)
 1\1\GINC-N2118\SP\RMP2-FC\Aug-CC-pVTZ\H1N1O3\CGAVINH\14-Feb-2022\0\\#p
  SP mp2/aug-cc-pvtz density=current\\title\\0,1\H\O,1,0.96897556\O,2,1
 .45491931,1,97.59494903\N,3,1.45878406,2,102.29752444,1,192.41082716,0
 \O,4,1.17072885,3,109.06955123,2,180.,0\\Version=ES64L-G16RevB.01\Stat
 e=1-A\HF=-279.5018195\MP2=-280.4469134\RMSD=5.063e-09\Dipole=-0.146553
 1,-0.0249452,-0.5555148\Quadrupole=-1.4964821,-0.7663808,2.2628629,-0.
 0780024,2.0834642,0.0465162\PG=C01 [X(H1N1O3)]\\@


 IT MATTERS NOT HOW DEEP YOU PLOW,
 BUT HOW LONG YOU STAY IN THE FURROW.
 Job cpu time:       0 days  0 hours  6 minutes 31.4 seconds.
 Elapsed time:       0 days  0 hours  0 minutes 27.7 seconds.
 File lengths (MBytes):  RWF=     21 Int=      0 D2E=      0 Chk=      8 Scr=      1
 Normal termination of Gaussian 16 at Mon Feb 14 22:14:18 2022.
