 Entering Gaussian System, Link 0=g16
 Input=hoono_r4_1p165123.gjf
 Output=hoono_r4_1p165123.log
 Initial command:
 /sw/contrib/gaussian/g16/B01/g16/l1.exe "/scr/Gau-7212.inp" -scrdir="/scr/"
 Entering Link 1 = /sw/contrib/gaussian/g16/B01/g16/l1.exe PID=      7213.
  
 Copyright (c) 1988-2017, Gaussian, Inc.  All Rights Reserved.
  
 This is part of the Gaussian(R) 16 program.  It is based on
 the Gaussian(R) 09 system (copyright 2009, Gaussian, Inc.),
 the Gaussian(R) 03 system (copyright 2003, Gaussian, Inc.),
 the Gaussian(R) 98 system (copyright 1998, Gaussian, Inc.),
 the Gaussian(R) 94 system (copyright 1995, Gaussian, Inc.),
 the Gaussian 92(TM) system (copyright 1992, Gaussian, Inc.),
 the Gaussian 90(TM) system (copyright 1990, Gaussian, Inc.),
 the Gaussian 88(TM) system (copyright 1988, Gaussian, Inc.),
 the Gaussian 86(TM) system (copyright 1986, Carnegie Mellon
 University), and the Gaussian 82(TM) system (copyright 1983,
 Carnegie Mellon University). Gaussian is a federally registered
 trademark of Gaussian, Inc.
  
 This software contains proprietary and confidential information,
 including trade secrets, belonging to Gaussian, Inc.
  
 This software is provided under written license and may be
 used, copied, transmitted, or stored only in accord with that
 written license.
  
 The following legend is applicable only to US Government
 contracts under FAR:
  
                    RESTRICTED RIGHTS LEGEND
  
 Use, reproduction and disclosure by the US Government is
 subject to restrictions as set forth in subparagraphs (a)
 and (c) of the Commercial Computer Software - Restricted
 Rights clause in FAR 52.227-19.
  
 Gaussian, Inc.
 340 Quinnipiac St., Bldg. 40, Wallingford CT 06492
  
  
 ---------------------------------------------------------------
 Warning -- This program may not be used in any manner that
 competes with the business of Gaussian, Inc. or will provide
 assistance to any competitor of Gaussian, Inc.  The licensee
 of this program is prohibited from giving any competitor of
 Gaussian, Inc. access to this program.  By using this program,
 the user acknowledges that Gaussian, Inc. is engaged in the
 business of creating and licensing software in the field of
 computational chemistry and represents and warrants to the
 licensee that it is not a competitor of Gaussian, Inc. and that
 it will not use this program in any manner prohibited above.
 ---------------------------------------------------------------
  

 Cite this work as:
 Gaussian 16, Revision B.01,
 M. J. Frisch, G. W. Trucks, H. B. Schlegel, G. E. Scuseria, 
 M. A. Robb, J. R. Cheeseman, G. Scalmani, V. Barone, 
 G. A. Petersson, H. Nakatsuji, X. Li, M. Caricato, A. V. Marenich, 
 J. Bloino, B. G. Janesko, R. Gomperts, B. Mennucci, H. P. Hratchian, 
 J. V. Ortiz, A. F. Izmaylov, J. L. Sonnenberg, D. Williams-Young, 
 F. Ding, F. Lipparini, F. Egidi, J. Goings, B. Peng, A. Petrone, 
 T. Henderson, D. Ranasinghe, V. G. Zakrzewski, J. Gao, N. Rega, 
 G. Zheng, W. Liang, M. Hada, M. Ehara, K. Toyota, R. Fukuda, 
 J. Hasegawa, M. Ishida, T. Nakajima, Y. Honda, O. Kitao, H. Nakai, 
 T. Vreven, K. Throssell, J. A. Montgomery, Jr., J. E. Peralta, 
 F. Ogliaro, M. J. Bearpark, J. J. Heyd, E. N. Brothers, K. N. Kudin, 
 V. N. Staroverov, T. A. Keith, R. Kobayashi, J. Normand, 
 K. Raghavachari, A. P. Rendell, J. C. Burant, S. S. Iyengar, 
 J. Tomasi, M. Cossi, J. M. Millam, M. Klene, C. Adamo, R. Cammi, 
 J. W. Ochterski, R. L. Martin, K. Morokuma, O. Farkas, 
 J. B. Foresman, and D. J. Fox, Gaussian, Inc., Wallingford CT, 2016.
 
 ******************************************
 Gaussian 16:  ES64L-G16RevB.01 20-Dec-2017
                14-Feb-2022 
 ******************************************
 %nproc=28
 Will use up to   28 processors via shared memory.
 %mem=120GB
 %chk=hoono_r4_1p165123.chk
 -------------------------------------
 #p SP mp2/aug-cc-pvtz density=current
 -------------------------------------
 1/30=1,38=1,172=1/1;
 2/12=2,17=6,18=5,40=1/2;
 3/5=16,6=1,7=10,11=9,25=1,30=1,71=1/1,2,3;
 4//1;
 5/5=2,38=5/2;
 8/6=4,10=1/1;
 9/15=1,16=-3/6;
 10/5=1,13=10/2;
 6/7=2,8=2,9=2,10=2,22=-1/1;
 99/5=1,9=1/99;
 Leave Link    1 at Mon Feb 14 12:45:02 2022, MaxMem= 16106127360 cpu:               3.8 elap:               0.1
 (Enter /sw/contrib/gaussian/g16/B01/g16/l101.exe)
 -----
 title
 -----
 Symbolic Z-matrix:
 Charge =  0 Multiplicity = 1
 H
 O                    1    r1
 O                    2    r2       1    a1
 N                    3    r3       2    a2       1    d1       0
 O                    4    r4       3    a3       2    d2       0
       Variables:
  r1                    0.96898                  
  r2                    1.45492                  
  r3                    1.45878                  
  r4                    1.16512                  
  a1                   97.59495                  
  a2                  102.29752                  
  a3                  109.06955                  
  d1                  180.                       
  d2                  180.                       
 
 ITRead=  0  0  0  0  0
 MicOpt= -1 -1 -1 -1 -1
 NAtoms=      5 NQM=        5 NQMF=       0 NMMI=      0 NMMIF=      0
                NMic=       0 NMicF=      0.
                    Isotopes and Nuclear Properties:
 (Nuclear quadrupole moments (NQMom) in fm**2, nuclear magnetic moments (NMagM)
  in nuclear magnetons)

  Atom         1           2           3           4           5
 IAtWgt=           1          16          16          14          16
 AtmWgt=   1.0078250  15.9949146  15.9949146  14.0030740  15.9949146
 NucSpn=           1           0           0           2           0
 AtZEff=  -0.0000000  -0.0000000  -0.0000000  -0.0000000  -0.0000000
 NQMom=    0.0000000   0.0000000   0.0000000   2.0440000   0.0000000
 NMagM=    2.7928460   0.0000000   0.0000000   0.4037610   0.0000000
 AtZNuc=   1.0000000   8.0000000   8.0000000   7.0000000   8.0000000
 Leave Link  101 at Mon Feb 14 12:45:03 2022, MaxMem= 16106127360 cpu:               2.1 elap:               0.1
 (Enter /sw/contrib/gaussian/g16/B01/g16/l202.exe)
                          Input orientation:                          
 ---------------------------------------------------------------------
 Center     Atomic      Atomic             Coordinates (Angstroms)
 Number     Number       Type             X           Y           Z
 ---------------------------------------------------------------------
      1          1           0        0.000000    0.000000    0.000000
      2          8           0        0.000000    0.000000    0.968976
      3          8           0        1.442156    0.000000    1.161271
      4          7           0        1.561752    0.000000    2.615144
      5          8           0        2.690437    0.000000    2.904248
 ---------------------------------------------------------------------
                    Distance matrix (angstroms):
                    1          2          3          4          5
     1  H    0.000000
     2  O    0.968976   0.000000
     3  O    1.851584   1.454919   0.000000
     4  N    3.045989   2.269127   1.458784   0.000000
     5  O    3.958928   3.314171   2.143869   1.165123   0.000000
 Stoichiometry    HNO3
 Framework group  CS[SG(HNO3)]
 Deg. of freedom     7
 Full point group                 CS      NOp   2
 Largest Abelian subgroup         CS      NOp   2
 Largest concise Abelian subgroup C1      NOp   1
                         Standard orientation:                         
 ---------------------------------------------------------------------
 Center     Atomic      Atomic             Coordinates (Angstroms)
 Number     Number       Type             X           Y           Z
 ---------------------------------------------------------------------
      1          1           0        1.551197    1.683813    0.000000
      2          8           0        1.454163    0.719708    0.000000
      3          8           0        0.000000    0.672798    0.000000
      4          7           0       -0.264586   -0.761791   -0.000000
      5          8           0       -1.416549   -0.936415   -0.000000
 ---------------------------------------------------------------------
 Rotational constants (GHZ):          54.9928234           5.0243475           4.6037334
 Leave Link  202 at Mon Feb 14 12:45:03 2022, MaxMem= 16106127360 cpu:               0.4 elap:               0.0
 (Enter /sw/contrib/gaussian/g16/B01/g16/l301.exe)
 Standard basis: Aug-CC-pVTZ (5D, 7F)
 Ernie: Thresh=  0.10000D-02 Tol=  0.10000D-05 Strict=F.
 Ernie:  12 primitive shells out of 131 were deleted.
 There are   166 symmetry adapted cartesian basis functions of A'  symmetry.
 There are    79 symmetry adapted cartesian basis functions of A"  symmetry.
 There are   136 symmetry adapted basis functions of A'  symmetry.
 There are    71 symmetry adapted basis functions of A"  symmetry.
   207 basis functions,   315 primitive gaussians,   245 cartesian basis functions
    16 alpha electrons       16 beta electrons
       nuclear repulsion energy       117.0427291963 Hartrees.
 IExCor=    0 DFT=F Ex=HF Corr=None ExCW=0 ScaHFX=  1.000000
 ScaDFX=  1.000000  1.000000  1.000000  1.000000 ScalE2=  1.000000  1.000000
 IRadAn=      5 IRanWt=     -1 IRanGd=            0 ICorTp=0 IEmpDi=  4
 NAtoms=    5 NActive=    5 NUniq=    5 SFac= 1.00D+00 NAtFMM=   60 NAOKFM=F Big=F
 Integral buffers will be    131072 words long.
 Raffenetti 1 integral format.
 Two-electron integral symmetry is turned on.
 Leave Link  301 at Mon Feb 14 12:45:03 2022, MaxMem= 16106127360 cpu:               2.5 elap:               0.1
 (Enter /sw/contrib/gaussian/g16/B01/g16/l302.exe)
 NPDir=0 NMtPBC=     1 NCelOv=     1 NCel=       1 NClECP=     1 NCelD=      1
         NCelK=      1 NCelE2=     1 NClLst=     1 CellRange=     0.0.
 One-electron integrals computed using PRISM.
 One-electron integral symmetry used in STVInt
 NBasis=   207 RedAO= T EigKep=  1.81D-04  NBF=   136    71
 NBsUse=   207 1.00D-06 EigRej= -1.00D+00 NBFU=   136    71
 Leave Link  302 at Mon Feb 14 12:45:03 2022, MaxMem= 16106127360 cpu:               6.4 elap:               0.3
 (Enter /sw/contrib/gaussian/g16/B01/g16/l303.exe)
 DipDrv:  MaxL=1.
 Leave Link  303 at Mon Feb 14 12:45:03 2022, MaxMem= 16106127360 cpu:               0.8 elap:               0.1
 (Enter /sw/contrib/gaussian/g16/B01/g16/l401.exe)
 ExpMin= 2.53D-02 ExpMax= 1.53D+04 ExpMxC= 5.22D+02 IAcc=3 IRadAn=         5 AccDes= 0.00D+00
 Harris functional with IExCor=  205 and IRadAn=       5 diagonalized for initial guess.
 HarFok:  IExCor=  205 AccDes= 0.00D+00 IRadAn=         5 IDoV= 1 UseB2=F ITyADJ=14
 ICtDFT=  3500011 ScaDFX=  1.000000  1.000000  1.000000  1.000000
 FoFCou: FMM=F IPFlag=           0 FMFlag=      100000 FMFlg1=           0
         NFxFlg=           0 DoJE=T BraDBF=F KetDBF=T FulRan=T
         wScrn=  0.000000 ICntrl=       500 IOpCl=  0 I1Cent=   200000004 NGrid=           0
         NMat0=    1 NMatS0=      1 NMatT0=    0 NMatD0=    1 NMtDS0=    0 NMtDT0=    0
 Petite list used in FoFCou.
 Harris En= -279.628580585171    
 JPrj=0 DoOrth=F DoCkMO=F.
 Initial guess orbital symmetries:
       Occupied  (A') (A') (A') (A') (A') (A') (A') (A') (A') (A')
                 (A") (A') (A') (A") (A") (A')
       Virtual   (A") (A') (A') (A') (A') (A') (A") (A') (A') (A')
                 (A") (A') (A") (A') (A') (A") (A') (A") (A') (A')
                 (A') (A') (A') (A') (A') (A") (A') (A") (A') (A')
                 (A") (A') (A") (A') (A') (A") (A') (A") (A') (A')
                 (A") (A') (A") (A') (A") (A') (A') (A') (A") (A")
                 (A') (A') (A') (A') (A") (A') (A") (A') (A") (A')
                 (A') (A') (A") (A') (A') (A") (A') (A") (A') (A')
                 (A") (A') (A') (A") (A") (A') (A') (A") (A') (A')
                 (A') (A") (A') (A") (A') (A") (A') (A") (A') (A')
                 (A') (A") (A') (A") (A') (A") (A") (A') (A') (A")
                 (A') (A') (A") (A') (A') (A') (A') (A") (A") (A')
                 (A") (A') (A') (A') (A") (A') (A') (A') (A") (A')
                 (A") (A') (A") (A') (A") (A') (A') (A") (A") (A')
                 (A') (A') (A') (A") (A") (A') (A") (A') (A') (A')
                 (A') (A") (A") (A') (A') (A") (A') (A') (A') (A')
                 (A") (A') (A') (A") (A') (A") (A') (A") (A') (A")
                 (A') (A") (A') (A") (A') (A") (A") (A") (A') (A')
                 (A") (A') (A") (A') (A") (A') (A") (A") (A') (A')
                 (A') (A') (A') (A') (A') (A') (A') (A') (A') (A')
                 (A')
 The electronic state of the initial guess is 1-A'.
 Leave Link  401 at Mon Feb 14 12:45:03 2022, MaxMem= 16106127360 cpu:               7.4 elap:               0.3
 (Enter /sw/contrib/gaussian/g16/B01/g16/l502.exe)
 Keep R1 ints in memory in symmetry-blocked form, NReq=348887737.
 FoFCou: FMM=F IPFlag=           0 FMFlag=           0 FMFlg1=           0
         NFxFlg=           0 DoJE=F BraDBF=F KetDBF=F FulRan=T
         wScrn=  0.000000 ICntrl=       600 IOpCl=  0 I1Cent=           0 NGrid=           0
         NMat0=    1 NMatS0=  21528 NMatT0=    0 NMatD0=    1 NMtDS0=    0 NMtDT0=    0
 Petite list used in FoFCou.
 Closed shell SCF:
 Using DIIS extrapolation, IDIIS=  1040.
 NGot= 16106127360 LenX= 15988850015 LenY= 15988789549
 Requested convergence on RMS density matrix=1.00D-08 within 128 cycles.
 Requested convergence on MAX density matrix=1.00D-06.
 Requested convergence on             energy=1.00D-06.
 No special actions if energy rises.

 Cycle   1  Pass 1  IDiag  1:
 E= -279.372497319539    
 DIIS: error= 2.69D-02 at cycle   1 NSaved=   1.
 NSaved= 1 IEnMin= 1 EnMin= -279.372497319539     IErMin= 1 ErrMin= 2.69D-02
 ErrMax= 2.69D-02  0.00D+00 EMaxC= 1.00D-01 BMatC= 4.37D-01 BMatP= 4.37D-01
 IDIUse=3 WtCom= 7.31D-01 WtEn= 2.69D-01
 Coeff-Com:  0.100D+01
 Coeff-En:   0.100D+01
 Coeff:      0.100D+01
 Gap=     0.515 Goal=   None    Shift=    0.000
 GapD=    0.515 DampG=2.000 DampE=0.500 DampFc=1.0000 IDamp=-1.
 RMSDP=1.61D-03 MaxDP=9.88D-02              OVMax= 1.11D-01

 Cycle   2  Pass 1  IDiag  1:
 E= -279.454925813478     Delta-E=       -0.082428493939 Rises=F Damp=F
 DIIS: error= 1.77D-02 at cycle   2 NSaved=   2.
 NSaved= 2 IEnMin= 2 EnMin= -279.454925813478     IErMin= 2 ErrMin= 1.77D-02
 ErrMax= 1.77D-02  0.00D+00 EMaxC= 1.00D-01 BMatC= 6.96D-02 BMatP= 4.37D-01
 IDIUse=3 WtCom= 8.23D-01 WtEn= 1.77D-01
 Coeff-Com:  0.191D+00 0.809D+00
 Coeff-En:   0.000D+00 0.100D+01
 Coeff:      0.157D+00 0.843D+00
 Gap=     0.527 Goal=   None    Shift=    0.000
 RMSDP=8.89D-04 MaxDP=3.69D-02 DE=-8.24D-02 OVMax= 6.85D-02

 Cycle   3  Pass 1  IDiag  1:
 E= -279.483054220075     Delta-E=       -0.028128406597 Rises=F Damp=F
 DIIS: error= 1.03D-02 at cycle   3 NSaved=   3.
 NSaved= 3 IEnMin= 3 EnMin= -279.483054220075     IErMin= 3 ErrMin= 1.03D-02
 ErrMax= 1.03D-02  0.00D+00 EMaxC= 1.00D-01 BMatC= 2.79D-02 BMatP= 6.96D-02
 IDIUse=3 WtCom= 8.97D-01 WtEn= 1.03D-01
 Coeff-Com: -0.328D-01 0.378D+00 0.654D+00
 Coeff-En:   0.000D+00 0.240D+00 0.760D+00
 Coeff:     -0.295D-01 0.364D+00 0.665D+00
 Gap=     0.509 Goal=   None    Shift=    0.000
 RMSDP=3.71D-04 MaxDP=1.51D-02 DE=-2.81D-02 OVMax= 3.72D-02

 Cycle   4  Pass 1  IDiag  1:
 E= -279.501541644335     Delta-E=       -0.018487424260 Rises=F Damp=F
 DIIS: error= 1.28D-03 at cycle   4 NSaved=   4.
 NSaved= 4 IEnMin= 4 EnMin= -279.501541644335     IErMin= 4 ErrMin= 1.28D-03
 ErrMax= 1.28D-03  0.00D+00 EMaxC= 1.00D-01 BMatC= 4.87D-04 BMatP= 2.79D-02
 IDIUse=3 WtCom= 9.87D-01 WtEn= 1.28D-02
 Coeff-Com: -0.117D-01 0.586D-01 0.160D+00 0.793D+00
 Coeff-En:   0.000D+00 0.000D+00 0.000D+00 0.100D+01
 Coeff:     -0.115D-01 0.578D-01 0.158D+00 0.795D+00
 Gap=     0.501 Goal=   None    Shift=    0.000
 RMSDP=8.94D-05 MaxDP=2.77D-03 DE=-1.85D-02 OVMax= 1.11D-02

 Cycle   5  Pass 1  IDiag  1:
 E= -279.502203095938     Delta-E=       -0.000661451603 Rises=F Damp=F
 DIIS: error= 7.31D-04 at cycle   5 NSaved=   5.
 NSaved= 5 IEnMin= 5 EnMin= -279.502203095938     IErMin= 5 ErrMin= 7.31D-04
 ErrMax= 7.31D-04  0.00D+00 EMaxC= 1.00D-01 BMatC= 8.57D-05 BMatP= 4.87D-04
 IDIUse=3 WtCom= 9.93D-01 WtEn= 7.31D-03
 Coeff-Com:  0.606D-02-0.722D-01-0.117D+00 0.212D-01 0.116D+01
 Coeff-En:   0.000D+00 0.000D+00 0.000D+00 0.000D+00 0.100D+01
 Coeff:      0.602D-02-0.717D-01-0.117D+00 0.210D-01 0.116D+01
 Gap=     0.501 Goal=   None    Shift=    0.000
 RMSDP=7.54D-05 MaxDP=2.07D-03 DE=-6.61D-04 OVMax= 1.09D-02

 Cycle   6  Pass 1  IDiag  1:
 E= -279.502511189762     Delta-E=       -0.000308093824 Rises=F Damp=F
 DIIS: error= 2.79D-04 at cycle   6 NSaved=   6.
 NSaved= 6 IEnMin= 6 EnMin= -279.502511189762     IErMin= 6 ErrMin= 2.79D-04
 ErrMax= 2.79D-04  0.00D+00 EMaxC= 1.00D-01 BMatC= 1.64D-05 BMatP= 8.57D-05
 IDIUse=3 WtCom= 9.97D-01 WtEn= 2.79D-03
 Coeff-Com:  0.695D-03 0.339D-03 0.216D-02-0.128D+00-0.214D+00 0.134D+01
 Coeff-En:   0.000D+00 0.000D+00 0.000D+00 0.000D+00 0.000D+00 0.100D+01
 Coeff:      0.693D-03 0.338D-03 0.215D-02-0.128D+00-0.213D+00 0.134D+01
 Gap=     0.501 Goal=   None    Shift=    0.000
 RMSDP=4.46D-05 MaxDP=1.23D-03 DE=-3.08D-04 OVMax= 5.42D-03

 Cycle   7  Pass 1  IDiag  1:
 E= -279.502582023914     Delta-E=       -0.000070834152 Rises=F Damp=F
 DIIS: error= 1.23D-04 at cycle   7 NSaved=   7.
 NSaved= 7 IEnMin= 7 EnMin= -279.502582023914     IErMin= 7 ErrMin= 1.23D-04
 ErrMax= 1.23D-04  0.00D+00 EMaxC= 1.00D-01 BMatC= 4.65D-06 BMatP= 1.64D-05
 IDIUse=3 WtCom= 9.99D-01 WtEn= 1.23D-03
 Coeff-Com: -0.923D-03 0.136D-01 0.265D-01-0.258D-01-0.293D+00 0.409D+00
 Coeff-Com:  0.871D+00
 Coeff-En:   0.000D+00 0.000D+00 0.000D+00 0.000D+00 0.000D+00 0.000D+00
 Coeff-En:   0.100D+01
 Coeff:     -0.922D-03 0.136D-01 0.265D-01-0.258D-01-0.292D+00 0.408D+00
 Coeff:      0.871D+00
 Gap=     0.501 Goal=   None    Shift=    0.000
 RMSDP=1.33D-05 MaxDP=3.77D-04 DE=-7.08D-05 OVMax= 1.54D-03

 Cycle   8  Pass 1  IDiag  1:
 E= -279.502591013218     Delta-E=       -0.000008989304 Rises=F Damp=F
 DIIS: error= 5.53D-05 at cycle   8 NSaved=   8.
 NSaved= 8 IEnMin= 8 EnMin= -279.502591013218     IErMin= 8 ErrMin= 5.53D-05
 ErrMax= 5.53D-05  0.00D+00 EMaxC= 1.00D-01 BMatC= 5.84D-07 BMatP= 4.65D-06
 IDIUse=1 WtCom= 1.00D+00 WtEn= 0.00D+00
 Coeff-Com: -0.450D-03 0.354D-02 0.777D-02 0.272D-01-0.429D-01-0.191D+00
 Coeff-Com:  0.148D+00 0.105D+01
 Coeff:     -0.450D-03 0.354D-02 0.777D-02 0.272D-01-0.429D-01-0.191D+00
 Coeff:      0.148D+00 0.105D+01
 Gap=     0.501 Goal=   None    Shift=    0.000
 RMSDP=6.92D-06 MaxDP=2.01D-04 DE=-8.99D-06 OVMax= 7.51D-04

 Cycle   9  Pass 1  IDiag  1:
 E= -279.502592756812     Delta-E=       -0.000001743594 Rises=F Damp=F
 DIIS: error= 1.51D-05 at cycle   9 NSaved=   9.
 NSaved= 9 IEnMin= 9 EnMin= -279.502592756812     IErMin= 9 ErrMin= 1.51D-05
 ErrMax= 1.51D-05  0.00D+00 EMaxC= 1.00D-01 BMatC= 6.44D-08 BMatP= 5.84D-07
 IDIUse=1 WtCom= 1.00D+00 WtEn= 0.00D+00
 Coeff-Com:  0.116D-03-0.167D-02-0.299D-02-0.172D-02 0.334D-01-0.186D-02
 Coeff-Com: -0.156D+00-0.103D+00 0.123D+01
 Coeff:      0.116D-03-0.167D-02-0.299D-02-0.172D-02 0.334D-01-0.186D-02
 Coeff:     -0.156D+00-0.103D+00 0.123D+01
 Gap=     0.501 Goal=   None    Shift=    0.000
 RMSDP=1.87D-06 MaxDP=6.30D-05 DE=-1.74D-06 OVMax= 1.65D-04

 Cycle  10  Pass 1  IDiag  1:
 E= -279.502592904580     Delta-E=       -0.000000147768 Rises=F Damp=F
 DIIS: error= 4.00D-06 at cycle  10 NSaved=  10.
 NSaved=10 IEnMin=10 EnMin= -279.502592904580     IErMin=10 ErrMin= 4.00D-06
 ErrMax= 4.00D-06  0.00D+00 EMaxC= 1.00D-01 BMatC= 5.13D-09 BMatP= 6.44D-08
 IDIUse=1 WtCom= 1.00D+00 WtEn= 0.00D+00
 Coeff-Com:  0.328D-04-0.271D-03-0.383D-03-0.266D-02 0.220D-02 0.192D-01
 Coeff-Com: -0.134D-01-0.777D-01-0.630D-01 0.114D+01
 Coeff:      0.328D-04-0.271D-03-0.383D-03-0.266D-02 0.220D-02 0.192D-01
 Coeff:     -0.134D-01-0.777D-01-0.630D-01 0.114D+01
 Gap=     0.501 Goal=   None    Shift=    0.000
 RMSDP=4.84D-07 MaxDP=2.00D-05 DE=-1.48D-07 OVMax= 3.83D-05

 Cycle  11  Pass 1  IDiag  1:
 E= -279.502592915881     Delta-E=       -0.000000011300 Rises=F Damp=F
 DIIS: error= 1.91D-06 at cycle  11 NSaved=  11.
 NSaved=11 IEnMin=11 EnMin= -279.502592915881     IErMin=11 ErrMin= 1.91D-06
 ErrMax= 1.91D-06  0.00D+00 EMaxC= 1.00D-01 BMatC= 5.95D-10 BMatP= 5.13D-09
 IDIUse=1 WtCom= 1.00D+00 WtEn= 0.00D+00
 Coeff-Com: -0.202D-04 0.235D-03 0.472D-03 0.493D-03-0.417D-02-0.321D-02
 Coeff-Com:  0.190D-01 0.311D-01-0.135D+00-0.179D+00 0.127D+01
 Coeff:     -0.202D-04 0.235D-03 0.472D-03 0.493D-03-0.417D-02-0.321D-02
 Coeff:      0.190D-01 0.311D-01-0.135D+00-0.179D+00 0.127D+01
 Gap=     0.501 Goal=   None    Shift=    0.000
 RMSDP=1.67D-07 MaxDP=6.11D-06 DE=-1.13D-08 OVMax= 1.65D-05

 Cycle  12  Pass 1  IDiag  1:
 E= -279.502592917474     Delta-E=       -0.000000001593 Rises=F Damp=F
 DIIS: error= 5.64D-07 at cycle  12 NSaved=  12.
 NSaved=12 IEnMin=12 EnMin= -279.502592917474     IErMin=12 ErrMin= 5.64D-07
 ErrMax= 5.64D-07  0.00D+00 EMaxC= 1.00D-01 BMatC= 6.45D-11 BMatP= 5.95D-10
 IDIUse=1 WtCom= 1.00D+00 WtEn= 0.00D+00
 Coeff-Com:  0.106D-05-0.266D-04-0.583D-04 0.170D-03 0.102D-02-0.216D-02
 Coeff-Com: -0.390D-02 0.524D-02 0.401D-01-0.106D+00-0.296D+00 0.136D+01
 Coeff:      0.106D-05-0.266D-04-0.583D-04 0.170D-03 0.102D-02-0.216D-02
 Coeff:     -0.390D-02 0.524D-02 0.401D-01-0.106D+00-0.296D+00 0.136D+01
 Gap=     0.501 Goal=   None    Shift=    0.000
 RMSDP=6.74D-08 MaxDP=2.66D-06 DE=-1.59D-09 OVMax= 6.41D-06

 Cycle  13  Pass 1  IDiag  1:
 E= -279.502592917677     Delta-E=       -0.000000000204 Rises=F Damp=F
 DIIS: error= 1.59D-07 at cycle  13 NSaved=  13.
 NSaved=13 IEnMin=13 EnMin= -279.502592917677     IErMin=13 ErrMin= 1.59D-07
 ErrMax= 1.59D-07  0.00D+00 EMaxC= 1.00D-01 BMatC= 3.63D-12 BMatP= 6.45D-11
 IDIUse=1 WtCom= 1.00D+00 WtEn= 0.00D+00
 Coeff-Com:  0.124D-05-0.137D-04-0.221D-04-0.837D-04 0.123D-03 0.715D-03
 Coeff-Com: -0.720D-03-0.325D-02 0.468D-03 0.397D-01-0.299D-01-0.335D+00
 Coeff-Com:  0.133D+01
 Coeff:      0.124D-05-0.137D-04-0.221D-04-0.837D-04 0.123D-03 0.715D-03
 Coeff:     -0.720D-03-0.325D-02 0.468D-03 0.397D-01-0.299D-01-0.335D+00
 Coeff:      0.133D+01
 Gap=     0.501 Goal=   None    Shift=    0.000
 RMSDP=1.82D-08 MaxDP=5.32D-07 DE=-2.04D-10 OVMax= 1.51D-06

 Cycle  14  Pass 1  IDiag  1:
 E= -279.502592917690     Delta-E=       -0.000000000013 Rises=F Damp=F
 DIIS: error= 2.33D-08 at cycle  14 NSaved=  14.
 NSaved=14 IEnMin=14 EnMin= -279.502592917690     IErMin=14 ErrMin= 2.33D-08
 ErrMax= 2.33D-08  0.00D+00 EMaxC= 1.00D-01 BMatC= 1.77D-13 BMatP= 3.63D-12
 IDIUse=1 WtCom= 1.00D+00 WtEn= 0.00D+00
 Coeff-Com: -0.185D-06 0.304D-05 0.549D-05 0.457D-05-0.803D-04 0.419D-04
 Coeff-Com:  0.265D-03 0.237D-03-0.239D-02 0.118D-02 0.175D-01-0.252D-01
 Coeff-Com: -0.203D+00 0.121D+01
 Coeff:     -0.185D-06 0.304D-05 0.549D-05 0.457D-05-0.803D-04 0.419D-04
 Coeff:      0.265D-03 0.237D-03-0.239D-02 0.118D-02 0.175D-01-0.252D-01
 Coeff:     -0.203D+00 0.121D+01
 Gap=     0.501 Goal=   None    Shift=    0.000
 RMSDP=3.64D-09 MaxDP=8.71D-08 DE=-1.27D-11 OVMax= 3.25D-07

 SCF Done:  E(RHF) =  -279.502592918     A.U. after   14 cycles
            NFock= 14  Conv=0.36D-08     -V/T= 2.0023
 KE= 2.788730617558D+02 PE=-8.954339869237D+02 EE= 2.200156030539D+02
 Leave Link  502 at Mon Feb 14 12:45:07 2022, MaxMem= 16106127360 cpu:              53.7 elap:               3.5
 (Enter /sw/contrib/gaussian/g16/B01/g16/l801.exe)
 ExpMin= 2.53D-02 ExpMax= 1.53D+04 ExpMxC= 5.22D+02 IAcc=3 IRadAn=         5 AccDes= 0.00D+00
 HarFok:  IExCor=  205 AccDes= 0.00D+00 IRadAn=         5 IDoV=-2 UseB2=F ITyADJ=14
 ICtDFT= 12500011 ScaDFX=  1.000000  1.000000  1.000000  1.000000
 Largest valence mixing into a core orbital is  2.08D-04
 Largest core mixing into a valence orbital is  3.61D-05
 Range of M.O.s used for correlation:     5   207
 NBasis=   207 NAE=    16 NBE=    16 NFC=     4 NFV=     0
 NROrb=    203 NOA=    12 NOB=    12 NVA=   191 NVB=   191

 **** Warning!!: The largest alpha MO coefficient is  0.17656318D+02

 Leave Link  801 at Mon Feb 14 12:45:07 2022, MaxMem= 16106127360 cpu:               2.6 elap:               0.1
 (Enter /sw/contrib/gaussian/g16/B01/g16/l906.exe)
 Frozen-core derivative calculation, NFC=   4 NFV=   0.
 FulOut=F Deriv=T AODrv=F NAtomX=     5
   MMem=          76  MDisk=          12 MDiskD=          12
  W3Min=      811440 MinDsk=     1524655 NBas6D=         245
 NBas2D=       30762    NTT=       30135    LW2=     3500000
    MDV= 16105579913 MDiskM=      328644 NBas2p=       30466
 Fully in-core method, ICMem=   960157634.
 IMap=   1   2   3   4   5   6   7   8   9  10  11  12  13  14  15  16
 JobTyp=1 Pass  1 fully in-core, NPsUse= 28.
 Compute canonical integrals.
 FoFCou: FMM=F IPFlag=           0 FMFlag=           0 FMFlg1=           0
         NFxFlg=           0 DoJE=F BraDBF=F KetDBF=F FulRan=T
         wScrn=  0.000000 ICntrl=       600 IOpCl=  1 I1Cent=           0 NGrid=           0
         NMat0=    1 NMatS0=  30762 NMatT0=    0 NMatD0=    1 NMtDS0=    0 NMtDT0=    0
 Symmetry not used in FoFCou.
 Spin components of T(2) and E(2):
     alpha-alpha T2 =       0.3390973476D-01 E2=     -0.1222845616D+00
     alpha-beta  T2 =       0.1862048184D+00 E2=     -0.6995224256D+00
     beta-beta   T2 =       0.3390973476D-01 E2=     -0.1222845616D+00
 The integrals were generated   1 times.
 ANorm=    0.1119832259D+01
 E2 =    -0.9440915489D+00 EUMP2 =    -0.28044668446655D+03
 Leave Link  906 at Mon Feb 14 12:45:16 2022, MaxMem= 16106127360 cpu:             250.5 elap:               9.0
 (Enter /sw/contrib/gaussian/g16/B01/g16/l1002.exe)
 Minotr:  Closed shell wavefunction.
          Computing MP2/KS-MP2 derivatives.
          Using Z-Vector for PSCF gradient.
          Skipping F1 and S1 gradient terms here.
          Frozen-core window.
          Direct CPHF calculation.
          Differentiating once with respect to electric field.
                with respect to dipole field.
          Electric field/nuclear overlap derivatives assumed to be zero.
          Using symmetry in CPHF.
          Requested convergence is 1.0D-10 RMS, and 1.0D-09 maximum.
          NewPWx=F KeepS1=T KeepF1=T KeepIn=T MapXYZ=F SortEE=F KeepMc=T.
 Keep R1 ints in memory in symmetry-blocked form, NReq=348888868.
 FoFCou: FMM=F IPFlag=           0 FMFlag=           0 FMFlg1=           0
         NFxFlg=           0 DoJE=F BraDBF=F KetDBF=F FulRan=T
         wScrn=  0.000000 ICntrl=       600 IOpCl=  0 I1Cent=           0 NGrid=           0
         NMat0=    1 NMatS0=  21528 NMatT0=    0 NMatD0=    1 NMtDS0=    0 NMtDT0=    0
 Petite list used in FoFCou.
          MDV=   16106127360 using IRadAn=       5.
          Solving linear equations separately, MaxMat=       0.
          There are     1 degrees of freedom in the 1st order CPHF.  IDoFFX=0 NUNeed=     1.
 LinEq1:  Iter=  0 NonCon=     1 RMS=5.93D-03 Max=1.31D-01 NDo=     1
 AX will form     1 AO Fock derivatives at one time.
 LinEq1:  Iter=  1 NonCon=     1 RMS=1.89D-03 Max=3.75D-02 NDo=     1
 LinEq1:  Iter=  2 NonCon=     1 RMS=8.57D-04 Max=1.39D-02 NDo=     1
 LinEq1:  Iter=  3 NonCon=     1 RMS=3.80D-04 Max=7.54D-03 NDo=     1
 LinEq1:  Iter=  4 NonCon=     1 RMS=1.18D-04 Max=1.87D-03 NDo=     1
 LinEq1:  Iter=  5 NonCon=     1 RMS=4.37D-05 Max=6.92D-04 NDo=     1
 LinEq1:  Iter=  6 NonCon=     1 RMS=1.96D-05 Max=2.31D-04 NDo=     1
 LinEq1:  Iter=  7 NonCon=     1 RMS=7.83D-06 Max=1.56D-04 NDo=     1
 LinEq1:  Iter=  8 NonCon=     1 RMS=3.34D-06 Max=3.33D-05 NDo=     1
 LinEq1:  Iter=  9 NonCon=     1 RMS=9.12D-07 Max=1.29D-05 NDo=     1
 LinEq1:  Iter= 10 NonCon=     1 RMS=1.79D-07 Max=1.94D-06 NDo=     1
 LinEq1:  Iter= 11 NonCon=     1 RMS=3.36D-08 Max=3.46D-07 NDo=     1
 LinEq1:  Iter= 12 NonCon=     1 RMS=8.06D-09 Max=1.26D-07 NDo=     1
 LinEq1:  Iter= 13 NonCon=     1 RMS=1.45D-09 Max=2.52D-08 NDo=     1
 LinEq1:  Iter= 14 NonCon=     1 RMS=2.63D-10 Max=3.70D-09 NDo=     1
 LinEq1:  Iter= 15 NonCon=     0 RMS=4.80D-11 Max=5.49D-10 NDo=     1
 Linear equations converged to 1.000D-10 1.000D-09 after    15 iterations.
 End of Minotr F.D. properties file   721 does not exist.
 End of Minotr F.D. properties file   722 does not exist.
 End of Minotr F.D. properties file   788 does not exist.
 Leave Link 1002 at Mon Feb 14 12:45:20 2022, MaxMem= 16106127360 cpu:              53.6 elap:               4.0
 (Enter /sw/contrib/gaussian/g16/B01/g16/l601.exe)
 Copying SCF densities to generalized density rwf, IOpCl= 0 IROHF=0.

 **********************************************************************

            Population analysis using the MP2 Density.

 **********************************************************************

 Orbital symmetries:
       Occupied  (A') (A') (A') (A') (A') (A') (A') (A') (A') (A')
                 (A") (A') (A") (A') (A") (A')
       Virtual   (A') (A") (A') (A') (A") (A') (A') (A') (A") (A')
                 (A") (A') (A') (A') (A") (A') (A') (A") (A') (A')
                 (A') (A') (A') (A') (A") (A') (A') (A") (A') (A')
                 (A") (A') (A") (A') (A') (A") (A') (A') (A") (A')
                 (A") (A') (A") (A') (A') (A") (A') (A') (A") (A')
                 (A") (A') (A') (A') (A") (A') (A") (A') (A") (A')
                 (A') (A') (A") (A') (A') (A") (A') (A") (A') (A')
                 (A") (A') (A') (A") (A") (A') (A') (A") (A') (A')
                 (A') (A") (A') (A") (A") (A') (A') (A") (A') (A')
                 (A") (A') (A') (A") (A') (A") (A') (A") (A') (A')
                 (A") (A') (A") (A') (A') (A") (A') (A') (A") (A')
                 (A") (A') (A') (A') (A") (A') (A') (A') (A") (A')
                 (A") (A') (A") (A') (A') (A") (A") (A') (A") (A')
                 (A') (A') (A') (A") (A") (A") (A') (A') (A') (A')
                 (A") (A') (A") (A') (A') (A") (A') (A') (A') (A')
                 (A") (A') (A') (A") (A') (A") (A') (A") (A') (A")
                 (A') (A") (A') (A") (A') (A") (A") (A') (A") (A')
                 (A") (A') (A") (A') (A") (A') (A") (A") (A') (A')
                 (A') (A') (A') (A') (A') (A') (A') (A') (A') (A')
                 (A')
 The electronic state is 1-A'.
 Alpha  occ. eigenvalues --  -20.68956 -20.68453 -20.65926 -15.81202  -1.62863
 Alpha  occ. eigenvalues --   -1.49580  -1.25384  -0.94731  -0.77346  -0.76067
 Alpha  occ. eigenvalues --   -0.71298  -0.68003  -0.62157  -0.58906  -0.48475
 Alpha  occ. eigenvalues --   -0.47140
 Alpha virt. eigenvalues --    0.02978   0.07340   0.08585   0.10172   0.13385
 Alpha virt. eigenvalues --    0.13403   0.14420   0.15467   0.17836   0.19411
 Alpha virt. eigenvalues --    0.20002   0.20637   0.22100   0.23590   0.23742
 Alpha virt. eigenvalues --    0.26611   0.29400   0.30411   0.31072   0.34337
 Alpha virt. eigenvalues --    0.34993   0.38744   0.42227   0.43172   0.52722
 Alpha virt. eigenvalues --    0.53001   0.55882   0.58178   0.62897   0.63808
 Alpha virt. eigenvalues --    0.67273   0.68489   0.70645   0.71129   0.72430
 Alpha virt. eigenvalues --    0.72974   0.74466   0.79186   0.79240   0.81013
 Alpha virt. eigenvalues --    0.81323   0.83208   0.86871   0.90882   0.92247
 Alpha virt. eigenvalues --    0.92684   0.95691   0.97874   0.98512   1.01674
 Alpha virt. eigenvalues --    1.05237   1.05532   1.08355   1.11844   1.14174
 Alpha virt. eigenvalues --    1.18984   1.22158   1.23351   1.33927   1.35083
 Alpha virt. eigenvalues --    1.38715   1.45379   1.48808   1.50969   1.53819
 Alpha virt. eigenvalues --    1.56692   1.57960   1.61368   1.66551   1.66994
 Alpha virt. eigenvalues --    1.70310   1.79345   1.83079   1.83491   1.87982
 Alpha virt. eigenvalues --    1.91002   1.95470   1.99364   2.00567   2.07800
 Alpha virt. eigenvalues --    2.12117   2.13259   2.15052   2.22475   2.26501
 Alpha virt. eigenvalues --    2.26525   2.29011   2.31502   2.34587   2.38665
 Alpha virt. eigenvalues --    2.42573   2.43020   2.45432   2.46358   2.47761
 Alpha virt. eigenvalues --    2.50239   2.59029   2.59778   2.62202   2.62700
 Alpha virt. eigenvalues --    2.63538   2.66932   2.75973   2.82742   2.85794
 Alpha virt. eigenvalues --    2.88697   2.89551   2.92628   2.95949   3.02643
 Alpha virt. eigenvalues --    3.06726   3.12355   3.20520   3.22819   3.31779
 Alpha virt. eigenvalues --    3.34254   3.51951   3.64393   3.83919   3.84624
 Alpha virt. eigenvalues --    4.14942   4.16393   4.18473   4.27107   4.35234
 Alpha virt. eigenvalues --    4.39416   4.46486   4.52041   4.66881   4.71170
 Alpha virt. eigenvalues --    4.80798   4.82597   4.83043   4.89548   5.02239
 Alpha virt. eigenvalues --    5.07803   5.10572   5.14160   5.18084   5.24464
 Alpha virt. eigenvalues --    5.27267   5.30764   5.33058   5.36081   5.60759
 Alpha virt. eigenvalues --    5.68303   5.77499   5.83151   5.95573   6.17012
 Alpha virt. eigenvalues --    6.30985   6.33889   6.39525   6.49362   6.50550
 Alpha virt. eigenvalues --    6.61459   6.66876   6.70186   6.75871   6.76443
 Alpha virt. eigenvalues --    6.83615   6.90042   7.01540   7.05800   7.05812
 Alpha virt. eigenvalues --    7.09097   7.12725   7.15126   7.18239   7.22922
 Alpha virt. eigenvalues --    7.24300   7.31011   7.33609   7.35151   7.40497
 Alpha virt. eigenvalues --    7.43249   7.48528   7.60922   7.62709   7.63415
 Alpha virt. eigenvalues --    7.66746   7.79415   7.89618   8.09544   8.31701
 Alpha virt. eigenvalues --    8.40991   8.54570  13.40164  14.43853  15.16448
 Alpha virt. eigenvalues --   16.32560
          Condensed to atoms (all electrons):
               1          2          3          4          5
     1  H    0.589679   0.128395   0.020049   0.012458  -0.000651
     2  O    0.128395   8.322306  -0.173731  -0.090456   0.015529
     3  O    0.020049  -0.173731   8.474406  -0.132335  -0.039983
     4  N    0.012458  -0.090456  -0.132335   6.974256  -0.056244
     5  O   -0.000651   0.015529  -0.039983  -0.056244   8.273288
 Mulliken charges:
               1
     1  H    0.250070
     2  O   -0.202044
     3  O   -0.148407
     4  N    0.292321
     5  O   -0.191940
 Sum of Mulliken charges =  -0.00000
 Mulliken charges with hydrogens summed into heavy atoms:
               1
     2  O    0.048026
     3  O   -0.148407
     4  N    0.292321
     5  O   -0.191940
 Electronic spatial extent (au):  <R**2>=            252.3720
 Charge=              0.0000 electrons
 Dipole moment (field-independent basis, Debye):
    X=              0.4869    Y=              1.3359    Z=              0.0000  Tot=              1.4219
 Quadrupole moment (field-independent basis, Debye-Ang):
   XX=            -22.4393   YY=            -18.6158   ZZ=            -22.0010
   XY=              3.2751   XZ=             -0.0000   YZ=             -0.0000
 Traceless Quadrupole moment (field-independent basis, Debye-Ang):
   XX=             -1.4206   YY=              2.4029   ZZ=             -0.9823
   XY=              3.2751   XZ=             -0.0000   YZ=             -0.0000
 Octapole moment (field-independent basis, Debye-Ang**2):
  XXX=              2.8165  YYY=             11.1603  ZZZ=             -0.0000  XYY=              7.8587
  XXY=              6.5606  XXZ=              0.0000  XZZ=             -1.5970  YZZ=             -0.8731
  YYZ=              0.0000  XYZ=              0.0000
 Hexadecapole moment (field-independent basis, Debye-Ang**3):
 XXXX=           -158.2292 YYYY=            -89.3600 ZZZZ=            -18.2328 XXXY=            -36.4739
 XXXZ=             -0.0000 YYYX=            -30.5642 YYYZ=             -0.0000 ZZZX=             -0.0000
 ZZZY=             -0.0000 XXYY=            -33.8457 XXZZ=            -30.8378 YYZZ=            -20.5877
 XXYZ=             -0.0000 YYXZ=             -0.0000 ZZXY=            -14.9904
 N-N= 1.170427291963D+02 E-N=-8.962108782098D+02  KE= 2.802214419666D+02
 Symmetry A'   KE= 2.662476551776D+02
 Symmetry A"   KE= 1.397378678893D+01
 No NMR shielding tensors so no spin-rotation constants.
 Leave Link  601 at Mon Feb 14 12:45:20 2022, MaxMem= 16106127360 cpu:               4.6 elap:               0.2
 (Enter /sw/contrib/gaussian/g16/B01/g16/l9999.exe)
 1\1\GINC-N2115\SP\RMP2-FC\Aug-CC-pVTZ\H1N1O3\CGAVINH\14-Feb-2022\0\\#p
  SP mp2/aug-cc-pvtz density=current\\title\\0,1\H\O,1,0.96897556\O,2,1
 .45491931,1,97.59494903\N,3,1.45878406,2,102.29752444,1,180.,0\O,4,1.1
 651232149,3,109.06955123,2,180.,0\\Version=ES64L-G16RevB.01\State=1-A'
 \HF=-279.5025929\MP2=-280.4466845\RMSD=3.641e-09\Dipole=-0.1379722,0.,
 -0.5421332\Quadrupole=-1.5128755,-0.7303463,2.2432218,0.,2.102856,0.\P
 G=CS [SG(H1N1O3)]\\@


 SEEN ON A WALL AT THE UNIVERSITY OF ILLINOIS AT CHICAGO CIRCLE:

 TO DO IS TO BE  -- SOCRATES
 TO BE IS TO DO  -- SARTRE
 OO BE DO BE DO  -- SINATRA
 Job cpu time:       0 days  0 hours  6 minutes 29.3 seconds.
 Elapsed time:       0 days  0 hours  0 minutes 17.9 seconds.
 File lengths (MBytes):  RWF=     22 Int=      0 D2E=      0 Chk=      8 Scr=      1
 Normal termination of Gaussian 16 at Mon Feb 14 12:45:20 2022.
