title                                                                   
SP        RMP2-FC                                                     Aug-CC-pVTZ         
Number of atoms                            I                5
Info1-9                                    I   N=           9
          33          24           0           0           0         110
           1           2           1
Full Title                                 C   N=           1
title       
Route                                      C   N=           4
#p SP mp2/aug-cc-pvtz density=current           
Charge                                     I                0
Multiplicity                               I                1
Number of electrons                        I               32
Number of alpha electrons                  I               16
Number of beta electrons                   I               16
Number of basis functions                  I              207
Number of independent functions            I              207
Number of point charges in /Mol/           I                0
Number of translation vectors              I                0
Atomic numbers                             I   N=           5
           1           8           8           7           8
Nuclear charges                            R   N=           5
  1.00000000E+00  8.00000000E+00  8.00000000E+00  7.00000000E+00  8.00000000E+00
Current cartesian coordinates              R   N=          15
  2.88823234E+00  3.19422774E+00  5.49178249E-32  2.74769338E+00  1.36853054E+00
  7.86194043E-32 -6.67242889E-17  1.27170009E+00  2.26045103E-32 -4.91920779E-01
 -1.44075669E+00  1.54980822E-32 -2.67829174E+00 -1.77884700E+00 -8.13999815E-32
Number of symbols in /Mol/                 I                0
Force Field                                I                0
Atom Types                                 C   N=           5
                                                            
Int Atom Types                             I   N=           5
           0           0           0           0           0
MM charges                                 R   N=           5
  0.00000000E+00  0.00000000E+00  0.00000000E+00  0.00000000E+00  0.00000000E+00
Integer atomic weights                     I   N=           5
           1          16          16          14          16
Real atomic weights                        R   N=           5
  1.00782504E+00  1.59949146E+01  1.59949146E+01  1.40030740E+01  1.59949146E+01
Atom fragment info                         I   N=           5
           0           0           0           0           0
Atom residue num                           I   N=           5
           0           0           0           0           0
Nuclear spins                              I   N=           5
           1           0           0           2           0
Nuclear ZEff                               R   N=           5
 -1.00000000E+00 -5.60000000E+00 -5.60000000E+00 -4.55000000E+00 -5.60000000E+00
Nuclear ZNuc                               R   N=           5
  1.00000000E+00  8.00000000E+00  8.00000000E+00  7.00000000E+00  8.00000000E+00
Nuclear QMom                               R   N=           5
  0.00000000E+00  0.00000000E+00  0.00000000E+00  2.04400000E+00  0.00000000E+00
Nuclear GFac                               R   N=           5
  2.79284600E+00  0.00000000E+00  0.00000000E+00  4.03761000E-01  0.00000000E+00
MicOpt                                     I   N=           5
          -1          -1          -1          -1          -1
Number of residues                         I                0
Number of secondary structures             I                0
SymInf integers                            I   N=          26
           1           2           1           1           1           1
           1          -1           0           0           0           0
           0           0           0           0           0           0
           0           0           0           0           0           0
           0           0
RotTr to input orientation                 R   N=          12
 -9.97050278E-01 -9.83382142E-17 -7.67511806E-02  7.67511806E-02 -7.29876253E-17
 -9.97050278E-01  9.24462574E-17 -1.00000000E+00  8.03199061E-17  2.63455211E+00
  0.00000000E+00  3.40648089E+00
Number of contracted shells                I               65
Number of primitive shells                 I              119
Pure/Cartesian d shells                    I                0
Pure/Cartesian f shells                    I                0
Highest angular momentum                   I                3
Largest degree of contraction              I                7
Shell types                                I   N=          65
           0           0           0           0           1           1
           1          -2          -2           0           0           0
           0           0           1           1           1           1
          -2          -2          -2          -3          -3           0
           0           0           0           0           1           1
           1           1          -2          -2          -2          -3
          -3           0           0           0           0           0
           1           1           1           1          -2          -2
          -2          -3          -3           0           0           0
           0           0           1           1           1           1
          -2          -2          -2          -3          -3
Number of primitives per shell             I   N=          65
           3           1           1           1           1           1
           1           1           1           7           6           1
           1           1           3           1           1           1
           1           1           1           1           1           7
           6           1           1           1           3           1
           1           1           1           1           1           1
           1           7           6           1           1           1
           3           1           1           1           1           1
           1           1           1           7           6           1
           1           1           3           1           1           1
           1           1           1           1           1
Shell to atom map                          I   N=          65
           1           1           1           1           1           1
           1           1           1           2           2           2
           2           2           2           2           2           2
           2           2           2           2           2           3
           3           3           3           3           3           3
           3           3           3           3           3           3
           3           4           4           4           4           4
           4           4           4           4           4           4
           4           4           4           5           5           5
           5           5           5           5           5           5
           5           5           5           5           5
Primitive exponents                        R   N=         119
  3.38700000E+01  5.09500000E+00  1.15900000E+00  3.25800000E-01  1.02700000E-01
  2.52600000E-02  1.40700000E+00  3.88000000E-01  1.02000000E-01  1.05700000E+00
  2.47000000E-01  1.53300000E+04  2.29900000E+03  5.22400000E+02  1.47300000E+02
  4.75500000E+01  1.67600000E+01  6.20700000E+00  5.22400000E+02  1.47300000E+02
  4.75500000E+01  1.67600000E+01  6.20700000E+00  6.88200000E-01  1.75200000E+00
  2.38400000E-01  7.37600000E-02  3.44600000E+01  7.74900000E+00  2.28000000E+00
  7.15600000E-01  2.14000000E-01  5.97400000E-02  2.31400000E+00  6.45000000E-01
  2.14000000E-01  1.42800000E+00  5.00000000E-01  1.53300000E+04  2.29900000E+03
  5.22400000E+02  1.47300000E+02  4.75500000E+01  1.67600000E+01  6.20700000E+00
  5.22400000E+02  1.47300000E+02  4.75500000E+01  1.67600000E+01  6.20700000E+00
  6.88200000E-01  1.75200000E+00  2.38400000E-01  7.37600000E-02  3.44600000E+01
  7.74900000E+00  2.28000000E+00  7.15600000E-01  2.14000000E-01  5.97400000E-02
  2.31400000E+00  6.45000000E-01  2.14000000E-01  1.42800000E+00  5.00000000E-01
  1.14200000E+04  1.71200000E+03  3.89300000E+02  1.10000000E+02  3.55700000E+01
  1.25400000E+01  4.64400000E+00  3.89300000E+02  1.10000000E+02  3.55700000E+01
  1.25400000E+01  4.64400000E+00  5.11800000E-01  1.29300000E+00  1.78700000E-01
  5.76000000E-02  2.66300000E+01  5.94800000E+00  1.74200000E+00  5.55000000E-01
  1.72500000E-01  4.91000000E-02  1.65400000E+00  4.69000000E-01  1.51000000E-01
  1.09300000E+00  3.64000000E-01  1.53300000E+04  2.29900000E+03  5.22400000E+02
  1.47300000E+02  4.75500000E+01  1.67600000E+01  6.20700000E+00  5.22400000E+02
  1.47300000E+02  4.75500000E+01  1.67600000E+01  6.20700000E+00  6.88200000E-01
  1.75200000E+00  2.38400000E-01  7.37600000E-02  3.44600000E+01  7.74900000E+00
  2.28000000E+00  7.15600000E-01  2.14000000E-01  5.97400000E-02  2.31400000E+00
  6.45000000E-01  2.14000000E-01  1.42800000E+00  5.00000000E-01
Contraction coefficients                   R   N=         119
  2.54948632E-02  1.90362766E-01  8.52162022E-01  1.00000000E+00  1.00000000E+00
  1.00000000E+00  1.00000000E+00  1.00000000E+00  1.00000000E+00  1.00000000E+00
  1.00000000E+00  5.19808943E-04  4.02025621E-03  2.07128267E-02  8.10105536E-02
  2.35962985E-01  4.42653446E-01  3.57064423E-01 -4.42115008E-05 -1.22591041E-03
 -1.05517725E-02 -6.74452633E-02 -1.71198607E-01  1.07329856E+00  1.00000000E+00
  1.00000000E+00  1.00000000E+00  4.11634896E-02  2.57762836E-01  8.02419274E-01
  1.00000000E+00  1.00000000E+00  1.00000000E+00  1.00000000E+00  1.00000000E+00
  1.00000000E+00  1.00000000E+00  1.00000000E+00  5.19808943E-04  4.02025621E-03
  2.07128267E-02  8.10105536E-02  2.35962985E-01  4.42653446E-01  3.57064423E-01
 -4.42115008E-05 -1.22591041E-03 -1.05517725E-02 -6.74452633E-02 -1.71198607E-01
  1.07329856E+00  1.00000000E+00  1.00000000E+00  1.00000000E+00  4.11634896E-02
  2.57762836E-01  8.02419274E-01  1.00000000E+00  1.00000000E+00  1.00000000E+00
  1.00000000E+00  1.00000000E+00  1.00000000E+00  1.00000000E+00  1.00000000E+00
  5.34563860E-04  4.13435660E-03  2.12335358E-02  8.25006224E-02  2.38138871E-01
  4.42551547E-01  3.53757422E-01 -4.89867350E-05 -1.19527323E-03 -1.03490714E-02
 -6.48680190E-02 -1.71552477E-01  1.07289568E+00  1.00000000E+00  1.00000000E+00
  1.00000000E+00  3.98072123E-02  2.49002660E-01  8.10479727E-01  1.00000000E+00
  1.00000000E+00  1.00000000E+00  1.00000000E+00  1.00000000E+00  1.00000000E+00
  1.00000000E+00  1.00000000E+00  5.19808943E-04  4.02025621E-03  2.07128267E-02
  8.10105536E-02  2.35962985E-01  4.42653446E-01  3.57064423E-01 -4.42115008E-05
 -1.22591041E-03 -1.05517725E-02 -6.74452633E-02 -1.71198607E-01  1.07329856E+00
  1.00000000E+00  1.00000000E+00  1.00000000E+00  4.11634896E-02  2.57762836E-01
  8.02419274E-01  1.00000000E+00  1.00000000E+00  1.00000000E+00  1.00000000E+00
  1.00000000E+00  1.00000000E+00  1.00000000E+00  1.00000000E+00
Coordinates of each shell                  R   N=         195
  2.88823234E+00  3.19422774E+00  5.34003183E-32  2.88823234E+00  3.19422774E+00
  5.34003183E-32  2.88823234E+00  3.19422774E+00  5.34003183E-32  2.88823234E+00
  3.19422774E+00  5.34003183E-32  2.88823234E+00  3.19422774E+00  5.34003183E-32
  2.88823234E+00  3.19422774E+00  5.34003183E-32  2.88823234E+00  3.19422774E+00
  5.34003183E-32  2.88823234E+00  3.19422774E+00  5.34003183E-32  2.88823234E+00
  3.19422774E+00  5.34003183E-32  2.74769338E+00  1.36853054E+00  5.08019035E-32
  2.74769338E+00  1.36853054E+00  5.08019035E-32  2.74769338E+00  1.36853054E+00
  5.08019035E-32  2.74769338E+00  1.36853054E+00  5.08019035E-32  2.74769338E+00
  1.36853054E+00  5.08019035E-32  2.74769338E+00  1.36853054E+00  5.08019035E-32
  2.74769338E+00  1.36853054E+00  5.08019035E-32  2.74769338E+00  1.36853054E+00
  5.08019035E-32  2.74769338E+00  1.36853054E+00  5.08019035E-32  2.74769338E+00
  1.36853054E+00  5.08019035E-32  2.74769338E+00  1.36853054E+00  5.08019035E-32
  2.74769338E+00  1.36853054E+00  5.08019035E-32  2.74769338E+00  1.36853054E+00
  5.08019035E-32  2.74769338E+00  1.36853054E+00  5.08019035E-32 -5.44355163E-18
  1.27170009E+00  0.00000000E+00 -5.44355163E-18  1.27170009E+00  0.00000000E+00
 -5.44355163E-18  1.27170009E+00  0.00000000E+00 -5.44355163E-18  1.27170009E+00
  0.00000000E+00 -5.44355163E-18  1.27170009E+00  0.00000000E+00 -5.44355163E-18
  1.27170009E+00  0.00000000E+00 -5.44355163E-18  1.27170009E+00  0.00000000E+00
 -5.44355163E-18  1.27170009E+00  0.00000000E+00 -5.44355163E-18  1.27170009E+00
  0.00000000E+00 -5.44355163E-18  1.27170009E+00  0.00000000E+00 -5.44355163E-18
  1.27170009E+00  0.00000000E+00 -5.44355163E-18  1.27170009E+00  0.00000000E+00
 -5.44355163E-18  1.27170009E+00  0.00000000E+00 -5.44355163E-18  1.27170009E+00
  0.00000000E+00 -4.91920779E-01 -1.44075669E+00 -9.09508761E-33 -4.91920779E-01
 -1.44075669E+00 -9.09508761E-33 -4.91920779E-01 -1.44075669E+00 -9.09508761E-33
 -4.91920779E-01 -1.44075669E+00 -9.09508761E-33 -4.91920779E-01 -1.44075669E+00
 -9.09508761E-33 -4.91920779E-01 -1.44075669E+00 -9.09508761E-33 -4.91920779E-01
 -1.44075669E+00 -9.09508761E-33 -4.91920779E-01 -1.44075669E+00 -9.09508761E-33
 -4.91920779E-01 -1.44075669E+00 -9.09508761E-33 -4.91920779E-01 -1.44075669E+00
 -9.09508761E-33 -4.91920779E-01 -1.44075669E+00 -9.09508761E-33 -4.91920779E-01
 -1.44075669E+00 -9.09508761E-33 -4.91920779E-01 -1.44075669E+00 -9.09508761E-33
 -4.91920779E-01 -1.44075669E+00 -9.09508761E-33 -2.67829174E+00 -1.77884700E+00
 -4.95187416E-32 -2.67829174E+00 -1.77884700E+00 -4.95187416E-32 -2.67829174E+00
 -1.77884700E+00 -4.95187416E-32 -2.67829174E+00 -1.77884700E+00 -4.95187416E-32
 -2.67829174E+00 -1.77884700E+00 -4.95187416E-32 -2.67829174E+00 -1.77884700E+00
 -4.95187416E-32 -2.67829174E+00 -1.77884700E+00 -4.95187416E-32 -2.67829174E+00
 -1.77884700E+00 -4.95187416E-32 -2.67829174E+00 -1.77884700E+00 -4.95187416E-32
 -2.67829174E+00 -1.77884700E+00 -4.95187416E-32 -2.67829174E+00 -1.77884700E+00
 -4.95187416E-32 -2.67829174E+00 -1.77884700E+00 -4.95187416E-32 -2.67829174E+00
 -1.77884700E+00 -4.95187416E-32 -2.67829174E+00 -1.77884700E+00 -4.95187416E-32
Num ILSW                                   I              100
ILSW                                       I   N=         100
           0           0           0           0           2           0
           0           0           0           0           0          -1
           5           0           0           0           0           0
           0           0           0           0           0           0
           1           0           0           0           0           0
           0           0      100000           0          -1           0
           0           0           0           0           0           0
           0           0           0           1           0           0
           0 -2000000000           1           0           0           0
           0           0           4          52           0           0
           0           0           0           0           0           0
           0           0           0           5           0           1
           0           0           0           0           0           0
           0           0           0           0           0           0
           0           0           0           0           0           0
           0           0           0           0           0           0
           0           0           0           0
Num RLSW                                   I               52
RLSW                                       R   N=          52
  1.00000000E+00  1.00000000E+00  1.00000000E+00  1.00000000E+00  1.00000000E+00
  0.00000000E+00  0.00000000E+00  1.00000000E+00  0.00000000E+00  0.00000000E+00
  0.00000000E+00  0.00000000E+00  1.00000000E+00  0.00000000E+00  0.00000000E+00
  0.00000000E+00  0.00000000E+00  1.00000000E+00  0.00000000E+00  0.00000000E+00
  0.00000000E+00  0.00000000E+00  1.00000000E+00  0.00000000E+00  0.00000000E+00
  0.00000000E+00  0.00000000E+00  1.00000000E+00  0.00000000E+00  0.00000000E+00
  0.00000000E+00  0.00000000E+00  1.00000000E+00  0.00000000E+00  0.00000000E+00
  0.00000000E+00  0.00000000E+00  0.00000000E+00  1.00000000E+00  1.00000000E+00
  0.00000000E+00  1.00000000E+00  0.00000000E+00  0.00000000E+00  0.00000000E+00
  0.00000000E+00  0.00000000E+00  0.00000000E+00  0.00000000E+00  0.00000000E+00
  0.00000000E+00  0.00000000E+00
MxBond                                     I                2
NBond                                      I   N=           5
           1           2           2           2           1
IBond                                      I   N=          10
           2           0           1           3           2           4
           3           5           4           0
RBond                                      R   N=          10
  1.00000000E+00  0.00000000E+00  1.00000000E+00  1.00000000E+00  1.00000000E+00
  1.00000000E+00  1.00000000E+00  2.00000000E+00  2.00000000E+00  0.00000000E+00
Virial Ratio                               R      2.002337360349567E+00
SCF Energy                                 R     -2.795014770487579E+02
MP2 Energy                                 R     -2.804466914841908E+02
Total Energy                               R     -2.804466914841908E+02
Post-SCF wavefunction norm                 R      1.120256389854070E+00
RMS Density                                R      3.778640072193914E-09
Job Status                                 I                1
Nuclear derivative order                   I                0
External E-field                           R   N=          35
  0.00000000E+00  0.00000000E+00  0.00000000E+00  0.00000000E+00  0.00000000E+00
  0.00000000E+00  0.00000000E+00  0.00000000E+00  0.00000000E+00  0.00000000E+00
  0.00000000E+00  0.00000000E+00  0.00000000E+00  0.00000000E+00  0.00000000E+00
  0.00000000E+00  0.00000000E+00  0.00000000E+00  0.00000000E+00  0.00000000E+00
  0.00000000E+00  0.00000000E+00  0.00000000E+00  0.00000000E+00  0.00000000E+00
  0.00000000E+00  0.00000000E+00  0.00000000E+00  0.00000000E+00  0.00000000E+00
  0.00000000E+00  0.00000000E+00  0.00000000E+00  0.00000000E+00  0.00000000E+00
IOpCl                                      I                0
IROHF                                      I                0
Alpha Orbital Energies                     R   N=         207
 -2.06907503E+01 -2.06842756E+01 -2.06604413E+01 -1.58128064E+01 -1.62408432E+00
 -1.49647812E+00 -1.25423353E+00 -9.48128380E-01 -7.73376670E-01 -7.58423576E-01
 -7.11924693E-01 -6.79046720E-01 -6.20667605E-01 -5.90522144E-01 -4.85371566E-01
 -4.72514356E-01  2.97590505E-02  7.16257039E-02  8.59338811E-02  1.01675620E-01
  1.33895883E-01  1.34031993E-01  1.44095567E-01  1.54595570E-01  1.78220561E-01
  1.94053503E-01  1.99703341E-01  2.06399078E-01  2.20752170E-01  2.35382774E-01
  2.37365357E-01  2.65533382E-01  2.93436013E-01  3.03767359E-01  3.10807459E-01
  3.43332748E-01  3.49926521E-01  3.87266138E-01  4.22938351E-01  4.31277942E-01
  5.27531729E-01  5.29328443E-01  5.58262875E-01  5.81342396E-01  6.26052034E-01
  6.38181545E-01  6.74575359E-01  6.84680785E-01  7.06463669E-01  7.10419109E-01
  7.26442669E-01  7.28822926E-01  7.44491083E-01  7.92665996E-01  7.93506422E-01
  8.11115437E-01  8.12379900E-01  8.29863267E-01  8.67912157E-01  9.08573778E-01
  9.21269356E-01  9.26983659E-01  9.55393386E-01  9.76920363E-01  9.85505059E-01
  1.01706822E+00  1.05171920E+00  1.05458822E+00  1.08255227E+00  1.11754669E+00
  1.14280417E+00  1.18990283E+00  1.22083431E+00  1.23421586E+00  1.33922205E+00
  1.35143915E+00  1.38579097E+00  1.45539609E+00  1.48735408E+00  1.50713545E+00
  1.53757250E+00  1.56670518E+00  1.57960808E+00  1.61159137E+00  1.66318177E+00
  1.67028619E+00  1.70317081E+00  1.79588483E+00  1.83089633E+00  1.83551747E+00
  1.87772064E+00  1.91077392E+00  1.95542204E+00  1.99327848E+00  2.00460293E+00
  2.07856706E+00  2.12423142E+00  2.13205724E+00  2.14971270E+00  2.22575600E+00
  2.26336490E+00  2.26434092E+00  2.29045496E+00  2.31400004E+00  2.34299887E+00
  2.38650124E+00  2.42643331E+00  2.43183468E+00  2.45362383E+00  2.46258101E+00
  2.47847618E+00  2.50012390E+00  2.59017066E+00  2.59807293E+00  2.62132686E+00
  2.62449546E+00  2.63496508E+00  2.66623627E+00  2.75785283E+00  2.82658746E+00
  2.84977966E+00  2.88119434E+00  2.89292715E+00  2.92644436E+00  2.95561912E+00
  3.02443232E+00  3.06868127E+00  3.12076480E+00  3.20736135E+00  3.22474015E+00
  3.31520144E+00  3.34234991E+00  3.51856491E+00  3.63960681E+00  3.83764213E+00
  3.84227447E+00  4.14692528E+00  4.16808691E+00  4.18358184E+00  4.25826418E+00
  4.34716674E+00  4.39507240E+00  4.46227797E+00  4.52437181E+00  4.66005293E+00
  4.72340440E+00  4.80377081E+00  4.82456355E+00  4.82785921E+00  4.89565476E+00
  5.02420686E+00  5.07719497E+00  5.10283699E+00  5.14000735E+00  5.17527107E+00
  5.24742259E+00  5.27095397E+00  5.30706685E+00  5.32881877E+00  5.35680151E+00
  5.60383686E+00  5.67356514E+00  5.76660806E+00  5.83710810E+00  5.95778597E+00
  6.17212847E+00  6.31036817E+00  6.33497586E+00  6.39358738E+00  6.49373322E+00
  6.50526209E+00  6.61458324E+00  6.66803386E+00  6.70143236E+00  6.76000747E+00
  6.76199865E+00  6.83392825E+00  6.89876765E+00  7.02077997E+00  7.05200750E+00
  7.05678139E+00  7.08945517E+00  7.12494687E+00  7.14511377E+00  7.18191407E+00
  7.22611488E+00  7.24165977E+00  7.30460142E+00  7.32472904E+00  7.34883415E+00
  7.39969801E+00  7.44204573E+00  7.48470106E+00  7.60743871E+00  7.61992666E+00
  7.62652629E+00  7.66634531E+00  7.79343096E+00  7.88699465E+00  8.09370735E+00
  8.31726464E+00  8.40036956E+00  8.54336536E+00  1.33895390E+01  1.43905885E+01
  1.51761339E+01  1.61534099E+01
Alpha MO coefficients                      R   N=       42849
  9.08055618E-05 -5.66958027E-04 -6.82262299E-04 -3.44458404E-06 -1.22812447E-05
 -2.89813066E-05  0.00000000E+00 -5.19389998E-05  1.68333747E-05  0.00000000E+00
  7.86167865E-05  1.78287710E-05  0.00000000E+00  2.91158426E-05  0.00000000E+00
  0.00000000E+00 -5.64251247E-05  1.81495780E-05 -7.78406874E-06  0.00000000E+00
  0.00000000E+00 -1.52034478E-04  1.22726034E-04  4.67267955E-03 -2.88784416E-04
  2.07727784E-05  1.44712715E-03  1.76175769E-03  1.05799861E-04  9.15955106E-06
  0.00000000E+00 -6.16646252E-04 -5.62932392E-05  0.00000000E+00 -1.08486190E-03
  7.37803152E-04  0.00000000E+00 -3.94559552E-04  6.04387560E-05  0.00000000E+00
  2.86960883E-05  0.00000000E+00  0.00000000E+00 -5.32180435E-05  6.35755841E-06
 -3.72534111E-04  0.00000000E+00  0.00000000E+00  7.43817368E-04 -3.31293137E-05
 -4.40316669E-04  0.00000000E+00  0.00000000E+00  2.40807973E-04 -7.27780375E-06
  0.00000000E+00  7.98513579E-05  1.33517279E-05  0.00000000E+00  0.00000000E+00
 -1.09638489E-04 -2.37731556E-06  0.00000000E+00  2.55367493E-04 -2.71761317E-05
  0.00000000E+00  0.00000000E+00 -3.48964165E-04  4.52356477E-05  9.76909215E-01
 -9.21773924E-03  4.33205972E-02  2.03933454E-03 -8.89533530E-04  1.48956493E-03
 -1.35359879E-03  0.00000000E+00 -1.43051577E-03  1.38241429E-03  0.00000000E+00
  1.03456444E-04 -1.12815584E-03  0.00000000E+00 -1.27718812E-04 -9.00307979E-06
  0.00000000E+00  4.56016230E-05  0.00000000E+00  0.00000000E+00 -3.57772393E-05
  2.24354003E-05  7.48445880E-04  0.00000000E+00  0.00000000E+00 -2.26890786E-04
 -3.91137243E-04 -3.66765732E-04  0.00000000E+00  0.00000000E+00 -3.08251203E-04
 -3.57033079E-04  0.00000000E+00  4.72301141E-05 -4.85566587E-05  0.00000000E+00
  0.00000000E+00 -3.83716135E-05 -1.62551255E-05  0.00000000E+00  2.36002607E-05
  2.02781572E-05  0.00000000E+00  0.00000000E+00 -3.04976787E-04 -1.39673474E-04
  3.91864003E-05  4.62159635E-05 -2.65282286E-04 -6.89206707E-04 -1.40599615E-04
 -2.70043543E-05 -9.80224034E-05  0.00000000E+00  2.70201550E-04  7.12818011E-04
  0.00000000E+00 -8.23822630E-04 -4.50389982E-04  0.00000000E+00 -1.21694116E-04
 -2.51686997E-05  0.00000000E+00 -1.80428628E-05  0.00000000E+00  0.00000000E+00
 -2.95803676E-05  1.50753532E-05 -3.30325084E-04  0.00000000E+00  0.00000000E+00
 -8.31092676E-04  1.25667439E-04 -3.65173422E-05  0.00000000E+00  0.00000000E+00
  8.75229421E-05 -1.20903347E-04  0.00000000E+00 -2.06163492E-05 -1.20360792E-04
  0.00000000E+00  0.00000000E+00 -6.21740680E-05 -1.38243226E-04  0.00000000E+00
  3.20854565E-06 -1.53935642E-04  0.00000000E+00  0.00000000E+00  4.41537254E-05
 -4.18008346E-04 -2.62537096E-03  1.22491415E-04 -1.25676496E-04 -2.35210960E-04
  1.40423665E-04 -8.08926312E-06 -2.79407480E-05  0.00000000E+00  6.96322015E-05
  1.64597949E-04  0.00000000E+00  2.34754617E-04  1.87266636E-04  0.00000000E+00
  1.25772115E-04  2.28618675E-05  0.00000000E+00 -3.35449311E-06  0.00000000E+00
  0.00000000E+00 -1.79664362E-05  1.38228492E-06  6.70507833E-07  0.00000000E+00
  0.00000000E+00  8.06995767E-05  8.70110845E-05 -9.85728715E-05  0.00000000E+00
  0.00000000E+00  1.68150955E-04  1.56641475E-04  0.00000000E+00  1.58634208E-05
 -3.50849380E-06  0.00000000E+00  0.00000000E+00 -4.33527363E-06 -1.18965681E-05
  0.00000000E+00 -3.35133353E-05  4.56623999E-05  0.00000000E+00  0.00000000E+00
  8.39996538E-05  8.96686752E-05  4.15395391E-05 -9.89687216E-04 -4.82855883E-04
 -1.03512788E-05 -2.10447318E-05  1.55751892E-05  0.00000000E+00  1.95887331E-06
  2.76706303E-04  0.00000000E+00 -3.81510998E-05  1.33012525E-04  0.00000000E+00
  2.71129838E-05  0.00000000E+00  0.00000000E+00  1.14627118E-05  9.71627829E-06
 -2.60967436E-05  0.00000000E+00  0.00000000E+00  9.77723216E-06  3.18495228E-05
  1.14651082E-04  8.41195204E-05 -2.76150748E-05  7.54017719E-04  6.45642355E-04
  1.04373687E-05  2.43736168E-06  0.00000000E+00 -7.42185251E-05  1.75277067E-05
  0.00000000E+00  3.06410472E-04  8.97875121E-04  0.00000000E+00 -3.66775191E-07
  7.84621388E-05  0.00000000E+00 -2.36371312E-06  0.00000000E+00  0.00000000E+00
  2.94247911E-08 -5.67465724E-06 -3.56371770E-05  0.00000000E+00  0.00000000E+00
 -2.24982828E-05  7.92312997E-05 -2.35509103E-05  0.00000000E+00  0.00000000E+00
 -2.63902956E-04 -1.73921468E-04  0.00000000E+00  9.00130811E-06  5.95596876E-06
  0.00000000E+00  0.00000000E+00  2.83790538E-06 -1.90827083E-05  0.00000000E+00
 -3.87104569E-05 -3.79995512E-05  0.00000000E+00  0.00000000E+00 -7.29111988E-05
  1.84351377E-05  2.66436585E-03  3.91841638E-05  9.34650115E-05 -8.57186969E-05
 -4.61154072E-04  7.27613184E-06  1.58322316E-05  0.00000000E+00 -6.21334939E-05
 -5.64010980E-05  0.00000000E+00  2.32871908E-04 -1.80134033E-04  0.00000000E+00
 -1.84964749E-04 -6.30494813E-05  0.00000000E+00 -8.80767293E-06  0.00000000E+00
  0.00000000E+00  2.21912426E-05  1.98708192E-05  4.87940692E-06  0.00000000E+00
  0.00000000E+00 -1.16149457E-04 -4.73771439E-05 -6.96076275E-06  0.00000000E+00
  0.00000000E+00 -2.20490446E-04 -2.00634880E-04  0.00000000E+00  3.42330342E-06
 -2.94753080E-07  0.00000000E+00  0.00000000E+00  1.95278975E-06 -1.38940013E-05
  0.00000000E+00 -4.74043826E-05  2.28388087E-06  0.00000000E+00  0.00000000E+00
 -7.69914549E-05  1.88844253E-04  2.58651901E-04  1.46481921E-03 -7.81689752E-05
 -1.54101777E-03  3.90803840E-04 -1.44544174E-04 -1.98162382E-07  0.00000000E+00
 -2.08807350E-03 -4.04670959E-04  0.00000000E+00  1.04822720E-03  7.71573901E-04
  0.00000000E+00 -1.70739469E-04  5.44046285E-05  0.00000000E+00 -1.23325435E-04
  0.00000000E+00  0.00000000E+00  2.42920557E-04  9.45560215E-05 -4.42568988E-04
  0.00000000E+00  0.00000000E+00  8.97748702E-04 -6.45471259E-05  1.16196218E-05
  0.00000000E+00  0.00000000E+00 -3.41241535E-04 -1.22954173E-04  0.00000000E+00
 -1.39082349E-06  1.51235353E-05  0.00000000E+00  0.00000000E+00  1.89343852E-05
  1.33656153E-05  0.00000000E+00  1.64929863E-04 -7.16959295E-05  0.00000000E+00
  0.00000000E+00 -2.40527283E-04  4.12630571E-05  9.76648979E-01 -9.84853536E-03
  4.35682113E-02  4.51073034E-03 -4.39971870E-04  2.14738126E-03  4.82089134E-04
  0.00000000E+00 -2.38261559E-03 -6.04969104E-04  0.00000000E+00  1.14271187E-03
 -4.76255288E-06  0.00000000E+00  5.48986748E-06 -4.16425078E-05  0.00000000E+00
 -2.32430329E-04  0.00000000E+00  0.00000000E+00  1.02599539E-04  3.21483615E-05
  3.90309632E-04  0.00000000E+00  0.00000000E+00 -8.32946289E-04 -4.20475209E-04
 -1.52898460E-04  0.00000000E+00  0.00000000E+00  2.57152457E-04  1.62395904E-05
  0.00000000E+00  5.21716474E-05  1.77384308E-05  0.00000000E+00  0.00000000E+00
 -2.20457940E-05 -1.33037628E-05  0.00000000E+00  1.38510070E-04  9.45860752E-06
  0.00000000E+00  0.00000000E+00 -1.89110933E-04 -1.41191492E-04  4.71914643E-04
  1.98389371E-03  1.00778381E-04  1.71831546E-05 -3.91071328E-05 -2.48281071E-04
  0.00000000E+00  1.36467378E-04 -1.25783323E-03  0.00000000E+00  3.35594502E-04
 -3.34671975E-04  0.00000000E+00 -3.86006601E-06  0.00000000E+00  0.00000000E+00
  7.51445292E-05  2.30929935E-05 -1.66477906E-04  0.00000000E+00  0.00000000E+00
 -5.35371195E-04 -4.43733086E-05  9.76830418E-01 -9.17092517E-03  4.34453310E-02
  2.45052048E-04 -1.18057658E-03 -1.57662828E-03  1.42703428E-03  0.00000000E+00
  1.59188503E-03 -1.27721427E-03  0.00000000E+00 -5.47477270E-04 -8.00939291E-04
  0.00000000E+00  5.44989318E-05 -4.78574791E-05  0.00000000E+00  3.13003418E-05
  0.00000000E+00  0.00000000E+00 -1.18062876E-04 -9.62818754E-06  7.51867062E-04
  0.00000000E+00  0.00000000E+00 -1.98282070E-04 -2.11740555E-04 -2.68310183E-04
  0.00000000E+00  0.00000000E+00  1.51706298E-04  1.15816348E-04  0.00000000E+00
 -6.41952984E-05  2.27883823E-06  0.00000000E+00  0.00000000E+00  1.78753475E-05
  9.59353472E-06  0.00000000E+00 -4.92578992E-06  1.18271011E-04  0.00000000E+00
  0.00000000E+00  2.43721487E-04  9.43207457E-05 -4.76609940E-03 -2.10855863E-04