title                                                                   
SP        RMP2-FC                                                     Aug-CC-pVTZ         
Number of atoms                            I                5
Info1-9                                    I   N=           9
          33          24           0           0           0         110
           1           2           1
Full Title                                 C   N=           1
title       
Route                                      C   N=           4
#p SP mp2/aug-cc-pvtz density=current           
Charge                                     I                0
Multiplicity                               I                1
Number of electrons                        I               32
Number of alpha electrons                  I               16
Number of beta electrons                   I               16
Number of basis functions                  I              207
Number of independent functions            I              207
Number of point charges in /Mol/           I                0
Number of translation vectors              I                0
Atomic numbers                             I   N=           5
           1           8           8           7           8
Nuclear charges                            R   N=           5
  1.00000000E+00  8.00000000E+00  8.00000000E+00  7.00000000E+00  8.00000000E+00
Current cartesian coordinates              R   N=          15
  2.96332001E+00  3.14633937E+00  1.90906174E-32  2.74907781E+00  1.32781752E+00
 -1.57655357E-32 -9.10880576E-17  1.28579116E+00  2.09110210E-32 -4.97309034E-01
 -1.42568290E+00  6.08602528E-32 -2.68434741E+00 -1.75942856E+00 -1.60263913E-32
Number of symbols in /Mol/                 I                0
Force Field                                I                0
Atom Types                                 C   N=           5
                                                            
Int Atom Types                             I   N=           5
           0           0           0           0           0
MM charges                                 R   N=           5
  0.00000000E+00  0.00000000E+00  0.00000000E+00  0.00000000E+00  0.00000000E+00
Integer atomic weights                     I   N=           5
           1          16          16          14          16
Real atomic weights                        R   N=           5
  1.00782504E+00  1.59949146E+01  1.59949146E+01  1.40030740E+01  1.59949146E+01
Atom fragment info                         I   N=           5
           0           0           0           0           0
Atom residue num                           I   N=           5
           0           0           0           0           0
Nuclear spins                              I   N=           5
           1           0           0           2           0
Nuclear ZEff                               R   N=           5
 -1.00000000E+00 -5.60000000E+00 -5.60000000E+00 -4.55000000E+00 -5.60000000E+00
Nuclear ZNuc                               R   N=           5
  1.00000000E+00  8.00000000E+00  8.00000000E+00  7.00000000E+00  8.00000000E+00
Nuclear QMom                               R   N=           5
  0.00000000E+00  0.00000000E+00  0.00000000E+00  2.04400000E+00  0.00000000E+00
Nuclear GFac                               R   N=           5
  2.79284600E+00  0.00000000E+00  0.00000000E+00  4.03761000E-01  0.00000000E+00
MicOpt                                     I   N=           5
          -1          -1          -1          -1          -1
Number of residues                         I                0
Number of secondary structures             I                0
SymInf integers                            I   N=          26
           1           2           1           1           1           1
           1          -1           0           0           0           0
           0           0           0           0           0           0
           0           0           0           0           0           0
           0           0
RotTr to input orientation                 R   N=          12
 -9.93131678E-01 -9.89919157E-17 -1.17002013E-01  1.17002013E-01 -7.20985330E-17
 -9.93131678E-01  8.98763338E-17 -1.00000000E+00  8.31855904E-17  2.57483894E+00
  0.00000000E+00  3.47144370E+00
Number of contracted shells                I               65
Number of primitive shells                 I              119
Pure/Cartesian d shells                    I                0
Pure/Cartesian f shells                    I                0
Highest angular momentum                   I                3
Largest degree of contraction              I                7
Shell types                                I   N=          65
           0           0           0           0           1           1
           1          -2          -2           0           0           0
           0           0           1           1           1           1
          -2          -2          -2          -3          -3           0
           0           0           0           0           1           1
           1           1          -2          -2          -2          -3
          -3           0           0           0           0           0
           1           1           1           1          -2          -2
          -2          -3          -3           0           0           0
           0           0           1           1           1           1
          -2          -2          -2          -3          -3
Number of primitives per shell             I   N=          65
           3           1           1           1           1           1
           1           1           1           7           6           1
           1           1           3           1           1           1
           1           1           1           1           1           7
           6           1           1           1           3           1
           1           1           1           1           1           1
           1           7           6           1           1           1
           3           1           1           1           1           1
           1           1           1           7           6           1
           1           1           3           1           1           1
           1           1           1           1           1
Shell to atom map                          I   N=          65
           1           1           1           1           1           1
           1           1           1           2           2           2
           2           2           2           2           2           2
           2           2           2           2           2           3
           3           3           3           3           3           3
           3           3           3           3           3           3
           3           4           4           4           4           4
           4           4           4           4           4           4
           4           4           4           5           5           5
           5           5           5           5           5           5
           5           5           5           5           5
Primitive exponents                        R   N=         119
  3.38700000E+01  5.09500000E+00  1.15900000E+00  3.25800000E-01  1.02700000E-01
  2.52600000E-02  1.40700000E+00  3.88000000E-01  1.02000000E-01  1.05700000E+00
  2.47000000E-01  1.53300000E+04  2.29900000E+03  5.22400000E+02  1.47300000E+02
  4.75500000E+01  1.67600000E+01  6.20700000E+00  5.22400000E+02  1.47300000E+02
  4.75500000E+01  1.67600000E+01  6.20700000E+00  6.88200000E-01  1.75200000E+00
  2.38400000E-01  7.37600000E-02  3.44600000E+01  7.74900000E+00  2.28000000E+00
  7.15600000E-01  2.14000000E-01  5.97400000E-02  2.31400000E+00  6.45000000E-01
  2.14000000E-01  1.42800000E+00  5.00000000E-01  1.53300000E+04  2.29900000E+03
  5.22400000E+02  1.47300000E+02  4.75500000E+01  1.67600000E+01  6.20700000E+00
  5.22400000E+02  1.47300000E+02  4.75500000E+01  1.67600000E+01  6.20700000E+00
  6.88200000E-01  1.75200000E+00  2.38400000E-01  7.37600000E-02  3.44600000E+01
  7.74900000E+00  2.28000000E+00  7.15600000E-01  2.14000000E-01  5.97400000E-02
  2.31400000E+00  6.45000000E-01  2.14000000E-01  1.42800000E+00  5.00000000E-01
  1.14200000E+04  1.71200000E+03  3.89300000E+02  1.10000000E+02  3.55700000E+01
  1.25400000E+01  4.64400000E+00  3.89300000E+02  1.10000000E+02  3.55700000E+01
  1.25400000E+01  4.64400000E+00  5.11800000E-01  1.29300000E+00  1.78700000E-01
  5.76000000E-02  2.66300000E+01  5.94800000E+00  1.74200000E+00  5.55000000E-01
  1.72500000E-01  4.91000000E-02  1.65400000E+00  4.69000000E-01  1.51000000E-01
  1.09300000E+00  3.64000000E-01  1.53300000E+04  2.29900000E+03  5.22400000E+02
  1.47300000E+02  4.75500000E+01  1.67600000E+01  6.20700000E+00  5.22400000E+02
  1.47300000E+02  4.75500000E+01  1.67600000E+01  6.20700000E+00  6.88200000E-01
  1.75200000E+00  2.38400000E-01  7.37600000E-02  3.44600000E+01  7.74900000E+00
  2.28000000E+00  7.15600000E-01  2.14000000E-01  5.97400000E-02  2.31400000E+00
  6.45000000E-01  2.14000000E-01  1.42800000E+00  5.00000000E-01
Contraction coefficients                   R   N=         119
  2.54948632E-02  1.90362766E-01  8.52162022E-01  1.00000000E+00  1.00000000E+00
  1.00000000E+00  1.00000000E+00  1.00000000E+00  1.00000000E+00  1.00000000E+00
  1.00000000E+00  5.19808943E-04  4.02025621E-03  2.07128267E-02  8.10105536E-02
  2.35962985E-01  4.42653446E-01  3.57064423E-01 -4.42115008E-05 -1.22591041E-03
 -1.05517725E-02 -6.74452633E-02 -1.71198607E-01  1.07329856E+00  1.00000000E+00
  1.00000000E+00  1.00000000E+00  4.11634896E-02  2.57762836E-01  8.02419274E-01
  1.00000000E+00  1.00000000E+00  1.00000000E+00  1.00000000E+00  1.00000000E+00
  1.00000000E+00  1.00000000E+00  1.00000000E+00  5.19808943E-04  4.02025621E-03
  2.07128267E-02  8.10105536E-02  2.35962985E-01  4.42653446E-01  3.57064423E-01
 -4.42115008E-05 -1.22591041E-03 -1.05517725E-02 -6.74452633E-02 -1.71198607E-01
  1.07329856E+00  1.00000000E+00  1.00000000E+00  1.00000000E+00  4.11634896E-02
  2.57762836E-01  8.02419274E-01  1.00000000E+00  1.00000000E+00  1.00000000E+00
  1.00000000E+00  1.00000000E+00  1.00000000E+00  1.00000000E+00  1.00000000E+00
  5.34563860E-04  4.13435660E-03  2.12335358E-02  8.25006224E-02  2.38138871E-01
  4.42551547E-01  3.53757422E-01 -4.89867350E-05 -1.19527323E-03 -1.03490714E-02
 -6.48680190E-02 -1.71552477E-01  1.07289568E+00  1.00000000E+00  1.00000000E+00
  1.00000000E+00  3.98072123E-02  2.49002660E-01  8.10479727E-01  1.00000000E+00
  1.00000000E+00  1.00000000E+00  1.00000000E+00  1.00000000E+00  1.00000000E+00
  1.00000000E+00  1.00000000E+00  5.19808943E-04  4.02025621E-03  2.07128267E-02
  8.10105536E-02  2.35962985E-01  4.42653446E-01  3.57064423E-01 -4.42115008E-05
 -1.22591041E-03 -1.05517725E-02 -6.74452633E-02 -1.71198607E-01  1.07329856E+00
  1.00000000E+00  1.00000000E+00  1.00000000E+00  4.11634896E-02  2.57762836E-01
  8.02419274E-01  1.00000000E+00  1.00000000E+00  1.00000000E+00  1.00000000E+00
  1.00000000E+00  1.00000000E+00  1.00000000E+00  1.00000000E+00
Coordinates of each shell                  R   N=         195
  2.96332001E+00  3.14633937E+00  3.13155403E-33  2.96332001E+00  3.14633937E+00
  3.13155403E-33  2.96332001E+00  3.14633937E+00  3.13155403E-33  2.96332001E+00
  3.14633937E+00  3.13155403E-33  2.96332001E+00  3.14633937E+00  3.13155403E-33
  2.96332001E+00  3.14633937E+00  3.13155403E-33  2.96332001E+00  3.14633937E+00
  3.13155403E-33  2.96332001E+00  3.14633937E+00  3.13155403E-33  2.96332001E+00
  3.14633937E+00  3.13155403E-33  2.74907781E+00  1.32781752E+00 -6.83309181E-33
  2.74907781E+00  1.32781752E+00 -6.83309181E-33  2.74907781E+00  1.32781752E+00
 -6.83309181E-33  2.74907781E+00  1.32781752E+00 -6.83309181E-33  2.74907781E+00
  1.32781752E+00 -6.83309181E-33  2.74907781E+00  1.32781752E+00 -6.83309181E-33
  2.74907781E+00  1.32781752E+00 -6.83309181E-33  2.74907781E+00  1.32781752E+00
 -6.83309181E-33  2.74907781E+00  1.32781752E+00 -6.83309181E-33  2.74907781E+00
  1.32781752E+00 -6.83309181E-33  2.74907781E+00  1.32781752E+00 -6.83309181E-33
  2.74907781E+00  1.32781752E+00 -6.83309181E-33  2.74907781E+00  1.32781752E+00
 -6.83309181E-33  2.74907781E+00  1.32781752E+00 -6.83309181E-33  9.79912888E-18
  1.28579116E+00  7.86987319E-33  9.79912888E-18  1.28579116E+00  7.86987319E-33
  9.79912888E-18  1.28579116E+00  7.86987319E-33  9.79912888E-18  1.28579116E+00
  7.86987319E-33  9.79912888E-18  1.28579116E+00  7.86987319E-33  9.79912888E-18
  1.28579116E+00  7.86987319E-33  9.79912888E-18  1.28579116E+00  7.86987319E-33
  9.79912888E-18  1.28579116E+00  7.86987319E-33  9.79912888E-18  1.28579116E+00
  7.86987319E-33  9.79912888E-18  1.28579116E+00  7.86987319E-33  9.79912888E-18
  1.28579116E+00  7.86987319E-33  9.79912888E-18  1.28579116E+00  7.86987319E-33
  9.79912888E-18  1.28579116E+00  7.86987319E-33  9.79912888E-18  1.28579116E+00
  7.86987319E-33 -4.97309034E-01 -1.42568290E+00 -6.01979739E-33 -4.97309034E-01
 -1.42568290E+00 -6.01979739E-33 -4.97309034E-01 -1.42568290E+00 -6.01979739E-33
 -4.97309034E-01 -1.42568290E+00 -6.01979739E-33 -4.97309034E-01 -1.42568290E+00
 -6.01979739E-33 -4.97309034E-01 -1.42568290E+00 -6.01979739E-33 -4.97309034E-01
 -1.42568290E+00 -6.01979739E-33 -4.97309034E-01 -1.42568290E+00 -6.01979739E-33
 -4.97309034E-01 -1.42568290E+00 -6.01979739E-33 -4.97309034E-01 -1.42568290E+00
 -6.01979739E-33 -4.97309034E-01 -1.42568290E+00 -6.01979739E-33 -4.97309034E-01
 -1.42568290E+00 -6.01979739E-33 -4.97309034E-01 -1.42568290E+00 -6.01979739E-33
 -4.97309034E-01 -1.42568290E+00 -6.01979739E-33 -2.68434741E+00 -1.75942856E+00
  3.83909708E-33 -2.68434741E+00 -1.75942856E+00  3.83909708E-33 -2.68434741E+00
 -1.75942856E+00  3.83909708E-33 -2.68434741E+00 -1.75942856E+00  3.83909708E-33
 -2.68434741E+00 -1.75942856E+00  3.83909708E-33 -2.68434741E+00 -1.75942856E+00
  3.83909708E-33 -2.68434741E+00 -1.75942856E+00  3.83909708E-33 -2.68434741E+00
 -1.75942856E+00  3.83909708E-33 -2.68434741E+00 -1.75942856E+00  3.83909708E-33
 -2.68434741E+00 -1.75942856E+00  3.83909708E-33 -2.68434741E+00 -1.75942856E+00
  3.83909708E-33 -2.68434741E+00 -1.75942856E+00  3.83909708E-33 -2.68434741E+00
 -1.75942856E+00  3.83909708E-33 -2.68434741E+00 -1.75942856E+00  3.83909708E-33
Num ILSW                                   I              100
ILSW                                       I   N=         100
           0           0           0           0           2           0
           0           0           0           0           0          -1
           5           0           0           0           0           0
           0           0           0           0           0           0
           1           0           0           0           0           0
           0           0      100000           0          -1           0
           0           0           0           0           0           0
           0           0           0           1           0           0
           0 -2000000000           1           0           0           0
           0           0           4          52           0           0
           0           0           0           0           0           0
           0           0           0           5           0           1
           0           0           0           0           0           0
           0           0           0           0           0           0
           0           0           0           0           0           0
           0           0           0           0           0           0
           0           0           0           0
Num RLSW                                   I               52
RLSW                                       R   N=          52
  1.00000000E+00  1.00000000E+00  1.00000000E+00  1.00000000E+00  1.00000000E+00
  0.00000000E+00  0.00000000E+00  1.00000000E+00  0.00000000E+00  0.00000000E+00
  0.00000000E+00  0.00000000E+00  1.00000000E+00  0.00000000E+00  0.00000000E+00
  0.00000000E+00  0.00000000E+00  1.00000000E+00  0.00000000E+00  0.00000000E+00
  0.00000000E+00  0.00000000E+00  1.00000000E+00  0.00000000E+00  0.00000000E+00
  0.00000000E+00  0.00000000E+00  1.00000000E+00  0.00000000E+00  0.00000000E+00
  0.00000000E+00  0.00000000E+00  1.00000000E+00  0.00000000E+00  0.00000000E+00
  0.00000000E+00  0.00000000E+00  0.00000000E+00  1.00000000E+00  1.00000000E+00
  0.00000000E+00  1.00000000E+00  0.00000000E+00  0.00000000E+00  0.00000000E+00
  0.00000000E+00  0.00000000E+00  0.00000000E+00  0.00000000E+00  0.00000000E+00
  0.00000000E+00  0.00000000E+00
MxBond                                     I                2
NBond                                      I   N=           5
           1           2           2           2           1
IBond                                      I   N=          10
           2           0           1           3           2           4
           3           5           4           0
RBond                                      R   N=          10
  1.00000000E+00  0.00000000E+00  1.00000000E+00  1.00000000E+00  1.00000000E+00
  1.00000000E+00  1.00000000E+00  2.00000000E+00  2.00000000E+00  0.00000000E+00
Virial Ratio                               R      2.002330965757063E+00
SCF Energy                                 R     -2.795015476645028E+02
MP2 Energy                                 R     -2.804466894332002E+02
Total Energy                               R     -2.804466894332002E+02
Post-SCF wavefunction norm                 R      1.120224050230422E+00
RMS Density                                R      3.782385649563733E-09
Job Status                                 I                1
Nuclear derivative order                   I                0
External E-field                           R   N=          35
  0.00000000E+00  0.00000000E+00  0.00000000E+00  0.00000000E+00  0.00000000E+00
  0.00000000E+00  0.00000000E+00  0.00000000E+00  0.00000000E+00  0.00000000E+00
  0.00000000E+00  0.00000000E+00  0.00000000E+00  0.00000000E+00  0.00000000E+00
  0.00000000E+00  0.00000000E+00  0.00000000E+00  0.00000000E+00  0.00000000E+00
  0.00000000E+00  0.00000000E+00  0.00000000E+00  0.00000000E+00  0.00000000E+00
  0.00000000E+00  0.00000000E+00  0.00000000E+00  0.00000000E+00  0.00000000E+00
  0.00000000E+00  0.00000000E+00  0.00000000E+00  0.00000000E+00  0.00000000E+00
IOpCl                                      I                0
IROHF                                      I                0
Alpha Orbital Energies                     R   N=         207
 -2.06911445E+01 -2.06840659E+01 -2.06596332E+01 -1.58125189E+01 -1.62407067E+00
 -1.49604212E+00 -1.25390514E+00 -9.48278369E-01 -7.73595186E-01 -7.58753152E-01
 -7.11946931E-01 -6.77762926E-01 -6.20172657E-01 -5.90188817E-01 -4.85306048E-01
 -4.72711999E-01  2.96226126E-02  7.17975403E-02  8.59253108E-02  1.01441732E-01
  1.34046139E-01  1.34073385E-01  1.44204555E-01  1.54857429E-01  1.78212987E-01
  1.94050889E-01  1.99706176E-01  2.06412294E-01  2.20964537E-01  2.35506765E-01
  2.37468304E-01  2.65327976E-01  2.93260543E-01  3.04461386E-01  3.10259731E-01
  3.43200283E-01  3.50071390E-01  3.87689334E-01  4.21629656E-01  4.30959247E-01
  5.27181572E-01  5.30046682E-01  5.59861414E-01  5.83230105E-01  6.26149430E-01
  6.37430717E-01  6.74268069E-01  6.84381722E-01  7.05786934E-01  7.11858872E-01
  7.23858886E-01  7.29987759E-01  7.44703457E-01  7.90417050E-01  7.91962391E-01
  8.09787612E-01  8.12838751E-01  8.31589236E-01  8.68246408E-01  9.07787860E-01
  9.22437739E-01  9.26009152E-01  9.58240718E-01  9.81177858E-01  9.85527816E-01
  1.01651555E+00  1.05274917E+00  1.05404380E+00  1.08524445E+00  1.12017558E+00
  1.14303943E+00  1.18834430E+00  1.22174322E+00  1.23160073E+00  1.33798258E+00
  1.34968109E+00  1.38745466E+00  1.45277930E+00  1.48759675E+00  1.50894806E+00
  1.53929817E+00  1.56789507E+00  1.58044012E+00  1.61481620E+00  1.66614421E+00
  1.66844219E+00  1.70326276E+00  1.79303463E+00  1.82881342E+00  1.83341221E+00
  1.87919063E+00  1.91188399E+00  1.95795619E+00  1.99306218E+00  2.00588318E+00
  2.07708599E+00  2.11861839E+00  2.13130576E+00  2.15023216E+00  2.22490752E+00
  2.26405142E+00  2.26512206E+00  2.28853787E+00  2.31620928E+00  2.34985935E+00
  2.38742678E+00  2.42622939E+00  2.42863319E+00  2.45361349E+00  2.46385809E+00
  2.47691903E+00  2.50502927E+00  2.59000119E+00  2.59550998E+00  2.61972161E+00
  2.62585977E+00  2.63225995E+00  2.66948810E+00  2.76035874E+00  2.82912210E+00
  2.86446582E+00  2.88938144E+00  2.89498915E+00  2.92262658E+00  2.95634078E+00
  3.03137495E+00  3.07089654E+00  3.12434483E+00  3.20607409E+00  3.22992575E+00
  3.31556405E+00  3.33634957E+00  3.50948697E+00  3.64962081E+00  3.83957617E+00
  3.84470360E+00  4.15001205E+00  4.16248508E+00  4.18494656E+00  4.26016268E+00
  4.34865705E+00  4.39539372E+00  4.46370075E+00  4.51824261E+00  4.66818471E+00
  4.71130709E+00  4.80835991E+00  4.82427831E+00  4.82903092E+00  4.89668741E+00
  5.02221402E+00  5.07724632E+00  5.10223717E+00  5.14082821E+00  5.18284067E+00
  5.24534700E+00  5.27150436E+00  5.30835169E+00  5.33254582E+00  5.36095389E+00
  5.61486588E+00  5.67384771E+00  5.77176538E+00  5.82859744E+00  5.95740334E+00
  6.17227284E+00  6.30869640E+00  6.33714881E+00  6.39344808E+00  6.49316920E+00
  6.50453706E+00  6.61574079E+00  6.66606627E+00  6.69833267E+00  6.76117005E+00
  6.76355533E+00  6.83366608E+00  6.89687887E+00  7.01091196E+00  7.05322090E+00
  7.05758686E+00  7.09027975E+00  7.12560736E+00  7.15155646E+00  7.18235256E+00
  7.22349377E+00  7.24319521E+00  7.30901364E+00  7.32480018E+00  7.35338510E+00
  7.40174047E+00  7.42989205E+00  7.48632431E+00  7.60462963E+00  7.61787820E+00
  7.63232462E+00  7.66874361E+00  7.79250970E+00  7.89215369E+00  8.08961362E+00
  8.31543561E+00  8.40923110E+00  8.54371319E+00  1.33999276E+01  1.43727761E+01
  1.51742117E+01  1.61545531E+01
Alpha MO coefficients                      R   N=       42849
  9.12964162E-05 -6.22084428E-04 -7.17128718E-04 -3.39398066E-06 -2.06427699E-05
 -2.67971317E-05  0.00000000E+00 -4.58318748E-05  5.54696760E-05  0.00000000E+00
  8.35679144E-05  3.27811185E-05  0.00000000E+00  3.14421750E-05  0.00000000E+00
  0.00000000E+00 -4.90625032E-05  2.29435490E-05 -5.56716535E-06  0.00000000E+00
  0.00000000E+00 -1.32295628E-04  1.22443352E-04  4.49614028E-03 -2.82660295E-04
  1.21823771E-05  1.51055247E-03  1.81270270E-03  1.05407381E-04  5.51714523E-06
  0.00000000E+00 -6.10714343E-04 -2.45322260E-05  0.00000000E+00 -1.06800463E-03
  7.97843120E-04  0.00000000E+00 -3.98851634E-04  7.03061915E-05  0.00000000E+00
  2.88931055E-05  0.00000000E+00  0.00000000E+00 -5.37778824E-05  7.80010828E-06
 -3.76337529E-04  0.00000000E+00  0.00000000E+00  7.36154360E-04 -6.09032591E-05
 -4.44468450E-04  0.00000000E+00  0.00000000E+00  2.36483414E-04 -2.13771216E-05
  0.00000000E+00  7.98917540E-05  1.11112439E-05  0.00000000E+00  0.00000000E+00
 -1.09987917E-04  2.69939199E-06  0.00000000E+00  2.55422934E-04 -3.14009203E-05
  0.00000000E+00  0.00000000E+00 -3.46119686E-04  7.02008202E-05  9.76912285E-01
 -9.22276443E-03  4.33152779E-02  2.07860161E-03 -9.15213082E-04  1.47959863E-03
 -1.37112252E-03  0.00000000E+00 -1.42679786E-03  1.40534304E-03  0.00000000E+00
  9.31134079E-05 -1.15929101E-03  0.00000000E+00 -1.31302553E-04 -1.10701834E-05
  0.00000000E+00  4.77669305E-05  0.00000000E+00  0.00000000E+00 -3.55165314E-05
  1.94530115E-05  7.43286612E-04  0.00000000E+00  0.00000000E+00 -2.36403979E-04
 -3.62796264E-04 -3.60692730E-04  0.00000000E+00  0.00000000E+00 -3.16047922E-04
 -3.74234003E-04  0.00000000E+00  4.74572872E-05 -4.98413212E-05  0.00000000E+00
  0.00000000E+00 -3.91914525E-05 -1.40193487E-05  0.00000000E+00  2.24547946E-05
  2.14291187E-05  0.00000000E+00  0.00000000E+00 -3.03517412E-04 -1.25847252E-04
  3.83796989E-05  4.24379683E-05 -2.62722911E-04 -7.20041256E-04 -1.45828904E-04
 -2.67149803E-05 -9.67156626E-05  0.00000000E+00  2.61987524E-04  6.98287371E-04
  0.00000000E+00 -8.20432466E-04 -4.77332760E-04  0.00000000E+00 -1.27970421E-04
 -2.81092033E-05  0.00000000E+00 -1.77812081E-05  0.00000000E+00  0.00000000E+00
 -2.88385277E-05  1.50730001E-05 -3.27827987E-04  0.00000000E+00  0.00000000E+00
 -8.24826601E-04  1.27379335E-04 -3.65870000E-05  0.00000000E+00  0.00000000E+00
  9.37803230E-05 -1.13400377E-04  0.00000000E+00 -2.02890242E-05 -1.19745665E-04
  0.00000000E+00  0.00000000E+00 -6.42900336E-05 -1.37838370E-04  0.00000000E+00
 -8.89157900E-07 -1.55990443E-04  0.00000000E+00  0.00000000E+00  4.39063013E-05
 -4.11621845E-04 -2.41365974E-03  1.20343338E-04 -1.15274873E-04 -2.31643902E-04
  1.39113978E-04 -7.57995785E-06 -2.70124411E-05  0.00000000E+00  6.84057436E-05
  1.58792889E-04  0.00000000E+00  2.32908061E-04  2.05513087E-04  0.00000000E+00
  1.27578188E-04  2.69999105E-05  0.00000000E+00 -3.21284165E-06  0.00000000E+00
  0.00000000E+00 -1.78115644E-05  1.26449943E-06  1.09799570E-06  0.00000000E+00
  0.00000000E+00  7.90054583E-05  8.56434578E-05 -9.95378653E-05  0.00000000E+00
  0.00000000E+00  1.62174151E-04  1.63834074E-04  0.00000000E+00  1.59629604E-05
 -3.39475040E-06  0.00000000E+00  0.00000000E+00 -4.17256924E-06 -1.21265520E-05
  0.00000000E+00 -3.33341016E-05  4.50239605E-05  0.00000000E+00  0.00000000E+00
  8.14889568E-05  8.96797978E-05  4.08153972E-05 -9.95419560E-04 -4.76772049E-04
 -1.18888155E-05 -2.19652253E-05  1.56238983E-05  0.00000000E+00  3.99799382E-06
  2.72382735E-04  0.00000000E+00 -4.62328353E-05  1.30309017E-04  0.00000000E+00
  2.64024279E-05  0.00000000E+00  0.00000000E+00  1.16876537E-05  1.02752247E-05
 -3.05727812E-05  0.00000000E+00  0.00000000E+00  1.38635798E-05  3.72541152E-05
  1.11992919E-04  9.12889937E-05 -2.82862720E-05  7.29047341E-04  6.12976065E-04
  1.03044838E-05  2.33139644E-06  0.00000000E+00 -7.59022610E-05  1.44305725E-05
  0.00000000E+00  3.75115970E-04  9.31015065E-04  0.00000000E+00  1.68497467E-05
  8.75253979E-05  0.00000000E+00 -2.67448531E-06  0.00000000E+00  0.00000000E+00
 -2.04666920E-07 -4.80791900E-06 -3.41458611E-05  0.00000000E+00  0.00000000E+00
 -1.54535247E-05  7.75054842E-05 -1.95618043E-05  0.00000000E+00  0.00000000E+00
 -2.77002667E-04 -1.71401245E-04  0.00000000E+00  9.17447123E-06  6.04454739E-06
  0.00000000E+00  0.00000000E+00  2.48150588E-06 -1.84026706E-05  0.00000000E+00
 -4.17622621E-05 -3.92919755E-05  0.00000000E+00  0.00000000E+00 -7.93196118E-05
  3.01748550E-05  2.45232382E-03  3.99331517E-05  8.43503720E-05 -7.00481339E-05
 -4.56935090E-04  7.23027291E-06  1.57215738E-05  0.00000000E+00 -6.23671234E-05
 -5.33876605E-05  0.00000000E+00  2.36398414E-04 -2.09211229E-04  0.00000000E+00
 -1.77615023E-04 -6.11247046E-05  0.00000000E+00 -8.73575932E-06  0.00000000E+00
  0.00000000E+00  2.23226330E-05  2.02249751E-05  4.73016338E-06  0.00000000E+00
  0.00000000E+00 -1.17107760E-04 -4.84125759E-05 -5.78532912E-06  0.00000000E+00
  0.00000000E+00 -2.23127591E-04 -2.19396250E-04  0.00000000E+00  3.21698842E-06
 -1.04935654E-06  0.00000000E+00  0.00000000E+00  1.66412905E-06 -1.29626820E-05
  0.00000000E+00 -4.61102892E-05  5.66634486E-06  0.00000000E+00  0.00000000E+00
 -7.51211957E-05  1.82787991E-04  2.58647676E-04  1.46461286E-03 -7.79267520E-05
 -1.52710425E-03  4.18441737E-04 -1.44318923E-04  4.29227457E-07  0.00000000E+00
 -2.09614664E-03 -4.04657128E-04  0.00000000E+00  1.07103014E-03  7.80582201E-04
  0.00000000E+00 -1.71303768E-04  5.89790443E-05  0.00000000E+00 -1.23220952E-04
  0.00000000E+00  0.00000000E+00  2.43344258E-04  9.30798313E-05 -4.43621489E-04
  0.00000000E+00  0.00000000E+00  8.99122867E-04 -6.43482741E-05  9.78010810E-06
  0.00000000E+00  0.00000000E+00 -3.43212943E-04 -1.16540583E-04  0.00000000E+00
 -6.39172331E-07  1.56336650E-05  0.00000000E+00  0.00000000E+00  1.81090530E-05
  1.21488883E-05  0.00000000E+00  1.60319614E-04 -7.36739301E-05  0.00000000E+00
  0.00000000E+00 -2.39504013E-04  4.74325639E-05  9.76649473E-01 -9.84636237E-03
  4.35696185E-02  4.51486212E-03 -4.51040672E-04  2.14775195E-03  4.76531321E-04
  0.00000000E+00 -2.38432441E-03 -6.00459051E-04  0.00000000E+00  1.13417321E-03
 -6.45469798E-06  0.00000000E+00  2.88922720E-06 -4.05898275E-05  0.00000000E+00
 -2.32747491E-04  0.00000000E+00  0.00000000E+00  1.02603277E-04  3.20505591E-05
  3.90790277E-04  0.00000000E+00  0.00000000E+00 -8.36856523E-04 -4.17364481E-04
 -1.50568164E-04  0.00000000E+00  0.00000000E+00  2.52343895E-04  1.36019998E-05
  0.00000000E+00  5.22764320E-05  1.74797144E-05  0.00000000E+00  0.00000000E+00
 -2.24418397E-05 -1.30331308E-05  0.00000000E+00  1.39093114E-04  9.58348418E-06
  0.00000000E+00  0.00000000E+00 -1.90819319E-04 -1.40292920E-04  4.77396555E-04
  2.12250664E-03  1.36333817E-04  1.50411585E-05 -4.48416903E-05 -2.48289364E-04
  0.00000000E+00  8.31234075E-05 -1.29549185E-03  0.00000000E+00  2.85548933E-04
 -3.52812902E-04  0.00000000E+00 -3.45828142E-06  0.00000000E+00  0.00000000E+00
  7.53995282E-05  1.14764280E-05 -1.59113462E-04  0.00000000E+00  0.00000000E+00
 -5.38409877E-04 -1.49197026E-06  9.76829374E-01 -9.16558674E-03  4.34521994E-02
  1.16045154E-04 -1.09502804E-03 -1.52927799E-03  1.47533099E-03  0.00000000E+00
  1.54371156E-03 -1.31967112E-03  0.00000000E+00 -5.92600345E-04 -9.32904806E-04
  0.00000000E+00  5.39386683E-05 -1.42737560E-05  0.00000000E+00  2.88746284E-05
  0.00000000E+00  0.00000000E+00 -1.18922603E-04  3.08686379E-06  7.60911031E-04
  0.00000000E+00  0.00000000E+00 -2.03076106E-04 -2.29699758E-04 -2.65231632E-04
  0.00000000E+00  0.00000000E+00  1.76391504E-04  1.43036193E-04  0.00000000E+00
 -6.37286703E-05  1.69697103E-06  0.00000000E+00  0.00000000E+00  1.82388237E-05
  9.00938279E-06  0.00000000E+00  1.53962430E-06  1.28271305E-04  0.00000000E+00
  0.00000000E+00  2.67289363E-04  7.85353298E-05 -4.58896942E-03 -2.12236070E-04