title                                                                   
SP        RMP2-FC                                                     Aug-CC-pVTZ         
Number of atoms                            I                5
Info1-9                                    I   N=           9
          33          24           0           0           0         110
           1           2           1
Full Title                                 C   N=           1
title       
Route                                      C   N=           4
#p SP mp2/aug-cc-pvtz density=current           
Charge                                     I                0
Multiplicity                               I                1
Number of electrons                        I               32
Number of alpha electrons                  I               16
Number of beta electrons                   I               16
Number of basis functions                  I              207
Number of independent functions            I              207
Number of point charges in /Mol/           I                0
Number of translation vectors              I                0
Atomic numbers                             I   N=           5
           1           8           8           7           8
Nuclear charges                            R   N=           5
  1.00000000E+00  8.00000000E+00  8.00000000E+00  7.00000000E+00  8.00000000E+00
Current cartesian coordinates              R   N=          15
  2.93133663E+00  3.18194505E+00  2.17967071E-31  2.74796954E+00  1.36005099E+00
  1.49780966E-31  1.06135457E-16  1.27140306E+00 -3.01491753E-33 -4.99995759E-01
 -1.43957685E+00 -8.04951525E-32 -2.67689032E+00 -1.76956743E+00 -1.24096455E-31
Number of symbols in /Mol/                 I                0
Force Field                                I                0
Atom Types                                 C   N=           5
                                                            
Int Atom Types                             I   N=           5
           0           0           0           0           0
MM charges                                 R   N=           5
  0.00000000E+00  0.00000000E+00  0.00000000E+00  0.00000000E+00  0.00000000E+00
Integer atomic weights                     I   N=           5
           1          16          16          14          16
Real atomic weights                        R   N=           5
  1.00782504E+00  1.59949146E+01  1.59949146E+01  1.40030740E+01  1.59949146E+01
Atom fragment info                         I   N=           5
           0           0           0           0           0
Atom residue num                           I   N=           5
           0           0           0           0           0
Nuclear spins                              I   N=           5
           1           0           0           2           0
Nuclear ZEff                               R   N=           5
 -1.00000000E+00 -5.60000000E+00 -5.60000000E+00 -4.55000000E+00 -5.60000000E+00
Nuclear ZNuc                               R   N=           5
  1.00000000E+00  8.00000000E+00  8.00000000E+00  7.00000000E+00  8.00000000E+00
Nuclear QMom                               R   N=           5
  0.00000000E+00  0.00000000E+00  0.00000000E+00  2.04400000E+00  0.00000000E+00
Nuclear GFac                               R   N=           5
  2.79284600E+00  0.00000000E+00  0.00000000E+00  4.03761000E-01  0.00000000E+00
MicOpt                                     I   N=           5
          -1          -1          -1          -1          -1
Number of residues                         I                0
Number of secondary structures             I                0
SymInf integers                            I   N=          26
           1           2           1           1           1           1
           1          -1           0           0           0           0
           0           0           0           0           0           0
           0           0           0           0           0           0
           0           0
RotTr to input orientation                 R   N=          12
 -9.94973307E-01 -9.85309844E-17 -1.00140491E-01  1.00140491E-01 -7.27271816E-17
 -9.94973307E-01  9.07527637E-17 -1.00000000E+00  8.22285456E-17  2.59796016E+00
  0.00000000E+00  3.45949588E+00
Number of contracted shells                I               65
Number of primitive shells                 I              119
Pure/Cartesian d shells                    I                0
Pure/Cartesian f shells                    I                0
Highest angular momentum                   I                3
Largest degree of contraction              I                7
Shell types                                I   N=          65
           0           0           0           0           1           1
           1          -2          -2           0           0           0
           0           0           1           1           1           1
          -2          -2          -2          -3          -3           0
           0           0           0           0           1           1
           1           1          -2          -2          -2          -3
          -3           0           0           0           0           0
           1           1           1           1          -2          -2
          -2          -3          -3           0           0           0
           0           0           1           1           1           1
          -2          -2          -2          -3          -3
Number of primitives per shell             I   N=          65
           3           1           1           1           1           1
           1           1           1           7           6           1
           1           1           3           1           1           1
           1           1           1           1           1           7
           6           1           1           1           3           1
           1           1           1           1           1           1
           1           7           6           1           1           1
           3           1           1           1           1           1
           1           1           1           7           6           1
           1           1           3           1           1           1
           1           1           1           1           1
Shell to atom map                          I   N=          65
           1           1           1           1           1           1
           1           1           1           2           2           2
           2           2           2           2           2           2
           2           2           2           2           2           3
           3           3           3           3           3           3
           3           3           3           3           3           3
           3           4           4           4           4           4
           4           4           4           4           4           4
           4           4           4           5           5           5
           5           5           5           5           5           5
           5           5           5           5           5
Primitive exponents                        R   N=         119
  3.38700000E+01  5.09500000E+00  1.15900000E+00  3.25800000E-01  1.02700000E-01
  2.52600000E-02  1.40700000E+00  3.88000000E-01  1.02000000E-01  1.05700000E+00
  2.47000000E-01  1.53300000E+04  2.29900000E+03  5.22400000E+02  1.47300000E+02
  4.75500000E+01  1.67600000E+01  6.20700000E+00  5.22400000E+02  1.47300000E+02
  4.75500000E+01  1.67600000E+01  6.20700000E+00  6.88200000E-01  1.75200000E+00
  2.38400000E-01  7.37600000E-02  3.44600000E+01  7.74900000E+00  2.28000000E+00
  7.15600000E-01  2.14000000E-01  5.97400000E-02  2.31400000E+00  6.45000000E-01
  2.14000000E-01  1.42800000E+00  5.00000000E-01  1.53300000E+04  2.29900000E+03
  5.22400000E+02  1.47300000E+02  4.75500000E+01  1.67600000E+01  6.20700000E+00
  5.22400000E+02  1.47300000E+02  4.75500000E+01  1.67600000E+01  6.20700000E+00
  6.88200000E-01  1.75200000E+00  2.38400000E-01  7.37600000E-02  3.44600000E+01
  7.74900000E+00  2.28000000E+00  7.15600000E-01  2.14000000E-01  5.97400000E-02
  2.31400000E+00  6.45000000E-01  2.14000000E-01  1.42800000E+00  5.00000000E-01
  1.14200000E+04  1.71200000E+03  3.89300000E+02  1.10000000E+02  3.55700000E+01
  1.25400000E+01  4.64400000E+00  3.89300000E+02  1.10000000E+02  3.55700000E+01
  1.25400000E+01  4.64400000E+00  5.11800000E-01  1.29300000E+00  1.78700000E-01
  5.76000000E-02  2.66300000E+01  5.94800000E+00  1.74200000E+00  5.55000000E-01
  1.72500000E-01  4.91000000E-02  1.65400000E+00  4.69000000E-01  1.51000000E-01
  1.09300000E+00  3.64000000E-01  1.53300000E+04  2.29900000E+03  5.22400000E+02
  1.47300000E+02  4.75500000E+01  1.67600000E+01  6.20700000E+00  5.22400000E+02
  1.47300000E+02  4.75500000E+01  1.67600000E+01  6.20700000E+00  6.88200000E-01
  1.75200000E+00  2.38400000E-01  7.37600000E-02  3.44600000E+01  7.74900000E+00
  2.28000000E+00  7.15600000E-01  2.14000000E-01  5.97400000E-02  2.31400000E+00
  6.45000000E-01  2.14000000E-01  1.42800000E+00  5.00000000E-01
Contraction coefficients                   R   N=         119
  2.54948632E-02  1.90362766E-01  8.52162022E-01  1.00000000E+00  1.00000000E+00
  1.00000000E+00  1.00000000E+00  1.00000000E+00  1.00000000E+00  1.00000000E+00
  1.00000000E+00  5.19808943E-04  4.02025621E-03  2.07128267E-02  8.10105536E-02
  2.35962985E-01  4.42653446E-01  3.57064423E-01 -4.42115008E-05 -1.22591041E-03
 -1.05517725E-02 -6.74452633E-02 -1.71198607E-01  1.07329856E+00  1.00000000E+00
  1.00000000E+00  1.00000000E+00  4.11634896E-02  2.57762836E-01  8.02419274E-01
  1.00000000E+00  1.00000000E+00  1.00000000E+00  1.00000000E+00  1.00000000E+00
  1.00000000E+00  1.00000000E+00  1.00000000E+00  5.19808943E-04  4.02025621E-03
  2.07128267E-02  8.10105536E-02  2.35962985E-01  4.42653446E-01  3.57064423E-01
 -4.42115008E-05 -1.22591041E-03 -1.05517725E-02 -6.74452633E-02 -1.71198607E-01
  1.07329856E+00  1.00000000E+00  1.00000000E+00  1.00000000E+00  4.11634896E-02
  2.57762836E-01  8.02419274E-01  1.00000000E+00  1.00000000E+00  1.00000000E+00
  1.00000000E+00  1.00000000E+00  1.00000000E+00  1.00000000E+00  1.00000000E+00
  5.34563860E-04  4.13435660E-03  2.12335358E-02  8.25006224E-02  2.38138871E-01
  4.42551547E-01  3.53757422E-01 -4.89867350E-05 -1.19527323E-03 -1.03490714E-02
 -6.48680190E-02 -1.71552477E-01  1.07289568E+00  1.00000000E+00  1.00000000E+00
  1.00000000E+00  3.98072123E-02  2.49002660E-01  8.10479727E-01  1.00000000E+00
  1.00000000E+00  1.00000000E+00  1.00000000E+00  1.00000000E+00  1.00000000E+00
  1.00000000E+00  1.00000000E+00  5.19808943E-04  4.02025621E-03  2.07128267E-02
  8.10105536E-02  2.35962985E-01  4.42653446E-01  3.57064423E-01 -4.42115008E-05
 -1.22591041E-03 -1.05517725E-02 -6.74452633E-02 -1.71198607E-01  1.07329856E+00
  1.00000000E+00  1.00000000E+00  1.00000000E+00  4.11634896E-02  2.57762836E-01
  8.02419274E-01  1.00000000E+00  1.00000000E+00  1.00000000E+00  1.00000000E+00
  1.00000000E+00  1.00000000E+00  1.00000000E+00  1.00000000E+00
Coordinates of each shell                  R   N=         195
  2.93133663E+00  3.18194505E+00  7.87730925E-32  2.93133663E+00  3.18194505E+00
  7.87730925E-32  2.93133663E+00  3.18194505E+00  7.87730925E-32  2.93133663E+00
  3.18194505E+00  7.87730925E-32  2.93133663E+00  3.18194505E+00  7.87730925E-32
  2.93133663E+00  3.18194505E+00  7.87730925E-32  2.93133663E+00  3.18194505E+00
  7.87730925E-32  2.93133663E+00  3.18194505E+00  7.87730925E-32  2.93133663E+00
  3.18194505E+00  7.87730925E-32  2.74796954E+00  1.36005099E+00  5.39428878E-32
  2.74796954E+00  1.36005099E+00  5.39428878E-32  2.74796954E+00  1.36005099E+00
  5.39428878E-32  2.74796954E+00  1.36005099E+00  5.39428878E-32  2.74796954E+00
  1.36005099E+00  5.39428878E-32  2.74796954E+00  1.36005099E+00  5.39428878E-32
  2.74796954E+00  1.36005099E+00  5.39428878E-32  2.74796954E+00  1.36005099E+00
  5.39428878E-32  2.74796954E+00  1.36005099E+00  5.39428878E-32  2.74796954E+00
  1.36005099E+00  5.39428878E-32  2.74796954E+00  1.36005099E+00  5.39428878E-32
  2.74796954E+00  1.36005099E+00  5.39428878E-32  2.74796954E+00  1.36005099E+00
  5.39428878E-32  2.74796954E+00  1.36005099E+00  5.39428878E-32  2.65334202E-18
  1.27140306E+00  1.55924781E-32  2.65334202E-18  1.27140306E+00  1.55924781E-32
  2.65334202E-18  1.27140306E+00  1.55924781E-32  2.65334202E-18  1.27140306E+00
  1.55924781E-32  2.65334202E-18  1.27140306E+00  1.55924781E-32  2.65334202E-18
  1.27140306E+00  1.55924781E-32  2.65334202E-18  1.27140306E+00  1.55924781E-32
  2.65334202E-18  1.27140306E+00  1.55924781E-32  2.65334202E-18  1.27140306E+00
  1.55924781E-32  2.65334202E-18  1.27140306E+00  1.55924781E-32  2.65334202E-18
  1.27140306E+00  1.55924781E-32  2.65334202E-18  1.27140306E+00  1.55924781E-32
  2.65334202E-18  1.27140306E+00  1.55924781E-32  2.65334202E-18  1.27140306E+00
  1.55924781E-32 -4.99995759E-01 -1.43957685E+00 -2.44350420E-32 -4.99995759E-01
 -1.43957685E+00 -2.44350420E-32 -4.99995759E-01 -1.43957685E+00 -2.44350420E-32
 -4.99995759E-01 -1.43957685E+00 -2.44350420E-32 -4.99995759E-01 -1.43957685E+00
 -2.44350420E-32 -4.99995759E-01 -1.43957685E+00 -2.44350420E-32 -4.99995759E-01
 -1.43957685E+00 -2.44350420E-32 -4.99995759E-01 -1.43957685E+00 -2.44350420E-32
 -4.99995759E-01 -1.43957685E+00 -2.44350420E-32 -4.99995759E-01 -1.43957685E+00
 -2.44350420E-32 -4.99995759E-01 -1.43957685E+00 -2.44350420E-32 -4.99995759E-01
 -1.43957685E+00 -2.44350420E-32 -4.99995759E-01 -1.43957685E+00 -2.44350420E-32
 -4.99995759E-01 -1.43957685E+00 -2.44350420E-32 -2.67689032E+00 -1.76956743E+00
 -5.80013407E-32 -2.67689032E+00 -1.76956743E+00 -5.80013407E-32 -2.67689032E+00
 -1.76956743E+00 -5.80013407E-32 -2.67689032E+00 -1.76956743E+00 -5.80013407E-32
 -2.67689032E+00 -1.76956743E+00 -5.80013407E-32 -2.67689032E+00 -1.76956743E+00
 -5.80013407E-32 -2.67689032E+00 -1.76956743E+00 -5.80013407E-32 -2.67689032E+00
 -1.76956743E+00 -5.80013407E-32 -2.67689032E+00 -1.76956743E+00 -5.80013407E-32
 -2.67689032E+00 -1.76956743E+00 -5.80013407E-32 -2.67689032E+00 -1.76956743E+00
 -5.80013407E-32 -2.67689032E+00 -1.76956743E+00 -5.80013407E-32 -2.67689032E+00
 -1.76956743E+00 -5.80013407E-32 -2.67689032E+00 -1.76956743E+00 -5.80013407E-32
Num ILSW                                   I              100
ILSW                                       I   N=         100
           0           0           0           0           2           0
           0           0           0           0           0          -1
           5           0           0           0           0           0
           0           0           0           0           0           0
           1           0           0           0           0           0
           0           0      100000           0          -1           0
           0           0           0           0           0           0
           0           0           0           1           0           0
           0 -2000000000           1           0           0           0
           0           0           4          52           0           0
           0           0           0           0           0           0
           0           0           0           5           0           1
           0           0           0           0           0           0
           0           0           0           0           0           0
           0           0           0           0           0           0
           0           0           0           0           0           0
           0           0           0           0
Num RLSW                                   I               52
RLSW                                       R   N=          52
  1.00000000E+00  1.00000000E+00  1.00000000E+00  1.00000000E+00  1.00000000E+00
  0.00000000E+00  0.00000000E+00  1.00000000E+00  0.00000000E+00  0.00000000E+00
  0.00000000E+00  0.00000000E+00  1.00000000E+00  0.00000000E+00  0.00000000E+00
  0.00000000E+00  0.00000000E+00  1.00000000E+00  0.00000000E+00  0.00000000E+00
  0.00000000E+00  0.00000000E+00  1.00000000E+00  0.00000000E+00  0.00000000E+00
  0.00000000E+00  0.00000000E+00  1.00000000E+00  0.00000000E+00  0.00000000E+00
  0.00000000E+00  0.00000000E+00  1.00000000E+00  0.00000000E+00  0.00000000E+00
  0.00000000E+00  0.00000000E+00  0.00000000E+00  1.00000000E+00  1.00000000E+00
  0.00000000E+00  1.00000000E+00  0.00000000E+00  0.00000000E+00  0.00000000E+00
  0.00000000E+00  0.00000000E+00  0.00000000E+00  0.00000000E+00  0.00000000E+00
  0.00000000E+00  0.00000000E+00
MxBond                                     I                2
NBond                                      I   N=           5
           1           2           2           2           1
IBond                                      I   N=          10
           2           0           1           3           2           4
           3           5           4           0
RBond                                      R   N=          10
  1.00000000E+00  0.00000000E+00  1.00000000E+00  1.00000000E+00  1.00000000E+00
  1.00000000E+00  1.00000000E+00  2.00000000E+00  2.00000000E+00  0.00000000E+00
Virial Ratio                               R      2.002257411160215E+00
SCF Energy                                 R     -2.795025929176901E+02
MP2 Energy                                 R     -2.804466844665491E+02
Total Energy                               R     -2.804466844665491E+02
Post-SCF wavefunction norm                 R      1.119832258844755E+00
RMS Density                                R      3.641299261882349E-09
Job Status                                 I                1
Nuclear derivative order                   I                0
External E-field                           R   N=          35
  0.00000000E+00  0.00000000E+00  0.00000000E+00  0.00000000E+00  0.00000000E+00
  0.00000000E+00  0.00000000E+00  0.00000000E+00  0.00000000E+00  0.00000000E+00
  0.00000000E+00  0.00000000E+00  0.00000000E+00  0.00000000E+00  0.00000000E+00
  0.00000000E+00  0.00000000E+00  0.00000000E+00  0.00000000E+00  0.00000000E+00
  0.00000000E+00  0.00000000E+00  0.00000000E+00  0.00000000E+00  0.00000000E+00
  0.00000000E+00  0.00000000E+00  0.00000000E+00  0.00000000E+00  0.00000000E+00
  0.00000000E+00  0.00000000E+00  0.00000000E+00  0.00000000E+00  0.00000000E+00
IOpCl                                      I                0
IROHF                                      I                0
Alpha Orbital Energies                     R   N=         207
 -2.06895640E+01 -2.06845318E+01 -2.06592618E+01 -1.58120167E+01 -1.62862783E+00
 -1.49579729E+00 -1.25384294E+00 -9.47305107E-01 -7.73458394E-01 -7.60670227E-01
 -7.12978043E-01 -6.80030243E-01 -6.21566456E-01 -5.89058538E-01 -4.84748182E-01
 -4.71401738E-01  2.97801513E-02  7.34032827E-02  8.58495590E-02  1.01717585E-01
  1.33850521E-01  1.34027907E-01  1.44198680E-01  1.54669608E-01  1.78359898E-01
  1.94109019E-01  2.00016589E-01  2.06371254E-01  2.20999092E-01  2.35901960E-01
  2.37419748E-01  2.66112504E-01  2.94002530E-01  3.04106931E-01  3.10724610E-01
  3.43374324E-01  3.49930153E-01  3.87439203E-01  4.22266329E-01  4.31722436E-01
  5.27224633E-01  5.30008608E-01  5.58819115E-01  5.81775432E-01  6.28968228E-01
  6.38076226E-01  6.72729534E-01  6.84891081E-01  7.06449779E-01  7.11287585E-01
  7.24303861E-01  7.29738682E-01  7.44659745E-01  7.91860060E-01  7.92402302E-01
  8.10127276E-01  8.13227413E-01  8.32083990E-01  8.68705997E-01  9.08821528E-01
  9.22473195E-01  9.26839330E-01  9.56913094E-01  9.78737512E-01  9.85117981E-01
  1.01674360E+00  1.05236989E+00  1.05531773E+00  1.08354686E+00  1.11844412E+00
  1.14173958E+00  1.18984459E+00  1.22157786E+00  1.23350832E+00  1.33927272E+00
  1.35082993E+00  1.38714835E+00  1.45379001E+00  1.48808199E+00  1.50968677E+00
  1.53819350E+00  1.56692281E+00  1.57960465E+00  1.61368307E+00  1.66550599E+00
  1.66993869E+00  1.70309530E+00  1.79345066E+00  1.83079210E+00  1.83490734E+00
  1.87982468E+00  1.91001583E+00  1.95469836E+00  1.99363542E+00  2.00567322E+00
  2.07800166E+00  2.12116719E+00  2.13259388E+00  2.15052178E+00  2.22475174E+00
  2.26500886E+00  2.26524613E+00  2.29010861E+00  2.31502313E+00  2.34586650E+00
  2.38665494E+00  2.42572961E+00  2.43019647E+00  2.45432208E+00  2.46358334E+00
  2.47760842E+00  2.50239311E+00  2.59029169E+00  2.59777837E+00  2.62202357E+00
  2.62700179E+00  2.63538228E+00  2.66932400E+00  2.75973358E+00  2.82742065E+00
  2.85793879E+00  2.88696892E+00  2.89551402E+00  2.92627541E+00  2.95948517E+00
  3.02643210E+00  3.06726468E+00  3.12355061E+00  3.20520022E+00  3.22819443E+00
  3.31778986E+00  3.34253978E+00  3.51951341E+00  3.64393449E+00  3.83919079E+00
  3.84623753E+00  4.14941619E+00  4.16392658E+00  4.18472529E+00  4.27107181E+00
  4.35233967E+00  4.39415943E+00  4.46485794E+00  4.52041419E+00  4.66880941E+00
  4.71169925E+00  4.80797760E+00  4.82596513E+00  4.83042969E+00  4.89548128E+00
  5.02239267E+00  5.07803308E+00  5.10571523E+00  5.14159777E+00  5.18083548E+00
  5.24463620E+00  5.27267319E+00  5.30764151E+00  5.33058168E+00  5.36080785E+00
  5.60759265E+00  5.68303019E+00  5.77498899E+00  5.83151044E+00  5.95573453E+00
  6.17011828E+00  6.30984530E+00  6.33888953E+00  6.39525223E+00  6.49362302E+00
  6.50549501E+00  6.61459158E+00  6.66875900E+00  6.70186375E+00  6.75871215E+00
  6.76443343E+00  6.83614979E+00  6.90041866E+00  7.01539767E+00  7.05800056E+00
  7.05812098E+00  7.09097134E+00  7.12724905E+00  7.15126248E+00  7.18238529E+00
  7.22921687E+00  7.24300408E+00  7.31010947E+00  7.33609430E+00  7.35150731E+00
  7.40496916E+00  7.43249310E+00  7.48527650E+00  7.60922192E+00  7.62708978E+00
  7.63415000E+00  7.66745795E+00  7.79414641E+00  7.89617891E+00  8.09543938E+00
  8.31700981E+00  8.40990615E+00  8.54569686E+00  1.34016435E+01  1.44385274E+01
  1.51644827E+01  1.63255986E+01
Alpha MO coefficients                      R   N=       42849
  9.21870007E-05 -6.33578332E-04 -7.28155499E-04 -4.10708220E-06 -2.13974580E-05
 -2.71672327E-05  0.00000000E+00 -4.32997412E-05  5.93681438E-05  0.00000000E+00
  8.81391424E-05  3.67761041E-05  0.00000000E+00  3.19081338E-05  0.00000000E+00
  0.00000000E+00 -4.97846449E-05  2.10548992E-05 -4.55156812E-06  0.00000000E+00
  0.00000000E+00 -1.38687138E-04  1.17863621E-04  4.67350634E-03 -2.82627063E-04
  1.85269784E-05  1.55078096E-03  1.82533303E-03  1.06221012E-04  7.42786965E-06
  0.00000000E+00 -6.17214245E-04 -3.48481231E-05  0.00000000E+00 -1.10167420E-03
  7.88321045E-04  0.00000000E+00 -4.03975623E-04  6.28450334E-05  0.00000000E+00
  2.88594335E-05  0.00000000E+00  0.00000000E+00 -5.42231518E-05  6.09621543E-06
 -3.78277537E-04  0.00000000E+00  0.00000000E+00  7.40995145E-04 -3.55959963E-05
 -4.46872795E-04  0.00000000E+00  0.00000000E+00  2.44133075E-04 -1.39602962E-05
  0.00000000E+00  8.01260253E-05  1.25487770E-05  0.00000000E+00  0.00000000E+00
 -1.09687540E-04 -2.64191061E-06  0.00000000E+00  2.55237246E-04 -2.79112078E-05
  0.00000000E+00  0.00000000E+00 -3.52978371E-04  5.23998183E-05  9.76906449E-01
 -9.21732049E-03  4.33207701E-02  2.05551565E-03 -9.12013219E-04  1.49230864E-03
 -1.34951094E-03  0.00000000E+00 -1.43507875E-03  1.37807509E-03  0.00000000E+00
  8.16136657E-05 -1.16201978E-03  0.00000000E+00 -1.34206940E-04 -1.22791668E-05
  0.00000000E+00  4.61238152E-05  0.00000000E+00  0.00000000E+00 -3.55360440E-05
  2.18365057E-05  7.46033871E-04  0.00000000E+00  0.00000000E+00 -2.37282129E-04
 -3.88330674E-04 -3.59700612E-04  0.00000000E+00  0.00000000E+00 -3.12728817E-04
 -3.71699136E-04  0.00000000E+00  4.74507888E-05 -4.87085439E-05  0.00000000E+00
  0.00000000E+00 -3.90009264E-05 -1.53192209E-05  0.00000000E+00  2.33628823E-05
  2.17016442E-05  0.00000000E+00  0.00000000E+00 -3.06204735E-04 -1.37222935E-04
  3.81722087E-05  4.07532871E-05 -2.64256431E-04 -7.19225752E-04 -1.54743237E-04
 -2.67572028E-05 -9.67871878E-05  0.00000000E+00  2.74820139E-04  7.06666234E-04
  0.00000000E+00 -8.43329346E-04 -4.92927577E-04  0.00000000E+00 -1.26220770E-04
 -2.98711556E-05  0.00000000E+00 -1.80451802E-05  0.00000000E+00  0.00000000E+00
 -3.00906075E-05  1.52120837E-05 -3.26786350E-04  0.00000000E+00  0.00000000E+00
 -8.25621574E-04  1.29481762E-04 -3.45210697E-05  0.00000000E+00  0.00000000E+00
  9.99873785E-05 -1.17227603E-04  0.00000000E+00 -2.06554235E-05 -1.19746417E-04
  0.00000000E+00  0.00000000E+00 -6.31329905E-05 -1.36605999E-04  0.00000000E+00
  3.20182223E-06 -1.51428145E-04  0.00000000E+00  0.00000000E+00  4.32776026E-05
 -4.17548152E-04 -3.40233863E-03  1.30447447E-04 -1.59712876E-04 -2.46017754E-04
  1.44343175E-04 -9.95156996E-06 -2.79044608E-05  0.00000000E+00  7.22385902E-05
  1.63880180E-04  0.00000000E+00  2.41646832E-04  2.05474814E-04  0.00000000E+00
  1.29111459E-04  2.54056319E-05  0.00000000E+00 -3.04491036E-06  0.00000000E+00
  0.00000000E+00 -1.83400498E-05  1.44007690E-06  6.33289107E-07  0.00000000E+00
  0.00000000E+00  8.33201853E-05  8.62456302E-05 -1.01992270E-04  0.00000000E+00
  0.00000000E+00  1.68824652E-04  1.64219576E-04  0.00000000E+00  1.58055830E-05
 -3.24427312E-06  0.00000000E+00  0.00000000E+00 -3.72400806E-06 -1.21482772E-05
  0.00000000E+00 -3.38622962E-05  4.55202357E-05  0.00000000E+00  0.00000000E+00
  8.43691364E-05  8.93452842E-05  3.97365596E-05 -9.85066840E-04 -4.79401928E-04
 -9.55937499E-06 -2.19518555E-05  1.56688933E-05  0.00000000E+00  2.13765744E-06
  2.72788229E-04  0.00000000E+00 -4.00228686E-05  1.31634252E-04  0.00000000E+00
  2.59672155E-05  0.00000000E+00  0.00000000E+00  1.22174666E-05  1.05977668E-05
 -2.76353900E-05  0.00000000E+00  0.00000000E+00  1.17264412E-05  3.38641370E-05
  1.13472815E-04  8.41114998E-05 -2.82364847E-05  7.54137563E-04  6.47858852E-04
  1.06815228E-05  2.30356124E-06  0.00000000E+00 -7.55743376E-05  1.65972715E-05
  0.00000000E+00  3.26602235E-04  9.02644985E-04  0.00000000E+00  1.19283199E-06
  7.82773273E-05  0.00000000E+00 -2.32275979E-06  0.00000000E+00  0.00000000E+00
 -3.78509958E-07 -5.76643732E-06 -3.61579959E-05  0.00000000E+00  0.00000000E+00
 -1.63331445E-05  8.12224151E-05 -2.48078875E-05  0.00000000E+00  0.00000000E+00
 -2.66441593E-04 -1.65489614E-04  0.00000000E+00  9.17973938E-06  5.85785330E-06
  0.00000000E+00  0.00000000E+00  2.10104699E-06 -1.84148981E-05  0.00000000E+00
 -3.91837589E-05 -3.75881325E-05  0.00000000E+00  0.00000000E+00 -7.67195875E-05
  2.10721366E-05  3.44135157E-03  3.07353705E-05  1.28714181E-04 -7.09521274E-05
 -4.64148903E-04  8.03040448E-06  1.46957453E-05  0.00000000E+00 -6.12669155E-05
 -5.29176261E-05  0.00000000E+00  2.39860890E-04 -2.03966885E-04  0.00000000E+00
 -1.84264825E-04 -6.38403340E-05  0.00000000E+00 -8.67800237E-06  0.00000000E+00
  0.00000000E+00  2.31098876E-05  2.08817335E-05  5.82043158E-06  0.00000000E+00
  0.00000000E+00 -1.21614670E-04 -5.37704457E-05 -5.24032173E-06  0.00000000E+00
  0.00000000E+00 -2.27184886E-04 -2.18155624E-04  0.00000000E+00  3.07506177E-06
 -8.44287113E-07  0.00000000E+00  0.00000000E+00  1.54796339E-06 -1.23490464E-05
  0.00000000E+00 -4.63369026E-05  5.38148440E-06  0.00000000E+00  0.00000000E+00
 -8.17538370E-05  1.87370626E-04  2.59898932E-04  1.47272320E-03 -5.30907816E-05
 -1.66298730E-03  3.64181506E-04 -1.58828662E-04 -2.16051819E-06  0.00000000E+00
 -2.06892401E-03 -3.91643565E-04  0.00000000E+00  1.09979433E-03  7.64173664E-04
  0.00000000E+00 -1.64965933E-04  5.61303289E-05  0.00000000E+00 -1.21650071E-04
  0.00000000E+00  0.00000000E+00  2.41552940E-04  9.32584099E-05 -4.25913645E-04
  0.00000000E+00  0.00000000E+00  8.67446472E-04 -8.84325230E-05  2.01517641E-05
  0.00000000E+00  0.00000000E+00 -3.55702004E-04 -1.28995873E-04  0.00000000E+00
 -1.05136583E-05  1.34299112E-05  0.00000000E+00  0.00000000E+00  2.99202575E-05
  1.92618930E-05  0.00000000E+00  1.61948699E-04 -7.17610165E-05  0.00000000E+00
  0.00000000E+00 -2.27046296E-04  4.09155688E-05  9.76637415E-01 -9.83992064E-03
  4.35838897E-02  4.61540068E-03 -4.05305944E-04  2.15462774E-03  4.77827746E-04
  0.00000000E+00 -2.35781149E-03 -5.96368604E-04  0.00000000E+00  1.16550133E-03
  1.65378982E-06  0.00000000E+00  8.93874942E-06 -4.07623723E-05  0.00000000E+00
 -2.36394389E-04  0.00000000E+00  0.00000000E+00  1.09763916E-04  3.37548066E-05
  3.86547468E-04  0.00000000E+00  0.00000000E+00 -8.25364038E-04 -4.13875359E-04
 -1.48699284E-04  0.00000000E+00  0.00000000E+00  2.49447869E-04  1.60831771E-05
  0.00000000E+00  4.89510480E-05  1.72254855E-05  0.00000000E+00  0.00000000E+00
 -1.80631284E-05 -1.14460080E-05  0.00000000E+00  1.41854684E-04  9.59018914E-06
  0.00000000E+00  0.00000000E+00 -1.91928176E-04 -1.40820192E-04  4.74862013E-04
  2.06292135E-03  1.16825996E-04  1.46845992E-05 -4.16149864E-05 -2.46772777E-04
  0.00000000E+00  1.08518291E-04 -1.27579930E-03  0.00000000E+00  3.09034844E-04
 -3.39728995E-04  0.00000000E+00 -2.66023572E-06  0.00000000E+00  0.00000000E+00
  7.60267457E-05  1.50487032E-05 -1.60184584E-04  0.00000000E+00  0.00000000E+00
 -5.37312788E-04 -2.12151170E-05  9.76829502E-01 -9.16312939E-03  4.34499988E-02
  1.64351940E-04 -1.14026200E-03 -1.55799095E-03  1.44567238E-03  0.00000000E+00
  1.57075716E-03 -1.28843329E-03  0.00000000E+00 -5.72176658E-04 -8.67090952E-04
  0.00000000E+00  5.61145782E-05 -3.02682764E-05  0.00000000E+00  2.94149527E-05
  0.00000000E+00  0.00000000E+00 -1.17954190E-04 -2.29885034E-06  7.57378492E-04
  0.00000000E+00  0.00000000E+00 -2.02624709E-04 -2.34519750E-04 -2.66057143E-04
  0.00000000E+00  0.00000000E+00  1.69711897E-04  1.27461464E-04  0.00000000E+00
 -6.40877884E-05  1.38405487E-06  0.00000000E+00  0.00000000E+00  1.88669938E-05
  9.75572800E-06  0.00000000E+00 -9.17519369E-07  1.22944468E-04  0.00000000E+00
  0.00000000E+00  2.57852269E-04  9.00305772E-05 -4.76584201E-03 -2.10468494E-04