title                                                                   
SP        RMP2-FC                                                     Aug-CC-pVTZ         
Number of atoms                            I                5
Info1-9                                    I   N=           9
          33          24           0           0           0         110
           1           2           1
Full Title                                 C   N=           1
title       
Route                                      C   N=           4
#p SP mp2/aug-cc-pvtz density=current           
Charge                                     I                0
Multiplicity                               I                1
Number of electrons                        I               32
Number of alpha electrons                  I               16
Number of beta electrons                   I               16
Number of basis functions                  I              207
Number of independent functions            I              207
Number of point charges in /Mol/           I                0
Number of translation vectors              I                0
Atomic numbers                             I   N=           5
           1           8           8           7           8
Nuclear charges                            R   N=           5
  1.00000000E+00  8.00000000E+00  8.00000000E+00  7.00000000E+00  8.00000000E+00
Current cartesian coordinates              R   N=          15
  2.96647310E+00  3.18171808E+00  3.83609715E-32  2.74786653E+00  1.36371571E+00
  1.04088119E-31 -9.51484325E-17  1.27193025E+00  4.46054125E-32 -4.96900081E-01
 -1.43961878E+00 -4.08480831E-32 -2.68388809E+00 -1.77369429E+00 -5.02330816E-32
Number of symbols in /Mol/                 I                0
Force Field                                I                0
Atom Types                                 C   N=           5
                                                            
Int Atom Types                             I   N=           5
           0           0           0           0           0
MM charges                                 R   N=           5
  0.00000000E+00  0.00000000E+00  0.00000000E+00  0.00000000E+00  0.00000000E+00
Integer atomic weights                     I   N=           5
           1          16          16          14          16
Real atomic weights                        R   N=           5
  1.00782504E+00  1.59949146E+01  1.59949146E+01  1.40030740E+01  1.59949146E+01
Atom fragment info                         I   N=           5
           0           0           0           0           0
Atom residue num                           I   N=           5
           0           0           0           0           0
Nuclear spins                              I   N=           5
           1           0           0           2           0
Nuclear ZEff                               R   N=           5
 -1.00000000E+00 -5.60000000E+00 -5.60000000E+00 -4.55000000E+00 -5.60000000E+00
Nuclear ZNuc                               R   N=           5
  1.00000000E+00  8.00000000E+00  8.00000000E+00  7.00000000E+00  8.00000000E+00
Nuclear QMom                               R   N=           5
  0.00000000E+00  0.00000000E+00  0.00000000E+00  2.04400000E+00  0.00000000E+00
Nuclear GFac                               R   N=           5
  2.79284600E+00  0.00000000E+00  0.00000000E+00  4.03761000E-01  0.00000000E+00
MicOpt                                     I   N=           5
          -1          -1          -1          -1          -1
Number of residues                         I                0
Number of secondary structures             I                0
SymInf integers                            I   N=          26
           1           2           1           1           1           1
           1          -1           0           0           0           0
           0           0           0           0           0           0
           0           0           0           0           0           0
           0           0
RotTr to input orientation                 R   N=          12
 -9.92847977E-01 -9.85430825E-17 -1.19385484E-01  1.19385484E-01 -7.27107882E-17
 -9.92847977E-01  8.91576875E-17 -1.00000000E+00  8.39553726E-17  2.56540586E+00
  0.00000000E+00  3.51311619E+00
Number of contracted shells                I               65
Number of primitive shells                 I              119
Pure/Cartesian d shells                    I                0
Pure/Cartesian f shells                    I                0
Highest angular momentum                   I                3
Largest degree of contraction              I                7
Shell types                                I   N=          65
           0           0           0           0           1           1
           1          -2          -2           0           0           0
           0           0           1           1           1           1
          -2          -2          -2          -3          -3           0
           0           0           0           0           1           1
           1           1          -2          -2          -2          -3
          -3           0           0           0           0           0
           1           1           1           1          -2          -2
          -2          -3          -3           0           0           0
           0           0           1           1           1           1
          -2          -2          -2          -3          -3
Number of primitives per shell             I   N=          65
           3           1           1           1           1           1
           1           1           1           7           6           1
           1           1           3           1           1           1
           1           1           1           1           1           7
           6           1           1           1           3           1
           1           1           1           1           1           1
           1           7           6           1           1           1
           3           1           1           1           1           1
           1           1           1           7           6           1
           1           1           3           1           1           1
           1           1           1           1           1
Shell to atom map                          I   N=          65
           1           1           1           1           1           1
           1           1           1           2           2           2
           2           2           2           2           2           2
           2           2           2           2           2           3
           3           3           3           3           3           3
           3           3           3           3           3           3
           3           4           4           4           4           4
           4           4           4           4           4           4
           4           4           4           5           5           5
           5           5           5           5           5           5
           5           5           5           5           5
Primitive exponents                        R   N=         119
  3.38700000E+01  5.09500000E+00  1.15900000E+00  3.25800000E-01  1.02700000E-01
  2.52600000E-02  1.40700000E+00  3.88000000E-01  1.02000000E-01  1.05700000E+00
  2.47000000E-01  1.53300000E+04  2.29900000E+03  5.22400000E+02  1.47300000E+02
  4.75500000E+01  1.67600000E+01  6.20700000E+00  5.22400000E+02  1.47300000E+02
  4.75500000E+01  1.67600000E+01  6.20700000E+00  6.88200000E-01  1.75200000E+00
  2.38400000E-01  7.37600000E-02  3.44600000E+01  7.74900000E+00  2.28000000E+00
  7.15600000E-01  2.14000000E-01  5.97400000E-02  2.31400000E+00  6.45000000E-01
  2.14000000E-01  1.42800000E+00  5.00000000E-01  1.53300000E+04  2.29900000E+03
  5.22400000E+02  1.47300000E+02  4.75500000E+01  1.67600000E+01  6.20700000E+00
  5.22400000E+02  1.47300000E+02  4.75500000E+01  1.67600000E+01  6.20700000E+00
  6.88200000E-01  1.75200000E+00  2.38400000E-01  7.37600000E-02  3.44600000E+01
  7.74900000E+00  2.28000000E+00  7.15600000E-01  2.14000000E-01  5.97400000E-02
  2.31400000E+00  6.45000000E-01  2.14000000E-01  1.42800000E+00  5.00000000E-01
  1.14200000E+04  1.71200000E+03  3.89300000E+02  1.10000000E+02  3.55700000E+01
  1.25400000E+01  4.64400000E+00  3.89300000E+02  1.10000000E+02  3.55700000E+01
  1.25400000E+01  4.64400000E+00  5.11800000E-01  1.29300000E+00  1.78700000E-01
  5.76000000E-02  2.66300000E+01  5.94800000E+00  1.74200000E+00  5.55000000E-01
  1.72500000E-01  4.91000000E-02  1.65400000E+00  4.69000000E-01  1.51000000E-01
  1.09300000E+00  3.64000000E-01  1.53300000E+04  2.29900000E+03  5.22400000E+02
  1.47300000E+02  4.75500000E+01  1.67600000E+01  6.20700000E+00  5.22400000E+02
  1.47300000E+02  4.75500000E+01  1.67600000E+01  6.20700000E+00  6.88200000E-01
  1.75200000E+00  2.38400000E-01  7.37600000E-02  3.44600000E+01  7.74900000E+00
  2.28000000E+00  7.15600000E-01  2.14000000E-01  5.97400000E-02  2.31400000E+00
  6.45000000E-01  2.14000000E-01  1.42800000E+00  5.00000000E-01
Contraction coefficients                   R   N=         119
  2.54948632E-02  1.90362766E-01  8.52162022E-01  1.00000000E+00  1.00000000E+00
  1.00000000E+00  1.00000000E+00  1.00000000E+00  1.00000000E+00  1.00000000E+00
  1.00000000E+00  5.19808943E-04  4.02025621E-03  2.07128267E-02  8.10105536E-02
  2.35962985E-01  4.42653446E-01  3.57064423E-01 -4.42115008E-05 -1.22591041E-03
 -1.05517725E-02 -6.74452633E-02 -1.71198607E-01  1.07329856E+00  1.00000000E+00
  1.00000000E+00  1.00000000E+00  4.11634896E-02  2.57762836E-01  8.02419274E-01
  1.00000000E+00  1.00000000E+00  1.00000000E+00  1.00000000E+00  1.00000000E+00
  1.00000000E+00  1.00000000E+00  1.00000000E+00  5.19808943E-04  4.02025621E-03
  2.07128267E-02  8.10105536E-02  2.35962985E-01  4.42653446E-01  3.57064423E-01
 -4.42115008E-05 -1.22591041E-03 -1.05517725E-02 -6.74452633E-02 -1.71198607E-01
  1.07329856E+00  1.00000000E+00  1.00000000E+00  1.00000000E+00  4.11634896E-02
  2.57762836E-01  8.02419274E-01  1.00000000E+00  1.00000000E+00  1.00000000E+00
  1.00000000E+00  1.00000000E+00  1.00000000E+00  1.00000000E+00  1.00000000E+00
  5.34563860E-04  4.13435660E-03  2.12335358E-02  8.25006224E-02  2.38138871E-01
  4.42551547E-01  3.53757422E-01 -4.89867350E-05 -1.19527323E-03 -1.03490714E-02
 -6.48680190E-02 -1.71552477E-01  1.07289568E+00  1.00000000E+00  1.00000000E+00
  1.00000000E+00  3.98072123E-02  2.49002660E-01  8.10479727E-01  1.00000000E+00
  1.00000000E+00  1.00000000E+00  1.00000000E+00  1.00000000E+00  1.00000000E+00
  1.00000000E+00  1.00000000E+00  5.19808943E-04  4.02025621E-03  2.07128267E-02
  8.10105536E-02  2.35962985E-01  4.42653446E-01  3.57064423E-01 -4.42115008E-05
 -1.22591041E-03 -1.05517725E-02 -6.74452633E-02 -1.71198607E-01  1.07329856E+00
  1.00000000E+00  1.00000000E+00  1.00000000E+00  4.11634896E-02  2.57762836E-01
  8.02419274E-01  1.00000000E+00  1.00000000E+00  1.00000000E+00  1.00000000E+00
  1.00000000E+00  1.00000000E+00  1.00000000E+00  1.00000000E+00
Coordinates of each shell                  R   N=         195
  2.96647310E+00  3.18171808E+00  4.33025003E-32  2.96647310E+00  3.18171808E+00
  4.33025003E-32  2.96647310E+00  3.18171808E+00  4.33025003E-32  2.96647310E+00
  3.18171808E+00  4.33025003E-32  2.96647310E+00  3.18171808E+00  4.33025003E-32
  2.96647310E+00  3.18171808E+00  4.33025003E-32  2.96647310E+00  3.18171808E+00
  4.33025003E-32  2.96647310E+00  3.18171808E+00  4.33025003E-32  2.96647310E+00
  3.18171808E+00  4.33025003E-32  2.74786653E+00  1.36371571E+00  2.07324696E-32
  2.74786653E+00  1.36371571E+00  2.07324696E-32  2.74786653E+00  1.36371571E+00
  2.07324696E-32  2.74786653E+00  1.36371571E+00  2.07324696E-32  2.74786653E+00
  1.36371571E+00  2.07324696E-32  2.74786653E+00  1.36371571E+00  2.07324696E-32
  2.74786653E+00  1.36371571E+00  2.07324696E-32  2.74786653E+00  1.36371571E+00
  2.07324696E-32  2.74786653E+00  1.36371571E+00  2.07324696E-32  2.74786653E+00
  1.36371571E+00  2.07324696E-32  2.74786653E+00  1.36371571E+00  2.07324696E-32
  2.74786653E+00  1.36371571E+00  2.07324696E-32  2.74786653E+00  1.36371571E+00
  2.07324696E-32  2.74786653E+00  1.36371571E+00  2.07324696E-32 -1.64747435E-17
  1.27193025E+00  1.55656232E-32 -1.64747435E-17  1.27193025E+00  1.55656232E-32
 -1.64747435E-17  1.27193025E+00  1.55656232E-32 -1.64747435E-17  1.27193025E+00
  1.55656232E-32 -1.64747435E-17  1.27193025E+00  1.55656232E-32 -1.64747435E-17
  1.27193025E+00  1.55656232E-32 -1.64747435E-17  1.27193025E+00  1.55656232E-32
 -1.64747435E-17  1.27193025E+00  1.55656232E-32 -1.64747435E-17  1.27193025E+00
  1.55656232E-32 -1.64747435E-17  1.27193025E+00  1.55656232E-32 -1.64747435E-17
  1.27193025E+00  1.55656232E-32 -1.64747435E-17  1.27193025E+00  1.55656232E-32
 -1.64747435E-17  1.27193025E+00  1.55656232E-32 -1.64747435E-17  1.27193025E+00
  1.55656232E-32 -4.96900081E-01 -1.43961878E+00 -1.83489694E-32 -4.96900081E-01
 -1.43961878E+00 -1.83489694E-32 -4.96900081E-01 -1.43961878E+00 -1.83489694E-32
 -4.96900081E-01 -1.43961878E+00 -1.83489694E-32 -4.96900081E-01 -1.43961878E+00
 -1.83489694E-32 -4.96900081E-01 -1.43961878E+00 -1.83489694E-32 -4.96900081E-01
 -1.43961878E+00 -1.83489694E-32 -4.96900081E-01 -1.43961878E+00 -1.83489694E-32
 -4.96900081E-01 -1.43961878E+00 -1.83489694E-32 -4.96900081E-01 -1.43961878E+00
 -1.83489694E-32 -4.96900081E-01 -1.43961878E+00 -1.83489694E-32 -4.96900081E-01
 -1.43961878E+00 -1.83489694E-32 -4.96900081E-01 -1.43961878E+00 -1.83489694E-32
 -4.96900081E-01 -1.43961878E+00 -1.83489694E-32 -2.68388809E+00 -1.77369429E+00
 -2.56555571E-32 -2.68388809E+00 -1.77369429E+00 -2.56555571E-32 -2.68388809E+00
 -1.77369429E+00 -2.56555571E-32 -2.68388809E+00 -1.77369429E+00 -2.56555571E-32
 -2.68388809E+00 -1.77369429E+00 -2.56555571E-32 -2.68388809E+00 -1.77369429E+00
 -2.56555571E-32 -2.68388809E+00 -1.77369429E+00 -2.56555571E-32 -2.68388809E+00
 -1.77369429E+00 -2.56555571E-32 -2.68388809E+00 -1.77369429E+00 -2.56555571E-32
 -2.68388809E+00 -1.77369429E+00 -2.56555571E-32 -2.68388809E+00 -1.77369429E+00
 -2.56555571E-32 -2.68388809E+00 -1.77369429E+00 -2.56555571E-32 -2.68388809E+00
 -1.77369429E+00 -2.56555571E-32 -2.68388809E+00 -1.77369429E+00 -2.56555571E-32
Num ILSW                                   I              100
ILSW                                       I   N=         100
           0           0           0           0           2           0
           0           0           0           0           0          -1
           5           0           0           0           0           0
           0           0           0           0           0           0
           1           0           0           0           0           0
           0           0      100000           0          -1           0
           0           0           0           0           0           0
           0           0           0           1           0           0
           0 -2000000000           1           0           0           0
           0           0           4          52           0           0
           0           0           0           0           0           0
           0           0           0           5           0           1
           0           0           0           0           0           0
           0           0           0           0           0           0
           0           0           0           0           0           0
           0           0           0           0           0           0
           0           0           0           0
Num RLSW                                   I               52
RLSW                                       R   N=          52
  1.00000000E+00  1.00000000E+00  1.00000000E+00  1.00000000E+00  1.00000000E+00
  0.00000000E+00  0.00000000E+00  1.00000000E+00  0.00000000E+00  0.00000000E+00
  0.00000000E+00  0.00000000E+00  1.00000000E+00  0.00000000E+00  0.00000000E+00
  0.00000000E+00  0.00000000E+00  1.00000000E+00  0.00000000E+00  0.00000000E+00
  0.00000000E+00  0.00000000E+00  1.00000000E+00  0.00000000E+00  0.00000000E+00
  0.00000000E+00  0.00000000E+00  1.00000000E+00  0.00000000E+00  0.00000000E+00
  0.00000000E+00  0.00000000E+00  1.00000000E+00  0.00000000E+00  0.00000000E+00
  0.00000000E+00  0.00000000E+00  0.00000000E+00  1.00000000E+00  1.00000000E+00
  0.00000000E+00  1.00000000E+00  0.00000000E+00  0.00000000E+00  0.00000000E+00
  0.00000000E+00  0.00000000E+00  0.00000000E+00  0.00000000E+00  0.00000000E+00
  0.00000000E+00  0.00000000E+00
MxBond                                     I                2
NBond                                      I   N=           5
           1           2           2           2           1
IBond                                      I   N=          10
           2           0           1           3           2           4
           3           5           4           0
RBond                                      R   N=          10
  1.00000000E+00  0.00000000E+00  1.00000000E+00  1.00000000E+00  1.00000000E+00
  1.00000000E+00  1.00000000E+00  2.00000000E+00  2.00000000E+00  0.00000000E+00
Virial Ratio                               R      2.002369387577744E+00
SCF Energy                                 R     -2.795017941446811E+02
MP2 Energy                                 R     -2.804466869047080E+02
Total Energy                               R     -2.804466869047080E+02
Post-SCF wavefunction norm                 R      1.120192870758556E+00
RMS Density                                R      3.802805769900583E-09
Job Status                                 I                1
Nuclear derivative order                   I                0
External E-field                           R   N=          35
  0.00000000E+00  0.00000000E+00  0.00000000E+00  0.00000000E+00  0.00000000E+00
  0.00000000E+00  0.00000000E+00  0.00000000E+00  0.00000000E+00  0.00000000E+00
  0.00000000E+00  0.00000000E+00  0.00000000E+00  0.00000000E+00  0.00000000E+00
  0.00000000E+00  0.00000000E+00  0.00000000E+00  0.00000000E+00  0.00000000E+00
  0.00000000E+00  0.00000000E+00  0.00000000E+00  0.00000000E+00  0.00000000E+00
  0.00000000E+00  0.00000000E+00  0.00000000E+00  0.00000000E+00  0.00000000E+00
  0.00000000E+00  0.00000000E+00  0.00000000E+00  0.00000000E+00  0.00000000E+00
IOpCl                                      I                0
IROHF                                      I                0
Alpha Orbital Energies                     R   N=         207
 -2.06910383E+01 -2.06843329E+01 -2.06594866E+01 -1.58128755E+01 -1.62399418E+00
 -1.49502814E+00 -1.25457689E+00 -9.48026809E-01 -7.72224165E-01 -7.59933916E-01
 -7.11675736E-01 -6.79665053E-01 -6.20247890E-01 -5.88311639E-01 -4.85077151E-01
 -4.72497614E-01  2.94999536E-02  7.17103506E-02  8.59501446E-02  1.01758773E-01
  1.33845170E-01  1.34014914E-01  1.44084433E-01  1.54472237E-01  1.78294716E-01
  1.94290325E-01  1.99908692E-01  2.06312003E-01  2.20863567E-01  2.35426232E-01
  2.37391620E-01  2.66573301E-01  2.93426142E-01  3.04039153E-01  3.10118104E-01
  3.43537466E-01  3.49520596E-01  3.87176087E-01  4.21058679E-01  4.32045550E-01
  5.27139189E-01  5.29176279E-01  5.58721006E-01  5.81956223E-01  6.25835907E-01
  6.38402685E-01  6.74344075E-01  6.84236463E-01  7.06301266E-01  7.11765973E-01
  7.21873848E-01  7.29992070E-01  7.44884442E-01  7.90445502E-01  7.90593549E-01
  8.09628878E-01  8.13058217E-01  8.31306790E-01  8.68570709E-01  9.07801124E-01
  9.22755268E-01  9.25718246E-01  9.57943210E-01  9.77998506E-01  9.83768346E-01
  1.01585115E+00  1.05229481E+00  1.05507324E+00  1.08217488E+00  1.11760475E+00
  1.13957985E+00  1.18913505E+00  1.22080447E+00  1.23151287E+00  1.33852048E+00
  1.34903787E+00  1.38688283E+00  1.45200581E+00  1.48828081E+00  1.51101028E+00
  1.53851695E+00  1.56712548E+00  1.57985172E+00  1.61487985E+00  1.66484057E+00
  1.66922249E+00  1.70344332E+00  1.79030863E+00  1.83168424E+00  1.83390345E+00
  1.87888363E+00  1.90951068E+00  1.95694598E+00  1.99111059E+00  2.00676953E+00
  2.07676549E+00  2.11799941E+00  2.13198724E+00  2.15017541E+00  2.22312443E+00
  2.26500867E+00  2.26584445E+00  2.28865098E+00  2.31465192E+00  2.34534934E+00
  2.38552199E+00  2.42238757E+00  2.42593931E+00  2.45466385E+00  2.46311648E+00
  2.47513790E+00  2.50257821E+00  2.58894879E+00  2.59513092E+00  2.61856483E+00
  2.62697130E+00  2.63417203E+00  2.66893001E+00  2.75702893E+00  2.82282197E+00
  2.86150040E+00  2.88746804E+00  2.89457126E+00  2.92209628E+00  2.96027889E+00
  3.02620406E+00  3.06771465E+00  3.12256325E+00  3.20159567E+00  3.22876164E+00
  3.31813646E+00  3.34096716E+00  3.51474278E+00  3.64876915E+00  3.83916239E+00
  3.84691639E+00  4.15096241E+00  4.15861628E+00  4.18397746E+00  4.25686500E+00
  4.35727786E+00  4.39146072E+00  4.46438559E+00  4.51372346E+00  4.66355773E+00
  4.69784054E+00  4.80620119E+00  4.82445384E+00  4.83105526E+00  4.89587132E+00
  5.02230281E+00  5.07777656E+00  5.10368188E+00  5.14767641E+00  5.18416104E+00
  5.23774075E+00  5.27331666E+00  5.30990972E+00  5.33083130E+00  5.35383495E+00
  5.60894545E+00  5.67371297E+00  5.77251577E+00  5.82044920E+00  5.95707013E+00
  6.16547144E+00  6.30711043E+00  6.34078567E+00  6.39591328E+00  6.49349686E+00
  6.50557848E+00  6.61280684E+00  6.66763992E+00  6.69778626E+00  6.75550786E+00
  6.76474526E+00  6.83137419E+00  6.89795805E+00  7.00544695E+00  7.05726609E+00
  7.06066966E+00  7.09084071E+00  7.12381560E+00  7.15422551E+00  7.18123796E+00
  7.22418790E+00  7.24178158E+00  7.30955002E+00  7.32554316E+00  7.34675638E+00
  7.39894260E+00  7.42125291E+00  7.48431897E+00  7.60849408E+00  7.61559078E+00
  7.62737385E+00  7.66555582E+00  7.78596292E+00  7.88660954E+00  8.09189508E+00
  8.31189496E+00  8.41770416E+00  8.54519477E+00  1.33938910E+01  1.43959801E+01
  1.51470406E+01  1.61515016E+01
Alpha MO coefficients                      R   N=       42849
  9.22156715E-05 -7.09172939E-04 -7.72420136E-04 -5.51697489E-06 -3.01603414E-05
 -2.45302217E-05  0.00000000E+00 -3.56660620E-05  1.02185345E-04  0.00000000E+00
  9.59814493E-05  5.44190379E-05  0.00000000E+00  3.39870941E-05  0.00000000E+00
  0.00000000E+00 -4.24231582E-05  2.39504664E-05 -2.31482094E-06  0.00000000E+00
  0.00000000E+00 -1.26365726E-04  1.13002897E-04  4.48861545E-03 -2.75117273E-04
  7.99339754E-06  1.66471870E-03  1.88717176E-03  1.06615339E-04  5.84089697E-06
  0.00000000E+00 -6.16845787E-04 -1.58744447E-05  0.00000000E+00 -1.11674569E-03
  8.45444827E-04  0.00000000E+00 -4.12016857E-04  6.59472861E-05  0.00000000E+00
  2.90076650E-05  0.00000000E+00  0.00000000E+00 -5.51249993E-05  5.20101409E-06
 -3.84227421E-04  0.00000000E+00  0.00000000E+00  7.37604855E-04 -2.98507392E-05
 -4.53201781E-04  0.00000000E+00  0.00000000E+00  2.45005793E-04 -2.07619758E-05
  0.00000000E+00  8.02857507E-05  1.20592999E-05  0.00000000E+00  0.00000000E+00
 -1.09771565E-04 -4.21966199E-06  0.00000000E+00  2.54308042E-04 -2.79551823E-05
  0.00000000E+00  0.00000000E+00 -3.58279198E-04  5.48962785E-05  9.76913203E-01
 -9.21436038E-03  4.33163568E-02  2.03854990E-03 -9.48235733E-04  1.49890995E-03
 -1.35640649E-03  0.00000000E+00 -1.44178590E-03  1.38507791E-03  0.00000000E+00
  5.91859212E-05 -1.19370639E-03  0.00000000E+00 -1.42580590E-04 -1.54676099E-05
  0.00000000E+00  4.69150338E-05  0.00000000E+00  0.00000000E+00 -3.46874780E-05
  2.03183454E-05  7.46194627E-04  0.00000000E+00  0.00000000E+00 -2.38605215E-04
 -3.88084612E-04 -3.52294679E-04  0.00000000E+00  0.00000000E+00 -3.18176836E-04
 -3.91286892E-04  0.00000000E+00  4.76535032E-05 -4.93509522E-05  0.00000000E+00
  0.00000000E+00 -3.95933510E-05 -1.51980960E-05  0.00000000E+00  2.34431176E-05
  2.36532296E-05  0.00000000E+00  0.00000000E+00 -3.05753436E-04 -1.39680362E-04
  3.89282001E-05  4.53834381E-05 -2.63554346E-04 -7.15042573E-04 -1.45926411E-04
 -2.70214442E-05 -9.69058752E-05  0.00000000E+00  2.69508864E-04  7.06020043E-04
  0.00000000E+00 -8.50799346E-04 -5.07475349E-04  0.00000000E+00 -1.29263088E-04
 -2.97747893E-05  0.00000000E+00 -1.82076639E-05  0.00000000E+00  0.00000000E+00
 -2.96787437E-05  1.50854162E-05 -3.27017272E-04  0.00000000E+00  0.00000000E+00
 -8.25458083E-04  1.29671319E-04 -3.61410811E-05  0.00000000E+00  0.00000000E+00
  1.06219506E-04 -1.13064004E-04  0.00000000E+00 -2.07205141E-05 -1.19766716E-04
  0.00000000E+00  0.00000000E+00 -6.30420406E-05 -1.37340318E-04  0.00000000E+00
  2.81873323E-06 -1.51326784E-04  0.00000000E+00  0.00000000E+00  4.40213243E-05
 -4.18247993E-04 -2.52284202E-03  1.21231041E-04 -1.20973103E-04 -2.56405711E-04
  1.30509791E-04 -7.80785689E-06 -2.75670116E-05  0.00000000E+00  6.86452975E-05
  1.62724716E-04  0.00000000E+00  2.31350790E-04  2.13260093E-04  0.00000000E+00
  1.27894457E-04  2.50355847E-05  0.00000000E+00 -3.33641994E-06  0.00000000E+00
  0.00000000E+00 -1.78241690E-05  1.06636822E-06  7.27410445E-07  0.00000000E+00
  0.00000000E+00  7.99333963E-05  8.83749399E-05 -1.01879084E-04  0.00000000E+00
  0.00000000E+00  1.64783813E-04  1.66887966E-04  0.00000000E+00  1.58707194E-05
 -3.54012587E-06  0.00000000E+00  0.00000000E+00 -4.29138384E-06 -1.20141324E-05
  0.00000000E+00 -3.36997837E-05  4.50779553E-05  0.00000000E+00  0.00000000E+00
  8.32173411E-05  9.03482308E-05  3.64527601E-05 -9.88737471E-04 -4.92070755E-04
 -1.13785385E-05 -2.31053701E-05  1.65320077E-05  0.00000000E+00 -1.12989030E-06
  2.72695644E-04  0.00000000E+00 -4.49229206E-05  1.34601998E-04  0.00000000E+00
  2.47934252E-05  0.00000000E+00  0.00000000E+00  1.35394167E-05  1.21228495E-05
 -2.88389365E-05  0.00000000E+00  0.00000000E+00  1.28170633E-05  3.76954474E-05
  1.09866833E-04  8.40396494E-05 -2.84808838E-05  7.48981066E-04  6.58929381E-04
  1.00595455E-05  2.57308122E-06  0.00000000E+00 -7.17205249E-05  1.43624503E-05
  0.00000000E+00  3.61637355E-04  9.04131795E-04  0.00000000E+00  7.58839758E-06
  8.41743141E-05  0.00000000E+00 -2.18122759E-06  0.00000000E+00  0.00000000E+00
 -2.84800341E-07 -6.43940802E-06 -3.60941623E-05  0.00000000E+00  0.00000000E+00
 -1.71458991E-05  8.76460400E-05 -2.26698383E-05  0.00000000E+00  0.00000000E+00
 -2.71153179E-04 -1.50408653E-04  0.00000000E+00  9.39095825E-06  6.07167535E-06
  0.00000000E+00  0.00000000E+00  2.57781132E-06 -1.83620243E-05  0.00000000E+00
 -4.20010726E-05 -3.83186741E-05  0.00000000E+00  0.00000000E+00 -8.04514476E-05
  2.15153288E-05  2.56166779E-03  3.93092918E-05  8.88246979E-05 -5.24665715E-05
 -4.75060258E-04  7.30627357E-06  1.57758649E-05  0.00000000E+00 -6.24319055E-05
 -5.47705192E-05  0.00000000E+00  2.38983307E-04 -1.94465676E-04  0.00000000E+00
 -1.90373419E-04 -6.52434589E-05  0.00000000E+00 -8.61921222E-06  0.00000000E+00
  0.00000000E+00  2.25965045E-05  1.97059488E-05  3.94890517E-06  0.00000000E+00
  0.00000000E+00 -1.18764559E-04 -4.57635488E-05 -1.74267332E-06  0.00000000E+00
  0.00000000E+00 -2.23402097E-04 -2.11883916E-04  0.00000000E+00  3.12050786E-06
 -7.69242686E-07  0.00000000E+00  0.00000000E+00  1.52395226E-06 -1.33081146E-05
  0.00000000E+00 -4.56188199E-05  4.64138878E-06  0.00000000E+00  0.00000000E+00
 -7.60374364E-05  1.87110922E-04  2.58732919E-04  1.46553692E-03 -7.79116616E-05
 -1.53621006E-03  4.04542579E-04 -1.44411213E-04  4.58511554E-07  0.00000000E+00
 -2.09096244E-03 -4.02946957E-04  0.00000000E+00  1.02710168E-03  7.54580785E-04
  0.00000000E+00 -1.70887015E-04  5.69408564E-05  0.00000000E+00 -1.23372823E-04
  0.00000000E+00  0.00000000E+00  2.43274525E-04  9.35881091E-05 -4.41981338E-04
  0.00000000E+00  0.00000000E+00  9.00155971E-04 -6.80446753E-05  1.16149334E-05
  0.00000000E+00  0.00000000E+00 -3.35500718E-04 -1.23900035E-04  0.00000000E+00
 -1.20953134E-06  1.54435602E-05  0.00000000E+00  0.00000000E+00  1.88240199E-05
  1.33651438E-05  0.00000000E+00  1.64443280E-04 -7.18445138E-05  0.00000000E+00
  0.00000000E+00 -2.40767584E-04  4.27929803E-05  9.76649604E-01 -9.84797560E-03
  4.35678419E-02  4.49075000E-03 -4.52080043E-04  2.14889988E-03  4.79717679E-04
  0.00000000E+00 -2.38546492E-03 -6.02491050E-04  0.00000000E+00  1.13586767E-03
 -2.97474486E-06  0.00000000E+00  3.85087919E-06 -4.31077226E-05  0.00000000E+00
 -2.32256588E-04  0.00000000E+00  0.00000000E+00  1.02868514E-04  3.15420881E-05
  3.90857310E-04  0.00000000E+00  0.00000000E+00 -8.35161404E-04 -4.17942242E-04
 -1.54450003E-04  0.00000000E+00  0.00000000E+00  2.55031667E-04  1.74306968E-05
  0.00000000E+00  5.23762548E-05  1.76564990E-05  0.00000000E+00  0.00000000E+00
 -2.21780903E-05 -1.32671950E-05  0.00000000E+00  1.38093230E-04  9.08067516E-06
  0.00000000E+00  0.00000000E+00 -1.90414441E-04 -1.40171072E-04  4.78010255E-04
  2.13993137E-03  1.30820457E-04  1.25241223E-05 -4.31837951E-05 -2.45614238E-04
  0.00000000E+00  8.32974975E-05 -1.29164684E-03  0.00000000E+00  2.84993564E-04
 -3.42095325E-04  0.00000000E+00 -1.38361607E-06  0.00000000E+00  0.00000000E+00
  7.63686285E-05  8.06198731E-06 -1.53873483E-04  0.00000000E+00  0.00000000E+00
 -5.37722871E-04 -2.12706228E-06  9.76829703E-01 -9.15546148E-03  4.34544761E-02
  8.32734918E-05 -1.10214273E-03 -1.54719706E-03  1.45790729E-03  0.00000000E+00
  1.55677362E-03 -1.29289484E-03  0.00000000E+00 -5.94081162E-04 -9.32342487E-04
  0.00000000E+00  5.82082849E-05 -1.46873193E-05  0.00000000E+00  2.76955095E-05
  0.00000000E+00  0.00000000E+00 -1.17814196E-04  3.86909753E-06  7.63282022E-04
  0.00000000E+00  0.00000000E+00 -2.07262512E-04 -2.58423863E-04 -2.64107569E-04
  0.00000000E+00  0.00000000E+00  1.87282438E-04  1.38871388E-04  0.00000000E+00
 -6.41246568E-05  2.80374486E-07  0.00000000E+00  0.00000000E+00  1.97456124E-05
  1.00243128E-05  0.00000000E+00  2.68707245E-06  1.27461572E-04  0.00000000E+00
  0.00000000E+00  2.70585448E-04  8.80503216E-05 -4.57971227E-03 -2.11450938E-04