title                                                                   
SP        RMP2-FC                                                     Aug-CC-pVTZ         
Number of atoms                            I                5
Info1-9                                    I   N=           9
          33          24           0           0           0         110
           1           2           1
Full Title                                 C   N=           1
title       
Route                                      C   N=           4
#p SP mp2/aug-cc-pvtz density=current           
Charge                                     I                0
Multiplicity                               I                1
Number of electrons                        I               32
Number of alpha electrons                  I               16
Number of beta electrons                   I               16
Number of basis functions                  I              207
Number of independent functions            I              207
Number of point charges in /Mol/           I                0
Number of translation vectors              I                0
Atomic numbers                             I   N=           5
           1           8           8           7           8
Nuclear charges                            R   N=           5
  1.00000000E+00  8.00000000E+00  8.00000000E+00  7.00000000E+00  8.00000000E+00
Current cartesian coordinates              R   N=          15
  2.92344752E+00  3.19479960E+00  3.55494084E-32  2.74758136E+00  1.37216619E+00
 -2.23728765E-32 -1.16650916E-16  1.27220766E+00  9.27778952E-33 -4.88832436E-01
 -1.44080739E+00 -2.27102096E-33 -2.68528392E+00 -1.78301733E+00 -4.08258460E-32
Number of symbols in /Mol/                 I                0
Force Field                                I                0
Atom Types                                 C   N=           5
                                                            
Int Atom Types                             I   N=           5
           0           0           0           0           0
MM charges                                 R   N=           5
  0.00000000E+00  0.00000000E+00  0.00000000E+00  0.00000000E+00  0.00000000E+00
Integer atomic weights                     I   N=           5
           1          16          16          14          16
Real atomic weights                        R   N=           5
  1.00782504E+00  1.59949146E+01  1.59949146E+01  1.40030740E+01  1.59949146E+01
Atom fragment info                         I   N=           5
           0           0           0           0           0
Atom residue num                           I   N=           5
           0           0           0           0           0
Nuclear spins                              I   N=           5
           1           0           0           2           0
Nuclear ZEff                               R   N=           5
 -1.00000000E+00 -5.60000000E+00 -5.60000000E+00 -4.55000000E+00 -5.60000000E+00
Nuclear ZNuc                               R   N=           5
  1.00000000E+00  8.00000000E+00  8.00000000E+00  7.00000000E+00  8.00000000E+00
Nuclear QMom                               R   N=           5
  0.00000000E+00  0.00000000E+00  0.00000000E+00  2.04400000E+00  0.00000000E+00
Nuclear GFac                               R   N=           5
  2.79284600E+00  0.00000000E+00  0.00000000E+00  4.03761000E-01  0.00000000E+00
MicOpt                                     I   N=           5
          -1          -1          -1          -1          -1
Number of residues                         I                0
Number of secondary structures             I                0
SymInf integers                            I   N=          26
           1           2           1           1           1           1
           1          -1           0           0           0           0
           0           0           0           0           0           0
           0           0           0           0           0           0
           0           0
RotTr to input orientation                 R   N=          12
 -9.95377082E-01 -9.83488463E-17 -9.60440781E-02  9.60440781E-02 -7.29732983E-17
 -9.95377082E-01  9.08855345E-17 -1.00000000E+00  8.20817730E-17  2.60309108E+00
  0.00000000E+00  3.46081012E+00
Number of contracted shells                I               65
Number of primitive shells                 I              119
Pure/Cartesian d shells                    I                0
Pure/Cartesian f shells                    I                0
Highest angular momentum                   I                3
Largest degree of contraction              I                7
Shell types                                I   N=          65
           0           0           0           0           1           1
           1          -2          -2           0           0           0
           0           0           1           1           1           1
          -2          -2          -2          -3          -3           0
           0           0           0           0           1           1
           1           1          -2          -2          -2          -3
          -3           0           0           0           0           0
           1           1           1           1          -2          -2
          -2          -3          -3           0           0           0
           0           0           1           1           1           1
          -2          -2          -2          -3          -3
Number of primitives per shell             I   N=          65
           3           1           1           1           1           1
           1           1           1           7           6           1
           1           1           3           1           1           1
           1           1           1           1           1           7
           6           1           1           1           3           1
           1           1           1           1           1           1
           1           7           6           1           1           1
           3           1           1           1           1           1
           1           1           1           7           6           1
           1           1           3           1           1           1
           1           1           1           1           1
Shell to atom map                          I   N=          65
           1           1           1           1           1           1
           1           1           1           2           2           2
           2           2           2           2           2           2
           2           2           2           2           2           3
           3           3           3           3           3           3
           3           3           3           3           3           3
           3           4           4           4           4           4
           4           4           4           4           4           4
           4           4           4           5           5           5
           5           5           5           5           5           5
           5           5           5           5           5
Primitive exponents                        R   N=         119
  3.38700000E+01  5.09500000E+00  1.15900000E+00  3.25800000E-01  1.02700000E-01
  2.52600000E-02  1.40700000E+00  3.88000000E-01  1.02000000E-01  1.05700000E+00
  2.47000000E-01  1.53300000E+04  2.29900000E+03  5.22400000E+02  1.47300000E+02
  4.75500000E+01  1.67600000E+01  6.20700000E+00  5.22400000E+02  1.47300000E+02
  4.75500000E+01  1.67600000E+01  6.20700000E+00  6.88200000E-01  1.75200000E+00
  2.38400000E-01  7.37600000E-02  3.44600000E+01  7.74900000E+00  2.28000000E+00
  7.15600000E-01  2.14000000E-01  5.97400000E-02  2.31400000E+00  6.45000000E-01
  2.14000000E-01  1.42800000E+00  5.00000000E-01  1.53300000E+04  2.29900000E+03
  5.22400000E+02  1.47300000E+02  4.75500000E+01  1.67600000E+01  6.20700000E+00
  5.22400000E+02  1.47300000E+02  4.75500000E+01  1.67600000E+01  6.20700000E+00
  6.88200000E-01  1.75200000E+00  2.38400000E-01  7.37600000E-02  3.44600000E+01
  7.74900000E+00  2.28000000E+00  7.15600000E-01  2.14000000E-01  5.97400000E-02
  2.31400000E+00  6.45000000E-01  2.14000000E-01  1.42800000E+00  5.00000000E-01
  1.14200000E+04  1.71200000E+03  3.89300000E+02  1.10000000E+02  3.55700000E+01
  1.25400000E+01  4.64400000E+00  3.89300000E+02  1.10000000E+02  3.55700000E+01
  1.25400000E+01  4.64400000E+00  5.11800000E-01  1.29300000E+00  1.78700000E-01
  5.76000000E-02  2.66300000E+01  5.94800000E+00  1.74200000E+00  5.55000000E-01
  1.72500000E-01  4.91000000E-02  1.65400000E+00  4.69000000E-01  1.51000000E-01
  1.09300000E+00  3.64000000E-01  1.53300000E+04  2.29900000E+03  5.22400000E+02
  1.47300000E+02  4.75500000E+01  1.67600000E+01  6.20700000E+00  5.22400000E+02
  1.47300000E+02  4.75500000E+01  1.67600000E+01  6.20700000E+00  6.88200000E-01
  1.75200000E+00  2.38400000E-01  7.37600000E-02  3.44600000E+01  7.74900000E+00
  2.28000000E+00  7.15600000E-01  2.14000000E-01  5.97400000E-02  2.31400000E+00
  6.45000000E-01  2.14000000E-01  1.42800000E+00  5.00000000E-01
Contraction coefficients                   R   N=         119
  2.54948632E-02  1.90362766E-01  8.52162022E-01  1.00000000E+00  1.00000000E+00
  1.00000000E+00  1.00000000E+00  1.00000000E+00  1.00000000E+00  1.00000000E+00
  1.00000000E+00  5.19808943E-04  4.02025621E-03  2.07128267E-02  8.10105536E-02
  2.35962985E-01  4.42653446E-01  3.57064423E-01 -4.42115008E-05 -1.22591041E-03
 -1.05517725E-02 -6.74452633E-02 -1.71198607E-01  1.07329856E+00  1.00000000E+00
  1.00000000E+00  1.00000000E+00  4.11634896E-02  2.57762836E-01  8.02419274E-01
  1.00000000E+00  1.00000000E+00  1.00000000E+00  1.00000000E+00  1.00000000E+00
  1.00000000E+00  1.00000000E+00  1.00000000E+00  5.19808943E-04  4.02025621E-03
  2.07128267E-02  8.10105536E-02  2.35962985E-01  4.42653446E-01  3.57064423E-01
 -4.42115008E-05 -1.22591041E-03 -1.05517725E-02 -6.74452633E-02 -1.71198607E-01
  1.07329856E+00  1.00000000E+00  1.00000000E+00  1.00000000E+00  4.11634896E-02
  2.57762836E-01  8.02419274E-01  1.00000000E+00  1.00000000E+00  1.00000000E+00
  1.00000000E+00  1.00000000E+00  1.00000000E+00  1.00000000E+00  1.00000000E+00
  5.34563860E-04  4.13435660E-03  2.12335358E-02  8.25006224E-02  2.38138871E-01
  4.42551547E-01  3.53757422E-01 -4.89867350E-05 -1.19527323E-03 -1.03490714E-02
 -6.48680190E-02 -1.71552477E-01  1.07289568E+00  1.00000000E+00  1.00000000E+00
  1.00000000E+00  3.98072123E-02  2.49002660E-01  8.10479727E-01  1.00000000E+00
  1.00000000E+00  1.00000000E+00  1.00000000E+00  1.00000000E+00  1.00000000E+00
  1.00000000E+00  1.00000000E+00  5.19808943E-04  4.02025621E-03  2.07128267E-02
  8.10105536E-02  2.35962985E-01  4.42653446E-01  3.57064423E-01 -4.42115008E-05
 -1.22591041E-03 -1.05517725E-02 -6.74452633E-02 -1.71198607E-01  1.07329856E+00
  1.00000000E+00  1.00000000E+00  1.00000000E+00  4.11634896E-02  2.57762836E-01
  8.02419274E-01  1.00000000E+00  1.00000000E+00  1.00000000E+00  1.00000000E+00
  1.00000000E+00  1.00000000E+00  1.00000000E+00  1.00000000E+00
Coordinates of each shell                  R   N=         195
  2.92344752E+00  3.19479960E+00  0.00000000E+00  2.92344752E+00  3.19479960E+00
  0.00000000E+00  2.92344752E+00  3.19479960E+00  0.00000000E+00  2.92344752E+00
  3.19479960E+00  0.00000000E+00  2.92344752E+00  3.19479960E+00  0.00000000E+00
  2.92344752E+00  3.19479960E+00  0.00000000E+00  2.92344752E+00  3.19479960E+00
  0.00000000E+00  2.92344752E+00  3.19479960E+00  0.00000000E+00  2.92344752E+00
  3.19479960E+00  0.00000000E+00  2.74758136E+00  1.37216619E+00  0.00000000E+00
  2.74758136E+00  1.37216619E+00  0.00000000E+00  2.74758136E+00  1.37216619E+00
  0.00000000E+00  2.74758136E+00  1.37216619E+00  0.00000000E+00  2.74758136E+00
  1.37216619E+00  0.00000000E+00  2.74758136E+00  1.37216619E+00  0.00000000E+00
  2.74758136E+00  1.37216619E+00  0.00000000E+00  2.74758136E+00  1.37216619E+00
  0.00000000E+00  2.74758136E+00  1.37216619E+00  0.00000000E+00  2.74758136E+00
  1.37216619E+00  0.00000000E+00  2.74758136E+00  1.37216619E+00  0.00000000E+00
  2.74758136E+00  1.37216619E+00  0.00000000E+00  2.74758136E+00  1.37216619E+00
  0.00000000E+00  2.74758136E+00  1.37216619E+00  0.00000000E+00  5.69867653E-18
  1.27220766E+00  0.00000000E+00  5.69867653E-18  1.27220766E+00  0.00000000E+00
  5.69867653E-18  1.27220766E+00  0.00000000E+00  5.69867653E-18  1.27220766E+00
  0.00000000E+00  5.69867653E-18  1.27220766E+00  0.00000000E+00  5.69867653E-18
  1.27220766E+00  0.00000000E+00  5.69867653E-18  1.27220766E+00  0.00000000E+00
  5.69867653E-18  1.27220766E+00  0.00000000E+00  5.69867653E-18  1.27220766E+00
  0.00000000E+00  5.69867653E-18  1.27220766E+00  0.00000000E+00  5.69867653E-18
  1.27220766E+00  0.00000000E+00  5.69867653E-18  1.27220766E+00  0.00000000E+00
  5.69867653E-18  1.27220766E+00  0.00000000E+00  5.69867653E-18  1.27220766E+00
  0.00000000E+00 -4.88832436E-01 -1.44080739E+00  0.00000000E+00 -4.88832436E-01
 -1.44080739E+00  0.00000000E+00 -4.88832436E-01 -1.44080739E+00  0.00000000E+00
 -4.88832436E-01 -1.44080739E+00  0.00000000E+00 -4.88832436E-01 -1.44080739E+00
  0.00000000E+00 -4.88832436E-01 -1.44080739E+00  0.00000000E+00 -4.88832436E-01
 -1.44080739E+00  0.00000000E+00 -4.88832436E-01 -1.44080739E+00  0.00000000E+00
 -4.88832436E-01 -1.44080739E+00  0.00000000E+00 -4.88832436E-01 -1.44080739E+00
  0.00000000E+00 -4.88832436E-01 -1.44080739E+00  0.00000000E+00 -4.88832436E-01
 -1.44080739E+00  0.00000000E+00 -4.88832436E-01 -1.44080739E+00  0.00000000E+00
 -4.88832436E-01 -1.44080739E+00  0.00000000E+00 -2.68528392E+00 -1.78301733E+00
  0.00000000E+00 -2.68528392E+00 -1.78301733E+00  0.00000000E+00 -2.68528392E+00
 -1.78301733E+00  0.00000000E+00 -2.68528392E+00 -1.78301733E+00  0.00000000E+00
 -2.68528392E+00 -1.78301733E+00  0.00000000E+00 -2.68528392E+00 -1.78301733E+00
  0.00000000E+00 -2.68528392E+00 -1.78301733E+00  0.00000000E+00 -2.68528392E+00
 -1.78301733E+00  0.00000000E+00 -2.68528392E+00 -1.78301733E+00  0.00000000E+00
 -2.68528392E+00 -1.78301733E+00  0.00000000E+00 -2.68528392E+00 -1.78301733E+00
  0.00000000E+00 -2.68528392E+00 -1.78301733E+00  0.00000000E+00 -2.68528392E+00
 -1.78301733E+00  0.00000000E+00 -2.68528392E+00 -1.78301733E+00  0.00000000E+00
Num ILSW                                   I              100
ILSW                                       I   N=         100
           0           0           0           0           2           0
           0           0           0           0           0          -1
           5           0           0           0           0           0
           0           0           0           0           0           0
           1           0           0           0           0           0
           0           0      100000           0          -1           0
           0           0           0           0           0           0
           0           0           0           1           0           0
           0 -2000000000           1           0           0           0
           0           0           4          52           0           0
           0           0           0           0           0           0
           0           0           0           5           0           1
           0           0           0           0           0           0
           0           0           0           0           0           0
           0           0           0           0           0           0
           0           0           0           0           0           0
           0           0           0           0
Num RLSW                                   I               52
RLSW                                       R   N=          52
  1.00000000E+00  1.00000000E+00  1.00000000E+00  1.00000000E+00  1.00000000E+00
  0.00000000E+00  0.00000000E+00  1.00000000E+00  0.00000000E+00  0.00000000E+00
  0.00000000E+00  0.00000000E+00  1.00000000E+00  0.00000000E+00  0.00000000E+00
  0.00000000E+00  0.00000000E+00  1.00000000E+00  0.00000000E+00  0.00000000E+00
  0.00000000E+00  0.00000000E+00  1.00000000E+00  0.00000000E+00  0.00000000E+00
  0.00000000E+00  0.00000000E+00  1.00000000E+00  0.00000000E+00  0.00000000E+00
  0.00000000E+00  0.00000000E+00  1.00000000E+00  0.00000000E+00  0.00000000E+00
  0.00000000E+00  0.00000000E+00  0.00000000E+00  1.00000000E+00  1.00000000E+00
  0.00000000E+00  1.00000000E+00  0.00000000E+00  0.00000000E+00  0.00000000E+00
  0.00000000E+00  0.00000000E+00  0.00000000E+00  0.00000000E+00  0.00000000E+00
  0.00000000E+00  0.00000000E+00
MxBond                                     I                2
NBond                                      I   N=           5
           1           2           2           2           1
IBond                                      I   N=          10
           2           0           1           3           2           4
           3           5           4           0
RBond                                      R   N=          10
  1.00000000E+00  0.00000000E+00  1.00000000E+00  1.00000000E+00  1.00000000E+00
  1.00000000E+00  1.00000000E+00  2.00000000E+00  2.00000000E+00  0.00000000E+00
Virial Ratio                               R      2.002447502462770E+00
SCF Energy                                 R     -2.795006847642874E+02
MP2 Energy                                 R     -2.804466939094486E+02
Total Energy                               R     -2.804466939094486E+02
Post-SCF wavefunction norm                 R      1.120617942304215E+00
RMS Density                                R      3.942784645154601E-09
Job Status                                 I                1
Nuclear derivative order                   I                0
External E-field                           R   N=          35
  0.00000000E+00  0.00000000E+00  0.00000000E+00  0.00000000E+00  0.00000000E+00
  0.00000000E+00  0.00000000E+00  0.00000000E+00  0.00000000E+00  0.00000000E+00
  0.00000000E+00  0.00000000E+00  0.00000000E+00  0.00000000E+00  0.00000000E+00
  0.00000000E+00  0.00000000E+00  0.00000000E+00  0.00000000E+00  0.00000000E+00
  0.00000000E+00  0.00000000E+00  0.00000000E+00  0.00000000E+00  0.00000000E+00
  0.00000000E+00  0.00000000E+00  0.00000000E+00  0.00000000E+00  0.00000000E+00
  0.00000000E+00  0.00000000E+00  0.00000000E+00  0.00000000E+00  0.00000000E+00
IOpCl                                      I                0
IROHF                                      I                0
Alpha Orbital Energies                     R   N=         207
 -2.06921877E+01 -2.06840669E+01 -2.06606936E+01 -1.58136490E+01 -1.61955755E+00
 -1.49562314E+00 -1.25497082E+00 -9.48837033E-01 -7.72159386E-01 -7.57710632E-01
 -7.10707478E-01 -6.78679986E-01 -6.19292611E-01 -5.89786106E-01 -4.85682572E-01
 -4.73588722E-01  2.94759135E-02  6.99466195E-02  8.60348041E-02  1.01719814E-01
  1.33873308E-01  1.34061948E-01  1.43960677E-01  1.54395520E-01  1.78161064E-01
  1.94236537E-01  1.99604113E-01  2.06355121E-01  2.20625348E-01  2.34958325E-01
  2.37341603E-01  2.65984197E-01  2.92863668E-01  3.03663060E-01  3.10200160E-01
  3.43494208E-01  3.49544748E-01  3.87002635E-01  4.21730830E-01  4.31564789E-01
  5.27445892E-01  5.28382313E-01  5.58140634E-01  5.81519111E-01  6.22872351E-01
  6.38552792E-01  6.76193853E-01  6.84083711E-01  7.06339510E-01  7.11000706E-01
  7.23915794E-01  7.29069004E-01  7.44679759E-01  7.91250639E-01  7.91693841E-01
  8.10514543E-01  8.12194972E-01  8.29132298E-01  8.67755769E-01  9.07770079E-01
  9.21431969E-01  9.25792972E-01  9.56302404E-01  9.76311487E-01  9.84149524E-01
  1.01619119E+00  1.05163342E+00  1.05440828E+00  1.08127587E+00  1.11688843E+00
  1.14065631E+00  1.18915377E+00  1.21997245E+00  1.23183567E+00  1.33842307E+00
  1.35009189E+00  1.38533206E+00  1.45316310E+00  1.48750558E+00  1.50827825E+00
  1.53786819E+00  1.56693301E+00  1.57984946E+00  1.61283065E+00  1.66283895E+00
  1.66939049E+00  1.70346611E+00  1.79287220E+00  1.83175503E+00  1.83449227E+00
  1.87678822E+00  1.91011936E+00  1.95768513E+00  1.99070409E+00  2.00593858E+00
  2.07746282E+00  2.12080707E+00  2.13145951E+00  2.14929911E+00  2.22414480E+00
  2.26396380E+00  2.26432916E+00  2.28904166E+00  2.31365856E+00  2.34227004E+00
  2.38562594E+00  2.42316476E+00  2.42747820E+00  2.45402867E+00  2.46208052E+00
  2.47582494E+00  2.50017854E+00  2.58868494E+00  2.59548649E+00  2.61985395E+00
  2.62242298E+00  2.63383195E+00  2.66585200E+00  2.75530785E+00  2.82235171E+00
  2.85304108E+00  2.88159750E+00  2.89265228E+00  2.92206003E+00  2.95664228E+00
  3.02384880E+00  3.06899022E+00  3.11980926E+00  3.20414526E+00  3.22510585E+00
  3.31556080E+00  3.34081162E+00  3.51458878E+00  3.64291349E+00  3.83757709E+00
  3.84267808E+00  4.14798358E+00  4.16216396E+00  4.18285108E+00  4.24424630E+00
  4.35095553E+00  4.39234432E+00  4.46174142E+00  4.51801751E+00  4.65493907E+00
  4.70953699E+00  4.80212266E+00  4.82362601E+00  4.82756356E+00  4.89608641E+00
  5.02408958E+00  5.07698437E+00  5.10119092E+00  5.14686903E+00  5.17715296E+00
  5.24029156E+00  5.27163414E+00  5.30854427E+00  5.32863649E+00  5.35043306E+00
  5.60506534E+00  5.66439799E+00  5.76419188E+00  5.82657162E+00  5.95953210E+00
  6.16708781E+00  6.30763850E+00  6.33770609E+00  6.39356700E+00  6.49361054E+00
  6.50531244E+00  6.61290660E+00  6.66721919E+00  6.69721815E+00  6.75681530E+00
  6.76235857E+00  6.82921224E+00  6.89615893E+00  7.01160145E+00  7.05464901E+00
  7.05592940E+00  7.08922121E+00  7.12161775E+00  7.14818163E+00  7.18071365E+00
  7.22091668E+00  7.24044548E+00  7.30415090E+00  7.31338002E+00  7.34370828E+00
  7.39501558E+00  7.43046090E+00  7.48375152E+00  7.60671145E+00  7.60797571E+00
  7.62088018E+00  7.66420531E+00  7.78434923E+00  7.87758974E+00  8.09046601E+00
  8.31240075E+00  8.40848031E+00  8.54294592E+00  1.33796272E+01  1.43475710E+01
  1.51591378E+01  1.59850259E+01
Alpha MO coefficients                      R   N=       42849
  9.17376746E-05 -6.45715464E-04 -7.26372650E-04 -4.93021008E-06 -2.13232419E-05
 -2.67746439E-05  0.00000000E+00 -4.37875993E-05  6.13701591E-05  0.00000000E+00
  8.62887036E-05  3.56814178E-05  0.00000000E+00  3.18037176E-05  0.00000000E+00
  0.00000000E+00 -4.96733608E-05  2.09648776E-05 -5.69381022E-06  0.00000000E+00
  0.00000000E+00 -1.38997624E-04  1.17713985E-04  4.49763488E-03 -2.81321297E-04
  1.07674870E-05  1.56248066E-03  1.82341643E-03  1.06277601E-04  7.56126765E-06
  0.00000000E+00 -6.17095763E-04 -3.68764079E-05  0.00000000E+00 -1.10351568E-03
  7.97384219E-04  0.00000000E+00 -4.02820662E-04  6.36968802E-05  0.00000000E+00
  2.88397566E-05  0.00000000E+00  0.00000000E+00 -5.40755687E-05  5.50640964E-06
 -3.78477623E-04  0.00000000E+00  0.00000000E+00  7.39762139E-04 -2.86492495E-05
 -4.46896689E-04  0.00000000E+00  0.00000000E+00  2.41481488E-04 -1.63803639E-05
  0.00000000E+00  8.00216883E-05  1.28893115E-05  0.00000000E+00  0.00000000E+00
 -1.09502613E-04 -4.06849320E-06  0.00000000E+00  2.54622191E-04 -2.74163136E-05
  0.00000000E+00  0.00000000E+00 -3.53805751E-04  4.77008064E-05  9.76914568E-01
 -9.21486112E-03  4.33160771E-02  2.02222349E-03 -9.25288503E-04  1.49615348E-03
 -1.36042418E-03  0.00000000E+00 -1.43721926E-03  1.38930387E-03  0.00000000E+00
  8.13260329E-05 -1.16108615E-03  0.00000000E+00 -1.36047325E-04 -1.22193841E-05
  0.00000000E+00  4.63972595E-05  0.00000000E+00  0.00000000E+00 -3.49488902E-05
  2.09211769E-05  7.48461388E-04  0.00000000E+00  0.00000000E+00 -2.28060521E-04
 -3.90905553E-04 -3.59598098E-04  0.00000000E+00  0.00000000E+00 -3.12775191E-04
 -3.76875122E-04  0.00000000E+00  4.74539996E-05 -4.91979874E-05  0.00000000E+00
  0.00000000E+00 -3.89769750E-05 -1.61858151E-05  0.00000000E+00  2.35149989E-05
  2.22489390E-05  0.00000000E+00  0.00000000E+00 -3.04236412E-04 -1.42085089E-04
  3.98472973E-05  5.03233953E-05 -2.64561581E-04 -6.85124879E-04 -1.31962182E-04
 -2.71747580E-05 -9.81333076E-05  0.00000000E+00  2.65340078E-04  7.12203318E-04
  0.00000000E+00 -8.30388224E-04 -4.64788332E-04  0.00000000E+00 -1.24587147E-04
 -2.50746510E-05  0.00000000E+00 -1.81766189E-05  0.00000000E+00  0.00000000E+00
 -2.92307755E-05  1.49264048E-05 -3.30372273E-04  0.00000000E+00  0.00000000E+00
 -8.31108209E-04  1.25732602E-04 -3.80854285E-05  0.00000000E+00  0.00000000E+00
  9.37325179E-05 -1.16502085E-04  0.00000000E+00 -2.06418935E-05 -1.20389317E-04
  0.00000000E+00  0.00000000E+00 -6.21193438E-05 -1.38979362E-04  0.00000000E+00
  2.68674929E-06 -1.53816102E-04  0.00000000E+00  0.00000000E+00  4.50200675E-05
 -4.18521904E-04 -2.06837191E-03  1.16543856E-04 -1.01324415E-04 -2.46004579E-04
  1.26879885E-04 -6.67336244E-06 -2.77477529E-05  0.00000000E+00  6.68498651E-05
  1.63538465E-04  0.00000000E+00  2.24377257E-04  1.94891614E-04  0.00000000E+00
  1.24541332E-04  2.24520668E-05  0.00000000E+00 -3.56057622E-06  0.00000000E+00
  0.00000000E+00 -1.74792524E-05  1.00224125E-06  6.44800965E-07  0.00000000E+00
  0.00000000E+00  7.75438393E-05  8.91329229E-05 -9.83077644E-05  0.00000000E+00
  0.00000000E+00  1.64090739E-04  1.59155543E-04  0.00000000E+00  1.59039125E-05
 -3.81174004E-06  0.00000000E+00  0.00000000E+00 -4.89635536E-06 -1.17703562E-05
  0.00000000E+00 -3.33606337E-05  4.52371531E-05  0.00000000E+00  0.00000000E+00
  8.28855523E-05  9.06545871E-05  3.84564951E-05 -9.95677279E-04 -4.95972994E-04
 -1.20974981E-05 -2.23143761E-05  1.64446799E-05  0.00000000E+00 -1.24111020E-06
  2.77339881E-04  0.00000000E+00 -4.34101688E-05  1.36002196E-04  0.00000000E+00
  2.60591323E-05  0.00000000E+00  0.00000000E+00  1.27812515E-05  1.13311910E-05
 -2.73869053E-05  0.00000000E+00  0.00000000E+00  1.08766938E-05  3.56856063E-05
  1.13014085E-04  8.39663765E-05 -2.78458213E-05  7.52236101E-04  6.59300952E-04
  9.82614847E-06  2.65848181E-06  0.00000000E+00 -7.03505745E-05  1.58119740E-05
  0.00000000E+00  3.40306366E-04  9.02063710E-04  0.00000000E+00  5.45032001E-06
  8.46742885E-05  0.00000000E+00 -2.21502589E-06  0.00000000E+00  0.00000000E+00
  1.19934531E-07 -6.35661777E-06 -3.57972521E-05  0.00000000E+00  0.00000000E+00
 -2.35317574E-05  8.57955870E-05 -2.18189744E-05  0.00000000E+00  0.00000000E+00
 -2.69536615E-04 -1.59491314E-04  0.00000000E+00  9.20782831E-06  6.15584155E-06
  0.00000000E+00  0.00000000E+00  3.19999410E-06 -1.90501334E-05  0.00000000E+00
 -4.13618379E-05 -3.87816553E-05  0.00000000E+00  0.00000000E+00 -7.66974702E-05
  1.85417255E-05  2.10730121E-03  4.48363315E-05  6.78857599E-05 -6.67123175E-05
 -4.73842833E-04  7.03170794E-06  1.64315440E-05  0.00000000E+00 -6.36162140E-05
 -5.75047015E-05  0.00000000E+00  2.30674045E-04 -1.72902863E-04  0.00000000E+00
 -1.91797929E-04 -6.48075607E-05  0.00000000E+00 -8.73589883E-06  0.00000000E+00
  0.00000000E+00  2.16639113E-05  1.86883010E-05  3.29065423E-06  0.00000000E+00
  0.00000000E+00 -1.13348766E-04 -3.94616016E-05 -3.36698569E-06  0.00000000E+00
  0.00000000E+00 -2.17096509E-04 -1.95137676E-04  0.00000000E+00  3.47037183E-06
 -2.58661736E-07  0.00000000E+00  0.00000000E+00  1.89064041E-06 -1.48144480E-05
  0.00000000E+00 -4.65928148E-05  1.65032365E-06  0.00000000E+00  0.00000000E+00
 -7.11674721E-05  1.88465410E-04  2.57297345E-04  1.45572154E-03 -1.02311556E-04
 -1.42299958E-03  4.28739318E-04 -1.30349861E-04  2.41992638E-06  0.00000000E+00
 -2.10654816E-03 -4.15259058E-04  0.00000000E+00  9.79656970E-04  7.61117220E-04
  0.00000000E+00 -1.76103951E-04  5.51591280E-05  0.00000000E+00 -1.24727839E-04
  0.00000000E+00  0.00000000E+00  2.44122711E-04  9.47101419E-05 -4.57898801E-04
  0.00000000E+00  0.00000000E+00  9.28457072E-04 -4.42257369E-05  3.66635719E-06
  0.00000000E+00  0.00000000E+00 -3.21872220E-04 -1.17664713E-04  0.00000000E+00
  7.66208077E-06  1.70796532E-05  0.00000000E+00  0.00000000E+00  8.13700234E-06
  7.46028623E-06  0.00000000E+00  1.67281183E-04 -7.17998010E-05  0.00000000E+00
  0.00000000E+00 -2.53992209E-04  4.27925156E-05  9.76659901E-01 -9.85482602E-03
  4.35524205E-02  4.39457161E-03 -4.83975903E-04  2.14165717E-03  4.83933499E-04
  0.00000000E+00 -2.40768324E-03 -6.10740458E-04  0.00000000E+00  1.11529367E-03
 -8.48173936E-06  0.00000000E+00  6.16294261E-07 -4.39861001E-05  0.00000000E+00
 -2.28441276E-04  0.00000000E+00  0.00000000E+00  9.59806764E-05  2.99610866E-05
  3.94265081E-04  0.00000000E+00  0.00000000E+00 -8.41979170E-04 -4.24381145E-04
 -1.58568828E-04  0.00000000E+00  0.00000000E+00  2.62654295E-04  1.78108445E-05
  0.00000000E+00  5.54579300E-05  1.81562872E-05  0.00000000E+00  0.00000000E+00
 -2.59744088E-05 -1.51003250E-05  0.00000000E+00  1.34783982E-04  8.98763800E-06
  0.00000000E+00  0.00000000E+00 -1.87543934E-04 -1.40513241E-04  4.74789179E-04
  2.05985065E-03  1.14105471E-04  1.52117571E-05 -4.07191317E-05 -2.46867726E-04
  0.00000000E+00  1.14106480E-04 -1.27459519E-03  0.00000000E+00  3.12522687E-04
 -3.37115616E-04  0.00000000E+00 -2.67421015E-06  0.00000000E+00  0.00000000E+00
  7.59051897E-05  1.58106995E-05 -1.60086097E-04  0.00000000E+00  0.00000000E+00
 -5.37326788E-04 -2.59743221E-05  9.76830692E-01 -9.16313700E-03  4.34495421E-02
  1.62887795E-04 -1.14049304E-03 -1.56589008E-03  1.43952521E-03  0.00000000E+00
  1.57757043E-03 -1.28208167E-03  0.00000000E+00 -5.67279249E-04 -8.65803375E-04
  0.00000000E+00  5.52957786E-05 -3.29179221E-05  0.00000000E+00  2.96174725E-05
  0.00000000E+00  0.00000000E+00 -1.18168155E-04 -3.43013481E-06  7.57658959E-04
  0.00000000E+00  0.00000000E+00 -2.01750228E-04 -2.36132523E-04 -2.66426313E-04
  0.00000000E+00  0.00000000E+00  1.68192555E-04  1.28210572E-04  0.00000000E+00
 -6.41756987E-05  1.16915042E-06  0.00000000E+00  0.00000000E+00  1.88367535E-05
  9.96514282E-06  0.00000000E+00 -1.41152322E-06  1.22739444E-04  0.00000000E+00
  0.00000000E+00  2.56560178E-04  9.30504093E-05 -4.58993606E-03 -2.12133481E-04