title                                                                   
SP        RMP2-FC                                                     Aug-CC-pVTZ         
Number of atoms                            I                5
Info1-9                                    I   N=           9
          33          24           0           0           0         110
           1           2           1
Full Title                                 C   N=           1
title       
Route                                      C   N=           4
#p SP mp2/aug-cc-pvtz density=current           
Charge                                     I                0
Multiplicity                               I                1
Number of electrons                        I               32
Number of alpha electrons                  I               16
Number of beta electrons                   I               16
Number of basis functions                  I              207
Number of independent functions            I              207
Number of point charges in /Mol/           I                0
Number of translation vectors              I                0
Atomic numbers                             I   N=           5
           1           8           8           7           8
Nuclear charges                            R   N=           5
  1.00000000E+00  8.00000000E+00  8.00000000E+00  7.00000000E+00  8.00000000E+00
Current cartesian coordinates              R   N=          15
  2.90176696E+00  3.19949791E+00  1.51817023E-30  2.72939996E+00  1.37653025E+00
  3.89285568E-31  1.57102942E-16  1.27198635E+00  8.39790273E-31 -4.83623472E-01
 -1.44196210E+00 -9.80616660E-31 -2.66895029E+00 -1.78673700E+00 -9.47587521E-31
Number of symbols in /Mol/                 I                0
Force Field                                I                0
Atom Types                                 C   N=           5
                                                            
Int Atom Types                             I   N=           5
           0           0           0           0           0
MM charges                                 R   N=           5
  0.00000000E+00  0.00000000E+00  0.00000000E+00  0.00000000E+00  0.00000000E+00
Integer atomic weights                     I   N=           5
           1          16          16          14          16
Real atomic weights                        R   N=           5
  1.00782504E+00  1.59949146E+01  1.59949146E+01  1.40030740E+01  1.59949146E+01
Atom fragment info                         I   N=           5
           0           0           0           0           0
Atom residue num                           I   N=           5
           0           0           0           0           0
Nuclear spins                              I   N=           5
           1           0           0           2           0
Nuclear ZEff                               R   N=           5
 -1.00000000E+00 -5.60000000E+00 -5.60000000E+00 -4.55000000E+00 -5.60000000E+00
Nuclear ZNuc                               R   N=           5
  1.00000000E+00  8.00000000E+00  8.00000000E+00  7.00000000E+00  8.00000000E+00
Nuclear QMom                               R   N=           5
  0.00000000E+00  0.00000000E+00  0.00000000E+00  2.04400000E+00  0.00000000E+00
Nuclear GFac                               R   N=           5
  2.79284600E+00  0.00000000E+00  0.00000000E+00  4.03761000E-01  0.00000000E+00
MicOpt                                     I   N=           5
          -1          -1          -1          -1          -1
Number of residues                         I                0
Number of secondary structures             I                0
SymInf integers                            I   N=          26
           1           2           1           1           1           1
           1          -1           0           0           0           0
           0           0           0           0           0           0
           0           0           0           0           0           0
           0           0
RotTr to input orientation                 R   N=          12
 -9.95559620E-01  6.77075157E-16 -9.41331167E-02  9.41331167E-02 -9.21550974E-16
 -9.95559620E-01 -7.60817151E-16 -1.00000000E+00  8.53723743E-16  2.58770330E+00
  0.00000000E+00  3.45844329E+00
Number of contracted shells                I               65
Number of primitive shells                 I              119
Pure/Cartesian d shells                    I                0
Pure/Cartesian f shells                    I                0
Highest angular momentum                   I                3
Largest degree of contraction              I                7
Shell types                                I   N=          65
           0           0           0           0           1           1
           1          -2          -2           0           0           0
           0           0           1           1           1           1
          -2          -2          -2          -3          -3           0
           0           0           0           0           1           1
           1           1          -2          -2          -2          -3
          -3           0           0           0           0           0
           1           1           1           1          -2          -2
          -2          -3          -3           0           0           0
           0           0           1           1           1           1
          -2          -2          -2          -3          -3
Number of primitives per shell             I   N=          65
           3           1           1           1           1           1
           1           1           1           7           6           1
           1           1           3           1           1           1
           1           1           1           1           1           7
           6           1           1           1           3           1
           1           1           1           1           1           1
           1           7           6           1           1           1
           3           1           1           1           1           1
           1           1           1           7           6           1
           1           1           3           1           1           1
           1           1           1           1           1
Shell to atom map                          I   N=          65
           1           1           1           1           1           1
           1           1           1           2           2           2
           2           2           2           2           2           2
           2           2           2           2           2           3
           3           3           3           3           3           3
           3           3           3           3           3           3
           3           4           4           4           4           4
           4           4           4           4           4           4
           4           4           4           5           5           5
           5           5           5           5           5           5
           5           5           5           5           5
Primitive exponents                        R   N=         119
  3.38700000E+01  5.09500000E+00  1.15900000E+00  3.25800000E-01  1.02700000E-01
  2.52600000E-02  1.40700000E+00  3.88000000E-01  1.02000000E-01  1.05700000E+00
  2.47000000E-01  1.53300000E+04  2.29900000E+03  5.22400000E+02  1.47300000E+02
  4.75500000E+01  1.67600000E+01  6.20700000E+00  5.22400000E+02  1.47300000E+02
  4.75500000E+01  1.67600000E+01  6.20700000E+00  6.88200000E-01  1.75200000E+00
  2.38400000E-01  7.37600000E-02  3.44600000E+01  7.74900000E+00  2.28000000E+00
  7.15600000E-01  2.14000000E-01  5.97400000E-02  2.31400000E+00  6.45000000E-01
  2.14000000E-01  1.42800000E+00  5.00000000E-01  1.53300000E+04  2.29900000E+03
  5.22400000E+02  1.47300000E+02  4.75500000E+01  1.67600000E+01  6.20700000E+00
  5.22400000E+02  1.47300000E+02  4.75500000E+01  1.67600000E+01  6.20700000E+00
  6.88200000E-01  1.75200000E+00  2.38400000E-01  7.37600000E-02  3.44600000E+01
  7.74900000E+00  2.28000000E+00  7.15600000E-01  2.14000000E-01  5.97400000E-02
  2.31400000E+00  6.45000000E-01  2.14000000E-01  1.42800000E+00  5.00000000E-01
  1.14200000E+04  1.71200000E+03  3.89300000E+02  1.10000000E+02  3.55700000E+01
  1.25400000E+01  4.64400000E+00  3.89300000E+02  1.10000000E+02  3.55700000E+01
  1.25400000E+01  4.64400000E+00  5.11800000E-01  1.29300000E+00  1.78700000E-01
  5.76000000E-02  2.66300000E+01  5.94800000E+00  1.74200000E+00  5.55000000E-01
  1.72500000E-01  4.91000000E-02  1.65400000E+00  4.69000000E-01  1.51000000E-01
  1.09300000E+00  3.64000000E-01  1.53300000E+04  2.29900000E+03  5.22400000E+02
  1.47300000E+02  4.75500000E+01  1.67600000E+01  6.20700000E+00  5.22400000E+02
  1.47300000E+02  4.75500000E+01  1.67600000E+01  6.20700000E+00  6.88200000E-01
  1.75200000E+00  2.38400000E-01  7.37600000E-02  3.44600000E+01  7.74900000E+00
  2.28000000E+00  7.15600000E-01  2.14000000E-01  5.97400000E-02  2.31400000E+00
  6.45000000E-01  2.14000000E-01  1.42800000E+00  5.00000000E-01
Contraction coefficients                   R   N=         119
  2.54948632E-02  1.90362766E-01  8.52162022E-01  1.00000000E+00  1.00000000E+00
  1.00000000E+00  1.00000000E+00  1.00000000E+00  1.00000000E+00  1.00000000E+00
  1.00000000E+00  5.19808943E-04  4.02025621E-03  2.07128267E-02  8.10105536E-02
  2.35962985E-01  4.42653446E-01  3.57064423E-01 -4.42115008E-05 -1.22591041E-03
 -1.05517725E-02 -6.74452633E-02 -1.71198607E-01  1.07329856E+00  1.00000000E+00
  1.00000000E+00  1.00000000E+00  4.11634896E-02  2.57762836E-01  8.02419274E-01
  1.00000000E+00  1.00000000E+00  1.00000000E+00  1.00000000E+00  1.00000000E+00
  1.00000000E+00  1.00000000E+00  1.00000000E+00  5.19808943E-04  4.02025621E-03
  2.07128267E-02  8.10105536E-02  2.35962985E-01  4.42653446E-01  3.57064423E-01
 -4.42115008E-05 -1.22591041E-03 -1.05517725E-02 -6.74452633E-02 -1.71198607E-01
  1.07329856E+00  1.00000000E+00  1.00000000E+00  1.00000000E+00  4.11634896E-02
  2.57762836E-01  8.02419274E-01  1.00000000E+00  1.00000000E+00  1.00000000E+00
  1.00000000E+00  1.00000000E+00  1.00000000E+00  1.00000000E+00  1.00000000E+00
  5.34563860E-04  4.13435660E-03  2.12335358E-02  8.25006224E-02  2.38138871E-01
  4.42551547E-01  3.53757422E-01 -4.89867350E-05 -1.19527323E-03 -1.03490714E-02
 -6.48680190E-02 -1.71552477E-01  1.07289568E+00  1.00000000E+00  1.00000000E+00
  1.00000000E+00  3.98072123E-02  2.49002660E-01  8.10479727E-01  1.00000000E+00
  1.00000000E+00  1.00000000E+00  1.00000000E+00  1.00000000E+00  1.00000000E+00
  1.00000000E+00  1.00000000E+00  5.19808943E-04  4.02025621E-03  2.07128267E-02
  8.10105536E-02  2.35962985E-01  4.42653446E-01  3.57064423E-01 -4.42115008E-05
 -1.22591041E-03 -1.05517725E-02 -6.74452633E-02 -1.71198607E-01  1.07329856E+00
  1.00000000E+00  1.00000000E+00  1.00000000E+00  4.11634896E-02  2.57762836E-01
  8.02419274E-01  1.00000000E+00  1.00000000E+00  1.00000000E+00  1.00000000E+00
  1.00000000E+00  1.00000000E+00  1.00000000E+00  1.00000000E+00
Coordinates of each shell                  R   N=         195
  2.90176696E+00  3.19949791E+00  5.66435781E-31  2.90176696E+00  3.19949791E+00
  5.66435781E-31  2.90176696E+00  3.19949791E+00  5.66435781E-31  2.90176696E+00
  3.19949791E+00  5.66435781E-31  2.90176696E+00  3.19949791E+00  5.66435781E-31
  2.90176696E+00  3.19949791E+00  5.66435781E-31  2.90176696E+00  3.19949791E+00
  5.66435781E-31  2.90176696E+00  3.19949791E+00  5.66435781E-31  2.90176696E+00
  3.19949791E+00  5.66435781E-31  2.72939996E+00  1.37653025E+00  1.32031866E-31
  2.72939996E+00  1.37653025E+00  1.32031866E-31  2.72939996E+00  1.37653025E+00
  1.32031866E-31  2.72939996E+00  1.37653025E+00  1.32031866E-31  2.72939996E+00
  1.37653025E+00  1.32031866E-31  2.72939996E+00  1.37653025E+00  1.32031866E-31
  2.72939996E+00  1.37653025E+00  1.32031866E-31  2.72939996E+00  1.37653025E+00
  1.32031866E-31  2.72939996E+00  1.37653025E+00  1.32031866E-31  2.72939996E+00
  1.37653025E+00  1.32031866E-31  2.72939996E+00  1.37653025E+00  1.32031866E-31
  2.72939996E+00  1.37653025E+00  1.32031866E-31  2.72939996E+00  1.37653025E+00
  1.32031866E-31  2.72939996E+00  1.37653025E+00  1.32031866E-31 -3.60887493E-18
  1.27198635E+00  3.12176480E-31 -3.60887493E-18  1.27198635E+00  3.12176480E-31
 -3.60887493E-18  1.27198635E+00  3.12176480E-31 -3.60887493E-18  1.27198635E+00
  3.12176480E-31 -3.60887493E-18  1.27198635E+00  3.12176480E-31 -3.60887493E-18
  1.27198635E+00  3.12176480E-31 -3.60887493E-18  1.27198635E+00  3.12176480E-31
 -3.60887493E-18  1.27198635E+00  3.12176480E-31 -3.60887493E-18  1.27198635E+00
  3.12176480E-31 -3.60887493E-18  1.27198635E+00  3.12176480E-31 -3.60887493E-18
  1.27198635E+00  3.12176480E-31 -3.60887493E-18  1.27198635E+00  3.12176480E-31
 -3.60887493E-18  1.27198635E+00  3.12176480E-31 -3.60887493E-18  1.27198635E+00
  3.12176480E-31 -4.83623472E-01 -1.44196210E+00 -3.17426494E-31 -4.83623472E-01
 -1.44196210E+00 -3.17426494E-31 -4.83623472E-01 -1.44196210E+00 -3.17426494E-31
 -4.83623472E-01 -1.44196210E+00 -3.17426494E-31 -4.83623472E-01 -1.44196210E+00
 -3.17426494E-31 -4.83623472E-01 -1.44196210E+00 -3.17426494E-31 -4.83623472E-01
 -1.44196210E+00 -3.17426494E-31 -4.83623472E-01 -1.44196210E+00 -3.17426494E-31
 -4.83623472E-01 -1.44196210E+00 -3.17426494E-31 -4.83623472E-01 -1.44196210E+00
 -3.17426494E-31 -4.83623472E-01 -1.44196210E+00 -3.17426494E-31 -4.83623472E-01
 -1.44196210E+00 -3.17426494E-31 -4.83623472E-01 -1.44196210E+00 -3.17426494E-31
 -4.83623472E-01 -1.44196210E+00 -3.17426494E-31 -2.66895029E+00 -1.78673700E+00
 -2.37264636E-31 -2.66895029E+00 -1.78673700E+00 -2.37264636E-31 -2.66895029E+00
 -1.78673700E+00 -2.37264636E-31 -2.66895029E+00 -1.78673700E+00 -2.37264636E-31
 -2.66895029E+00 -1.78673700E+00 -2.37264636E-31 -2.66895029E+00 -1.78673700E+00
 -2.37264636E-31 -2.66895029E+00 -1.78673700E+00 -2.37264636E-31 -2.66895029E+00
 -1.78673700E+00 -2.37264636E-31 -2.66895029E+00 -1.78673700E+00 -2.37264636E-31
 -2.66895029E+00 -1.78673700E+00 -2.37264636E-31 -2.66895029E+00 -1.78673700E+00
 -2.37264636E-31 -2.66895029E+00 -1.78673700E+00 -2.37264636E-31 -2.66895029E+00
 -1.78673700E+00 -2.37264636E-31 -2.66895029E+00 -1.78673700E+00 -2.37264636E-31
Num ILSW                                   I              100
ILSW                                       I   N=         100
           0           0           0           0           2           0
           0           0           0           0           0          -1
           5           0           0           0           0           0
           0           0           0           0           0           0
           1           0           0           0           0           0
           0           0      100000           0          -1           0
           0           0           0           0           0           0
           0           0           0           1           0           0
           0 -2000000000           1           0           0           0
           0           0           4          52           0           0
           0           0           0           0           0           0
           0           0           0           5           0           1
           0           0           0           0           0           0
           0           0           0           0           0           0
           0           0           0           0           0           0
           0           0           0           0           0           0
           0           0           0           0
Num RLSW                                   I               52
RLSW                                       R   N=          52
  1.00000000E+00  1.00000000E+00  1.00000000E+00  1.00000000E+00  1.00000000E+00
  0.00000000E+00  0.00000000E+00  1.00000000E+00  0.00000000E+00  0.00000000E+00
  0.00000000E+00  0.00000000E+00  1.00000000E+00  0.00000000E+00  0.00000000E+00
  0.00000000E+00  0.00000000E+00  1.00000000E+00  0.00000000E+00  0.00000000E+00
  0.00000000E+00  0.00000000E+00  1.00000000E+00  0.00000000E+00  0.00000000E+00
  0.00000000E+00  0.00000000E+00  1.00000000E+00  0.00000000E+00  0.00000000E+00
  0.00000000E+00  0.00000000E+00  1.00000000E+00  0.00000000E+00  0.00000000E+00
  0.00000000E+00  0.00000000E+00  0.00000000E+00  1.00000000E+00  1.00000000E+00
  0.00000000E+00  1.00000000E+00  0.00000000E+00  0.00000000E+00  0.00000000E+00
  0.00000000E+00  0.00000000E+00  0.00000000E+00  0.00000000E+00  0.00000000E+00
  0.00000000E+00  0.00000000E+00
MxBond                                     I                2
NBond                                      I   N=           5
           1           2           2           2           1
IBond                                      I   N=          10
           2           0           1           3           2           4
           3           5           4           0
RBond                                      R   N=          10
  1.00000000E+00  0.00000000E+00  1.00000000E+00  1.00000000E+00  1.00000000E+00
  1.00000000E+00  1.00000000E+00  2.00000000E+00  2.00000000E+00  0.00000000E+00
Virial Ratio                               R      2.002296523902925E+00
SCF Energy                                 R     -2.795024211582175E+02
MP2 Energy                                 R     -2.804466927781370E+02
Total Energy                               R     -2.804466927781370E+02
Post-SCF wavefunction norm                 R      1.119838923542221E+00
RMS Density                                R      3.701988516144129E-09
Job Status                                 I                1
Nuclear derivative order                   I                0
External E-field                           R   N=          35
  0.00000000E+00  0.00000000E+00  0.00000000E+00  0.00000000E+00  0.00000000E+00
  0.00000000E+00  0.00000000E+00  0.00000000E+00  0.00000000E+00  0.00000000E+00
  0.00000000E+00  0.00000000E+00  0.00000000E+00  0.00000000E+00  0.00000000E+00
  0.00000000E+00  0.00000000E+00  0.00000000E+00  0.00000000E+00  0.00000000E+00
  0.00000000E+00  0.00000000E+00  0.00000000E+00  0.00000000E+00  0.00000000E+00
  0.00000000E+00  0.00000000E+00  0.00000000E+00  0.00000000E+00  0.00000000E+00
  0.00000000E+00  0.00000000E+00  0.00000000E+00  0.00000000E+00  0.00000000E+00
IOpCl                                      I                0
IROHF                                      I                0
Alpha Orbital Energies                     R   N=         207
 -2.06903412E+01 -2.06841266E+01 -2.06591601E+01 -1.58126387E+01 -1.62433786E+00
 -1.49957287E+00 -1.25270395E+00 -9.48201275E-01 -7.73812891E-01 -7.59959811E-01
 -7.12685400E-01 -6.79406485E-01 -6.21367026E-01 -5.90702125E-01 -4.83495048E-01
 -4.72275283E-01  2.96430169E-02  7.16864615E-02  8.61700935E-02  1.01756203E-01
  1.33947985E-01  1.34379297E-01  1.44129057E-01  1.54573701E-01  1.78234392E-01
  1.94085949E-01  1.99768827E-01  2.06448298E-01  2.21771694E-01  2.37457647E-01
  2.39721421E-01  2.66129614E-01  2.93508996E-01  3.03962048E-01  3.10695996E-01
  3.44051890E-01  3.50108178E-01  3.87398218E-01  4.22498432E-01  4.31801448E-01
  5.27493342E-01  5.29445733E-01  5.58660629E-01  5.81912642E-01  6.26135145E-01
  6.38226477E-01  6.74417664E-01  6.84342585E-01  7.07164460E-01  7.10861897E-01
  7.24625034E-01  7.29163765E-01  7.44584252E-01  7.92139258E-01  7.92226897E-01
  8.10312062E-01  8.12881341E-01  8.31274342E-01  8.68332866E-01  9.09253481E-01
  9.22124883E-01  9.27124796E-01  9.56215292E-01  9.78016708E-01  9.85247212E-01
  1.01650741E+00  1.05265729E+00  1.05461047E+00  1.08328165E+00  1.11869358E+00
  1.14262297E+00  1.19015288E+00  1.22076903E+00  1.23336206E+00  1.33909153E+00
  1.35102763E+00  1.38633223E+00  1.45378470E+00  1.48764273E+00  1.50829209E+00
  1.53859344E+00  1.56769114E+00  1.58032852E+00  1.61383852E+00  1.66538053E+00
  1.67064621E+00  1.70344471E+00  1.79429821E+00  1.83198854E+00  1.83491299E+00
  1.87926689E+00  1.91095639E+00  1.95630031E+00  1.99334235E+00  2.00476106E+00
  2.07822517E+00  2.12287425E+00  2.13218186E+00  2.15214321E+00  2.22491289E+00
  2.26537874E+00  2.26659052E+00  2.29014596E+00  2.31540806E+00  2.34683133E+00
  2.38502456E+00  2.42594026E+00  2.43029841E+00  2.45479885E+00  2.46271090E+00
  2.47789387E+00  2.50238211E+00  2.59069003E+00  2.59774746E+00  2.62266021E+00
  2.62701842E+00  2.63741129E+00  2.67120630E+00  2.75815945E+00  2.82542886E+00
  2.85827850E+00  2.88900261E+00  2.89846749E+00  2.92724347E+00  2.96034271E+00
  3.03111955E+00  3.06804740E+00  3.11964003E+00  3.21547444E+00  3.23156630E+00
  3.31980956E+00  3.33812106E+00  3.52072713E+00  3.64508556E+00  3.83853040E+00
  3.84678983E+00  4.15044470E+00  4.16638311E+00  4.18521665E+00  4.25880555E+00
  4.35401861E+00  4.39538332E+00  4.47277277E+00  4.51782253E+00  4.66329036E+00
  4.71566070E+00  4.80592702E+00  4.82386818E+00  4.82961612E+00  4.89659436E+00
  5.02403166E+00  5.07786772E+00  5.10531449E+00  5.14432548E+00  5.17947661E+00
  5.24382302E+00  5.27228196E+00  5.30857389E+00  5.33098529E+00  5.35756374E+00
  5.61173867E+00  5.67380493E+00  5.77219110E+00  5.84469172E+00  5.96152483E+00
  6.17083907E+00  6.29389802E+00  6.33975309E+00  6.39229196E+00  6.49294143E+00
  6.50526961E+00  6.61119651E+00  6.66182733E+00  6.69838297E+00  6.75705975E+00
  6.76785636E+00  6.83289430E+00  6.89922608E+00  7.02130558E+00  7.06291063E+00
  7.06849581E+00  7.09790397E+00  7.12583150E+00  7.15691219E+00  7.18517745E+00
  7.22755789E+00  7.24494300E+00  7.30854635E+00  7.32548098E+00  7.34761885E+00
  7.40174222E+00  7.44346610E+00  7.48552393E+00  7.61488271E+00  7.62142188E+00
  7.63131172E+00  7.66912207E+00  7.79914510E+00  7.88931745E+00  8.10844101E+00
  8.32688739E+00  8.41883709E+00  8.54515077E+00  1.34199701E+01  1.44058357E+01
  1.51743673E+01  1.61537133E+01
Alpha MO coefficients                      R   N=       42849
  8.91056288E-05 -6.31001559E-04 -7.08700221E-04 -2.32581266E-06 -1.86299558E-05
 -2.62765079E-05  0.00000000E+00 -4.04239097E-05  4.73407642E-05  0.00000000E+00
  8.50969651E-05  2.80442251E-05  0.00000000E+00  2.97758008E-05  0.00000000E+00
  0.00000000E+00 -5.12029554E-05  1.96884890E-05 -7.93442669E-06  0.00000000E+00
  0.00000000E+00 -1.42568445E-04  1.17468515E-04  4.66617633E-03 -2.69285534E-04
  7.85367666E-06  1.63323408E-03  1.87473685E-03  1.10414970E-04  8.14591490E-06
  0.00000000E+00 -6.63189436E-04 -4.25642249E-05  0.00000000E+00 -1.17180485E-03
  7.82636827E-04  0.00000000E+00 -4.15956910E-04  5.86811506E-05  0.00000000E+00
  2.63472478E-05  0.00000000E+00  0.00000000E+00 -4.93785284E-05  5.60435784E-06
 -3.89415087E-04  0.00000000E+00  0.00000000E+00  7.61541916E-04 -2.65204690E-05
 -4.54891476E-04  0.00000000E+00  0.00000000E+00  2.50433910E-04 -1.22699770E-05
  0.00000000E+00  8.26537082E-05  1.30333836E-05  0.00000000E+00  0.00000000E+00
 -1.13099597E-04 -4.75074440E-06  0.00000000E+00  2.55144697E-04 -2.61558947E-05
  0.00000000E+00  0.00000000E+00 -3.50465950E-04  4.10899650E-05  9.76903234E-01
 -9.21864924E-03  4.33352078E-02  1.93727833E-03 -9.73727243E-04  1.52181482E-03
 -1.34645786E-03  0.00000000E+00 -1.47661795E-03  1.37298902E-03  0.00000000E+00
  3.00217865E-05 -1.16443769E-03  0.00000000E+00 -1.47869564E-04 -1.37728127E-05
  0.00000000E+00  4.39822147E-05  0.00000000E+00  0.00000000E+00 -3.12757876E-05
  2.14881730E-05  7.58847778E-04  0.00000000E+00  0.00000000E+00 -2.50712858E-04
 -3.94718354E-04 -3.51482048E-04  0.00000000E+00  0.00000000E+00 -3.24834710E-04
 -3.80685059E-04  0.00000000E+00  4.92845190E-05 -4.82357760E-05  0.00000000E+00
  0.00000000E+00 -4.06422584E-05 -1.66885553E-05  0.00000000E+00  2.89847329E-05
  2.12919022E-05  0.00000000E+00  0.00000000E+00 -3.12869596E-04 -1.41671166E-04
  3.90164631E-05  4.59958673E-05 -2.63409947E-04 -7.12661618E-04 -1.57734203E-04
 -2.62330647E-05 -9.74584237E-05  0.00000000E+00  2.65850574E-04  7.11373036E-04
  0.00000000E+00 -8.32782402E-04 -4.74001421E-04  0.00000000E+00 -1.24623256E-04
 -2.88549072E-05  0.00000000E+00 -1.79813853E-05  0.00000000E+00  0.00000000E+00
 -2.97816875E-05  1.53674073E-05 -3.27770269E-04  0.00000000E+00  0.00000000E+00
 -8.29127227E-04  1.13130416E-04 -3.40451021E-05  0.00000000E+00  0.00000000E+00
  9.40731047E-05 -1.23309267E-04  0.00000000E+00 -2.00449228E-05 -1.19901275E-04
  0.00000000E+00  0.00000000E+00 -6.01814757E-05 -1.37922245E-04  0.00000000E+00
  3.77965007E-06 -1.53075428E-04  0.00000000E+00  0.00000000E+00  5.16907543E-05
 -4.14760624E-04 -2.73813257E-03  1.24480985E-04 -1.30320862E-04 -2.35048656E-04
  1.45335155E-04 -8.24488240E-06 -2.74796830E-05  0.00000000E+00  7.02843686E-05
  1.61853982E-04  0.00000000E+00  2.35640902E-04  1.93977711E-04  0.00000000E+00
  1.29419517E-04  2.37717480E-05  0.00000000E+00 -3.37951672E-06  0.00000000E+00
  0.00000000E+00 -1.79505922E-05  1.27356577E-06  9.60142584E-07  0.00000000E+00
  0.00000000E+00  8.10563093E-05  8.60415314E-05 -9.98410392E-05  0.00000000E+00
  0.00000000E+00  1.65918383E-04  1.60427412E-04  0.00000000E+00  1.58878907E-05
 -3.30483890E-06  0.00000000E+00  0.00000000E+00 -3.88084379E-06 -1.22287411E-05
  0.00000000E+00 -3.36393230E-05  4.51082493E-05  0.00000000E+00  0.00000000E+00
  8.30630033E-05  9.04790742E-05  3.97670162E-05 -9.98491339E-04 -4.89663782E-04
 -1.13355507E-05 -2.22668018E-05  1.56044511E-05  0.00000000E+00 -8.93885099E-07
  2.75907450E-04  0.00000000E+00 -4.25906410E-05  1.34017045E-04  0.00000000E+00
  2.62311500E-05  0.00000000E+00  0.00000000E+00  1.17777377E-05  1.11227196E-05
 -2.84192372E-05  0.00000000E+00  0.00000000E+00  1.12624823E-05  3.57704469E-05
  1.12333819E-04  8.64659689E-05 -2.82649333E-05  7.52632376E-04  6.51049555E-04
  1.02137298E-05  2.73413608E-06  0.00000000E+00 -7.44321621E-05  1.30396838E-05
  0.00000000E+00  3.37649220E-04  9.23118021E-04  0.00000000E+00  4.90934296E-06
  8.36098011E-05  0.00000000E+00 -2.46602388E-06  0.00000000E+00  0.00000000E+00
  2.88144197E-08 -5.66808192E-06 -3.54176114E-05  0.00000000E+00  0.00000000E+00
 -1.96132497E-05  8.29512309E-05 -2.27066746E-05  0.00000000E+00  0.00000000E+00
 -2.68256110E-04 -1.72349508E-04  0.00000000E+00  9.07747776E-06  6.26679291E-06
  0.00000000E+00  0.00000000E+00  3.05294626E-06 -1.87047670E-05  0.00000000E+00
 -4.03440152E-05 -3.94130996E-05  0.00000000E+00  0.00000000E+00 -7.92413537E-05
  2.02225955E-05  2.77696558E-03  3.66099638E-05  9.88466829E-05 -6.55538388E-05
 -4.70326158E-04  7.94084137E-06  1.55969690E-05  0.00000000E+00 -6.44667130E-05
 -5.57703243E-05  0.00000000E+00  2.38877982E-04 -1.97767871E-04  0.00000000E+00
 -1.86992526E-04 -6.57159114E-05  0.00000000E+00 -8.66450004E-06  0.00000000E+00
  0.00000000E+00  2.24073416E-05  1.99722468E-05  4.76019087E-06  0.00000000E+00
  0.00000000E+00 -1.18619682E-04 -4.78853626E-05 -4.56097934E-06  0.00000000E+00
  0.00000000E+00 -2.21755800E-04 -2.15028184E-04  0.00000000E+00  3.58764204E-06
 -4.98119430E-07  0.00000000E+00  0.00000000E+00  1.92475318E-06 -1.35916185E-05
  0.00000000E+00 -4.72754679E-05  3.18949573E-06  0.00000000E+00  0.00000000E+00
 -8.02495735E-05  1.87377280E-04  2.58612956E-04  1.46489853E-03 -7.77742601E-05
 -1.53800750E-03  4.01530364E-04 -1.44262893E-04 -3.86951472E-07  0.00000000E+00
 -2.09092889E-03 -4.13336710E-04  0.00000000E+00  1.04122897E-03  7.73327050E-04
  0.00000000E+00 -1.69679940E-04  5.63681868E-05  0.00000000E+00 -1.23302174E-04
  0.00000000E+00  0.00000000E+00  2.42415335E-04  9.60302404E-05 -4.42651677E-04
  0.00000000E+00  0.00000000E+00  8.99686798E-04 -6.01617926E-05  1.09614245E-05
  0.00000000E+00  0.00000000E+00 -3.38577139E-04 -1.25746739E-04  0.00000000E+00
 -1.11800815E-06  1.53833890E-05  0.00000000E+00  0.00000000E+00  1.87280947E-05
  1.32714708E-05  0.00000000E+00  1.63836165E-04 -7.20837386E-05  0.00000000E+00
  0.00000000E+00 -2.40776407E-04  4.11771276E-05  9.76648701E-01 -9.84792649E-03
  4.35686314E-02  4.50453022E-03 -4.45739384E-04  2.14638693E-03  4.88842951E-04
  0.00000000E+00 -2.38192431E-03 -6.13808305E-04  0.00000000E+00  1.13855808E-03
 -6.26264788E-07  0.00000000E+00  4.36981341E-06 -4.25171555E-05  0.00000000E+00
 -2.32407008E-04  0.00000000E+00  0.00000000E+00  1.02416271E-04  3.28018555E-05
  3.90738324E-04  0.00000000E+00  0.00000000E+00 -8.31293605E-04 -4.26377267E-04
 -1.53027225E-04  0.00000000E+00  0.00000000E+00  2.54798624E-04  1.78955126E-05
  0.00000000E+00  5.22380225E-05  1.79265455E-05  0.00000000E+00  0.00000000E+00
 -2.19436320E-05 -1.35040358E-05  0.00000000E+00  1.38458880E-04  9.80684921E-06
  0.00000000E+00  0.00000000E+00 -1.88503238E-04 -1.43259071E-04  4.72975977E-04
  2.03893951E-03  9.76867927E-05  1.40697304E-05 -3.95338592E-05 -2.43758469E-04
  0.00000000E+00  1.19546671E-04 -1.26502808E-03  0.00000000E+00  3.19822181E-04
 -3.32218804E-04  0.00000000E+00 -2.34407172E-06  0.00000000E+00  0.00000000E+00
  7.85753066E-05  1.54450573E-05 -1.59223632E-04  0.00000000E+00  0.00000000E+00
 -5.36518962E-04 -3.10957024E-05  9.76822732E-01 -9.16264881E-03  4.34665852E-02
  8.28659838E-05 -1.19004064E-03 -1.58929711E-03  1.43159762E-03  0.00000000E+00
  1.61351307E-03 -1.26781974E-03  0.00000000E+00 -4.98173184E-04 -8.59754757E-04
  0.00000000E+00  6.40490799E-05 -3.57312521E-05  0.00000000E+00  2.69968576E-05
  0.00000000E+00  0.00000000E+00 -1.13824646E-04 -4.10303724E-06  7.67511394E-04
  0.00000000E+00  0.00000000E+00 -2.24016939E-04 -2.36975093E-04 -2.57723509E-04
  0.00000000E+00  0.00000000E+00  1.44865556E-04  1.29175965E-04  0.00000000E+00
 -6.57154190E-05  1.12254825E-07  0.00000000E+00  0.00000000E+00  2.05202833E-05
  9.20580247E-06  0.00000000E+00 -8.38340995E-06  1.23387676E-04  0.00000000E+00
  0.00000000E+00  2.64592145E-04  9.30331599E-05 -4.75468809E-03 -1.97021731E-04