 Entering Gaussian System, Link 0=g16
 Input=hoono_d1_186p2054.gjf
 Output=hoono_d1_186p2054.log
 Initial command:
 /sw/contrib/gaussian/g16/B01/g16/l1.exe "/scr/Gau-2963.inp" -scrdir="/scr/"
 Entering Link 1 = /sw/contrib/gaussian/g16/B01/g16/l1.exe PID=      2964.
  
 Copyright (c) 1988-2017, Gaussian, Inc.  All Rights Reserved.
  
 This is part of the Gaussian(R) 16 program.  It is based on
 the Gaussian(R) 09 system (copyright 2009, Gaussian, Inc.),
 the Gaussian(R) 03 system (copyright 2003, Gaussian, Inc.),
 the Gaussian(R) 98 system (copyright 1998, Gaussian, Inc.),
 the Gaussian(R) 94 system (copyright 1995, Gaussian, Inc.),
 the Gaussian 92(TM) system (copyright 1992, Gaussian, Inc.),
 the Gaussian 90(TM) system (copyright 1990, Gaussian, Inc.),
 the Gaussian 88(TM) system (copyright 1988, Gaussian, Inc.),
 the Gaussian 86(TM) system (copyright 1986, Carnegie Mellon
 University), and the Gaussian 82(TM) system (copyright 1983,
 Carnegie Mellon University). Gaussian is a federally registered
 trademark of Gaussian, Inc.
  
 This software contains proprietary and confidential information,
 including trade secrets, belonging to Gaussian, Inc.
  
 This software is provided under written license and may be
 used, copied, transmitted, or stored only in accord with that
 written license.
  
 The following legend is applicable only to US Government
 contracts under FAR:
  
                    RESTRICTED RIGHTS LEGEND
  
 Use, reproduction and disclosure by the US Government is
 subject to restrictions as set forth in subparagraphs (a)
 and (c) of the Commercial Computer Software - Restricted
 Rights clause in FAR 52.227-19.
  
 Gaussian, Inc.
 340 Quinnipiac St., Bldg. 40, Wallingford CT 06492
  
  
 ---------------------------------------------------------------
 Warning -- This program may not be used in any manner that
 competes with the business of Gaussian, Inc. or will provide
 assistance to any competitor of Gaussian, Inc.  The licensee
 of this program is prohibited from giving any competitor of
 Gaussian, Inc. access to this program.  By using this program,
 the user acknowledges that Gaussian, Inc. is engaged in the
 business of creating and licensing software in the field of
 computational chemistry and represents and warrants to the
 licensee that it is not a competitor of Gaussian, Inc. and that
 it will not use this program in any manner prohibited above.
 ---------------------------------------------------------------
  

 Cite this work as:
 Gaussian 16, Revision B.01,
 M. J. Frisch, G. W. Trucks, H. B. Schlegel, G. E. Scuseria, 
 M. A. Robb, J. R. Cheeseman, G. Scalmani, V. Barone, 
 G. A. Petersson, H. Nakatsuji, X. Li, M. Caricato, A. V. Marenich, 
 J. Bloino, B. G. Janesko, R. Gomperts, B. Mennucci, H. P. Hratchian, 
 J. V. Ortiz, A. F. Izmaylov, J. L. Sonnenberg, D. Williams-Young, 
 F. Ding, F. Lipparini, F. Egidi, J. Goings, B. Peng, A. Petrone, 
 T. Henderson, D. Ranasinghe, V. G. Zakrzewski, J. Gao, N. Rega, 
 G. Zheng, W. Liang, M. Hada, M. Ehara, K. Toyota, R. Fukuda, 
 J. Hasegawa, M. Ishida, T. Nakajima, Y. Honda, O. Kitao, H. Nakai, 
 T. Vreven, K. Throssell, J. A. Montgomery, Jr., J. E. Peralta, 
 F. Ogliaro, M. J. Bearpark, J. J. Heyd, E. N. Brothers, K. N. Kudin, 
 V. N. Staroverov, T. A. Keith, R. Kobayashi, J. Normand, 
 K. Raghavachari, A. P. Rendell, J. C. Burant, S. S. Iyengar, 
 J. Tomasi, M. Cossi, J. M. Millam, M. Klene, C. Adamo, R. Cammi, 
 J. W. Ochterski, R. L. Martin, K. Morokuma, O. Farkas, 
 J. B. Foresman, and D. J. Fox, Gaussian, Inc., Wallingford CT, 2016.
 
 ******************************************
 Gaussian 16:  ES64L-G16RevB.01 20-Dec-2017
                14-Feb-2022 
 ******************************************
 %nproc=28
 Will use up to   28 processors via shared memory.
 %mem=120GB
 %chk=hoono_d1_186p2054.chk
 -------------------------------------
 #p SP mp2/aug-cc-pvtz density=current
 -------------------------------------
 1/30=1,38=1,172=1/1;
 2/12=2,17=6,18=5,40=1/2;
 3/5=16,6=1,7=10,11=9,25=1,30=1,71=1/1,2,3;
 4//1;
 5/5=2,38=5/2;
 8/6=4,10=1/1;
 9/15=1,16=-3/6;
 10/5=1,13=10/2;
 6/7=2,8=2,9=2,10=2,22=-1/1;
 99/5=1,9=1/99;
 Leave Link    1 at Mon Feb 14 12:41:38 2022, MaxMem= 16106127360 cpu:               3.1 elap:               0.1
 (Enter /sw/contrib/gaussian/g16/B01/g16/l101.exe)
 -----
 title
 -----
 Symbolic Z-matrix:
 Charge =  0 Multiplicity = 1
 H
 O                    1    r1
 O                    2    r2       1    a1
 N                    3    r3       2    a2       1    d1       0
 O                    4    r4       3    a3       2    d2       0
       Variables:
  r1                    0.96898                  
  r2                    1.45492                  
  r3                    1.45878                  
  r4                    1.17073                  
  a1                   97.59495                  
  a2                  102.29752                  
  a3                  109.06955                  
  d1                  186.20541                  
  d2                  180.                       
 
 ITRead=  0  0  0  0  0
 MicOpt= -1 -1 -1 -1 -1
 NAtoms=      5 NQM=        5 NQMF=       0 NMMI=      0 NMMIF=      0
                NMic=       0 NMicF=      0.
                    Isotopes and Nuclear Properties:
 (Nuclear quadrupole moments (NQMom) in fm**2, nuclear magnetic moments (NMagM)
  in nuclear magnetons)

  Atom         1           2           3           4           5
 IAtWgt=           1          16          16          14          16
 AtmWgt=   1.0078250  15.9949146  15.9949146  14.0030740  15.9949146
 NucSpn=           1           0           0           2           0
 AtZEff=  -0.0000000  -0.0000000  -0.0000000  -0.0000000  -0.0000000
 NQMom=    0.0000000   0.0000000   0.0000000   2.0440000   0.0000000
 NMagM=    2.7928460   0.0000000   0.0000000   0.4037610   0.0000000
 AtZNuc=   1.0000000   8.0000000   8.0000000   7.0000000   8.0000000
 Leave Link  101 at Mon Feb 14 12:41:39 2022, MaxMem= 16106127360 cpu:               3.8 elap:               0.2
 (Enter /sw/contrib/gaussian/g16/B01/g16/l202.exe)
                          Input orientation:                          
 ---------------------------------------------------------------------
 Center     Atomic      Atomic             Coordinates (Angstroms)
 Number     Number       Type             X           Y           Z
 ---------------------------------------------------------------------
      1          1           0        0.000000    0.000000    0.000000
      2          8           0        0.000000    0.000000    0.968976
      3          8           0        1.442156    0.000000    1.161271
      4          7           0        1.562855   -0.154067    2.606866
      5          8           0        2.697078   -0.168989    2.896559
 ---------------------------------------------------------------------
                    Distance matrix (angstroms):
                    1          2          3          4          5
     1  H    0.000000
     2  O    0.968976   0.000000
     3  O    1.851584   1.454919   0.000000
     4  N    3.043354   2.269127   1.458784   0.000000
     5  O    3.961419   3.319392   2.148165   1.170729   0.000000
 Stoichiometry    HNO3
 Framework group  C1[X(HNO3)]
 Deg. of freedom     9
 Full point group                 C1      NOp   1
 Largest Abelian subgroup         C1      NOp   1
 Largest concise Abelian subgroup C1      NOp   1
                         Standard orientation:                         
 ---------------------------------------------------------------------
 Center     Atomic      Atomic             Coordinates (Angstroms)
 Number     Number       Type             X           Y           Z
 ---------------------------------------------------------------------
      1          1           0        2.246110    0.431601    0.086574
      2          8           0        1.598986   -0.283437   -0.007579
      3          8           0        0.400303    0.541149   -0.010171
      4          7           0       -0.663466   -0.456971    0.004037
      5          8           0       -1.699520    0.088188    0.003396
 ---------------------------------------------------------------------
 Rotational constants (GHZ):          54.9206237           5.0113273           4.5931194
 Leave Link  202 at Mon Feb 14 12:41:39 2022, MaxMem= 16106127360 cpu:               0.2 elap:               0.0
 (Enter /sw/contrib/gaussian/g16/B01/g16/l301.exe)
 Standard basis: Aug-CC-pVTZ (5D, 7F)
 Ernie: Thresh=  0.10000D-02 Tol=  0.10000D-05 Strict=F.
 Ernie:  12 primitive shells out of 131 were deleted.
 There are   245 symmetry adapted cartesian basis functions of A   symmetry.
 There are   207 symmetry adapted basis functions of A   symmetry.
   207 basis functions,   315 primitive gaussians,   245 cartesian basis functions
    16 alpha electrons       16 beta electrons
       nuclear repulsion energy       116.8736628952 Hartrees.
 IExCor=    0 DFT=F Ex=HF Corr=None ExCW=0 ScaHFX=  1.000000
 ScaDFX=  1.000000  1.000000  1.000000  1.000000 ScalE2=  1.000000  1.000000
 IRadAn=      5 IRanWt=     -1 IRanGd=            0 ICorTp=0 IEmpDi=  4
 NAtoms=    5 NActive=    5 NUniq=    5 SFac= 1.00D+00 NAtFMM=   60 NAOKFM=F Big=F
 Integral buffers will be    131072 words long.
 Raffenetti 1 integral format.
 Two-electron integral symmetry is turned on.
 Leave Link  301 at Mon Feb 14 12:41:39 2022, MaxMem= 16106127360 cpu:               1.7 elap:               0.1
 (Enter /sw/contrib/gaussian/g16/B01/g16/l302.exe)
 NPDir=0 NMtPBC=     1 NCelOv=     1 NCel=       1 NClECP=     1 NCelD=      1
         NCelK=      1 NCelE2=     1 NClLst=     1 CellRange=     0.0.
 One-electron integrals computed using PRISM.
 One-electron integral symmetry used in STVInt
 NBasis=   207 RedAO= T EigKep=  1.82D-04  NBF=   207
 NBsUse=   207 1.00D-06 EigRej= -1.00D+00 NBFU=   207
 Leave Link  302 at Mon Feb 14 12:41:39 2022, MaxMem= 16106127360 cpu:               4.7 elap:               0.2
 (Enter /sw/contrib/gaussian/g16/B01/g16/l303.exe)
 DipDrv:  MaxL=1.
 Leave Link  303 at Mon Feb 14 12:41:39 2022, MaxMem= 16106127360 cpu:               0.8 elap:               0.1
 (Enter /sw/contrib/gaussian/g16/B01/g16/l401.exe)
 ExpMin= 2.53D-02 ExpMax= 1.53D+04 ExpMxC= 5.22D+02 IAcc=3 IRadAn=         5 AccDes= 0.00D+00
 Harris functional with IExCor=  205 and IRadAn=       5 diagonalized for initial guess.
 HarFok:  IExCor=  205 AccDes= 0.00D+00 IRadAn=         5 IDoV= 1 UseB2=F ITyADJ=14
 ICtDFT=  3500011 ScaDFX=  1.000000  1.000000  1.000000  1.000000
 FoFCou: FMM=F IPFlag=           0 FMFlag=      100000 FMFlg1=           0
         NFxFlg=           0 DoJE=T BraDBF=F KetDBF=T FulRan=T
         wScrn=  0.000000 ICntrl=       500 IOpCl=  0 I1Cent=   200000004 NGrid=           0
         NMat0=    1 NMatS0=      1 NMatT0=    0 NMatD0=    1 NMtDS0=    0 NMtDT0=    0
 Petite list used in FoFCou.
 Harris En= -279.628723477147    
 JPrj=0 DoOrth=F DoCkMO=F.
 Leave Link  401 at Mon Feb 14 12:41:39 2022, MaxMem= 16106127360 cpu:               7.3 elap:               0.3
 (Enter /sw/contrib/gaussian/g16/B01/g16/l502.exe)
 Keep R1 ints in memory in canonical form, NReq=245616937.
 FoFCou: FMM=F IPFlag=           0 FMFlag=           0 FMFlg1=           0
         NFxFlg=           0 DoJE=F BraDBF=F KetDBF=F FulRan=T
         wScrn=  0.000000 ICntrl=       600 IOpCl=  0 I1Cent=           0 NGrid=           0
         NMat0=    1 NMatS0=  21528 NMatT0=    0 NMatD0=    1 NMtDS0=    0 NMtDT0=    0
 Symmetry not used in FoFCou.
 Two-electron integral symmetry not used.
 Closed shell SCF:
 Using DIIS extrapolation, IDIIS=  1040.
 NGot= 16106127360 LenX= 15874260251 LenY= 15874199785
 Requested convergence on RMS density matrix=1.00D-08 within 128 cycles.
 Requested convergence on MAX density matrix=1.00D-06.
 Requested convergence on             energy=1.00D-06.
 No special actions if energy rises.

 Cycle   1  Pass 1  IDiag  1:
 E= -279.370513550592    
 DIIS: error= 2.55D-02 at cycle   1 NSaved=   1.
 NSaved= 1 IEnMin= 1 EnMin= -279.370513550592     IErMin= 1 ErrMin= 2.55D-02
 ErrMax= 2.55D-02  0.00D+00 EMaxC= 1.00D-01 BMatC= 4.38D-01 BMatP= 4.38D-01
 IDIUse=3 WtCom= 7.45D-01 WtEn= 2.55D-01
 Coeff-Com:  0.100D+01
 Coeff-En:   0.100D+01
 Coeff:      0.100D+01
 Gap=     0.518 Goal=   None    Shift=    0.000
 GapD=    0.518 DampG=2.000 DampE=0.500 DampFc=1.0000 IDamp=-1.
 RMSDP=1.62D-03 MaxDP=9.92D-02              OVMax= 1.13D-01

 Cycle   2  Pass 1  IDiag  1:
 E= -279.452447371913     Delta-E=       -0.081933821321 Rises=F Damp=F
 DIIS: error= 1.76D-02 at cycle   2 NSaved=   2.
 NSaved= 2 IEnMin= 2 EnMin= -279.452447371913     IErMin= 2 ErrMin= 1.76D-02
 ErrMax= 1.76D-02  0.00D+00 EMaxC= 1.00D-01 BMatC= 7.18D-02 BMatP= 4.38D-01
 IDIUse=3 WtCom= 8.24D-01 WtEn= 1.76D-01
 Coeff-Com:  0.195D+00 0.805D+00
 Coeff-En:   0.000D+00 0.100D+01
 Coeff:      0.161D+00 0.839D+00
 Gap=     0.533 Goal=   None    Shift=    0.000
 RMSDP=9.00D-04 MaxDP=3.73D-02 DE=-8.19D-02 OVMax= 6.85D-02

 Cycle   3  Pass 1  IDiag  1:
 E= -279.481622221553     Delta-E=       -0.029174849640 Rises=F Damp=F
 DIIS: error= 1.02D-02 at cycle   3 NSaved=   3.
 NSaved= 3 IEnMin= 3 EnMin= -279.481622221553     IErMin= 3 ErrMin= 1.02D-02
 ErrMax= 1.02D-02  0.00D+00 EMaxC= 1.00D-01 BMatC= 2.87D-02 BMatP= 7.18D-02
 IDIUse=3 WtCom= 8.98D-01 WtEn= 1.02D-01
 Coeff-Com: -0.330D-01 0.378D+00 0.655D+00
 Coeff-En:   0.000D+00 0.240D+00 0.760D+00
 Coeff:     -0.296D-01 0.364D+00 0.666D+00
 Gap=     0.510 Goal=   None    Shift=    0.000
 RMSDP=3.76D-04 MaxDP=1.54D-02 DE=-2.92D-02 OVMax= 3.80D-02

 Cycle   4  Pass 1  IDiag  1:
 E= -279.500648600153     Delta-E=       -0.019026378600 Rises=F Damp=F
 DIIS: error= 1.27D-03 at cycle   4 NSaved=   4.
 NSaved= 4 IEnMin= 4 EnMin= -279.500648600153     IErMin= 4 ErrMin= 1.27D-03
 ErrMax= 1.27D-03  0.00D+00 EMaxC= 1.00D-01 BMatC= 4.91D-04 BMatP= 2.87D-02
 IDIUse=3 WtCom= 9.87D-01 WtEn= 1.27D-02
 Coeff-Com: -0.117D-01 0.575D-01 0.158D+00 0.796D+00
 Coeff-En:   0.000D+00 0.000D+00 0.000D+00 0.100D+01
 Coeff:     -0.115D-01 0.568D-01 0.156D+00 0.798D+00
 Gap=     0.502 Goal=   None    Shift=    0.000
 RMSDP=9.02D-05 MaxDP=2.18D-03 DE=-1.90D-02 OVMax= 1.10D-02

 Cycle   5  Pass 1  IDiag  1:
 E= -279.501322839373     Delta-E=       -0.000674239220 Rises=F Damp=F
 DIIS: error= 7.26D-04 at cycle   5 NSaved=   5.
 NSaved= 5 IEnMin= 5 EnMin= -279.501322839373     IErMin= 5 ErrMin= 7.26D-04
 ErrMax= 7.26D-04  0.00D+00 EMaxC= 1.00D-01 BMatC= 8.71D-05 BMatP= 4.91D-04
 IDIUse=3 WtCom= 9.93D-01 WtEn= 7.26D-03
 Coeff-Com:  0.613D-02-0.723D-01-0.118D+00 0.202D-01 0.116D+01
 Coeff-En:   0.000D+00 0.000D+00 0.000D+00 0.000D+00 0.100D+01
 Coeff:      0.608D-02-0.718D-01-0.117D+00 0.201D-01 0.116D+01
 Gap=     0.502 Goal=   None    Shift=    0.000
 RMSDP=7.62D-05 MaxDP=2.10D-03 DE=-6.74D-04 OVMax= 1.10D-02

 Cycle   6  Pass 1  IDiag  1:
 E= -279.501637767103     Delta-E=       -0.000314927730 Rises=F Damp=F
 DIIS: error= 2.84D-04 at cycle   6 NSaved=   6.
 NSaved= 6 IEnMin= 6 EnMin= -279.501637767103     IErMin= 6 ErrMin= 2.84D-04
 ErrMax= 2.84D-04  0.00D+00 EMaxC= 1.00D-01 BMatC= 1.67D-05 BMatP= 8.71D-05
 IDIUse=3 WtCom= 9.97D-01 WtEn= 2.84D-03
 Coeff-Com:  0.596D-03 0.158D-02 0.452D-02-0.130D+00-0.231D+00 0.135D+01
 Coeff-En:   0.000D+00 0.000D+00 0.000D+00 0.000D+00 0.000D+00 0.100D+01
 Coeff:      0.595D-03 0.157D-02 0.451D-02-0.129D+00-0.230D+00 0.135D+01
 Gap=     0.502 Goal=   None    Shift=    0.000
 RMSDP=4.53D-05 MaxDP=1.06D-03 DE=-3.15D-04 OVMax= 5.54D-03

 Cycle   7  Pass 1  IDiag  1:
 E= -279.501710442046     Delta-E=       -0.000072674943 Rises=F Damp=F
 DIIS: error= 1.01D-04 at cycle   7 NSaved=   7.
 NSaved= 7 IEnMin= 7 EnMin= -279.501710442046     IErMin= 7 ErrMin= 1.01D-04
 ErrMax= 1.01D-04  0.00D+00 EMaxC= 1.00D-01 BMatC= 4.52D-06 BMatP= 1.67D-05
 IDIUse=3 WtCom= 9.99D-01 WtEn= 1.01D-03
 Coeff-Com: -0.938D-03 0.135D-01 0.265D-01-0.243D-01-0.287D+00 0.391D+00
 Coeff-Com:  0.881D+00
 Coeff-En:   0.000D+00 0.000D+00 0.000D+00 0.000D+00 0.000D+00 0.000D+00
 Coeff-En:   0.100D+01
 Coeff:     -0.937D-03 0.135D-01 0.265D-01-0.243D-01-0.287D+00 0.391D+00
 Coeff:      0.881D+00
 Gap=     0.502 Goal=   None    Shift=    0.000
 RMSDP=1.33D-05 MaxDP=3.78D-04 DE=-7.27D-05 OVMax= 1.55D-03

 Cycle   8  Pass 1  IDiag  1:
 E= -279.501719343323     Delta-E=       -0.000008901277 Rises=F Damp=F
 DIIS: error= 4.92D-05 at cycle   8 NSaved=   8.
 NSaved= 8 IEnMin= 8 EnMin= -279.501719343323     IErMin= 8 ErrMin= 4.92D-05
 ErrMax= 4.92D-05  0.00D+00 EMaxC= 1.00D-01 BMatC= 6.07D-07 BMatP= 4.52D-06
 IDIUse=1 WtCom= 1.00D+00 WtEn= 0.00D+00
 Coeff-Com: -0.449D-03 0.345D-02 0.760D-02 0.274D-01-0.409D-01-0.198D+00
 Coeff-Com:  0.171D+00 0.103D+01
 Coeff:     -0.449D-03 0.345D-02 0.760D-02 0.274D-01-0.409D-01-0.198D+00
 Coeff:      0.171D+00 0.103D+01
 Gap=     0.502 Goal=   None    Shift=    0.000
 RMSDP=6.91D-06 MaxDP=2.03D-04 DE=-8.90D-06 OVMax= 7.47D-04

 Cycle   9  Pass 1  IDiag  1:
 E= -279.501721121105     Delta-E=       -0.000001777783 Rises=F Damp=F
 DIIS: error= 1.57D-05 at cycle   9 NSaved=   9.
 NSaved= 9 IEnMin= 9 EnMin= -279.501721121105     IErMin= 9 ErrMin= 1.57D-05
 ErrMax= 1.57D-05  0.00D+00 EMaxC= 1.00D-01 BMatC= 6.92D-08 BMatP= 6.07D-07
 IDIUse=1 WtCom= 1.00D+00 WtEn= 0.00D+00
 Coeff-Com:  0.123D-03-0.172D-02-0.307D-02-0.205D-02 0.342D-01-0.447D-04
 Coeff-Com: -0.167D+00-0.103D+00 0.124D+01
 Coeff:      0.123D-03-0.172D-02-0.307D-02-0.205D-02 0.342D-01-0.447D-04
 Coeff:     -0.167D+00-0.103D+00 0.124D+01
 Gap=     0.502 Goal=   None    Shift=    0.000
 RMSDP=1.94D-06 MaxDP=5.18D-05 DE=-1.78D-06 OVMax= 1.74D-04

 Cycle  10  Pass 1  IDiag  1:
 E= -279.501721281409     Delta-E=       -0.000000160304 Rises=F Damp=F
 DIIS: error= 4.03D-06 at cycle  10 NSaved=  10.
 NSaved=10 IEnMin=10 EnMin= -279.501721281409     IErMin=10 ErrMin= 4.03D-06
 ErrMax= 4.03D-06  0.00D+00 EMaxC= 1.00D-01 BMatC= 5.55D-09 BMatP= 6.92D-08
 IDIUse=1 WtCom= 1.00D+00 WtEn= 0.00D+00
 Coeff-Com:  0.310D-04-0.243D-03-0.324D-03-0.270D-02 0.163D-02 0.196D-01
 Coeff-Com: -0.130D-01-0.743D-01-0.803D-01 0.115D+01
 Coeff:      0.310D-04-0.243D-03-0.324D-03-0.270D-02 0.163D-02 0.196D-01
 Coeff:     -0.130D-01-0.743D-01-0.803D-01 0.115D+01
 Gap=     0.502 Goal=   None    Shift=    0.000
 RMSDP=5.06D-07 MaxDP=2.10D-05 DE=-1.60D-07 OVMax= 4.14D-05

 Cycle  11  Pass 1  IDiag  1:
 E= -279.501721293995     Delta-E=       -0.000000012586 Rises=F Damp=F
 DIIS: error= 1.79D-06 at cycle  11 NSaved=  11.
 NSaved=11 IEnMin=11 EnMin= -279.501721293995     IErMin=11 ErrMin= 1.79D-06
 ErrMax= 1.79D-06  0.00D+00 EMaxC= 1.00D-01 BMatC= 6.65D-10 BMatP= 5.55D-09
 IDIUse=1 WtCom= 1.00D+00 WtEn= 0.00D+00
 Coeff-Com: -0.213D-04 0.244D-03 0.488D-03 0.534D-03-0.429D-02-0.357D-02
 Coeff-Com:  0.211D-01 0.311D-01-0.139D+00-0.179D+00 0.127D+01
 Coeff:     -0.213D-04 0.244D-03 0.488D-03 0.534D-03-0.429D-02-0.357D-02
 Coeff:      0.211D-01 0.311D-01-0.139D+00-0.179D+00 0.127D+01
 Gap=     0.502 Goal=   None    Shift=    0.000
 RMSDP=1.80D-07 MaxDP=6.52D-06 DE=-1.26D-08 OVMax= 1.72D-05

 Cycle  12  Pass 1  IDiag  1:
 E= -279.501721295837     Delta-E=       -0.000000001842 Rises=F Damp=F
 DIIS: error= 5.64D-07 at cycle  12 NSaved=  12.
 NSaved=12 IEnMin=12 EnMin= -279.501721295837     IErMin=12 ErrMin= 5.64D-07
 ErrMax= 5.64D-07  0.00D+00 EMaxC= 1.00D-01 BMatC= 7.38D-11 BMatP= 6.65D-10
 IDIUse=1 WtCom= 1.00D+00 WtEn= 0.00D+00
 Coeff-Com:  0.128D-05-0.296D-04-0.644D-04 0.183D-03 0.109D-02-0.231D-02
 Coeff-Com: -0.417D-02 0.544D-02 0.422D-01-0.114D+00-0.284D+00 0.136D+01
 Coeff:      0.128D-05-0.296D-04-0.644D-04 0.183D-03 0.109D-02-0.231D-02
 Coeff:     -0.417D-02 0.544D-02 0.422D-01-0.114D+00-0.284D+00 0.136D+01
 Gap=     0.502 Goal=   None    Shift=    0.000
 RMSDP=7.42D-08 MaxDP=2.83D-06 DE=-1.84D-09 OVMax= 6.64D-06

 Cycle  13  Pass 1  IDiag  1:
 E= -279.501721296082     Delta-E=       -0.000000000245 Rises=F Damp=F
 DIIS: error= 1.68D-07 at cycle  13 NSaved=  13.
 NSaved=13 IEnMin=13 EnMin= -279.501721296082     IErMin=13 ErrMin= 1.68D-07
 ErrMax= 1.68D-07  0.00D+00 EMaxC= 1.00D-01 BMatC= 4.84D-12 BMatP= 7.38D-11
 IDIUse=1 WtCom= 1.00D+00 WtEn= 0.00D+00
 Coeff-Com:  0.132D-05-0.142D-04-0.228D-04-0.937D-04 0.116D-03 0.809D-03
 Coeff-Com: -0.826D-03-0.344D-02 0.198D-03 0.437D-01-0.343D-01-0.348D+00
 Coeff-Com:  0.134D+01
 Coeff:      0.132D-05-0.142D-04-0.228D-04-0.937D-04 0.116D-03 0.809D-03
 Coeff:     -0.826D-03-0.344D-02 0.198D-03 0.437D-01-0.343D-01-0.348D+00
 Coeff:      0.134D+01
 Gap=     0.502 Goal=   None    Shift=    0.000
 RMSDP=2.21D-08 MaxDP=5.66D-07 DE=-2.45D-10 OVMax= 2.55D-06

 Cycle  14  Pass 1  IDiag  1:
 E= -279.501721296100     Delta-E=       -0.000000000018 Rises=F Damp=F
 DIIS: error= 6.13D-08 at cycle  14 NSaved=  14.
 NSaved=14 IEnMin=14 EnMin= -279.501721296100     IErMin=14 ErrMin= 6.13D-08
 ErrMax= 6.13D-08  0.00D+00 EMaxC= 1.00D-01 BMatC= 5.52D-13 BMatP= 4.84D-12
 IDIUse=1 WtCom= 1.00D+00 WtEn= 0.00D+00
 Coeff-Com: -0.317D-06 0.474D-05 0.827D-05 0.110D-04-0.108D-03 0.596D-05
 Coeff-Com:  0.406D-03 0.459D-03-0.300D-02-0.886D-03 0.233D-01-0.111D-01
 Coeff-Com: -0.317D+00 0.131D+01
 Coeff:     -0.317D-06 0.474D-05 0.827D-05 0.110D-04-0.108D-03 0.596D-05
 Coeff:      0.406D-03 0.459D-03-0.300D-02-0.886D-03 0.233D-01-0.111D-01
 Coeff:     -0.317D+00 0.131D+01
 Gap=     0.502 Goal=   None    Shift=    0.000
 RMSDP=7.53D-09 MaxDP=1.91D-07 DE=-1.82D-11 OVMax= 1.24D-06

 SCF Done:  E(RHF) =  -279.501721296     A.U. after   14 cycles
            NFock= 14  Conv=0.75D-08     -V/T= 2.0024
 KE= 2.788453981544D+02 PE=-8.950738750782D+02 EE= 2.198530927325D+02
 Leave Link  502 at Mon Feb 14 12:41:46 2022, MaxMem= 16106127360 cpu:              41.1 elap:               6.8
 (Enter /sw/contrib/gaussian/g16/B01/g16/l801.exe)
 ExpMin= 2.53D-02 ExpMax= 1.53D+04 ExpMxC= 5.22D+02 IAcc=3 IRadAn=         5 AccDes= 0.00D+00
 HarFok:  IExCor=  205 AccDes= 0.00D+00 IRadAn=         5 IDoV=-2 UseB2=F ITyADJ=14
 ICtDFT= 12500011 ScaDFX=  1.000000  1.000000  1.000000  1.000000
 DSYEVD-2 returned Info=          93 IAlg= 4 N=    46 NDim=    46 NE2=   350130240 trying  DSYEV.
 Largest valence mixing into a core orbital is  2.08D-04
 Largest core mixing into a valence orbital is  3.63D-05
 Range of M.O.s used for correlation:     5   207
 NBasis=   207 NAE=    16 NBE=    16 NFC=     4 NFV=     0
 NROrb=    203 NOA=    12 NOB=    12 NVA=   191 NVB=   191

 **** Warning!!: The largest alpha MO coefficient is  0.17738084D+02

 Leave Link  801 at Mon Feb 14 12:41:46 2022, MaxMem= 16106127360 cpu:               2.4 elap:               0.1
 (Enter /sw/contrib/gaussian/g16/B01/g16/l906.exe)
 Frozen-core derivative calculation, NFC=   4 NFV=   0.
 FulOut=F Deriv=T AODrv=F NAtomX=     5
   MMem=          76  MDisk=          12 MDiskD=          12
  W3Min=      811440 MinDsk=     1524655 NBas6D=         245
 NBas2D=       30762    NTT=       30135    LW2=     3500000
    MDV= 16105643539 MDiskM=      328645 NBas2p=       30466
 Fully in-core method, ICMem=   960157634.
 IMap=   1   2   3   4   5   6   7   8   9  10  11  12  13  14  15  16
 JobTyp=1 Pass  1 fully in-core, NPsUse= 28.
 Compute canonical integrals.
 FoFCou: FMM=F IPFlag=           0 FMFlag=           0 FMFlg1=           0
         NFxFlg=           0 DoJE=F BraDBF=F KetDBF=F FulRan=T
         wScrn=  0.000000 ICntrl=       600 IOpCl=  1 I1Cent=           0 NGrid=           0
         NMat0=    1 NMatS0=  30762 NMatT0=    0 NMatD0=    1 NMtDS0=    0 NMtDT0=    0
 Symmetry not used in FoFCou.
 Spin components of T(2) and E(2):
     alpha-alpha T2 =       0.3402575011D-01 E2=     -0.1224071145D+00
     alpha-beta  T2 =       0.1868519597D+00 E2=     -0.7002445728D+00
     beta-beta   T2 =       0.3402575011D-01 E2=     -0.1224071145D+00
 The integrals were generated   1 times.
 ANorm=    0.1120224736D+01
 E2 =    -0.9450588017D+00 EUMP2 =    -0.28044678009776D+03
 Leave Link  906 at Mon Feb 14 12:41:55 2022, MaxMem= 16106127360 cpu:             248.1 elap:               8.9
 (Enter /sw/contrib/gaussian/g16/B01/g16/l1002.exe)
 Minotr:  Closed shell wavefunction.
          Computing MP2/KS-MP2 derivatives.
          Using Z-Vector for PSCF gradient.
          Skipping F1 and S1 gradient terms here.
          Frozen-core window.
          Direct CPHF calculation.
          Differentiating once with respect to electric field.
                with respect to dipole field.
          Electric field/nuclear overlap derivatives assumed to be zero.
          Requested convergence is 1.0D-10 RMS, and 1.0D-09 maximum.
          NewPWx=F KeepS1=T KeepF1=T KeepIn=T MapXYZ=F SortEE=F KeepMc=T.
 Keep R1 ints in memory in canonical form, NReq=245621348.
 FoFCou: FMM=F IPFlag=           0 FMFlag=           0 FMFlg1=           0
         NFxFlg=           0 DoJE=F BraDBF=F KetDBF=F FulRan=T
         wScrn=  0.000000 ICntrl=       600 IOpCl=  0 I1Cent=           0 NGrid=           0
         NMat0=    1 NMatS0=  21528 NMatT0=    0 NMatD0=    1 NMtDS0=    0 NMtDT0=    0
 Symmetry not used in FoFCou.
 Two-electron integral symmetry not used.
          MDV=   16106127360 using IRadAn=       5.
          Solving linear equations separately, MaxMat=       0.
          There are     1 degrees of freedom in the 1st order CPHF.  IDoFFX=0 NUNeed=     1.
 LinEq1:  Iter=  0 NonCon=     1 RMS=5.96D-03 Max=1.31D-01 NDo=     1
 AX will form     1 AO Fock derivatives at one time.
 LinEq1:  Iter=  1 NonCon=     1 RMS=1.90D-03 Max=3.80D-02 NDo=     1
 LinEq1:  Iter=  2 NonCon=     1 RMS=8.68D-04 Max=1.37D-02 NDo=     1
 LinEq1:  Iter=  3 NonCon=     1 RMS=3.86D-04 Max=7.74D-03 NDo=     1
 LinEq1:  Iter=  4 NonCon=     1 RMS=1.19D-04 Max=1.85D-03 NDo=     1
 LinEq1:  Iter=  5 NonCon=     1 RMS=4.55D-05 Max=7.19D-04 NDo=     1
 LinEq1:  Iter=  6 NonCon=     1 RMS=2.03D-05 Max=2.36D-04 NDo=     1
 LinEq1:  Iter=  7 NonCon=     1 RMS=8.18D-06 Max=1.59D-04 NDo=     1
 LinEq1:  Iter=  8 NonCon=     1 RMS=3.52D-06 Max=3.29D-05 NDo=     1
 LinEq1:  Iter=  9 NonCon=     1 RMS=9.91D-07 Max=1.43D-05 NDo=     1
 LinEq1:  Iter= 10 NonCon=     1 RMS=2.28D-07 Max=5.85D-06 NDo=     1
 LinEq1:  Iter= 11 NonCon=     1 RMS=6.52D-08 Max=1.99D-06 NDo=     1
 LinEq1:  Iter= 12 NonCon=     1 RMS=1.92D-08 Max=3.39D-07 NDo=     1
 LinEq1:  Iter= 13 NonCon=     1 RMS=3.81D-09 Max=4.18D-08 NDo=     1
 LinEq1:  Iter= 14 NonCon=     1 RMS=6.15D-10 Max=9.83D-09 NDo=     1
 LinEq1:  Iter= 15 NonCon=     1 RMS=1.26D-10 Max=2.10D-09 NDo=     1
 LinEq1:  Iter= 16 NonCon=     0 RMS=3.09D-11 Max=3.44D-10 NDo=     1
 Linear equations converged to 1.000D-10 1.000D-09 after    16 iterations.
 End of Minotr F.D. properties file   721 does not exist.
 End of Minotr F.D. properties file   722 does not exist.
 End of Minotr F.D. properties file   788 does not exist.
 Leave Link 1002 at Mon Feb 14 12:42:03 2022, MaxMem= 16106127360 cpu:              38.5 elap:               8.1
 (Enter /sw/contrib/gaussian/g16/B01/g16/l601.exe)
 Copying SCF densities to generalized density rwf, IOpCl= 0 IROHF=0.

 **********************************************************************

            Population analysis using the MP2 Density.

 **********************************************************************

 Orbital symmetries:
       Occupied  (A) (A) (A) (A) (A) (A) (A) (A) (A) (A) (A) (A)
                 (A) (A) (A) (A)
       Virtual   (A) (A) (A) (A) (A) (A) (A) (A) (A) (A) (A) (A)
                 (A) (A) (A) (A) (A) (A) (A) (A) (A) (A) (A) (A)
                 (A) (A) (A) (A) (A) (A) (A) (A) (A) (A) (A) (A)
                 (A) (A) (A) (A) (A) (A) (A) (A) (A) (A) (A) (A)
                 (A) (A) (A) (A) (A) (A) (A) (A) (A) (A) (A) (A)
                 (A) (A) (A) (A) (A) (A) (A) (A) (A) (A) (A) (A)
                 (A) (A) (A) (A) (A) (A) (A) (A) (A) (A) (A) (A)
                 (A) (A) (A) (A) (A) (A) (A) (A) (A) (A) (A) (A)
                 (A) (A) (A) (A) (A) (A) (A) (A) (A) (A) (A) (A)
                 (A) (A) (A) (A) (A) (A) (A) (A) (A) (A) (A) (A)
                 (A) (A) (A) (A) (A) (A) (A) (A) (A) (A) (A) (A)
                 (A) (A) (A) (A) (A) (A) (A) (A) (A) (A) (A) (A)
                 (A) (A) (A) (A) (A) (A) (A) (A) (A) (A) (A) (A)
                 (A) (A) (A) (A) (A) (A) (A) (A) (A) (A) (A) (A)
                 (A) (A) (A) (A) (A) (A) (A) (A) (A) (A) (A) (A)
                 (A) (A) (A) (A) (A) (A) (A) (A) (A) (A) (A)
 The electronic state is 1-A.
 Alpha  occ. eigenvalues --  -20.69093 -20.68429 -20.66002 -15.81280  -1.62403
 Alpha  occ. eigenvalues --   -1.49577  -1.25442  -0.94807  -0.77271  -0.75926
 Alpha  occ. eigenvalues --   -0.71210  -0.67921  -0.62029  -0.58926  -0.48573
 Alpha  occ. eigenvalues --   -0.47226
 Alpha virt. eigenvalues --    0.02961   0.07167   0.08594   0.10173   0.13321
 Alpha virt. eigenvalues --    0.13456   0.14403   0.15450   0.17822   0.19416
 Alpha virt. eigenvalues --    0.19964   0.20644   0.22081   0.23541   0.23734
 Alpha virt. eigenvalues --    0.26631   0.29319   0.30244   0.31109   0.34346
 Alpha virt. eigenvalues --    0.35102   0.38732   0.42057   0.43067   0.52725
 Alpha virt. eigenvalues --    0.52986   0.55853   0.58146   0.62596   0.63823
 Alpha virt. eigenvalues --    0.67425   0.68414   0.70656   0.71176   0.72203
 Alpha virt. eigenvalues --    0.73086   0.74567   0.78863   0.79386   0.81030
 Alpha virt. eigenvalues --    0.81313   0.83173   0.86805   0.90832   0.91925
 Alpha virt. eigenvalues --    0.92943   0.95629   0.97447   0.98668   1.01613
 Alpha virt. eigenvalues --    1.05439   1.05468   1.08274   1.11661   1.13649
 Alpha virt. eigenvalues --    1.19324   1.22019   1.23311   1.33826   1.35054
 Alpha virt. eigenvalues --    1.38700   1.45411   1.48930   1.50874   1.53775
 Alpha virt. eigenvalues --    1.56705   1.58003   1.61009   1.66490   1.66824
 Alpha virt. eigenvalues --    1.70410   1.79178   1.83071   1.83562   1.87912
 Alpha virt. eigenvalues --    1.90852   1.95615   1.98708   2.01426   2.07768
 Alpha virt. eigenvalues --    2.11920   2.13031   2.15200   2.22339   2.26113
 Alpha virt. eigenvalues --    2.26843   2.28889   2.31338   2.34390   2.38673
 Alpha virt. eigenvalues --    2.41361   2.44021   2.45402   2.46412   2.47608
 Alpha virt. eigenvalues --    2.50317   2.58957   2.59734   2.62007   2.62504
 Alpha virt. eigenvalues --    2.63576   2.66693   2.75523   2.82613   2.85244
 Alpha virt. eigenvalues --    2.88701   2.89465   2.92198   2.95881   3.02332
 Alpha virt. eigenvalues --    3.07106   3.12108   3.20465   3.22755   3.31637
 Alpha virt. eigenvalues --    3.34134   3.51603   3.64482   3.83802   3.84599
 Alpha virt. eigenvalues --    4.14338   4.16320   4.19126   4.25647   4.34757
 Alpha virt. eigenvalues --    4.39367   4.46740   4.52070   4.65844   4.71085
 Alpha virt. eigenvalues --    4.80483   4.82423   4.82793   4.89614   5.02302
 Alpha virt. eigenvalues --    5.07571   5.10283   5.14494   5.18056   5.24480
 Alpha virt. eigenvalues --    5.27194   5.30694   5.32972   5.35410   5.60450
 Alpha virt. eigenvalues --    5.67361   5.76701   5.83008   5.95642   6.16889
 Alpha virt. eigenvalues --    6.30984   6.33918   6.39371   6.49384   6.50530
 Alpha virt. eigenvalues --    6.61634   6.66338   6.70212   6.75315   6.76670
 Alpha virt. eigenvalues --    6.83342   6.89834   7.01292   7.05554   7.05729
 Alpha virt. eigenvalues --    7.09152   7.12524   7.14843   7.18418   7.22493
 Alpha virt. eigenvalues --    7.24064   7.30624   7.32395   7.35058   7.39713
 Alpha virt. eigenvalues --    7.43033   7.48515   7.60740   7.61821   7.62887
 Alpha virt. eigenvalues --    7.66838   7.78794   7.88599   8.09245   8.31385
 Alpha virt. eigenvalues --    8.40603   8.54332  13.38915  14.39554  15.16139
 Alpha virt. eigenvalues --   16.15171
          Condensed to atoms (all electrons):
               1          2          3          4          5
     1  H    0.589799   0.128400   0.020102   0.012144  -0.000634
     2  O    0.128400   8.321306  -0.173236  -0.090246   0.015376
     3  O    0.020102  -0.173236   8.468788  -0.129769  -0.038761
     4  N    0.012144  -0.090246  -0.129769   6.971393  -0.055339
     5  O   -0.000634   0.015376  -0.038761  -0.055339   8.272644
 Mulliken charges:
               1
     1  H    0.250189
     2  O   -0.201599
     3  O   -0.147123
     4  N    0.291818
     5  O   -0.193285
 Sum of Mulliken charges =  -0.00000
 Mulliken charges with hydrogens summed into heavy atoms:
               1
     2  O    0.048590
     3  O   -0.147123
     4  N    0.291818
     5  O   -0.193285
 Electronic spatial extent (au):  <R**2>=            252.8778
 Charge=             -0.0000 electrons
 Dipole moment (field-independent basis, Debye):
    X=              1.2136    Y=              0.7855    Z=              0.1644  Tot=              1.4549
 Quadrupole moment (field-independent basis, Debye-Ang):
   XX=            -18.0193   YY=            -23.1014   ZZ=            -21.9889
   XY=              2.7739   XZ=              0.4341   YZ=              0.1339
 Traceless Quadrupole moment (field-independent basis, Debye-Ang):
   XX=              3.0173   YY=             -2.0649   ZZ=             -0.9524
   XY=              2.7739   XZ=              0.4341   YZ=              0.1339
 Octapole moment (field-independent basis, Debye-Ang**2):
  XXX=             18.1021  YYY=              1.7566  ZZZ=              0.0523  XYY=              1.0737
  XXY=              6.1486  XXZ=              1.0415  XZZ=             -1.7307  YZZ=              0.2576
  YYZ=              0.0220  XYZ=              0.2290
 Hexadecapole moment (field-independent basis, Debye-Ang**3):
 XXXX=           -190.3995 YYYY=            -41.0870 ZZZZ=            -18.2564 XXXY=             11.9980
 XXXZ=              2.6433 YYYX=              0.9931 YYYZ=              0.1239 ZZZX=              0.1572
 ZZZY=              0.0880 XXYY=            -42.4910 XXZZ=            -41.5584 YYZZ=             -9.8747
 XXYZ=              0.5443 YYXZ=              0.1164 ZZXY=              0.4897
 N-N= 1.168736628952D+02 E-N=-8.958578115442D+02  KE= 2.801975383764D+02
 No NMR shielding tensors so no spin-rotation constants.
 Leave Link  601 at Mon Feb 14 12:42:03 2022, MaxMem= 16106127360 cpu:               4.7 elap:               0.2
 (Enter /sw/contrib/gaussian/g16/B01/g16/l9999.exe)
 1\1\GINC-N2115\SP\RMP2-FC\Aug-CC-pVTZ\H1N1O3\CGAVINH\14-Feb-2022\0\\#p
  SP mp2/aug-cc-pvtz density=current\\title\\0,1\H\O,1,0.96897556\O,2,1
 .45491931,1,97.59494903\N,3,1.45878406,2,102.29752444,1,186.20541358,0
 \O,4,1.17072885,3,109.06955123,2,180.,0\\Version=ES64L-G16RevB.01\Stat
 e=1-A\HF=-279.5017213\MP2=-280.4467801\RMSD=7.527e-09\Dipole=-0.146506
 ,-0.0126341,-0.5531873\Quadrupole=-1.5093416,-0.7374133,2.246755,-0.03
 95682,2.0917266,0.0253263\PG=C01 [X(H1N1O3)]\\@


 The earth never tires,
 The earth is rude, silent, incomprehensible at first,
 Nature is rude and incomprehensible at first,
 Be not discouraged, keep on,
 There are divine things well envelop'd,
 I swear to you there are divine things more beautiful than words can tell.
                                 -- Walt Whitman
 Job cpu time:       0 days  0 hours  5 minutes 58.1 seconds.
 Elapsed time:       0 days  0 hours  0 minutes 25.1 seconds.
 File lengths (MBytes):  RWF=     21 Int=      0 D2E=      0 Chk=      8 Scr=      1
 Normal termination of Gaussian 16 at Mon Feb 14 12:42:04 2022.
