title                                                                   
SP        RMP2-FC                                                     Aug-CC-pVTZ         
Number of atoms                            I                5
Info1-9                                    I   N=           9
          33          24           0           0           0         110
           1           2           1
Full Title                                 C   N=           1
title       
Route                                      C   N=           4
#p SP mp2/aug-cc-pvtz density=current           
Charge                                     I                0
Multiplicity                               I                1
Number of electrons                        I               32
Number of alpha electrons                  I               16
Number of beta electrons                   I               16
Number of basis functions                  I              207
Number of independent functions            I              207
Number of point charges in /Mol/           I                0
Number of translation vectors              I                0
Atomic numbers                             I   N=           5
           1           8           8           7           8
Nuclear charges                            R   N=           5
  1.00000000E+00  8.00000000E+00  8.00000000E+00  7.00000000E+00  8.00000000E+00
Current cartesian coordinates              R   N=          15
  2.93096059E+00  3.17006536E+00 -1.61152032E-31  2.74795204E+00  1.34813525E+00
 -1.77283193E-31 -5.91581297E-17  1.25894654E+00 -3.04464520E-32 -4.94410334E-01
 -1.42471001E+00  4.13875557E-32 -2.68171307E+00 -1.75671870E+00  1.79553521E-31
Number of symbols in /Mol/                 I                0
Force Field                                I                0
Atom Types                                 C   N=           5
                                                            
Int Atom Types                             I   N=           5
           0           0           0           0           0
MM charges                                 R   N=           5
  0.00000000E+00  0.00000000E+00  0.00000000E+00  0.00000000E+00  0.00000000E+00
Integer atomic weights                     I   N=           5
           1          16          16          14          16
Real atomic weights                        R   N=           5
  1.00782504E+00  1.59949146E+01  1.59949146E+01  1.40030740E+01  1.59949146E+01
Atom fragment info                         I   N=           5
           0           0           0           0           0
Atom residue num                           I   N=           5
           0           0           0           0           0
Nuclear spins                              I   N=           5
           1           0           0           2           0
Nuclear ZEff                               R   N=           5
 -1.00000000E+00 -5.60000000E+00 -5.60000000E+00 -4.55000000E+00 -5.60000000E+00
Nuclear ZNuc                               R   N=           5
  1.00000000E+00  8.00000000E+00  8.00000000E+00  7.00000000E+00  8.00000000E+00
Nuclear QMom                               R   N=           5
  0.00000000E+00  0.00000000E+00  0.00000000E+00  2.04400000E+00  0.00000000E+00
Nuclear GFac                               R   N=           5
  2.79284600E+00  0.00000000E+00  0.00000000E+00  4.03761000E-01  0.00000000E+00
MicOpt                                     I   N=           5
          -1          -1          -1          -1          -1
Number of residues                         I                0
Number of secondary structures             I                0
SymInf integers                            I   N=          26
           1           2           1           1           1           1
           1          -1           0           0           0           0
           0           0           0           0           0           0
           0           0           0           0           0           0
           0           0
RotTr to input orientation                 R   N=          12
 -9.94992995E-01 -9.88929496E-17 -9.99446820E-02  9.99446820E-02 -7.22342186E-17
 -9.94992995E-01  9.11783662E-17 -1.00000000E+00  8.17563659E-17  2.59945408E+00
  0.00000000E+00  3.44712676E+00
Number of contracted shells                I               65
Number of primitive shells                 I              119
Pure/Cartesian d shells                    I                0
Pure/Cartesian f shells                    I                0
Highest angular momentum                   I                3
Largest degree of contraction              I                7
Shell types                                I   N=          65
           0           0           0           0           1           1
           1          -2          -2           0           0           0
           0           0           1           1           1           1
          -2          -2          -2          -3          -3           0
           0           0           0           0           1           1
           1           1          -2          -2          -2          -3
          -3           0           0           0           0           0
           1           1           1           1          -2          -2
          -2          -3          -3           0           0           0
           0           0           1           1           1           1
          -2          -2          -2          -3          -3
Number of primitives per shell             I   N=          65
           3           1           1           1           1           1
           1           1           1           7           6           1
           1           1           3           1           1           1
           1           1           1           1           1           7
           6           1           1           1           3           1
           1           1           1           1           1           1
           1           7           6           1           1           1
           3           1           1           1           1           1
           1           1           1           7           6           1
           1           1           3           1           1           1
           1           1           1           1           1
Shell to atom map                          I   N=          65
           1           1           1           1           1           1
           1           1           1           2           2           2
           2           2           2           2           2           2
           2           2           2           2           2           3
           3           3           3           3           3           3
           3           3           3           3           3           3
           3           4           4           4           4           4
           4           4           4           4           4           4
           4           4           4           5           5           5
           5           5           5           5           5           5
           5           5           5           5           5
Primitive exponents                        R   N=         119
  3.38700000E+01  5.09500000E+00  1.15900000E+00  3.25800000E-01  1.02700000E-01
  2.52600000E-02  1.40700000E+00  3.88000000E-01  1.02000000E-01  1.05700000E+00
  2.47000000E-01  1.53300000E+04  2.29900000E+03  5.22400000E+02  1.47300000E+02
  4.75500000E+01  1.67600000E+01  6.20700000E+00  5.22400000E+02  1.47300000E+02
  4.75500000E+01  1.67600000E+01  6.20700000E+00  6.88200000E-01  1.75200000E+00
  2.38400000E-01  7.37600000E-02  3.44600000E+01  7.74900000E+00  2.28000000E+00
  7.15600000E-01  2.14000000E-01  5.97400000E-02  2.31400000E+00  6.45000000E-01
  2.14000000E-01  1.42800000E+00  5.00000000E-01  1.53300000E+04  2.29900000E+03
  5.22400000E+02  1.47300000E+02  4.75500000E+01  1.67600000E+01  6.20700000E+00
  5.22400000E+02  1.47300000E+02  4.75500000E+01  1.67600000E+01  6.20700000E+00
  6.88200000E-01  1.75200000E+00  2.38400000E-01  7.37600000E-02  3.44600000E+01
  7.74900000E+00  2.28000000E+00  7.15600000E-01  2.14000000E-01  5.97400000E-02
  2.31400000E+00  6.45000000E-01  2.14000000E-01  1.42800000E+00  5.00000000E-01
  1.14200000E+04  1.71200000E+03  3.89300000E+02  1.10000000E+02  3.55700000E+01
  1.25400000E+01  4.64400000E+00  3.89300000E+02  1.10000000E+02  3.55700000E+01
  1.25400000E+01  4.64400000E+00  5.11800000E-01  1.29300000E+00  1.78700000E-01
  5.76000000E-02  2.66300000E+01  5.94800000E+00  1.74200000E+00  5.55000000E-01
  1.72500000E-01  4.91000000E-02  1.65400000E+00  4.69000000E-01  1.51000000E-01
  1.09300000E+00  3.64000000E-01  1.53300000E+04  2.29900000E+03  5.22400000E+02
  1.47300000E+02  4.75500000E+01  1.67600000E+01  6.20700000E+00  5.22400000E+02
  1.47300000E+02  4.75500000E+01  1.67600000E+01  6.20700000E+00  6.88200000E-01
  1.75200000E+00  2.38400000E-01  7.37600000E-02  3.44600000E+01  7.74900000E+00
  2.28000000E+00  7.15600000E-01  2.14000000E-01  5.97400000E-02  2.31400000E+00
  6.45000000E-01  2.14000000E-01  1.42800000E+00  5.00000000E-01
Contraction coefficients                   R   N=         119
  2.54948632E-02  1.90362766E-01  8.52162022E-01  1.00000000E+00  1.00000000E+00
  1.00000000E+00  1.00000000E+00  1.00000000E+00  1.00000000E+00  1.00000000E+00
  1.00000000E+00  5.19808943E-04  4.02025621E-03  2.07128267E-02  8.10105536E-02
  2.35962985E-01  4.42653446E-01  3.57064423E-01 -4.42115008E-05 -1.22591041E-03
 -1.05517725E-02 -6.74452633E-02 -1.71198607E-01  1.07329856E+00  1.00000000E+00
  1.00000000E+00  1.00000000E+00  4.11634896E-02  2.57762836E-01  8.02419274E-01
  1.00000000E+00  1.00000000E+00  1.00000000E+00  1.00000000E+00  1.00000000E+00
  1.00000000E+00  1.00000000E+00  1.00000000E+00  5.19808943E-04  4.02025621E-03
  2.07128267E-02  8.10105536E-02  2.35962985E-01  4.42653446E-01  3.57064423E-01
 -4.42115008E-05 -1.22591041E-03 -1.05517725E-02 -6.74452633E-02 -1.71198607E-01
  1.07329856E+00  1.00000000E+00  1.00000000E+00  1.00000000E+00  4.11634896E-02
  2.57762836E-01  8.02419274E-01  1.00000000E+00  1.00000000E+00  1.00000000E+00
  1.00000000E+00  1.00000000E+00  1.00000000E+00  1.00000000E+00  1.00000000E+00
  5.34563860E-04  4.13435660E-03  2.12335358E-02  8.25006224E-02  2.38138871E-01
  4.42551547E-01  3.53757422E-01 -4.89867350E-05 -1.19527323E-03 -1.03490714E-02
 -6.48680190E-02 -1.71552477E-01  1.07289568E+00  1.00000000E+00  1.00000000E+00
  1.00000000E+00  3.98072123E-02  2.49002660E-01  8.10479727E-01  1.00000000E+00
  1.00000000E+00  1.00000000E+00  1.00000000E+00  1.00000000E+00  1.00000000E+00
  1.00000000E+00  1.00000000E+00  5.19808943E-04  4.02025621E-03  2.07128267E-02
  8.10105536E-02  2.35962985E-01  4.42653446E-01  3.57064423E-01 -4.42115008E-05
 -1.22591041E-03 -1.05517725E-02 -6.74452633E-02 -1.71198607E-01  1.07329856E+00
  1.00000000E+00  1.00000000E+00  1.00000000E+00  4.11634896E-02  2.57762836E-01
  8.02419274E-01  1.00000000E+00  1.00000000E+00  1.00000000E+00  1.00000000E+00
  1.00000000E+00  1.00000000E+00  1.00000000E+00  1.00000000E+00
Coordinates of each shell                  R   N=         195
  2.93096059E+00  3.17006536E+00 -1.17923994E-31  2.93096059E+00  3.17006536E+00
 -1.17923994E-31  2.93096059E+00  3.17006536E+00 -1.17923994E-31  2.93096059E+00
  3.17006536E+00 -1.17923994E-31  2.93096059E+00  3.17006536E+00 -1.17923994E-31
  2.93096059E+00  3.17006536E+00 -1.17923994E-31  2.93096059E+00  3.17006536E+00
 -1.17923994E-31  2.93096059E+00  3.17006536E+00 -1.17923994E-31  2.93096059E+00
  3.17006536E+00 -1.17923994E-31  2.74795204E+00  1.34813525E+00 -8.06853164E-32
  2.74795204E+00  1.34813525E+00 -8.06853164E-32  2.74795204E+00  1.34813525E+00
 -8.06853164E-32  2.74795204E+00  1.34813525E+00 -8.06853164E-32  2.74795204E+00
  1.34813525E+00 -8.06853164E-32  2.74795204E+00  1.34813525E+00 -8.06853164E-32
  2.74795204E+00  1.34813525E+00 -8.06853164E-32  2.74795204E+00  1.34813525E+00
 -8.06853164E-32  2.74795204E+00  1.34813525E+00 -8.06853164E-32  2.74795204E+00
  1.34813525E+00 -8.06853164E-32  2.74795204E+00  1.34813525E+00 -8.06853164E-32
  2.74795204E+00  1.34813525E+00 -8.06853164E-32  2.74795204E+00  1.34813525E+00
 -8.06853164E-32  2.74795204E+00  1.34813525E+00 -8.06853164E-32 -7.10981966E-18
  1.25894654E+00 -2.31600253E-32 -7.10981966E-18  1.25894654E+00 -2.31600253E-32
 -7.10981966E-18  1.25894654E+00 -2.31600253E-32 -7.10981966E-18  1.25894654E+00
 -2.31600253E-32 -7.10981966E-18  1.25894654E+00 -2.31600253E-32 -7.10981966E-18
  1.25894654E+00 -2.31600253E-32 -7.10981966E-18  1.25894654E+00 -2.31600253E-32
 -7.10981966E-18  1.25894654E+00 -2.31600253E-32 -7.10981966E-18  1.25894654E+00
 -2.31600253E-32 -7.10981966E-18  1.25894654E+00 -2.31600253E-32 -7.10981966E-18
  1.25894654E+00 -2.31600253E-32 -7.10981966E-18  1.25894654E+00 -2.31600253E-32
 -7.10981966E-18  1.25894654E+00 -2.31600253E-32 -7.10981966E-18  1.25894654E+00
 -2.31600253E-32 -4.94410334E-01 -1.42471001E+00  3.62641915E-32 -4.94410334E-01
 -1.42471001E+00  3.62641915E-32 -4.94410334E-01 -1.42471001E+00  3.62641915E-32
 -4.94410334E-01 -1.42471001E+00  3.62641915E-32 -4.94410334E-01 -1.42471001E+00
  3.62641915E-32 -4.94410334E-01 -1.42471001E+00  3.62641915E-32 -4.94410334E-01
 -1.42471001E+00  3.62641915E-32 -4.94410334E-01 -1.42471001E+00  3.62641915E-32
 -4.94410334E-01 -1.42471001E+00  3.62641915E-32 -4.94410334E-01 -1.42471001E+00
  3.62641915E-32 -4.94410334E-01 -1.42471001E+00  3.62641915E-32 -4.94410334E-01
 -1.42471001E+00  3.62641915E-32 -4.94410334E-01 -1.42471001E+00  3.62641915E-32
 -4.94410334E-01 -1.42471001E+00  3.62641915E-32 -2.68171307E+00 -1.75671870E+00
  8.68546733E-32 -2.68171307E+00 -1.75671870E+00  8.68546733E-32 -2.68171307E+00
 -1.75671870E+00  8.68546733E-32 -2.68171307E+00 -1.75671870E+00  8.68546733E-32
 -2.68171307E+00 -1.75671870E+00  8.68546733E-32 -2.68171307E+00 -1.75671870E+00
  8.68546733E-32 -2.68171307E+00 -1.75671870E+00  8.68546733E-32 -2.68171307E+00
 -1.75671870E+00  8.68546733E-32 -2.68171307E+00 -1.75671870E+00  8.68546733E-32
 -2.68171307E+00 -1.75671870E+00  8.68546733E-32 -2.68171307E+00 -1.75671870E+00
  8.68546733E-32 -2.68171307E+00 -1.75671870E+00  8.68546733E-32 -2.68171307E+00
 -1.75671870E+00  8.68546733E-32 -2.68171307E+00 -1.75671870E+00  8.68546733E-32
Num ILSW                                   I              100
ILSW                                       I   N=         100
           0           0           0           0           2           0
           0           0           0           0           0          -1
           5           0           0           0           0           0
           0           0           0           0           0           0
           1           0           0           0           0           0
           0           0      100000           0          -1           0
           0           0           0           0           0           0
           0           0           0           1           0           0
           0 -2000000000           1           0           0           0
           0           0           4          52           0           0
           0           0           0           0           0           0
           0           0           0           5           0           1
           0           0           0           0           0           0
           0           0           0           0           0           0
           0           0           0           0           0           0
           0           0           0           0           0           0
           0           0           0           0
Num RLSW                                   I               52
RLSW                                       R   N=          52
  1.00000000E+00  1.00000000E+00  1.00000000E+00  1.00000000E+00  1.00000000E+00
  0.00000000E+00  0.00000000E+00  1.00000000E+00  0.00000000E+00  0.00000000E+00
  0.00000000E+00  0.00000000E+00  1.00000000E+00  0.00000000E+00  0.00000000E+00
  0.00000000E+00  0.00000000E+00  1.00000000E+00  0.00000000E+00  0.00000000E+00
  0.00000000E+00  0.00000000E+00  1.00000000E+00  0.00000000E+00  0.00000000E+00
  0.00000000E+00  0.00000000E+00  1.00000000E+00  0.00000000E+00  0.00000000E+00
  0.00000000E+00  0.00000000E+00  1.00000000E+00  0.00000000E+00  0.00000000E+00
  0.00000000E+00  0.00000000E+00  0.00000000E+00  1.00000000E+00  1.00000000E+00
  0.00000000E+00  1.00000000E+00  0.00000000E+00  0.00000000E+00  0.00000000E+00
  0.00000000E+00  0.00000000E+00  0.00000000E+00  0.00000000E+00  0.00000000E+00
  0.00000000E+00  0.00000000E+00
MxBond                                     I                2
NBond                                      I   N=           5
           1           2           2           2           1
IBond                                      I   N=          10
           2           0           1           3           2           4
           3           5           4           0
RBond                                      R   N=          10
  1.00000000E+00  0.00000000E+00  1.00000000E+00  1.00000000E+00  1.00000000E+00
  1.00000000E+00  1.00000000E+00  2.00000000E+00  2.00000000E+00  0.00000000E+00
Virial Ratio                               R      2.002270358198445E+00
SCF Energy                                 R     -2.795030533090286E+02
MP2 Energy                                 R     -2.804466899111631E+02
Total Energy                               R     -2.804466899111631E+02
Post-SCF wavefunction norm                 R      1.119607813391173E+00
RMS Density                                R      3.597267917093437E-09
Job Status                                 I                1
Nuclear derivative order                   I                0
External E-field                           R   N=          35
  0.00000000E+00  0.00000000E+00  0.00000000E+00  0.00000000E+00  0.00000000E+00
  0.00000000E+00  0.00000000E+00  0.00000000E+00  0.00000000E+00  0.00000000E+00
  0.00000000E+00  0.00000000E+00  0.00000000E+00  0.00000000E+00  0.00000000E+00
  0.00000000E+00  0.00000000E+00  0.00000000E+00  0.00000000E+00  0.00000000E+00
  0.00000000E+00  0.00000000E+00  0.00000000E+00  0.00000000E+00  0.00000000E+00
  0.00000000E+00  0.00000000E+00  0.00000000E+00  0.00000000E+00  0.00000000E+00
  0.00000000E+00  0.00000000E+00  0.00000000E+00  0.00000000E+00  0.00000000E+00
IOpCl                                      I                0
IROHF                                      I                0
Alpha Orbital Energies                     R   N=         207
 -2.06933799E+01 -2.06807798E+01 -2.06617832E+01 -1.58104704E+01 -1.62495796E+00
 -1.49776840E+00 -1.25886415E+00 -9.46988499E-01 -7.73982701E-01 -7.60964543E-01
 -7.14408534E-01 -6.78610816E-01 -6.19684982E-01 -5.90195760E-01 -4.86720203E-01
 -4.73067460E-01  2.92214530E-02  7.35807847E-02  8.62084492E-02  1.01877562E-01
  1.33829496E-01  1.34024352E-01  1.43777639E-01  1.54242470E-01  1.77933426E-01
  1.94202250E-01  1.99884696E-01  2.08210054E-01  2.20376127E-01  2.34760291E-01
  2.37562623E-01  2.66143384E-01  2.98744279E-01  3.03563430E-01  3.11747256E-01
  3.44546106E-01  3.50378790E-01  3.87901784E-01  4.21443798E-01  4.31156621E-01
  5.28047395E-01  5.29865072E-01  5.60145667E-01  5.82446680E-01  6.27021661E-01
  6.39166600E-01  6.74906843E-01  6.84408800E-01  7.05841462E-01  7.10812887E-01
  7.23942620E-01  7.28395452E-01  7.44174691E-01  7.91514311E-01  7.92508103E-01
  8.10903497E-01  8.11687677E-01  8.31331872E-01  8.69329031E-01  9.08348296E-01
  9.21396468E-01  9.27403149E-01  9.55206383E-01  9.79596996E-01  9.84051563E-01
  1.01525438E+00  1.05267213E+00  1.05555925E+00  1.08375443E+00  1.11878837E+00
  1.14271813E+00  1.19026004E+00  1.22118316E+00  1.23305915E+00  1.34052762E+00
  1.35323357E+00  1.38457196E+00  1.45574140E+00  1.48788176E+00  1.50829930E+00
  1.53900153E+00  1.56866589E+00  1.58259422E+00  1.61401101E+00  1.66524090E+00
  1.66984182E+00  1.70467647E+00  1.79326582E+00  1.83208942E+00  1.83724692E+00
  1.87795596E+00  1.91197159E+00  1.95632601E+00  1.99513299E+00  2.00704294E+00
  2.08247867E+00  2.12261242E+00  2.13408216E+00  2.14792281E+00  2.22733243E+00
  2.26356348E+00  2.26484795E+00  2.29197877E+00  2.31475537E+00  2.34777647E+00
  2.38604172E+00  2.42659292E+00  2.43225665E+00  2.45604564E+00  2.46459365E+00
  2.47910046E+00  2.50356622E+00  2.58814846E+00  2.59779939E+00  2.62455354E+00
  2.62593818E+00  2.63345463E+00  2.66927247E+00  2.76000189E+00  2.83148047E+00
  2.86213081E+00  2.88970092E+00  2.89306427E+00  2.93621621E+00  2.95878634E+00
  3.03078197E+00  3.07384153E+00  3.12635833E+00  3.20266910E+00  3.22993004E+00
  3.31929650E+00  3.34592775E+00  3.51937687E+00  3.64899561E+00  3.84543973E+00
  3.84828320E+00  4.14879653E+00  4.15986922E+00  4.18607848E+00  4.26418250E+00
  4.35151705E+00  4.39378535E+00  4.46245308E+00  4.52100759E+00  4.66714343E+00
  4.71261918E+00  4.80795815E+00  4.82690971E+00  4.83632862E+00  4.89724892E+00
  5.02819473E+00  5.08191750E+00  5.10898598E+00  5.14382024E+00  5.18324493E+00
  5.24636895E+00  5.27737387E+00  5.31143159E+00  5.33106357E+00  5.36137352E+00
  5.60993615E+00  5.67633276E+00  5.77803792E+00  5.82799043E+00  5.96182521E+00
  6.17495345E+00  6.30895739E+00  6.34422866E+00  6.39764439E+00  6.49711901E+00
  6.50856421E+00  6.61433510E+00  6.66726232E+00  6.70492144E+00  6.75614600E+00
  6.76317896E+00  6.83680981E+00  6.90324489E+00  7.01746757E+00  7.05566668E+00
  7.05877779E+00  7.08992039E+00  7.12895811E+00  7.15386691E+00  7.18216750E+00
  7.23173943E+00  7.24081219E+00  7.30468170E+00  7.32769773E+00  7.35145524E+00
  7.40386282E+00  7.43852079E+00  7.48850717E+00  7.61062471E+00  7.62426468E+00
  7.63990307E+00  7.67409799E+00  7.79500262E+00  7.89097239E+00  8.11051619E+00
  8.32110321E+00  8.40917345E+00  8.55150696E+00  1.34300042E+01  1.44758196E+01
  1.51745042E+01  1.61817472E+01
Alpha MO coefficients                      R   N=       42849
  9.10314625E-05 -6.18401879E-04 -7.03400727E-04 -4.25497798E-06 -2.04850106E-05
 -2.69962226E-05  0.00000000E+00 -3.98159929E-05  5.35018333E-05  0.00000000E+00
  8.59526539E-05  2.85995596E-05  0.00000000E+00  3.13869064E-05  0.00000000E+00
  0.00000000E+00 -5.04019926E-05  2.03756896E-05 -5.62386488E-06  0.00000000E+00
  0.00000000E+00 -1.37794997E-04  1.18361865E-04  4.48209431E-03 -2.83460891E-04
  1.07256030E-05  1.56762074E-03  1.82142272E-03  1.06253718E-04  7.11509865E-06
  0.00000000E+00 -6.18576741E-04 -3.58022500E-05  0.00000000E+00 -1.12927240E-03
  7.81514118E-04  0.00000000E+00 -4.06040400E-04  6.19437843E-05  0.00000000E+00
  2.89095248E-05  0.00000000E+00  0.00000000E+00 -5.37846328E-05  6.50198477E-06
 -3.78099321E-04  0.00000000E+00  0.00000000E+00  7.40059372E-04 -3.88042013E-05
 -4.45819909E-04  0.00000000E+00  0.00000000E+00  2.52774848E-04 -2.20651456E-05
  0.00000000E+00  7.99207866E-05  1.25278457E-05  0.00000000E+00  0.00000000E+00
 -1.09443039E-04 -2.78212068E-06  0.00000000E+00  2.54883968E-04 -2.81849832E-05
  0.00000000E+00  0.00000000E+00 -3.49639320E-04  5.45197217E-05  9.76904699E-01
 -9.22567416E-03  4.33384639E-02  1.91786976E-03 -9.73317521E-04  1.48406704E-03
 -1.38944930E-03  0.00000000E+00 -1.41816026E-03  1.43531164E-03  0.00000000E+00
  6.12184690E-05 -1.12115769E-03  0.00000000E+00 -1.34473838E-04 -3.36822893E-06
  0.00000000E+00  4.22132736E-05  0.00000000E+00  0.00000000E+00 -3.91359320E-05
  2.26980027E-05  7.60630972E-04  0.00000000E+00  0.00000000E+00 -2.11007468E-04
 -3.99287650E-04 -3.48723060E-04  0.00000000E+00  0.00000000E+00 -3.13193400E-04
 -3.78235436E-04  0.00000000E+00  4.60872385E-05 -5.04950664E-05  0.00000000E+00
  0.00000000E+00 -3.97984476E-05 -1.63656540E-05  0.00000000E+00  2.56088582E-05
  1.54655668E-05  0.00000000E+00  0.00000000E+00 -3.09330759E-04 -1.48202458E-04
  4.51464527E-05  8.38649512E-05 -2.76992894E-04 -6.62638309E-04 -1.27504141E-04
 -2.72547609E-05 -9.97223890E-05  0.00000000E+00  2.79014174E-04  7.82062591E-04
  0.00000000E+00 -8.18200975E-04 -3.98491364E-04  0.00000000E+00 -1.24397421E-04
 -1.99640761E-05  0.00000000E+00 -2.43460427E-05  0.00000000E+00  0.00000000E+00
 -4.07324466E-05  1.86408722E-05 -3.44354469E-04  0.00000000E+00  0.00000000E+00
 -8.52373603E-04  1.31967194E-04 -4.22479709E-05  0.00000000E+00  0.00000000E+00
  8.82296014E-05 -1.24330964E-04  0.00000000E+00 -2.11838942E-05 -1.22096670E-04
  0.00000000E+00  0.00000000E+00 -6.59054405E-05 -1.38046556E-04  0.00000000E+00
 -1.36904292E-06 -1.58610708E-04  0.00000000E+00  0.00000000E+00  3.00481226E-05
 -4.11644666E-04 -1.36107250E-03  1.05374262E-04 -6.82084511E-05 -2.16512555E-04
  1.56743402E-04 -5.75890835E-06 -2.53554323E-05  0.00000000E+00  6.87094234E-05
  1.54471995E-04  0.00000000E+00  2.53998812E-04  1.74735225E-04  0.00000000E+00
  1.33365807E-04  2.43394020E-05  0.00000000E+00 -3.00307639E-06  0.00000000E+00
  0.00000000E+00 -1.80808672E-05  1.77451428E-06 -1.14205198E-06  0.00000000E+00
  0.00000000E+00  8.41915640E-05  7.83924973E-05 -1.03721354E-04  0.00000000E+00
  0.00000000E+00  1.72392285E-04  1.51996894E-04  0.00000000E+00  1.64248375E-05
 -2.42595205E-06  0.00000000E+00  0.00000000E+00 -2.35850887E-06 -1.32586855E-05
  0.00000000E+00 -3.62733587E-05  4.41304436E-05  0.00000000E+00  0.00000000E+00
  8.37666407E-05  8.66672088E-05  3.95998616E-05 -9.96086939E-04 -4.85545761E-04
 -9.56098204E-06 -2.16174308E-05  1.56941099E-05  0.00000000E+00 -2.02365304E-06
  2.74025711E-04  0.00000000E+00 -4.35022749E-05  1.33283725E-04  0.00000000E+00
  2.60680191E-05  0.00000000E+00  0.00000000E+00  1.20229418E-05  1.13735877E-05
 -2.94574396E-05  0.00000000E+00  0.00000000E+00  1.33213602E-05  3.70681694E-05
  1.33265043E-04  8.39981315E-05 -2.71913477E-05  7.72322558E-04  6.60942732E-04
  1.04468944E-05  2.59265065E-06  0.00000000E+00 -7.51187993E-05  1.41179938E-05
  0.00000000E+00  3.32094042E-04  9.23340849E-04  0.00000000E+00  2.23620639E-06
  8.38405794E-05  0.00000000E+00 -2.31555771E-06  0.00000000E+00  0.00000000E+00
 -1.74884183E-07 -5.54442507E-06 -3.58576737E-05  0.00000000E+00  0.00000000E+00
 -1.80033626E-05  8.15180749E-05 -2.29913002E-05  0.00000000E+00  0.00000000E+00
 -2.69970586E-04 -1.72679145E-04  0.00000000E+00  9.22739118E-06  6.22982613E-06
  0.00000000E+00  0.00000000E+00  2.44665011E-06 -1.88745467E-05  0.00000000E+00
 -4.05448384E-05 -3.94075833E-05  0.00000000E+00  0.00000000E+00 -7.78900716E-05
  2.36810621E-05  1.39869413E-03  5.06271007E-05  3.79761346E-05 -5.34936390E-05
 -4.53690050E-04  4.19021191E-06  1.73862597E-05  0.00000000E+00 -5.75417041E-05
 -5.99868513E-05  0.00000000E+00  2.21263927E-04 -2.46622023E-04  0.00000000E+00
 -1.95067441E-04 -7.44070143E-05  0.00000000E+00 -9.07676639E-06  0.00000000E+00
  0.00000000E+00  2.37073113E-05  2.08551910E-05  3.92705225E-06  0.00000000E+00
  0.00000000E+00 -1.27550177E-04 -5.31523198E-05 -6.45493818E-06  0.00000000E+00
  0.00000000E+00 -2.45349154E-04 -2.16571934E-04  0.00000000E+00  1.78851280E-06
 -1.43749679E-06  0.00000000E+00  0.00000000E+00 -1.65994974E-07 -1.09984408E-05
  0.00000000E+00 -4.47280419E-05  6.76567079E-06  0.00000000E+00  0.00000000E+00
 -7.59542637E-05  1.89782943E-04  2.57586596E-04  1.46274557E-03 -7.49633149E-05
 -1.59365693E-03  3.75966452E-04 -1.43315052E-04  1.15921832E-06  0.00000000E+00
 -2.10622989E-03 -4.11929354E-04  0.00000000E+00  1.05206785E-03  7.53237943E-04
  0.00000000E+00 -1.68658260E-04  5.40711298E-05  0.00000000E+00 -1.23227872E-04
  0.00000000E+00  0.00000000E+00  2.44738357E-04  9.39101360E-05 -4.39422871E-04
  0.00000000E+00  0.00000000E+00  9.03038297E-04 -8.42290294E-05  1.56494575E-05
  0.00000000E+00  0.00000000E+00 -3.41350985E-04 -1.29487643E-04  0.00000000E+00
 -4.17753900E-07  1.58267697E-05  0.00000000E+00  0.00000000E+00  2.01398639E-05
  1.35892611E-05  0.00000000E+00  1.62008213E-04 -7.41087103E-05  0.00000000E+00
  0.00000000E+00 -2.34957831E-04  5.07737343E-05  9.76648285E-01 -9.84520766E-03
  4.35764047E-02  4.52003797E-03 -4.41516792E-04  2.15158486E-03  4.79833245E-04
  0.00000000E+00 -2.38604299E-03 -6.04574656E-04  0.00000000E+00  1.13609249E-03
 -1.18777048E-05  0.00000000E+00  4.85202270E-06 -4.43346150E-05  0.00000000E+00
 -2.32516821E-04  0.00000000E+00  0.00000000E+00  1.01900287E-04  3.23484380E-05
  3.93273245E-04  0.00000000E+00  0.00000000E+00 -8.38637193E-04 -4.20924474E-04
 -1.51088547E-04  0.00000000E+00  0.00000000E+00  2.51369575E-04  1.16039464E-05
  0.00000000E+00  5.24857435E-05  1.77146190E-05  0.00000000E+00  0.00000000E+00
 -2.18854106E-05 -1.30856012E-05  0.00000000E+00  1.40233644E-04  9.22147373E-06
  0.00000000E+00  0.00000000E+00 -1.91600317E-04 -1.42278165E-04  4.74586057E-04
  2.08484164E-03  1.33937105E-04  1.57691056E-05 -4.12296768E-05 -2.47456401E-04
  0.00000000E+00  1.07452782E-04 -1.28360701E-03  0.00000000E+00  3.11544833E-04
 -3.45836348E-04  0.00000000E+00 -3.28794086E-06  0.00000000E+00  0.00000000E+00
  7.55097469E-05  1.52917245E-05 -1.60585757E-04  0.00000000E+00  0.00000000E+00
 -5.37574299E-04 -2.14358570E-05  9.76830466E-01 -9.16570720E-03  4.34503667E-02
  1.47562025E-04 -1.16544067E-03 -1.56105820E-03  1.44774627E-03  0.00000000E+00
  1.57431489E-03 -1.29209305E-03  0.00000000E+00 -5.75348165E-04 -8.85383515E-04
  0.00000000E+00  5.67852751E-05 -3.64607866E-05  0.00000000E+00  2.96046162E-05
  0.00000000E+00  0.00000000E+00 -1.18525195E-04 -2.06925476E-06  7.59673967E-04
  0.00000000E+00  0.00000000E+00 -2.03893310E-04 -2.35157813E-04 -2.63080592E-04
  0.00000000E+00  0.00000000E+00  1.71071492E-04  1.27729886E-04  0.00000000E+00
 -6.41227874E-05  1.43110270E-06  0.00000000E+00  0.00000000E+00  1.88294651E-05
  9.64377066E-06  0.00000000E+00 -1.82171723E-06  1.23580892E-04  0.00000000E+00
  0.00000000E+00  2.60139678E-04  9.12938265E-05 -4.57574877E-03 -2.18251027E-04