 Entering Gaussian System, Link 0=g16
 Input=hoono_r2_1p464443.gjf
 Output=hoono_r2_1p464443.log
 Initial command:
 /sw/contrib/gaussian/g16/B01/g16/l1.exe "/scr/Gau-3419.inp" -scrdir="/scr/"
 Entering Link 1 = /sw/contrib/gaussian/g16/B01/g16/l1.exe PID=      3420.
  
 Copyright (c) 1988-2017, Gaussian, Inc.  All Rights Reserved.
  
 This is part of the Gaussian(R) 16 program.  It is based on
 the Gaussian(R) 09 system (copyright 2009, Gaussian, Inc.),
 the Gaussian(R) 03 system (copyright 2003, Gaussian, Inc.),
 the Gaussian(R) 98 system (copyright 1998, Gaussian, Inc.),
 the Gaussian(R) 94 system (copyright 1995, Gaussian, Inc.),
 the Gaussian 92(TM) system (copyright 1992, Gaussian, Inc.),
 the Gaussian 90(TM) system (copyright 1990, Gaussian, Inc.),
 the Gaussian 88(TM) system (copyright 1988, Gaussian, Inc.),
 the Gaussian 86(TM) system (copyright 1986, Carnegie Mellon
 University), and the Gaussian 82(TM) system (copyright 1983,
 Carnegie Mellon University). Gaussian is a federally registered
 trademark of Gaussian, Inc.
  
 This software contains proprietary and confidential information,
 including trade secrets, belonging to Gaussian, Inc.
  
 This software is provided under written license and may be
 used, copied, transmitted, or stored only in accord with that
 written license.
  
 The following legend is applicable only to US Government
 contracts under FAR:
  
                    RESTRICTED RIGHTS LEGEND
  
 Use, reproduction and disclosure by the US Government is
 subject to restrictions as set forth in subparagraphs (a)
 and (c) of the Commercial Computer Software - Restricted
 Rights clause in FAR 52.227-19.
  
 Gaussian, Inc.
 340 Quinnipiac St., Bldg. 40, Wallingford CT 06492
  
  
 ---------------------------------------------------------------
 Warning -- This program may not be used in any manner that
 competes with the business of Gaussian, Inc. or will provide
 assistance to any competitor of Gaussian, Inc.  The licensee
 of this program is prohibited from giving any competitor of
 Gaussian, Inc. access to this program.  By using this program,
 the user acknowledges that Gaussian, Inc. is engaged in the
 business of creating and licensing software in the field of
 computational chemistry and represents and warrants to the
 licensee that it is not a competitor of Gaussian, Inc. and that
 it will not use this program in any manner prohibited above.
 ---------------------------------------------------------------
  

 Cite this work as:
 Gaussian 16, Revision B.01,
 M. J. Frisch, G. W. Trucks, H. B. Schlegel, G. E. Scuseria, 
 M. A. Robb, J. R. Cheeseman, G. Scalmani, V. Barone, 
 G. A. Petersson, H. Nakatsuji, X. Li, M. Caricato, A. V. Marenich, 
 J. Bloino, B. G. Janesko, R. Gomperts, B. Mennucci, H. P. Hratchian, 
 J. V. Ortiz, A. F. Izmaylov, J. L. Sonnenberg, D. Williams-Young, 
 F. Ding, F. Lipparini, F. Egidi, J. Goings, B. Peng, A. Petrone, 
 T. Henderson, D. Ranasinghe, V. G. Zakrzewski, J. Gao, N. Rega, 
 G. Zheng, W. Liang, M. Hada, M. Ehara, K. Toyota, R. Fukuda, 
 J. Hasegawa, M. Ishida, T. Nakajima, Y. Honda, O. Kitao, H. Nakai, 
 T. Vreven, K. Throssell, J. A. Montgomery, Jr., J. E. Peralta, 
 F. Ogliaro, M. J. Bearpark, J. J. Heyd, E. N. Brothers, K. N. Kudin, 
 V. N. Staroverov, T. A. Keith, R. Kobayashi, J. Normand, 
 K. Raghavachari, A. P. Rendell, J. C. Burant, S. S. Iyengar, 
 J. Tomasi, M. Cossi, J. M. Millam, M. Klene, C. Adamo, R. Cammi, 
 J. W. Ochterski, R. L. Martin, K. Morokuma, O. Farkas, 
 J. B. Foresman, and D. J. Fox, Gaussian, Inc., Wallingford CT, 2016.
 
 ******************************************
 Gaussian 16:  ES64L-G16RevB.01 20-Dec-2017
                14-Feb-2022 
 ******************************************
 %nproc=28
 Will use up to   28 processors via shared memory.
 %mem=120GB
 %chk=hoono_r2_1p464443.chk
 -------------------------------------
 #p SP mp2/aug-cc-pvtz density=current
 -------------------------------------
 1/30=1,38=1,172=1/1;
 2/12=2,17=6,18=5,40=1/2;
 3/5=16,6=1,7=10,11=9,25=1,30=1,71=1/1,2,3;
 4//1;
 5/5=2,38=5/2;
 8/6=4,10=1/1;
 9/15=1,16=-3/6;
 10/5=1,13=10/2;
 6/7=2,8=2,9=2,10=2,22=-1/1;
 99/5=1,9=1/99;
 Leave Link    1 at Mon Feb 14 12:42:04 2022, MaxMem= 16106127360 cpu:              10.0 elap:               0.4
 (Enter /sw/contrib/gaussian/g16/B01/g16/l101.exe)
 -----
 title
 -----
 Symbolic Z-matrix:
 Charge =  0 Multiplicity = 1
 H
 O                    1    r1
 O                    2    r2       1    a1
 N                    3    r3       2    a2       1    d1       0
 O                    4    r4       3    a3       2    d2       0
       Variables:
  r1                    0.96898                  
  r2                    1.46444                  
  r3                    1.45878                  
  r4                    1.17073                  
  a1                   97.59495                  
  a2                  102.29752                  
  a3                  109.06955                  
  d1                  180.                       
  d2                  180.                       
 
 ITRead=  0  0  0  0  0
 MicOpt= -1 -1 -1 -1 -1
 NAtoms=      5 NQM=        5 NQMF=       0 NMMI=      0 NMMIF=      0
                NMic=       0 NMicF=      0.
                    Isotopes and Nuclear Properties:
 (Nuclear quadrupole moments (NQMom) in fm**2, nuclear magnetic moments (NMagM)
  in nuclear magnetons)

  Atom         1           2           3           4           5
 IAtWgt=           1          16          16          14          16
 AtmWgt=   1.0078250  15.9949146  15.9949146  14.0030740  15.9949146
 NucSpn=           1           0           0           2           0
 AtZEff=  -0.0000000  -0.0000000  -0.0000000  -0.0000000  -0.0000000
 NQMom=    0.0000000   0.0000000   0.0000000   2.0440000   0.0000000
 NMagM=    2.7928460   0.0000000   0.0000000   0.4037610   0.0000000
 AtZNuc=   1.0000000   8.0000000   8.0000000   7.0000000   8.0000000
 Leave Link  101 at Mon Feb 14 12:42:04 2022, MaxMem= 16106127360 cpu:               2.1 elap:               0.1
 (Enter /sw/contrib/gaussian/g16/B01/g16/l202.exe)
                          Input orientation:                          
 ---------------------------------------------------------------------
 Center     Atomic      Atomic             Coordinates (Angstroms)
 Number     Number       Type             X           Y           Z
 ---------------------------------------------------------------------
      1          1           0        0.000000    0.000000    0.000000
      2          8           0        0.000000    0.000000    0.968976
      3          8           0        1.451596    0.000000    1.162530
      4          7           0        1.571192    0.000000    2.616403
      5          8           0        2.705308    0.000000    2.906898
 ---------------------------------------------------------------------
                    Distance matrix (angstroms):
                    1          2          3          4          5
     1  H    0.000000
     2  O    0.968976   0.000000
     3  O    1.859733   1.464443   0.000000
     4  N    3.051919   2.276546   1.458784   0.000000
     5  O    3.970988   3.327797   2.148165   1.170729   0.000000
 Stoichiometry    HNO3
 Framework group  CS[SG(HNO3)]
 Deg. of freedom     7
 Full point group                 CS      NOp   2
 Largest Abelian subgroup         CS      NOp   2
 Largest concise Abelian subgroup C1      NOp   1
                         Standard orientation:                         
 ---------------------------------------------------------------------
 Center     Atomic      Atomic             Coordinates (Angstroms)
 Number     Number       Type             X           Y           Z
 ---------------------------------------------------------------------
      1          1           0        1.562654    1.681247    0.000000
      2          8           0        1.463770    0.717330    0.000000
      3          8           0        0.000000    0.672922   -0.000000
      4          7           0       -0.267339   -0.761156   -0.000000
      5          8           0       -1.425179   -0.934397   -0.000000
 ---------------------------------------------------------------------
 Rotational constants (GHZ):          54.7222620           4.9888028           4.5719931
 Leave Link  202 at Mon Feb 14 12:42:04 2022, MaxMem= 16106127360 cpu:               2.5 elap:               0.1
 (Enter /sw/contrib/gaussian/g16/B01/g16/l301.exe)
 Standard basis: Aug-CC-pVTZ (5D, 7F)
 Ernie: Thresh=  0.10000D-02 Tol=  0.10000D-05 Strict=F.
 Ernie:  12 primitive shells out of 131 were deleted.
 There are   166 symmetry adapted cartesian basis functions of A'  symmetry.
 There are    79 symmetry adapted cartesian basis functions of A"  symmetry.
 There are   136 symmetry adapted basis functions of A'  symmetry.
 There are    71 symmetry adapted basis functions of A"  symmetry.
   207 basis functions,   315 primitive gaussians,   245 cartesian basis functions
    16 alpha electrons       16 beta electrons
       nuclear repulsion energy       116.6379426977 Hartrees.
 IExCor=    0 DFT=F Ex=HF Corr=None ExCW=0 ScaHFX=  1.000000
 ScaDFX=  1.000000  1.000000  1.000000  1.000000 ScalE2=  1.000000  1.000000
 IRadAn=      5 IRanWt=     -1 IRanGd=            0 ICorTp=0 IEmpDi=  4
 NAtoms=    5 NActive=    5 NUniq=    5 SFac= 1.00D+00 NAtFMM=   60 NAOKFM=F Big=F
 Integral buffers will be    131072 words long.
 Raffenetti 1 integral format.
 Two-electron integral symmetry is turned on.
 Leave Link  301 at Mon Feb 14 12:42:04 2022, MaxMem= 16106127360 cpu:               1.1 elap:               0.1
 (Enter /sw/contrib/gaussian/g16/B01/g16/l302.exe)
 NPDir=0 NMtPBC=     1 NCelOv=     1 NCel=       1 NClECP=     1 NCelD=      1
         NCelK=      1 NCelE2=     1 NClLst=     1 CellRange=     0.0.
 One-electron integrals computed using PRISM.
 One-electron integral symmetry used in STVInt
 NBasis=   207 RedAO= T EigKep=  1.83D-04  NBF=   136    71
 NBsUse=   207 1.00D-06 EigRej= -1.00D+00 NBFU=   136    71
 Leave Link  302 at Mon Feb 14 12:42:04 2022, MaxMem= 16106127360 cpu:               4.2 elap:               0.2
 (Enter /sw/contrib/gaussian/g16/B01/g16/l303.exe)
 DipDrv:  MaxL=1.
 Leave Link  303 at Mon Feb 14 12:42:04 2022, MaxMem= 16106127360 cpu:               0.7 elap:               0.1
 (Enter /sw/contrib/gaussian/g16/B01/g16/l401.exe)
 ExpMin= 2.53D-02 ExpMax= 1.53D+04 ExpMxC= 5.22D+02 IAcc=3 IRadAn=         5 AccDes= 0.00D+00
 Harris functional with IExCor=  205 and IRadAn=       5 diagonalized for initial guess.
 HarFok:  IExCor=  205 AccDes= 0.00D+00 IRadAn=         5 IDoV= 1 UseB2=F ITyADJ=14
 ICtDFT=  3500011 ScaDFX=  1.000000  1.000000  1.000000  1.000000
 FoFCou: FMM=F IPFlag=           0 FMFlag=      100000 FMFlg1=           0
         NFxFlg=           0 DoJE=T BraDBF=F KetDBF=T FulRan=T
         wScrn=  0.000000 ICntrl=       500 IOpCl=  0 I1Cent=   200000004 NGrid=           0
         NMat0=    1 NMatS0=      1 NMatT0=    0 NMatD0=    1 NMtDS0=    0 NMtDT0=    0
 Petite list used in FoFCou.
 Harris En= -279.628261512539    
 JPrj=0 DoOrth=F DoCkMO=F.
 Initial guess orbital symmetries:
       Occupied  (A') (A') (A') (A') (A') (A') (A') (A') (A') (A')
                 (A") (A') (A') (A") (A") (A')
       Virtual   (A") (A') (A') (A') (A') (A') (A") (A') (A') (A')
                 (A") (A') (A") (A') (A') (A") (A') (A") (A') (A')
                 (A') (A') (A') (A') (A') (A") (A') (A") (A') (A')
                 (A") (A') (A") (A') (A') (A") (A') (A") (A') (A')
                 (A") (A') (A") (A') (A") (A') (A') (A') (A") (A")
                 (A') (A') (A') (A') (A") (A') (A") (A') (A") (A')
                 (A') (A') (A") (A') (A') (A") (A') (A") (A') (A')
                 (A") (A') (A') (A") (A") (A') (A') (A") (A') (A')
                 (A') (A") (A') (A") (A') (A") (A') (A") (A') (A')
                 (A') (A") (A') (A") (A') (A") (A") (A') (A') (A")
                 (A') (A') (A") (A') (A') (A') (A') (A") (A") (A')
                 (A") (A') (A') (A') (A") (A') (A') (A') (A") (A')
                 (A") (A') (A') (A") (A") (A') (A') (A") (A") (A')
                 (A') (A') (A') (A") (A") (A') (A") (A') (A') (A')
                 (A') (A") (A") (A') (A') (A") (A') (A') (A') (A')
                 (A') (A") (A') (A") (A') (A") (A') (A") (A") (A')
                 (A') (A") (A') (A") (A') (A") (A") (A") (A') (A')
                 (A") (A') (A") (A') (A") (A') (A") (A") (A') (A')
                 (A') (A') (A') (A') (A') (A') (A') (A') (A') (A')
                 (A')
 The electronic state of the initial guess is 1-A'.
 Leave Link  401 at Mon Feb 14 12:42:05 2022, MaxMem= 16106127360 cpu:               6.8 elap:               0.3
 (Enter /sw/contrib/gaussian/g16/B01/g16/l502.exe)
 Keep R1 ints in memory in symmetry-blocked form, NReq=348887737.
 FoFCou: FMM=F IPFlag=           0 FMFlag=           0 FMFlg1=           0
         NFxFlg=           0 DoJE=F BraDBF=F KetDBF=F FulRan=T
         wScrn=  0.000000 ICntrl=       600 IOpCl=  0 I1Cent=           0 NGrid=           0
         NMat0=    1 NMatS0=  21528 NMatT0=    0 NMatD0=    1 NMtDS0=    0 NMtDT0=    0
 Petite list used in FoFCou.
 Closed shell SCF:
 Using DIIS extrapolation, IDIIS=  1040.
 NGot= 16106127360 LenX= 15988850015 LenY= 15988789549
 Requested convergence on RMS density matrix=1.00D-08 within 128 cycles.
 Requested convergence on MAX density matrix=1.00D-06.
 Requested convergence on             energy=1.00D-06.
 No special actions if energy rises.

 Cycle   1  Pass 1  IDiag  1:
 E= -279.369372430488    
 DIIS: error= 2.85D-02 at cycle   1 NSaved=   1.
 NSaved= 1 IEnMin= 1 EnMin= -279.369372430488     IErMin= 1 ErrMin= 2.85D-02
 ErrMax= 2.85D-02  0.00D+00 EMaxC= 1.00D-01 BMatC= 4.38D-01 BMatP= 4.38D-01
 IDIUse=3 WtCom= 7.15D-01 WtEn= 2.85D-01
 Coeff-Com:  0.100D+01
 Coeff-En:   0.100D+01
 Coeff:      0.100D+01
 Gap=     0.515 Goal=   None    Shift=    0.000
 GapD=    0.515 DampG=2.000 DampE=0.500 DampFc=1.0000 IDamp=-1.
 RMSDP=1.62D-03 MaxDP=9.92D-02              OVMax= 1.14D-01

 Cycle   2  Pass 1  IDiag  1:
 E= -279.451018792163     Delta-E=       -0.081646361675 Rises=F Damp=F
 DIIS: error= 1.81D-02 at cycle   2 NSaved=   2.
 NSaved= 2 IEnMin= 2 EnMin= -279.451018792163     IErMin= 2 ErrMin= 1.81D-02
 ErrMax= 1.81D-02  0.00D+00 EMaxC= 1.00D-01 BMatC= 7.26D-02 BMatP= 4.38D-01
 IDIUse=3 WtCom= 8.19D-01 WtEn= 1.81D-01
 Coeff-Com:  0.196D+00 0.804D+00
 Coeff-En:   0.000D+00 0.100D+01
 Coeff:      0.161D+00 0.839D+00
 Gap=     0.530 Goal=   None    Shift=    0.000
 RMSDP=9.04D-04 MaxDP=3.73D-02 DE=-8.16D-02 OVMax= 6.98D-02

 Cycle   3  Pass 1  IDiag  1:
 E= -279.480412576822     Delta-E=       -0.029393784659 Rises=F Damp=F
 DIIS: error= 1.05D-02 at cycle   3 NSaved=   3.
 NSaved= 3 IEnMin= 3 EnMin= -279.480412576822     IErMin= 3 ErrMin= 1.05D-02
 ErrMax= 1.05D-02  0.00D+00 EMaxC= 1.00D-01 BMatC= 2.92D-02 BMatP= 7.26D-02
 IDIUse=3 WtCom= 8.95D-01 WtEn= 1.05D-01
 Coeff-Com: -0.331D-01 0.379D+00 0.654D+00
 Coeff-En:   0.000D+00 0.242D+00 0.758D+00
 Coeff:     -0.296D-01 0.364D+00 0.665D+00
 Gap=     0.511 Goal=   None    Shift=    0.000
 RMSDP=3.78D-04 MaxDP=1.52D-02 DE=-2.94D-02 OVMax= 3.84D-02

 Cycle   4  Pass 1  IDiag  1:
 E= -279.499781358166     Delta-E=       -0.019368781344 Rises=F Damp=F
 DIIS: error= 1.30D-03 at cycle   4 NSaved=   4.
 NSaved= 4 IEnMin= 4 EnMin= -279.499781358166     IErMin= 4 ErrMin= 1.30D-03
 ErrMax= 1.30D-03  0.00D+00 EMaxC= 1.00D-01 BMatC= 5.01D-04 BMatP= 2.92D-02
 IDIUse=3 WtCom= 9.87D-01 WtEn= 1.30D-02
 Coeff-Com: -0.118D-01 0.583D-01 0.160D+00 0.794D+00
 Coeff-En:   0.000D+00 0.000D+00 0.000D+00 0.100D+01
 Coeff:     -0.117D-01 0.575D-01 0.158D+00 0.796D+00
 Gap=     0.502 Goal=   None    Shift=    0.000
 RMSDP=9.03D-05 MaxDP=2.81D-03 DE=-1.94D-02 OVMax= 1.12D-02

 Cycle   5  Pass 1  IDiag  1:
 E= -279.500458921891     Delta-E=       -0.000677563725 Rises=F Damp=F
 DIIS: error= 7.42D-04 at cycle   5 NSaved=   5.
 NSaved= 5 IEnMin= 5 EnMin= -279.500458921891     IErMin= 5 ErrMin= 7.42D-04
 ErrMax= 7.42D-04  0.00D+00 EMaxC= 1.00D-01 BMatC= 8.76D-05 BMatP= 5.01D-04
 IDIUse=3 WtCom= 9.93D-01 WtEn= 7.42D-03
 Coeff-Com:  0.612D-02-0.722D-01-0.117D+00 0.234D-01 0.116D+01
 Coeff-En:   0.000D+00 0.000D+00 0.000D+00 0.000D+00 0.100D+01
 Coeff:      0.607D-02-0.717D-01-0.116D+00 0.233D-01 0.116D+01
 Gap=     0.502 Goal=   None    Shift=    0.000
 RMSDP=7.57D-05 MaxDP=2.09D-03 DE=-6.78D-04 OVMax= 1.10D-02

 Cycle   6  Pass 1  IDiag  1:
 E= -279.500772485264     Delta-E=       -0.000313563373 Rises=F Damp=F
 DIIS: error= 2.91D-04 at cycle   6 NSaved=   6.
 NSaved= 6 IEnMin= 6 EnMin= -279.500772485264     IErMin= 6 ErrMin= 2.91D-04
 ErrMax= 2.91D-04  0.00D+00 EMaxC= 1.00D-01 BMatC= 1.68D-05 BMatP= 8.76D-05
 IDIUse=3 WtCom= 9.97D-01 WtEn= 2.91D-03
 Coeff-Com:  0.718D-03 0.725D-04 0.181D-02-0.127D+00-0.210D+00 0.133D+01
 Coeff-En:   0.000D+00 0.000D+00 0.000D+00 0.000D+00 0.000D+00 0.100D+01
 Coeff:      0.716D-03 0.722D-04 0.181D-02-0.127D+00-0.209D+00 0.133D+01
 Gap=     0.502 Goal=   None    Shift=    0.000
 RMSDP=4.48D-05 MaxDP=1.24D-03 DE=-3.14D-04 OVMax= 5.46D-03

 Cycle   7  Pass 1  IDiag  1:
 E= -279.500844731821     Delta-E=       -0.000072246557 Rises=F Damp=F
 DIIS: error= 1.27D-04 at cycle   7 NSaved=   7.
 NSaved= 7 IEnMin= 7 EnMin= -279.500844731821     IErMin= 7 ErrMin= 1.27D-04
 ErrMax= 1.27D-04  0.00D+00 EMaxC= 1.00D-01 BMatC= 4.98D-06 BMatP= 1.68D-05
 IDIUse=3 WtCom= 9.99D-01 WtEn= 1.27D-03
 Coeff-Com: -0.942D-03 0.138D-01 0.268D-01-0.282D-01-0.299D+00 0.432D+00
 Coeff-Com:  0.856D+00
 Coeff-En:   0.000D+00 0.000D+00 0.000D+00 0.000D+00 0.000D+00 0.000D+00
 Coeff-En:   0.100D+01
 Coeff:     -0.941D-03 0.138D-01 0.268D-01-0.282D-01-0.299D+00 0.431D+00
 Coeff:      0.856D+00
 Gap=     0.503 Goal=   None    Shift=    0.000
 RMSDP=1.35D-05 MaxDP=3.82D-04 DE=-7.22D-05 OVMax= 1.57D-03

 Cycle   8  Pass 1  IDiag  1:
 E= -279.500854209731     Delta-E=       -0.000009477910 Rises=F Damp=F
 DIIS: error= 5.53D-05 at cycle   8 NSaved=   8.
 NSaved= 8 IEnMin= 8 EnMin= -279.500854209731     IErMin= 8 ErrMin= 5.53D-05
 ErrMax= 5.53D-05  0.00D+00 EMaxC= 1.00D-01 BMatC= 6.07D-07 BMatP= 4.98D-06
 IDIUse=1 WtCom= 1.00D+00 WtEn= 0.00D+00
 Coeff-Com: -0.448D-03 0.343D-02 0.755D-02 0.275D-01-0.409D-01-0.194D+00
 Coeff-Com:  0.126D+00 0.107D+01
 Coeff:     -0.448D-03 0.343D-02 0.755D-02 0.275D-01-0.409D-01-0.194D+00
 Coeff:      0.126D+00 0.107D+01
 Gap=     0.502 Goal=   None    Shift=    0.000
 RMSDP=7.19D-06 MaxDP=2.10D-04 DE=-9.48D-06 OVMax= 7.77D-04

 Cycle   9  Pass 1  IDiag  1:
 E= -279.500856086201     Delta-E=       -0.000001876470 Rises=F Damp=F
 DIIS: error= 1.58D-05 at cycle   9 NSaved=   9.
 NSaved= 9 IEnMin= 9 EnMin= -279.500856086201     IErMin= 9 ErrMin= 1.58D-05
 ErrMax= 1.58D-05  0.00D+00 EMaxC= 1.00D-01 BMatC= 6.77D-08 BMatP= 6.07D-07
 IDIUse=1 WtCom= 1.00D+00 WtEn= 0.00D+00
 Coeff-Com:  0.123D-03-0.172D-02-0.306D-02-0.198D-02 0.342D-01 0.162D-03
 Coeff-Com: -0.153D+00-0.125D+00 0.125D+01
 Coeff:      0.123D-03-0.172D-02-0.306D-02-0.198D-02 0.342D-01 0.162D-03
 Coeff:     -0.153D+00-0.125D+00 0.125D+01
 Gap=     0.502 Goal=   None    Shift=    0.000
 RMSDP=1.94D-06 MaxDP=6.63D-05 DE=-1.88D-06 OVMax= 1.74D-04

 Cycle  10  Pass 1  IDiag  1:
 E= -279.500856246163     Delta-E=       -0.000000159962 Rises=F Damp=F
 DIIS: error= 4.09D-06 at cycle  10 NSaved=  10.
 NSaved=10 IEnMin=10 EnMin= -279.500856246163     IErMin=10 ErrMin= 4.09D-06
 ErrMax= 4.09D-06  0.00D+00 EMaxC= 1.00D-01 BMatC= 5.54D-09 BMatP= 6.77D-08
 IDIUse=1 WtCom= 1.00D+00 WtEn= 0.00D+00
 Coeff-Com:  0.304D-04-0.235D-03-0.309D-03-0.267D-02 0.144D-02 0.194D-01
 Coeff-Com: -0.953D-02-0.766D-01-0.831D-01 0.115D+01
 Coeff:      0.304D-04-0.235D-03-0.309D-03-0.267D-02 0.144D-02 0.194D-01
 Coeff:     -0.953D-02-0.766D-01-0.831D-01 0.115D+01
 Gap=     0.502 Goal=   None    Shift=    0.000
 RMSDP=5.07D-07 MaxDP=2.11D-05 DE=-1.60D-07 OVMax= 4.14D-05

 Cycle  11  Pass 1  IDiag  1:
 E= -279.500856258712     Delta-E=       -0.000000012549 Rises=F Damp=F
 DIIS: error= 2.02D-06 at cycle  11 NSaved=  11.
 NSaved=11 IEnMin=11 EnMin= -279.500856258712     IErMin=11 ErrMin= 2.02D-06
 ErrMax= 2.02D-06  0.00D+00 EMaxC= 1.00D-01 BMatC= 6.54D-10 BMatP= 5.54D-09
 IDIUse=1 WtCom= 1.00D+00 WtEn= 0.00D+00
 Coeff-Com: -0.212D-04 0.244D-03 0.483D-03 0.517D-03-0.428D-02-0.340D-02
 Coeff-Com:  0.185D-01 0.341D-01-0.139D+00-0.178D+00 0.127D+01
 Coeff:     -0.212D-04 0.244D-03 0.483D-03 0.517D-03-0.428D-02-0.340D-02
 Coeff:      0.185D-01 0.341D-01-0.139D+00-0.178D+00 0.127D+01
 Gap=     0.502 Goal=   None    Shift=    0.000
 RMSDP=1.77D-07 MaxDP=6.48D-06 DE=-1.25D-08 OVMax= 1.74D-05

 Cycle  12  Pass 1  IDiag  1:
 E= -279.500856260505     Delta-E=       -0.000000001793 Rises=F Damp=F
 DIIS: error= 5.84D-07 at cycle  12 NSaved=  12.
 NSaved=12 IEnMin=12 EnMin= -279.500856260505     IErMin=12 ErrMin= 5.84D-07
 ErrMax= 5.84D-07  0.00D+00 EMaxC= 1.00D-01 BMatC= 7.16D-11 BMatP= 6.54D-10
 IDIUse=1 WtCom= 1.00D+00 WtEn= 0.00D+00
 Coeff-Com:  0.123D-05-0.291D-04-0.626D-04 0.186D-03 0.109D-02-0.228D-02
 Coeff-Com: -0.409D-02 0.523D-02 0.418D-01-0.115D+00-0.277D+00 0.135D+01
 Coeff:      0.123D-05-0.291D-04-0.626D-04 0.186D-03 0.109D-02-0.228D-02
 Coeff:     -0.409D-02 0.523D-02 0.418D-01-0.115D+00-0.277D+00 0.135D+01
 Gap=     0.502 Goal=   None    Shift=    0.000
 RMSDP=7.16D-08 MaxDP=2.83D-06 DE=-1.79D-09 OVMax= 6.73D-06

 Cycle  13  Pass 1  IDiag  1:
 E= -279.500856260735     Delta-E=       -0.000000000230 Rises=F Damp=F
 DIIS: error= 1.73D-07 at cycle  13 NSaved=  13.
 NSaved=13 IEnMin=13 EnMin= -279.500856260735     IErMin=13 ErrMin= 1.73D-07
 ErrMax= 1.73D-07  0.00D+00 EMaxC= 1.00D-01 BMatC= 4.07D-12 BMatP= 7.16D-11
 IDIUse=1 WtCom= 1.00D+00 WtEn= 0.00D+00
 Coeff-Com:  0.129D-05-0.141D-04-0.226D-04-0.883D-04 0.122D-03 0.744D-03
 Coeff-Com: -0.680D-03-0.342D-02 0.570D-03 0.414D-01-0.374D-01-0.325D+00
 Coeff-Com:  0.132D+01
 Coeff:      0.129D-05-0.141D-04-0.226D-04-0.883D-04 0.122D-03 0.744D-03
 Coeff:     -0.680D-03-0.342D-02 0.570D-03 0.414D-01-0.374D-01-0.325D+00
 Coeff:      0.132D+01
 Gap=     0.502 Goal=   None    Shift=    0.000
 RMSDP=1.93D-08 MaxDP=5.63D-07 DE=-2.30D-10 OVMax= 1.59D-06

 Cycle  14  Pass 1  IDiag  1:
 E= -279.500856260749     Delta-E=       -0.000000000014 Rises=F Damp=F
 DIIS: error= 2.52D-08 at cycle  14 NSaved=  14.
 NSaved=14 IEnMin=14 EnMin= -279.500856260749     IErMin=14 ErrMin= 2.52D-08
 ErrMax= 2.52D-08  0.00D+00 EMaxC= 1.00D-01 BMatC= 2.07D-13 BMatP= 4.07D-12
 IDIUse=1 WtCom= 1.00D+00 WtEn= 0.00D+00
 Coeff-Com: -0.193D-06 0.317D-05 0.563D-05 0.446D-05-0.840D-04 0.471D-04
 Coeff-Com:  0.262D-03 0.260D-03-0.248D-02 0.148D-02 0.174D-01-0.258D-01
 Coeff-Com: -0.204D+00 0.121D+01
 Coeff:     -0.193D-06 0.317D-05 0.563D-05 0.446D-05-0.840D-04 0.471D-04
 Coeff:      0.262D-03 0.260D-03-0.248D-02 0.148D-02 0.174D-01-0.258D-01
 Coeff:     -0.204D+00 0.121D+01
 Gap=     0.502 Goal=   None    Shift=    0.000
 RMSDP=3.88D-09 MaxDP=9.17D-08 DE=-1.36D-11 OVMax= 3.55D-07

 SCF Done:  E(RHF) =  -279.500856261     A.U. after   14 cycles
            NFock= 14  Conv=0.39D-08     -V/T= 2.0024
 KE= 2.788292390637D+02 PE=-8.945922000983D+02 EE= 2.196241620761D+02
 Leave Link  502 at Mon Feb 14 12:42:08 2022, MaxMem= 16106127360 cpu:              57.4 elap:               3.7
 (Enter /sw/contrib/gaussian/g16/B01/g16/l801.exe)
 ExpMin= 2.53D-02 ExpMax= 1.53D+04 ExpMxC= 5.22D+02 IAcc=3 IRadAn=         5 AccDes= 0.00D+00
 HarFok:  IExCor=  205 AccDes= 0.00D+00 IRadAn=         5 IDoV=-2 UseB2=F ITyADJ=14
 ICtDFT= 12500011 ScaDFX=  1.000000  1.000000  1.000000  1.000000
 Largest valence mixing into a core orbital is  2.08D-04
 Largest core mixing into a valence orbital is  3.64D-05
 Range of M.O.s used for correlation:     5   207
 NBasis=   207 NAE=    16 NBE=    16 NFC=     4 NFV=     0
 NROrb=    203 NOA=    12 NOB=    12 NVA=   191 NVB=   191

 **** Warning!!: The largest alpha MO coefficient is  0.17599288D+02

 Leave Link  801 at Mon Feb 14 12:42:09 2022, MaxMem= 16106127360 cpu:               2.9 elap:               0.2
 (Enter /sw/contrib/gaussian/g16/B01/g16/l906.exe)
 Frozen-core derivative calculation, NFC=   4 NFV=   0.
 FulOut=F Deriv=T AODrv=F NAtomX=     5
   MMem=          76  MDisk=          12 MDiskD=          12
  W3Min=      811440 MinDsk=     1524655 NBas6D=         245
 NBas2D=       30762    NTT=       30135    LW2=     3500000
    MDV= 16105579927 MDiskM=      328644 NBas2p=       30466
 Fully in-core method, ICMem=   960157634.
 IMap=   1   2   3   4   5   6   7   8   9  10  11  12  13  14  15  16
 JobTyp=1 Pass  1 fully in-core, NPsUse= 28.
 Compute canonical integrals.
 FoFCou: FMM=F IPFlag=           0 FMFlag=           0 FMFlg1=           0
         NFxFlg=           0 DoJE=F BraDBF=F KetDBF=F FulRan=T
         wScrn=  0.000000 ICntrl=       600 IOpCl=  1 I1Cent=           0 NGrid=           0
         NMat0=    1 NMatS0=  30762 NMatT0=    0 NMatD0=    1 NMtDS0=    0 NMtDT0=    0
 Symmetry not used in FoFCou.
 Spin components of T(2) and E(2):
     alpha-alpha T2 =       0.3411455862D-01 E2=     -0.1224650651D+00
     alpha-beta  T2 =       0.1875427121D+00 E2=     -0.7008992006D+00
     beta-beta   T2 =       0.3411455862D-01 E2=     -0.1224650651D+00
 The integrals were generated   1 times.
 ANorm=    0.1120612256D+01
 E2 =    -0.9458293308D+00 EUMP2 =    -0.28044668559152D+03
 Leave Link  906 at Mon Feb 14 12:42:18 2022, MaxMem= 16106127360 cpu:             246.6 elap:               8.9
 (Enter /sw/contrib/gaussian/g16/B01/g16/l1002.exe)
 Minotr:  Closed shell wavefunction.
          Computing MP2/KS-MP2 derivatives.
          Using Z-Vector for PSCF gradient.
          Skipping F1 and S1 gradient terms here.
          Frozen-core window.
          Direct CPHF calculation.
          Differentiating once with respect to electric field.
                with respect to dipole field.
          Electric field/nuclear overlap derivatives assumed to be zero.
          Using symmetry in CPHF.
          Requested convergence is 1.0D-10 RMS, and 1.0D-09 maximum.
          NewPWx=F KeepS1=T KeepF1=T KeepIn=T MapXYZ=F SortEE=F KeepMc=T.
 Keep R1 ints in memory in symmetry-blocked form, NReq=348888868.
 FoFCou: FMM=F IPFlag=           0 FMFlag=           0 FMFlg1=           0
         NFxFlg=           0 DoJE=F BraDBF=F KetDBF=F FulRan=T
         wScrn=  0.000000 ICntrl=       600 IOpCl=  0 I1Cent=           0 NGrid=           0
         NMat0=    1 NMatS0=  21528 NMatT0=    0 NMatD0=    1 NMtDS0=    0 NMtDT0=    0
 Petite list used in FoFCou.
          MDV=   16106127360 using IRadAn=       5.
          Solving linear equations separately, MaxMat=       0.
          There are     1 degrees of freedom in the 1st order CPHF.  IDoFFX=0 NUNeed=     1.
 LinEq1:  Iter=  0 NonCon=     1 RMS=5.97D-03 Max=1.33D-01 NDo=     1
 AX will form     1 AO Fock derivatives at one time.
 LinEq1:  Iter=  1 NonCon=     1 RMS=1.91D-03 Max=3.81D-02 NDo=     1
 LinEq1:  Iter=  2 NonCon=     1 RMS=8.70D-04 Max=1.42D-02 NDo=     1
 LinEq1:  Iter=  3 NonCon=     1 RMS=3.87D-04 Max=7.77D-03 NDo=     1
 LinEq1:  Iter=  4 NonCon=     1 RMS=1.19D-04 Max=1.89D-03 NDo=     1
 LinEq1:  Iter=  5 NonCon=     1 RMS=4.46D-05 Max=7.08D-04 NDo=     1
 LinEq1:  Iter=  6 NonCon=     1 RMS=2.02D-05 Max=2.15D-04 NDo=     1
 LinEq1:  Iter=  7 NonCon=     1 RMS=8.17D-06 Max=1.52D-04 NDo=     1
 LinEq1:  Iter=  8 NonCon=     1 RMS=3.49D-06 Max=3.41D-05 NDo=     1
 LinEq1:  Iter=  9 NonCon=     1 RMS=9.51D-07 Max=1.33D-05 NDo=     1
 LinEq1:  Iter= 10 NonCon=     1 RMS=1.87D-07 Max=2.05D-06 NDo=     1
 LinEq1:  Iter= 11 NonCon=     1 RMS=3.48D-08 Max=3.40D-07 NDo=     1
 LinEq1:  Iter= 12 NonCon=     1 RMS=8.44D-09 Max=1.18D-07 NDo=     1
 LinEq1:  Iter= 13 NonCon=     1 RMS=1.55D-09 Max=2.33D-08 NDo=     1
 LinEq1:  Iter= 14 NonCon=     1 RMS=2.81D-10 Max=3.94D-09 NDo=     1
 LinEq1:  Iter= 15 NonCon=     0 RMS=5.08D-11 Max=5.41D-10 NDo=     1
 Linear equations converged to 1.000D-10 1.000D-09 after    15 iterations.
 End of Minotr F.D. properties file   721 does not exist.
 End of Minotr F.D. properties file   722 does not exist.
 End of Minotr F.D. properties file   788 does not exist.
 Leave Link 1002 at Mon Feb 14 12:42:21 2022, MaxMem= 16106127360 cpu:              53.1 elap:               3.9
 (Enter /sw/contrib/gaussian/g16/B01/g16/l601.exe)
 Copying SCF densities to generalized density rwf, IOpCl= 0 IROHF=0.

 **********************************************************************

            Population analysis using the MP2 Density.

 **********************************************************************

 Orbital symmetries:
       Occupied  (A') (A') (A') (A') (A') (A') (A') (A') (A') (A')
                 (A") (A') (A") (A') (A") (A')
       Virtual   (A') (A") (A') (A') (A') (A") (A') (A') (A") (A')
                 (A") (A') (A') (A') (A") (A') (A') (A") (A') (A')
                 (A') (A') (A') (A') (A") (A') (A') (A") (A') (A')
                 (A") (A') (A") (A') (A') (A") (A') (A') (A") (A')
                 (A") (A') (A") (A') (A') (A") (A') (A') (A") (A')
                 (A") (A') (A') (A') (A") (A') (A") (A') (A") (A')
                 (A') (A') (A") (A') (A') (A") (A') (A") (A') (A')
                 (A") (A') (A') (A") (A") (A') (A') (A") (A') (A')
                 (A') (A") (A') (A") (A') (A") (A') (A") (A') (A')
                 (A") (A') (A') (A") (A') (A") (A') (A") (A') (A')
                 (A") (A') (A") (A') (A') (A") (A') (A') (A") (A')
                 (A") (A') (A') (A') (A") (A') (A') (A') (A") (A')
                 (A") (A') (A") (A') (A') (A") (A") (A') (A") (A')
                 (A') (A') (A') (A") (A") (A") (A') (A') (A') (A')
                 (A") (A') (A") (A') (A') (A") (A') (A') (A') (A')
                 (A") (A') (A') (A") (A') (A") (A') (A") (A') (A")
                 (A') (A") (A') (A") (A') (A") (A") (A') (A") (A')
                 (A") (A') (A") (A') (A") (A') (A") (A") (A') (A')
                 (A') (A') (A') (A') (A') (A') (A') (A') (A') (A')
                 (A')
 The electronic state is 1-A'.
 Alpha  occ. eigenvalues --  -20.69142 -20.68446 -20.66080 -15.81302  -1.62376
 Alpha  occ. eigenvalues --   -1.49200  -1.25610  -0.94794  -0.77179  -0.75842
 Alpha  occ. eigenvalues --   -0.71095  -0.67937  -0.61955  -0.58810  -0.48692
 Alpha  occ. eigenvalues --   -0.47271
 Alpha virt. eigenvalues --    0.02961   0.07166   0.08570   0.10167   0.13347
 Alpha virt. eigenvalues --    0.13397   0.14403   0.15449   0.17828   0.19426
 Alpha virt. eigenvalues --    0.19985   0.20626   0.21923   0.23182   0.23730
 Alpha virt. eigenvalues --    0.26598   0.29336   0.30380   0.31024   0.34288
 Alpha virt. eigenvalues --    0.34937   0.38708   0.42154   0.43149   0.52718
 Alpha virt. eigenvalues --    0.52905   0.55834   0.58138   0.62577   0.63836
 Alpha virt. eigenvalues --    0.67452   0.68457   0.70561   0.71141   0.72360
 Alpha virt. eigenvalues --    0.72963   0.74475   0.79089   0.79194   0.81032
 Alpha virt. eigenvalues --    0.81254   0.82993   0.86813   0.90734   0.92178
 Alpha virt. eigenvalues --    0.92551   0.95698   0.97703   0.98401   1.01643
 Alpha virt. eigenvalues --    1.05133   1.05503   1.08147   1.11663   1.13978
 Alpha virt. eigenvalues --    1.18884   1.22077   1.23197   1.33859   1.34988
 Alpha virt. eigenvalues --    1.38613   1.45318   1.48795   1.50963   1.53747
 Alpha virt. eigenvalues --    1.56618   1.57913   1.61267   1.66256   1.66908
 Alpha virt. eigenvalues --    1.70313   1.79197   1.83061   1.83451   1.87735
 Alpha virt. eigenvalues --    1.90932   1.95607   1.99100   2.00670   2.07716
 Alpha virt. eigenvalues --    2.11888   2.13187   2.14796   2.22399   2.26255
 Alpha virt. eigenvalues --    2.26401   2.28901   2.31330   2.34134   2.38723
 Alpha virt. eigenvalues --    2.42289   2.42733   2.45347   2.46297   2.47556
 Alpha virt. eigenvalues --    2.50031   2.58826   2.59533   2.61811   2.62311
 Alpha virt. eigenvalues --    2.63190   2.66451   2.75691   2.82425   2.85300
 Alpha virt. eigenvalues --    2.87955   2.88926   2.92102   2.95574   3.01872
 Alpha virt. eigenvalues --    3.06825   3.12363   3.19295   3.22361   3.31327
 Alpha virt. eigenvalues --    3.34508   3.51365   3.64187   3.83832   3.84221
 Alpha virt. eigenvalues --    4.14699   4.15990   4.18231   4.25644   4.34936
 Alpha virt. eigenvalues --    4.39109   4.45431   4.52063   4.66040   4.70560
 Alpha virt. eigenvalues --    4.80420   4.82443   4.82962   4.89495   5.02251
 Alpha virt. eigenvalues --    5.07714   5.10146   5.14456   5.17869   5.24121
 Alpha virt. eigenvalues --    5.27208   5.30798   5.32829   5.35287   5.60097
 Alpha virt. eigenvalues --    5.67348   5.76679   5.81233   5.95394   6.16655
 Alpha virt. eigenvalues --    6.32367   6.33683   6.39659   6.49436   6.50552
 Alpha virt. eigenvalues --    6.61596   6.67418   6.70067   6.75841   6.75920
 Alpha virt. eigenvalues --    6.83236   6.89744   7.00581   7.04363   7.04934
 Alpha virt. eigenvalues --    7.08319   7.12320   7.14335   7.17846   7.22257
 Alpha virt. eigenvalues --    7.23920   7.30561   7.32483   7.34739   7.39709
 Alpha virt. eigenvalues --    7.41978   7.48357   7.60094   7.61457   7.62229
 Alpha virt. eigenvalues --    7.66229   7.77972   7.88451   8.07719   8.30216
 Alpha virt. eigenvalues --    8.39889   8.54444  13.36312  14.38167  15.15120
 Alpha virt. eigenvalues --   16.15121
          Condensed to atoms (all electrons):
               1          2          3          4          5
     1  H    0.588912   0.128143   0.020551   0.012202  -0.000612
     2  O    0.128143   8.310215  -0.161969  -0.088868   0.015202
     3  O    0.020551  -0.161969   8.458492  -0.131018  -0.038395
     4  N    0.012202  -0.088868  -0.131018   6.970585  -0.055425
     5  O   -0.000612   0.015202  -0.038395  -0.055425   8.272173
 Mulliken charges:
               1
     1  H    0.250804
     2  O   -0.202723
     3  O   -0.147661
     4  N    0.292524
     5  O   -0.192943
 Sum of Mulliken charges =  -0.00000
 Mulliken charges with hydrogens summed into heavy atoms:
               1
     2  O    0.048081
     3  O   -0.147661
     4  N    0.292524
     5  O   -0.192943
 Electronic spatial extent (au):  <R**2>=            253.8078
 Charge=             -0.0000 electrons
 Dipole moment (field-independent basis, Debye):
    X=              0.5100    Y=              1.3523    Z=              0.0000  Tot=              1.4453
 Quadrupole moment (field-independent basis, Debye-Ang):
   XX=            -22.4167   YY=            -18.6507   ZZ=            -22.0236
   XY=              3.2859   XZ=             -0.0000   YZ=             -0.0000
 Traceless Quadrupole moment (field-independent basis, Debye-Ang):
   XX=             -1.3864   YY=              2.3796   ZZ=             -0.9933
   XY=              3.2859   XZ=             -0.0000   YZ=             -0.0000
 Octapole moment (field-independent basis, Debye-Ang**2):
  XXX=              2.9999  YYY=             11.1691  ZZZ=             -0.0000  XYY=              7.9205
  XXY=              6.6743  XXZ=              0.0000  XZZ=             -1.5973  YZZ=             -0.8610
  YYZ=              0.0000  XYZ=              0.0000
 Hexadecapole moment (field-independent basis, Debye-Ang**3):
 XXXX=           -159.8842 YYYY=            -89.3135 ZZZZ=            -18.2671 XXXY=            -36.4671
 XXXZ=             -0.0000 YYYX=            -30.7845 YYYZ=             -0.0000 ZZZX=             -0.0000
 ZZZY=             -0.0000 XXYY=            -33.9761 XXZZ=            -31.1739 YYZZ=            -20.5678
 XXYZ=             -0.0000 YYXZ=             -0.0000 ZZXY=            -15.0750
 N-N= 1.166379426977D+02 E-N=-8.953802695359D+02  KE= 2.801843169168D+02
 Symmetry A'   KE= 2.662183060363D+02
 Symmetry A"   KE= 1.396601088058D+01
 No NMR shielding tensors so no spin-rotation constants.
 Leave Link  601 at Mon Feb 14 12:42:22 2022, MaxMem= 16106127360 cpu:               4.6 elap:               0.2
 (Enter /sw/contrib/gaussian/g16/B01/g16/l9999.exe)
 1\1\GINC-N2115\SP\RMP2-FC\Aug-CC-pVTZ\H1N1O3\CGAVINH\14-Feb-2022\0\\#p
  SP mp2/aug-cc-pvtz density=current\\title\\0,1\H\O,1,0.96897556\O,2,1
 .4644432514,1,97.59494903\N,3,1.45878406,2,102.29752444,1,180.,0\O,4,1
 .17072885,3,109.06955123,2,180.,0\\Version=ES64L-G16RevB.01\State=1-A'
 \HF=-279.5008563\MP2=-280.4466856\RMSD=3.885e-09\Dipole=-0.1453172,0.,
 -0.549726\Quadrupole=-1.4975687,-0.7384597,2.2360285,0.,2.1078368,0.\P
 G=CS [SG(H1N1O3)]\\@


 AND ALL THIS SCIENCE I DON'T UNDERSTAND
 IT'S JUST MY JOB FIVE DAYS A WEEK

                           -- ELTON JOHN, "ROCKET MAN"
 Job cpu time:       0 days  0 hours  6 minutes 34.0 seconds.
 Elapsed time:       0 days  0 hours  0 minutes 18.1 seconds.
 File lengths (MBytes):  RWF=     22 Int=      0 D2E=      0 Chk=      8 Scr=      1
 Normal termination of Gaussian 16 at Mon Feb 14 12:42:22 2022.
