title                                                                   
SP        RMP2-FC                                                     Aug-CC-pVTZ         
Number of atoms                            I                5
Info1-9                                    I   N=           9
          33          24           0           0           0         110
           1           2           1
Full Title                                 C   N=           1
title       
Route                                      C   N=           4
#p SP mp2/aug-cc-pvtz density=current           
Charge                                     I                0
Multiplicity                               I                1
Number of electrons                        I               32
Number of alpha electrons                  I               16
Number of beta electrons                   I               16
Number of basis functions                  I              207
Number of independent functions            I              207
Number of point charges in /Mol/           I                0
Number of translation vectors              I                0
Atomic numbers                             I   N=           5
           1           8           8           7           8
Nuclear charges                            R   N=           5
  1.00000000E+00  8.00000000E+00  8.00000000E+00  7.00000000E+00  8.00000000E+00
Current cartesian coordinates              R   N=          15
  2.95298777E+00  3.17709681E+00  4.24118154E-32  2.76612399E+00  1.35555807E+00
  4.10523579E-32 -8.97814829E-17  1.27163911E+00  1.69857402E-32 -5.05198409E-01
 -1.43837610E+00 -1.24346797E-32 -2.69319886E+00 -1.76575519E+00 -1.24301586E-31
Number of symbols in /Mol/                 I                0
Force Field                                I                0
Atom Types                                 C   N=           5
                                                            
Int Atom Types                             I   N=           5
           0           0           0           0           0
MM charges                                 R   N=           5
  0.00000000E+00  0.00000000E+00  0.00000000E+00  0.00000000E+00  0.00000000E+00
Integer atomic weights                     I   N=           5
           1          16          16          14          16
Real atomic weights                        R   N=           5
  1.00782504E+00  1.59949146E+01  1.59949146E+01  1.40030740E+01  1.59949146E+01
Atom fragment info                         I   N=           5
           0           0           0           0           0
Atom residue num                           I   N=           5
           0           0           0           0           0
Nuclear spins                              I   N=           5
           1           0           0           2           0
Nuclear ZEff                               R   N=           5
 -1.00000000E+00 -5.60000000E+00 -5.60000000E+00 -4.55000000E+00 -5.60000000E+00
Nuclear ZNuc                               R   N=           5
  1.00000000E+00  8.00000000E+00  8.00000000E+00  7.00000000E+00  8.00000000E+00
Nuclear QMom                               R   N=           5
  0.00000000E+00  0.00000000E+00  0.00000000E+00  2.04400000E+00  0.00000000E+00
Nuclear GFac                               R   N=           5
  2.79284600E+00  0.00000000E+00  0.00000000E+00  4.03761000E-01  0.00000000E+00
MicOpt                                     I   N=           5
          -1          -1          -1          -1          -1
Number of residues                         I                0
Number of secondary structures             I                0
SymInf integers                            I   N=          26
           1           2           1           1           1           1
           1          -1           0           0           0           0
           0           0           0           0           0           0
           0           0           0           0           0           0
           0           0
RotTr to input orientation                 R   N=          12
 -9.94779260E-01 -9.88720858E-17 -1.02050101E-01  1.02050101E-01 -7.22627738E-17
 -9.94779260E-01  9.09814770E-17 -1.00000000E+00  8.19754150E-17  2.61334794E+00
  0.00000000E+00  3.46186271E+00
Number of contracted shells                I               65
Number of primitive shells                 I              119
Pure/Cartesian d shells                    I                0
Pure/Cartesian f shells                    I                0
Highest angular momentum                   I                3
Largest degree of contraction              I                7
Shell types                                I   N=          65
           0           0           0           0           1           1
           1          -2          -2           0           0           0
           0           0           1           1           1           1
          -2          -2          -2          -3          -3           0
           0           0           0           0           1           1
           1           1          -2          -2          -2          -3
          -3           0           0           0           0           0
           1           1           1           1          -2          -2
          -2          -3          -3           0           0           0
           0           0           1           1           1           1
          -2          -2          -2          -3          -3
Number of primitives per shell             I   N=          65
           3           1           1           1           1           1
           1           1           1           7           6           1
           1           1           3           1           1           1
           1           1           1           1           1           7
           6           1           1           1           3           1
           1           1           1           1           1           1
           1           7           6           1           1           1
           3           1           1           1           1           1
           1           1           1           7           6           1
           1           1           3           1           1           1
           1           1           1           1           1
Shell to atom map                          I   N=          65
           1           1           1           1           1           1
           1           1           1           2           2           2
           2           2           2           2           2           2
           2           2           2           2           2           3
           3           3           3           3           3           3
           3           3           3           3           3           3
           3           4           4           4           4           4
           4           4           4           4           4           4
           4           4           4           5           5           5
           5           5           5           5           5           5
           5           5           5           5           5
Primitive exponents                        R   N=         119
  3.38700000E+01  5.09500000E+00  1.15900000E+00  3.25800000E-01  1.02700000E-01
  2.52600000E-02  1.40700000E+00  3.88000000E-01  1.02000000E-01  1.05700000E+00
  2.47000000E-01  1.53300000E+04  2.29900000E+03  5.22400000E+02  1.47300000E+02
  4.75500000E+01  1.67600000E+01  6.20700000E+00  5.22400000E+02  1.47300000E+02
  4.75500000E+01  1.67600000E+01  6.20700000E+00  6.88200000E-01  1.75200000E+00
  2.38400000E-01  7.37600000E-02  3.44600000E+01  7.74900000E+00  2.28000000E+00
  7.15600000E-01  2.14000000E-01  5.97400000E-02  2.31400000E+00  6.45000000E-01
  2.14000000E-01  1.42800000E+00  5.00000000E-01  1.53300000E+04  2.29900000E+03
  5.22400000E+02  1.47300000E+02  4.75500000E+01  1.67600000E+01  6.20700000E+00
  5.22400000E+02  1.47300000E+02  4.75500000E+01  1.67600000E+01  6.20700000E+00
  6.88200000E-01  1.75200000E+00  2.38400000E-01  7.37600000E-02  3.44600000E+01
  7.74900000E+00  2.28000000E+00  7.15600000E-01  2.14000000E-01  5.97400000E-02
  2.31400000E+00  6.45000000E-01  2.14000000E-01  1.42800000E+00  5.00000000E-01
  1.14200000E+04  1.71200000E+03  3.89300000E+02  1.10000000E+02  3.55700000E+01
  1.25400000E+01  4.64400000E+00  3.89300000E+02  1.10000000E+02  3.55700000E+01
  1.25400000E+01  4.64400000E+00  5.11800000E-01  1.29300000E+00  1.78700000E-01
  5.76000000E-02  2.66300000E+01  5.94800000E+00  1.74200000E+00  5.55000000E-01
  1.72500000E-01  4.91000000E-02  1.65400000E+00  4.69000000E-01  1.51000000E-01
  1.09300000E+00  3.64000000E-01  1.53300000E+04  2.29900000E+03  5.22400000E+02
  1.47300000E+02  4.75500000E+01  1.67600000E+01  6.20700000E+00  5.22400000E+02
  1.47300000E+02  4.75500000E+01  1.67600000E+01  6.20700000E+00  6.88200000E-01
  1.75200000E+00  2.38400000E-01  7.37600000E-02  3.44600000E+01  7.74900000E+00
  2.28000000E+00  7.15600000E-01  2.14000000E-01  5.97400000E-02  2.31400000E+00
  6.45000000E-01  2.14000000E-01  1.42800000E+00  5.00000000E-01
Contraction coefficients                   R   N=         119
  2.54948632E-02  1.90362766E-01  8.52162022E-01  1.00000000E+00  1.00000000E+00
  1.00000000E+00  1.00000000E+00  1.00000000E+00  1.00000000E+00  1.00000000E+00
  1.00000000E+00  5.19808943E-04  4.02025621E-03  2.07128267E-02  8.10105536E-02
  2.35962985E-01  4.42653446E-01  3.57064423E-01 -4.42115008E-05 -1.22591041E-03
 -1.05517725E-02 -6.74452633E-02 -1.71198607E-01  1.07329856E+00  1.00000000E+00
  1.00000000E+00  1.00000000E+00  4.11634896E-02  2.57762836E-01  8.02419274E-01
  1.00000000E+00  1.00000000E+00  1.00000000E+00  1.00000000E+00  1.00000000E+00
  1.00000000E+00  1.00000000E+00  1.00000000E+00  5.19808943E-04  4.02025621E-03
  2.07128267E-02  8.10105536E-02  2.35962985E-01  4.42653446E-01  3.57064423E-01
 -4.42115008E-05 -1.22591041E-03 -1.05517725E-02 -6.74452633E-02 -1.71198607E-01
  1.07329856E+00  1.00000000E+00  1.00000000E+00  1.00000000E+00  4.11634896E-02
  2.57762836E-01  8.02419274E-01  1.00000000E+00  1.00000000E+00  1.00000000E+00
  1.00000000E+00  1.00000000E+00  1.00000000E+00  1.00000000E+00  1.00000000E+00
  5.34563860E-04  4.13435660E-03  2.12335358E-02  8.25006224E-02  2.38138871E-01
  4.42551547E-01  3.53757422E-01 -4.89867350E-05 -1.19527323E-03 -1.03490714E-02
 -6.48680190E-02 -1.71552477E-01  1.07289568E+00  1.00000000E+00  1.00000000E+00
  1.00000000E+00  3.98072123E-02  2.49002660E-01  8.10479727E-01  1.00000000E+00
  1.00000000E+00  1.00000000E+00  1.00000000E+00  1.00000000E+00  1.00000000E+00
  1.00000000E+00  1.00000000E+00  5.19808943E-04  4.02025621E-03  2.07128267E-02
  8.10105536E-02  2.35962985E-01  4.42653446E-01  3.57064423E-01 -4.42115008E-05
 -1.22591041E-03 -1.05517725E-02 -6.74452633E-02 -1.71198607E-01  1.07329856E+00
  1.00000000E+00  1.00000000E+00  1.00000000E+00  4.11634896E-02  2.57762836E-01
  8.02419274E-01  1.00000000E+00  1.00000000E+00  1.00000000E+00  1.00000000E+00
  1.00000000E+00  1.00000000E+00  1.00000000E+00  1.00000000E+00
Coordinates of each shell                  R   N=         195
  2.95298777E+00  3.17709681E+00  3.32622005E-32  2.95298777E+00  3.17709681E+00
  3.32622005E-32  2.95298777E+00  3.17709681E+00  3.32622005E-32  2.95298777E+00
  3.17709681E+00  3.32622005E-32  2.95298777E+00  3.17709681E+00  3.32622005E-32
  2.95298777E+00  3.17709681E+00  3.32622005E-32  2.95298777E+00  3.17709681E+00
  3.32622005E-32  2.95298777E+00  3.17709681E+00  3.32622005E-32  2.95298777E+00
  3.17709681E+00  3.32622005E-32  2.76612399E+00  1.35555807E+00  4.10923050E-32
  2.76612399E+00  1.35555807E+00  4.10923050E-32  2.76612399E+00  1.35555807E+00
  4.10923050E-32  2.76612399E+00  1.35555807E+00  4.10923050E-32  2.76612399E+00
  1.35555807E+00  4.10923050E-32  2.76612399E+00  1.35555807E+00  4.10923050E-32
  2.76612399E+00  1.35555807E+00  4.10923050E-32  2.76612399E+00  1.35555807E+00
  4.10923050E-32  2.76612399E+00  1.35555807E+00  4.10923050E-32  2.76612399E+00
  1.35555807E+00  4.10923050E-32  2.76612399E+00  1.35555807E+00  4.10923050E-32
  2.76612399E+00  1.35555807E+00  4.10923050E-32  2.76612399E+00  1.35555807E+00
  4.10923050E-32  2.76612399E+00  1.35555807E+00  4.10923050E-32  1.53596868E-17
  1.27163911E+00 -7.79616571E-33  1.53596868E-17  1.27163911E+00 -7.79616571E-33
  1.53596868E-17  1.27163911E+00 -7.79616571E-33  1.53596868E-17  1.27163911E+00
 -7.79616571E-33  1.53596868E-17  1.27163911E+00 -7.79616571E-33  1.53596868E-17
  1.27163911E+00 -7.79616571E-33  1.53596868E-17  1.27163911E+00 -7.79616571E-33
  1.53596868E-17  1.27163911E+00 -7.79616571E-33  1.53596868E-17  1.27163911E+00
 -7.79616571E-33  1.53596868E-17  1.27163911E+00 -7.79616571E-33  1.53596868E-17
  1.27163911E+00 -7.79616571E-33  1.53596868E-17  1.27163911E+00 -7.79616571E-33
  1.53596868E-17  1.27163911E+00 -7.79616571E-33  1.53596868E-17  1.27163911E+00
 -7.79616571E-33 -5.05198409E-01 -1.43837610E+00 -2.04444206E-34 -5.05198409E-01
 -1.43837610E+00 -2.04444206E-34 -5.05198409E-01 -1.43837610E+00 -2.04444206E-34
 -5.05198409E-01 -1.43837610E+00 -2.04444206E-34 -5.05198409E-01 -1.43837610E+00
 -2.04444206E-34 -5.05198409E-01 -1.43837610E+00 -2.04444206E-34 -5.05198409E-01
 -1.43837610E+00 -2.04444206E-34 -5.05198409E-01 -1.43837610E+00 -2.04444206E-34
 -5.05198409E-01 -1.43837610E+00 -2.04444206E-34 -5.05198409E-01 -1.43837610E+00
 -2.04444206E-34 -5.05198409E-01 -1.43837610E+00 -2.04444206E-34 -5.05198409E-01
 -1.43837610E+00 -2.04444206E-34 -5.05198409E-01 -1.43837610E+00 -2.04444206E-34
 -5.05198409E-01 -1.43837610E+00 -2.04444206E-34 -2.69319886E+00 -1.76575519E+00
 -3.72750257E-32 -2.69319886E+00 -1.76575519E+00 -3.72750257E-32 -2.69319886E+00
 -1.76575519E+00 -3.72750257E-32 -2.69319886E+00 -1.76575519E+00 -3.72750257E-32
 -2.69319886E+00 -1.76575519E+00 -3.72750257E-32 -2.69319886E+00 -1.76575519E+00
 -3.72750257E-32 -2.69319886E+00 -1.76575519E+00 -3.72750257E-32 -2.69319886E+00
 -1.76575519E+00 -3.72750257E-32 -2.69319886E+00 -1.76575519E+00 -3.72750257E-32
 -2.69319886E+00 -1.76575519E+00 -3.72750257E-32 -2.69319886E+00 -1.76575519E+00
 -3.72750257E-32 -2.69319886E+00 -1.76575519E+00 -3.72750257E-32 -2.69319886E+00
 -1.76575519E+00 -3.72750257E-32 -2.69319886E+00 -1.76575519E+00 -3.72750257E-32
Num ILSW                                   I              100
ILSW                                       I   N=         100
           0           0           0           0           2           0
           0           0           0           0           0          -1
           5           0           0           0           0           0
           0           0           0           0           0           0
           1           0           0           0           0           0
           0           0      100000           0          -1           0
           0           0           0           0           0           0
           0           0           0           1           0           0
           0 -2000000000           1           0           0           0
           0           0           4          52           0           0
           0           0           0           0           0           0
           0           0           0           5           0           1
           0           0           0           0           0           0
           0           0           0           0           0           0
           0           0           0           0           0           0
           0           0           0           0           0           0
           0           0           0           0
Num RLSW                                   I               52
RLSW                                       R   N=          52
  1.00000000E+00  1.00000000E+00  1.00000000E+00  1.00000000E+00  1.00000000E+00
  0.00000000E+00  0.00000000E+00  1.00000000E+00  0.00000000E+00  0.00000000E+00
  0.00000000E+00  0.00000000E+00  1.00000000E+00  0.00000000E+00  0.00000000E+00
  0.00000000E+00  0.00000000E+00  1.00000000E+00  0.00000000E+00  0.00000000E+00
  0.00000000E+00  0.00000000E+00  1.00000000E+00  0.00000000E+00  0.00000000E+00
  0.00000000E+00  0.00000000E+00  1.00000000E+00  0.00000000E+00  0.00000000E+00
  0.00000000E+00  0.00000000E+00  1.00000000E+00  0.00000000E+00  0.00000000E+00
  0.00000000E+00  0.00000000E+00  0.00000000E+00  1.00000000E+00  1.00000000E+00
  0.00000000E+00  1.00000000E+00  0.00000000E+00  0.00000000E+00  0.00000000E+00
  0.00000000E+00  0.00000000E+00  0.00000000E+00  0.00000000E+00  0.00000000E+00
  0.00000000E+00  0.00000000E+00
MxBond                                     I                2
NBond                                      I   N=           5
           1           2           2           2           1
IBond                                      I   N=          10
           2           0           1           3           2           4
           3           5           4           0
RBond                                      R   N=          10
  1.00000000E+00  0.00000000E+00  1.00000000E+00  1.00000000E+00  1.00000000E+00
  1.00000000E+00  1.00000000E+00  2.00000000E+00  2.00000000E+00  0.00000000E+00
Virial Ratio                               R      2.002408704335704E+00
SCF Energy                                 R     -2.795008562607486E+02
MP2 Energy                                 R     -2.804466855915199E+02
Total Energy                               R     -2.804466855915199E+02
Post-SCF wavefunction norm                 R      1.120612256460466E+00
RMS Density                                R      3.884806219278744E-09
Job Status                                 I                1
Nuclear derivative order                   I                0
External E-field                           R   N=          35
  0.00000000E+00  0.00000000E+00  0.00000000E+00  0.00000000E+00  0.00000000E+00
  0.00000000E+00  0.00000000E+00  0.00000000E+00  0.00000000E+00  0.00000000E+00
  0.00000000E+00  0.00000000E+00  0.00000000E+00  0.00000000E+00  0.00000000E+00
  0.00000000E+00  0.00000000E+00  0.00000000E+00  0.00000000E+00  0.00000000E+00
  0.00000000E+00  0.00000000E+00  0.00000000E+00  0.00000000E+00  0.00000000E+00
  0.00000000E+00  0.00000000E+00  0.00000000E+00  0.00000000E+00  0.00000000E+00
  0.00000000E+00  0.00000000E+00  0.00000000E+00  0.00000000E+00  0.00000000E+00
IOpCl                                      I                0
IROHF                                      I                0
Alpha Orbital Energies                     R   N=         207
 -2.06914189E+01 -2.06844614E+01 -2.06607996E+01 -1.58130221E+01 -1.62376130E+00
 -1.49199583E+00 -1.25610045E+00 -9.47936557E-01 -7.71793429E-01 -7.58424303E-01
 -7.10952345E-01 -6.79365805E-01 -6.19549683E-01 -5.88104296E-01 -4.86917778E-01
 -4.72714373E-01  2.96092428E-02  7.16610672E-02  8.57014214E-02  1.01674816E-01
  1.33469766E-01  1.33965727E-01  1.44028804E-01  1.54490457E-01  1.78278758E-01
  1.94262142E-01  1.99845922E-01  2.06261243E-01  2.19230505E-01  2.31824451E-01
  2.37301960E-01  2.65980347E-01  2.93356127E-01  3.03803802E-01  3.10238198E-01
  3.42877989E-01  3.49370962E-01  3.87079061E-01  4.21535272E-01  4.31486177E-01
  5.27182401E-01  5.29054299E-01  5.58344174E-01  5.81382792E-01  6.25770520E-01
  6.38359154E-01  6.74516607E-01  6.84570694E-01  7.05614898E-01  7.11413901E-01
  7.23597368E-01  7.29634761E-01  7.44751352E-01  7.90885785E-01  7.91944556E-01
  8.10318976E-01  8.12544219E-01  8.29932545E-01  8.68133498E-01  9.07335636E-01
  9.21784745E-01  9.25512992E-01  9.56983060E-01  9.77032373E-01  9.84011037E-01
  1.01642928E+00  1.05132589E+00  1.05503264E+00  1.08147417E+00  1.11663017E+00
  1.13978121E+00  1.18883656E+00  1.22077041E+00  1.23197328E+00  1.33858548E+00
  1.34987522E+00  1.38613181E+00  1.45317502E+00  1.48795195E+00  1.50962952E+00
  1.53747431E+00  1.56617855E+00  1.57912813E+00  1.61267186E+00  1.66256016E+00
  1.66908386E+00  1.70313213E+00  1.79197112E+00  1.83061352E+00  1.83450662E+00
  1.87734723E+00  1.90932325E+00  1.95606844E+00  1.99099680E+00  2.00669536E+00
  2.07716303E+00  2.11888045E+00  2.13186944E+00  2.14796044E+00  2.22399280E+00
  2.26255174E+00  2.26400974E+00  2.28900507E+00  2.31329589E+00  2.34134164E+00
  2.38722725E+00  2.42289397E+00  2.42733079E+00  2.45347159E+00  2.46296886E+00
  2.47556468E+00  2.50030789E+00  2.58826496E+00  2.59533069E+00  2.61810607E+00
  2.62311493E+00  2.63189700E+00  2.66451356E+00  2.75690823E+00  2.82425176E+00
  2.85299540E+00  2.87955153E+00  2.88926065E+00  2.92102043E+00  2.95573634E+00
  3.01871763E+00  3.06825004E+00  3.12363439E+00  3.19294956E+00  3.22360972E+00
  3.31326538E+00  3.34507744E+00  3.51365075E+00  3.64186805E+00  3.83831550E+00
  3.84220990E+00  4.14699463E+00  4.15990494E+00  4.18230952E+00  4.25644406E+00
  4.34936148E+00  4.39109246E+00  4.45431310E+00  4.52063291E+00  4.66040281E+00
  4.70559566E+00  4.80419834E+00  4.82443004E+00  4.82962497E+00  4.89494573E+00
  5.02250580E+00  5.07714400E+00  5.10146458E+00  5.14455754E+00  5.17868936E+00
  5.24121153E+00  5.27207840E+00  5.30798108E+00  5.32829210E+00  5.35286625E+00
  5.60097189E+00  5.67348388E+00  5.76678561E+00  5.81232610E+00  5.95394269E+00
  6.16654699E+00  6.32367490E+00  6.33682512E+00  6.39659414E+00  6.49436132E+00
  6.50552311E+00  6.61595601E+00  6.67418277E+00  6.70067037E+00  6.75840765E+00
  6.75920266E+00  6.83235513E+00  6.89743629E+00  7.00580732E+00  7.04363498E+00
  7.04934001E+00  7.08319463E+00  7.12319880E+00  7.14334504E+00  7.17845664E+00
  7.22257437E+00  7.23919781E+00  7.30561157E+00  7.32482647E+00  7.34739313E+00
  7.39708566E+00  7.41977646E+00  7.48356539E+00  7.60094368E+00  7.61456997E+00
  7.62228547E+00  7.66229385E+00  7.77971842E+00  7.88450821E+00  8.07719056E+00
  8.30215649E+00  8.39888569E+00  8.54443686E+00  1.33631172E+01  1.43816676E+01
  1.51511989E+01  1.61512097E+01
Alpha MO coefficients                      R   N=       42849
  9.46178994E-05 -6.48572776E-04 -7.45896127E-04 -6.70848474E-06 -2.39912156E-05
 -2.75671413E-05  0.00000000E+00 -4.64439403E-05  7.32041819E-05  0.00000000E+00
  8.92749200E-05  4.43368907E-05  0.00000000E+00  3.38169520E-05  0.00000000E+00
  0.00000000E+00 -4.82017808E-05  2.22221562E-05 -2.37141055E-06  0.00000000E+00
  0.00000000E+00 -1.35242773E-04  1.18011797E-04  4.50478309E-03 -2.92970552E-04
  2.14293566E-05  1.48272512E-03  1.77554312E-03  1.01853123E-04  6.87557795E-06
  0.00000000E+00 -5.72717362E-04 -2.96288990E-05  0.00000000E+00 -1.03354974E-03
  8.02563188E-04  0.00000000E+00 -3.90858654E-04  6.79747071E-05  0.00000000E+00
  3.11572939E-05  0.00000000E+00  0.00000000E+00 -5.85461750E-05  6.08086096E-06
 -3.67254331E-04  0.00000000E+00  0.00000000E+00  7.18842590E-04 -3.73180180E-05
 -4.38770721E-04  0.00000000E+00  0.00000000E+00  2.34544350E-04 -1.77526328E-05
  0.00000000E+00  7.73179000E-05  1.24165763E-05  0.00000000E+00  0.00000000E+00
 -1.05840001E-04 -2.05280654E-06  0.00000000E+00  2.54486980E-04 -2.91690540E-05
  0.00000000E+00  0.00000000E+00 -3.55744355E-04  5.88476144E-05  9.76918792E-01
 -9.21397677E-03  4.33021596E-02  2.13762397E-03 -8.65258955E-04  1.46686138E-03
 -1.36342277E-03  0.00000000E+00 -1.39632592E-03  1.39426696E-03  0.00000000E+00
  1.31304098E-04 -1.15882941E-03  0.00000000E+00 -1.22937854E-04 -1.10003600E-05
  0.00000000E+00  4.85306441E-05  0.00000000E+00  0.00000000E+00 -3.91780302E-05
  2.13121045E-05  7.35920165E-04  0.00000000E+00  0.00000000E+00 -2.14905475E-04
 -3.84757453E-04 -3.67634688E-04  0.00000000E+00  0.00000000E+00 -3.00966907E-04
 -3.67725351E-04  0.00000000E+00  4.56476617E-05 -4.96549740E-05  0.00000000E+00
  0.00000000E+00 -3.73960022E-05 -1.48647088E-05  0.00000000E+00  1.80380130E-05
  2.26740335E-05  0.00000000E+00  0.00000000E+00 -2.97632423E-04 -1.37723578E-04
  3.90870308E-05  4.55391039E-05 -2.65412274E-04 -6.92310149E-04 -1.28921332E-04
 -2.77895397E-05 -9.74667166E-05  0.00000000E+00  2.73823437E-04  7.07363247E-04
  0.00000000E+00 -8.40223339E-04 -4.83477958E-04  0.00000000E+00 -1.25918547E-04
 -2.59887238E-05  0.00000000E+00 -1.82652907E-05  0.00000000E+00  0.00000000E+00
 -2.94774019E-05  1.47861363E-05 -3.29553361E-04  0.00000000E+00  0.00000000E+00
 -8.27232469E-04  1.42254406E-04 -3.85754510E-05  0.00000000E+00  0.00000000E+00
  9.96006875E-05 -1.10271350E-04  0.00000000E+00 -2.12880317E-05 -1.20235303E-04
  0.00000000E+00  0.00000000E+00 -6.50637378E-05 -1.37627687E-04  0.00000000E+00
  2.18982085E-06 -1.52189125E-04  0.00000000E+00  0.00000000E+00  3.63952374E-05
 -4.21224738E-04 -2.42921406E-03  1.19366646E-04 -1.17168916E-04 -2.55423021E-04
  1.25906244E-04 -7.70301198E-06 -2.80393565E-05  0.00000000E+00  6.80839893E-05
  1.65468798E-04  0.00000000E+00  2.30803896E-04  2.06542360E-04  0.00000000E+00
  1.24215320E-04  2.40211133E-05  0.00000000E+00 -3.30176804E-06  0.00000000E+00
  0.00000000E+00 -1.78388281E-05  1.17555801E-06  4.16524322E-07  0.00000000E+00
  0.00000000E+00  7.95942984E-05  8.93389193E-05 -1.00497561E-04  0.00000000E+00
  0.00000000E+00  1.67127168E-04  1.63009640E-04  0.00000000E+00  1.58373707E-05
 -3.74902652E-06  0.00000000E+00  0.00000000E+00 -4.74495135E-06 -1.16761676E-05
  0.00000000E+00 -3.35466686E-05  4.56506987E-05  0.00000000E+00  0.00000000E+00
  8.41590976E-05  8.95334411E-05  3.83868061E-05 -9.81864616E-04 -4.85418340E-04
 -1.03791607E-05 -2.19961821E-05  1.64892982E-05  0.00000000E+00  1.67146456E-06
  2.74125375E-04  0.00000000E+00 -4.09420850E-05  1.33606270E-04  0.00000000E+00
  2.57767392E-05  0.00000000E+00  0.00000000E+00  1.32114455E-05  1.08091983E-05
 -2.66241470E-05  0.00000000E+00  0.00000000E+00  1.13883748E-05  3.38271848E-05
  1.12533788E-04  8.17563810E-05 -2.78255695E-05  7.53234878E-04  6.55053345E-04
  1.02557714E-05  2.23412014E-06  0.00000000E+00 -7.13507625E-05  1.92141314E-05
  0.00000000E+00  3.29484003E-04  8.81873662E-04  0.00000000E+00  2.03104036E-06
  7.94933238E-05  0.00000000E+00 -2.08452399E-06  0.00000000E+00  0.00000000E+00
 -2.77631663E-07 -6.44451416E-06 -3.64055116E-05  0.00000000E+00  0.00000000E+00
 -2.03538233E-05  8.40906737E-05 -2.36976276E-05  0.00000000E+00  0.00000000E+00
 -2.67424787E-04 -1.52824473E-04  0.00000000E+00  9.28706228E-06  5.75252404E-06
  0.00000000E+00  0.00000000E+00  2.29139982E-06 -1.87393966E-05  0.00000000E+00
 -4.03073561E-05 -3.69886674E-05  0.00000000E+00  0.00000000E+00 -7.42489470E-05
  1.93526010E-05  2.46820099E-03  4.17525573E-05  8.42860058E-05 -7.26701639E-05
 -4.67145559E-04  6.68126761E-06  1.59594567E-05  0.00000000E+00 -6.01375990E-05
 -5.51834874E-05  0.00000000E+00  2.31475327E-04 -1.79354414E-04  0.00000000E+00
 -1.89005903E-04 -6.30467651E-05  0.00000000E+00 -8.76028684E-06  0.00000000E+00
  0.00000000E+00  2.23788877E-05  1.96022931E-05  4.09080920E-06  0.00000000E+00
  0.00000000E+00 -1.16330486E-04 -4.52358570E-05 -3.94593212E-06  0.00000000E+00
  0.00000000E+00 -2.22447110E-04 -1.98269269E-04  0.00000000E+00  2.94222475E-06
 -5.90707320E-07  0.00000000E+00  0.00000000E+00  1.51113379E-06 -1.35731810E-05
  0.00000000E+00 -4.56677939E-05  3.84676598E-06  0.00000000E+00  0.00000000E+00
 -7.25754859E-05  1.88447602E-04  2.58766303E-04  1.46542875E-03 -7.82994603E-05
 -1.54032271E-03  3.93692223E-04 -1.44698860E-04  6.72446961E-07  0.00000000E+00
 -2.08813391E-03 -3.94534186E-04  0.00000000E+00  1.03433967E-03  7.52024228E-04
  0.00000000E+00 -1.71692705E-04  5.50461729E-05  0.00000000E+00 -1.23390721E-04
  0.00000000E+00  0.00000000E+00  2.43772116E-04  9.20925253E-05 -4.41902295E-04
  0.00000000E+00  0.00000000E+00  8.98271318E-04 -7.22571136E-05  1.23364458E-05
  0.00000000E+00  0.00000000E+00 -3.38047379E-04 -1.20853389E-04  0.00000000E+00
 -1.48405140E-06  1.51904634E-05  0.00000000E+00  0.00000000E+00  1.90103087E-05
  1.34578930E-05  0.00000000E+00  1.65491319E-04 -7.14928606E-05  0.00000000E+00
  0.00000000E+00 -2.40587080E-04  4.28996614E-05  9.76649794E-01 -9.84861276E-03
  4.35674428E-02  4.49715208E-03 -4.46411034E-04  2.14986600E-03  4.72933915E-04
  0.00000000E+00 -2.38613222E-03 -5.93636474E-04  0.00000000E+00  1.13991734E-03
 -6.78584315E-06  0.00000000E+00  4.89591939E-06 -4.23378331E-05  0.00000000E+00
 -2.32278652E-04  0.00000000E+00  0.00000000E+00  1.03043156E-04  3.08860550E-05
  3.90434071E-04  0.00000000E+00  0.00000000E+00 -8.36808225E-04 -4.11997070E-04
 -1.54285724E-04  0.00000000E+00  0.00000000E+00  2.57275254E-04  1.58035417E-05
  0.00000000E+00  5.23048630E-05  1.74617646E-05  0.00000000E+00  0.00000000E+00
 -2.22835743E-05 -1.30584933E-05  0.00000000E+00  1.38162278E-04  8.75186187E-06
  0.00000000E+00  0.00000000E+00 -1.91012763E-04 -1.38099270E-04  4.76666117E-04
  2.08343085E-03  1.32715262E-04  1.58256337E-05 -4.28700757E-05 -2.49872896E-04
  0.00000000E+00  1.02854534E-04 -1.28513914E-03  0.00000000E+00  3.01724758E-04
 -3.44405558E-04  0.00000000E+00 -2.99393350E-06  0.00000000E+00  0.00000000E+00
  7.33912262E-05  1.55059700E-05 -1.61021849E-04  0.00000000E+00  0.00000000E+00
 -5.38033046E-04 -1.60483092E-05  9.76837155E-01 -9.16416601E-03  4.34334919E-02
  2.42196173E-04 -1.09191149E-03 -1.53482757E-03  1.45340443E-03  0.00000000E+00
  1.53561801E-03 -1.30242730E-03  0.00000000E+00 -6.39719775E-04 -8.72458369E-04
  0.00000000E+00  4.75625105E-05 -2.74524915E-05  0.00000000E+00  3.20340473E-05
  0.00000000E+00  0.00000000E+00 -1.22285738E-04 -1.58401077E-06  7.47744358E-04
  0.00000000E+00  0.00000000E+00 -1.80716841E-04 -2.33793927E-04 -2.74607417E-04
  0.00000000E+00  0.00000000E+00  1.92718216E-04  1.26303228E-04  0.00000000E+00
 -6.25881998E-05  2.43108299E-06  0.00000000E+00  0.00000000E+00  1.72685274E-05
  1.05489754E-05  0.00000000E+00  5.95129522E-06  1.22253184E-04  0.00000000E+00
  0.00000000E+00  2.49764734E-04  9.01283768E-05 -4.60048829E-03 -2.23963545E-04