 Entering Gaussian System, Link 0=g16
 Input=hoono_r3_1p444028.gjf
 Output=hoono_r3_1p444028.log
 Initial command:
 /sw/contrib/gaussian/g16/B01/g16/l1.exe "/scr/Gau-4690.inp" -scrdir="/scr/"
 Entering Link 1 = /sw/contrib/gaussian/g16/B01/g16/l1.exe PID=      4691.
  
 Copyright (c) 1988-2017, Gaussian, Inc.  All Rights Reserved.
  
 This is part of the Gaussian(R) 16 program.  It is based on
 the Gaussian(R) 09 system (copyright 2009, Gaussian, Inc.),
 the Gaussian(R) 03 system (copyright 2003, Gaussian, Inc.),
 the Gaussian(R) 98 system (copyright 1998, Gaussian, Inc.),
 the Gaussian(R) 94 system (copyright 1995, Gaussian, Inc.),
 the Gaussian 92(TM) system (copyright 1992, Gaussian, Inc.),
 the Gaussian 90(TM) system (copyright 1990, Gaussian, Inc.),
 the Gaussian 88(TM) system (copyright 1988, Gaussian, Inc.),
 the Gaussian 86(TM) system (copyright 1986, Carnegie Mellon
 University), and the Gaussian 82(TM) system (copyright 1983,
 Carnegie Mellon University). Gaussian is a federally registered
 trademark of Gaussian, Inc.
  
 This software contains proprietary and confidential information,
 including trade secrets, belonging to Gaussian, Inc.
  
 This software is provided under written license and may be
 used, copied, transmitted, or stored only in accord with that
 written license.
  
 The following legend is applicable only to US Government
 contracts under FAR:
  
                    RESTRICTED RIGHTS LEGEND
  
 Use, reproduction and disclosure by the US Government is
 subject to restrictions as set forth in subparagraphs (a)
 and (c) of the Commercial Computer Software - Restricted
 Rights clause in FAR 52.227-19.
  
 Gaussian, Inc.
 340 Quinnipiac St., Bldg. 40, Wallingford CT 06492
  
  
 ---------------------------------------------------------------
 Warning -- This program may not be used in any manner that
 competes with the business of Gaussian, Inc. or will provide
 assistance to any competitor of Gaussian, Inc.  The licensee
 of this program is prohibited from giving any competitor of
 Gaussian, Inc. access to this program.  By using this program,
 the user acknowledges that Gaussian, Inc. is engaged in the
 business of creating and licensing software in the field of
 computational chemistry and represents and warrants to the
 licensee that it is not a competitor of Gaussian, Inc. and that
 it will not use this program in any manner prohibited above.
 ---------------------------------------------------------------
  

 Cite this work as:
 Gaussian 16, Revision B.01,
 M. J. Frisch, G. W. Trucks, H. B. Schlegel, G. E. Scuseria, 
 M. A. Robb, J. R. Cheeseman, G. Scalmani, V. Barone, 
 G. A. Petersson, H. Nakatsuji, X. Li, M. Caricato, A. V. Marenich, 
 J. Bloino, B. G. Janesko, R. Gomperts, B. Mennucci, H. P. Hratchian, 
 J. V. Ortiz, A. F. Izmaylov, J. L. Sonnenberg, D. Williams-Young, 
 F. Ding, F. Lipparini, F. Egidi, J. Goings, B. Peng, A. Petrone, 
 T. Henderson, D. Ranasinghe, V. G. Zakrzewski, J. Gao, N. Rega, 
 G. Zheng, W. Liang, M. Hada, M. Ehara, K. Toyota, R. Fukuda, 
 J. Hasegawa, M. Ishida, T. Nakajima, Y. Honda, O. Kitao, H. Nakai, 
 T. Vreven, K. Throssell, J. A. Montgomery, Jr., J. E. Peralta, 
 F. Ogliaro, M. J. Bearpark, J. J. Heyd, E. N. Brothers, K. N. Kudin, 
 V. N. Staroverov, T. A. Keith, R. Kobayashi, J. Normand, 
 K. Raghavachari, A. P. Rendell, J. C. Burant, S. S. Iyengar, 
 J. Tomasi, M. Cossi, J. M. Millam, M. Klene, C. Adamo, R. Cammi, 
 J. W. Ochterski, R. L. Martin, K. Morokuma, O. Farkas, 
 J. B. Foresman, and D. J. Fox, Gaussian, Inc., Wallingford CT, 2016.
 
 ******************************************
 Gaussian 16:  ES64L-G16RevB.01 20-Dec-2017
                14-Feb-2022 
 ******************************************
 %nproc=28
 Will use up to   28 processors via shared memory.
 %mem=120GB
 %chk=hoono_r3_1p444028.chk
 -------------------------------------
 #p SP mp2/aug-cc-pvtz density=current
 -------------------------------------
 1/30=1,38=1,172=1/1;
 2/12=2,17=6,18=5,40=1/2;
 3/5=16,6=1,7=10,11=9,25=1,30=1,71=1/1,2,3;
 4//1;
 5/5=2,38=5/2;
 8/6=4,10=1/1;
 9/15=1,16=-3/6;
 10/5=1,13=10/2;
 6/7=2,8=2,9=2,10=2,22=-1/1;
 99/5=1,9=1/99;
 Leave Link    1 at Mon Feb 14 12:43:05 2022, MaxMem= 16106127360 cpu:               2.9 elap:               0.1
 (Enter /sw/contrib/gaussian/g16/B01/g16/l101.exe)
 -----
 title
 -----
 Symbolic Z-matrix:
 Charge =  0 Multiplicity = 1
 H
 O                    1    r1
 O                    2    r2       1    a1
 N                    3    r3       2    a2       1    d1       0
 O                    4    r4       3    a3       2    d2       0
       Variables:
  r1                    0.96898                  
  r2                    1.45492                  
  r3                    1.44403                  
  r4                    1.17073                  
  a1                   97.59495                  
  a2                  102.29752                  
  a3                  109.06955                  
  d1                  180.                       
  d2                  180.                       
 
 ITRead=  0  0  0  0  0
 MicOpt= -1 -1 -1 -1 -1
 NAtoms=      5 NQM=        5 NQMF=       0 NMMI=      0 NMMIF=      0
                NMic=       0 NMicF=      0.
                    Isotopes and Nuclear Properties:
 (Nuclear quadrupole moments (NQMom) in fm**2, nuclear magnetic moments (NMagM)
  in nuclear magnetons)

  Atom         1           2           3           4           5
 IAtWgt=           1          16          16          14          16
 AtmWgt=   1.0078250  15.9949146  15.9949146  14.0030740  15.9949146
 NucSpn=           1           0           0           2           0
 AtZEff=  -0.0000000  -0.0000000  -0.0000000  -0.0000000  -0.0000000
 NQMom=    0.0000000   0.0000000   0.0000000   2.0440000   0.0000000
 NMagM=    2.7928460   0.0000000   0.0000000   0.4037610   0.0000000
 AtZNuc=   1.0000000   8.0000000   8.0000000   7.0000000   8.0000000
 Leave Link  101 at Mon Feb 14 12:43:05 2022, MaxMem= 16106127360 cpu:               2.5 elap:               0.1
 (Enter /sw/contrib/gaussian/g16/B01/g16/l202.exe)
                          Input orientation:                          
 ---------------------------------------------------------------------
 Center     Atomic      Atomic             Coordinates (Angstroms)
 Number     Number       Type             X           Y           Z
 ---------------------------------------------------------------------
      1          1           0        0.000000    0.000000    0.000000
      2          8           0        0.000000    0.000000    0.968976
      3          8           0        1.442156    0.000000    1.161271
      4          7           0        1.560542    0.000000    2.600439
      5          8           0        2.694658    0.000000    2.890933
 ---------------------------------------------------------------------
                    Distance matrix (angstroms):
                    1          2          3          4          5
     1  H    0.000000
     2  O    0.968976   0.000000
     3  O    1.851584   1.454919   0.000000
     4  N    3.032750   2.257645   1.444029   0.000000
     5  O    3.952047   3.309849   2.135531   1.170729   0.000000
 Stoichiometry    HNO3
 Framework group  CS[SG(HNO3)]
 Deg. of freedom     7
 Full point group                 CS      NOp   2
 Largest Abelian subgroup         CS      NOp   2
 Largest concise Abelian subgroup C1      NOp   1
                         Standard orientation:                         
 ---------------------------------------------------------------------
 Center     Atomic      Atomic             Coordinates (Angstroms)
 Number     Number       Type             X           Y           Z
 ---------------------------------------------------------------------
      1          1           0        1.550998    1.677526   -0.000000
      2          8           0        1.454154    0.713402   -0.000000
      3          8           0       -0.000000    0.666206   -0.000000
      4          7           0       -0.261631   -0.753924    0.000000
      5          8           0       -1.419101   -0.929616    0.000000
 ---------------------------------------------------------------------
 Rotational constants (GHZ):          55.5930802           5.0486626           4.6283416
 Leave Link  202 at Mon Feb 14 12:43:05 2022, MaxMem= 16106127360 cpu:               0.4 elap:               0.0
 (Enter /sw/contrib/gaussian/g16/B01/g16/l301.exe)
 Standard basis: Aug-CC-pVTZ (5D, 7F)
 Ernie: Thresh=  0.10000D-02 Tol=  0.10000D-05 Strict=F.
 Ernie:  12 primitive shells out of 131 were deleted.
 There are   166 symmetry adapted cartesian basis functions of A'  symmetry.
 There are    79 symmetry adapted cartesian basis functions of A"  symmetry.
 There are   136 symmetry adapted basis functions of A'  symmetry.
 There are    71 symmetry adapted basis functions of A"  symmetry.
   207 basis functions,   315 primitive gaussians,   245 cartesian basis functions
    16 alpha electrons       16 beta electrons
       nuclear repulsion energy       117.2771288218 Hartrees.
 IExCor=    0 DFT=F Ex=HF Corr=None ExCW=0 ScaHFX=  1.000000
 ScaDFX=  1.000000  1.000000  1.000000  1.000000 ScalE2=  1.000000  1.000000
 IRadAn=      5 IRanWt=     -1 IRanGd=            0 ICorTp=0 IEmpDi=  4
 NAtoms=    5 NActive=    5 NUniq=    5 SFac= 1.00D+00 NAtFMM=   60 NAOKFM=F Big=F
 Integral buffers will be    131072 words long.
 Raffenetti 1 integral format.
 Two-electron integral symmetry is turned on.
 Leave Link  301 at Mon Feb 14 12:43:05 2022, MaxMem= 16106127360 cpu:               2.2 elap:               0.1
 (Enter /sw/contrib/gaussian/g16/B01/g16/l302.exe)
 NPDir=0 NMtPBC=     1 NCelOv=     1 NCel=       1 NClECP=     1 NCelD=      1
         NCelK=      1 NCelE2=     1 NClLst=     1 CellRange=     0.0.
 One-electron integrals computed using PRISM.
 One-electron integral symmetry used in STVInt
 NBasis=   207 RedAO= T EigKep=  1.80D-04  NBF=   136    71
 NBsUse=   207 1.00D-06 EigRej= -1.00D+00 NBFU=   136    71
 Leave Link  302 at Mon Feb 14 12:43:06 2022, MaxMem= 16106127360 cpu:               4.5 elap:               0.2
 (Enter /sw/contrib/gaussian/g16/B01/g16/l303.exe)
 DipDrv:  MaxL=1.
 Leave Link  303 at Mon Feb 14 12:43:06 2022, MaxMem= 16106127360 cpu:               0.9 elap:               0.1
 (Enter /sw/contrib/gaussian/g16/B01/g16/l401.exe)
 ExpMin= 2.53D-02 ExpMax= 1.53D+04 ExpMxC= 5.22D+02 IAcc=3 IRadAn=         5 AccDes= 0.00D+00
 Harris functional with IExCor=  205 and IRadAn=       5 diagonalized for initial guess.
 HarFok:  IExCor=  205 AccDes= 0.00D+00 IRadAn=         5 IDoV= 1 UseB2=F ITyADJ=14
 ICtDFT=  3500011 ScaDFX=  1.000000  1.000000  1.000000  1.000000
 FoFCou: FMM=F IPFlag=           0 FMFlag=      100000 FMFlg1=           0
         NFxFlg=           0 DoJE=T BraDBF=F KetDBF=T FulRan=T
         wScrn=  0.000000 ICntrl=       500 IOpCl=  0 I1Cent=   200000004 NGrid=           0
         NMat0=    1 NMatS0=      1 NMatT0=    0 NMatD0=    1 NMtDS0=    0 NMtDT0=    0
 Petite list used in FoFCou.
 Harris En= -279.629257379883    
 JPrj=0 DoOrth=F DoCkMO=F.
 Initial guess orbital symmetries:
       Occupied  (A') (A') (A') (A') (A') (A') (A') (A') (A') (A')
                 (A") (A') (A') (A") (A") (A')
       Virtual   (A") (A') (A') (A') (A') (A') (A") (A') (A') (A')
                 (A") (A') (A") (A') (A') (A") (A') (A") (A') (A')
                 (A') (A') (A') (A') (A') (A") (A') (A") (A') (A')
                 (A") (A') (A") (A') (A') (A") (A') (A") (A') (A')
                 (A") (A') (A") (A') (A") (A') (A') (A') (A") (A")
                 (A') (A') (A') (A') (A") (A') (A") (A') (A") (A')
                 (A') (A') (A") (A') (A') (A") (A') (A") (A') (A')
                 (A") (A') (A') (A") (A") (A') (A') (A") (A') (A')
                 (A') (A") (A') (A") (A') (A") (A') (A") (A') (A')
                 (A') (A") (A') (A") (A') (A") (A") (A') (A") (A')
                 (A') (A') (A") (A') (A') (A') (A') (A") (A") (A')
                 (A") (A') (A') (A') (A") (A') (A') (A') (A") (A')
                 (A") (A') (A') (A") (A") (A') (A') (A") (A") (A')
                 (A') (A') (A') (A") (A") (A') (A") (A') (A') (A')
                 (A') (A") (A") (A') (A') (A") (A') (A') (A') (A')
                 (A") (A') (A') (A") (A') (A") (A') (A") (A') (A")
                 (A') (A") (A') (A") (A') (A") (A") (A") (A') (A')
                 (A") (A') (A") (A') (A") (A') (A") (A") (A') (A')
                 (A') (A') (A') (A') (A') (A') (A') (A') (A') (A')
                 (A')
 The electronic state of the initial guess is 1-A'.
 Leave Link  401 at Mon Feb 14 12:43:06 2022, MaxMem= 16106127360 cpu:               7.3 elap:               0.3
 (Enter /sw/contrib/gaussian/g16/B01/g16/l502.exe)
 Keep R1 ints in memory in symmetry-blocked form, NReq=348887737.
 FoFCou: FMM=F IPFlag=           0 FMFlag=           0 FMFlg1=           0
         NFxFlg=           0 DoJE=F BraDBF=F KetDBF=F FulRan=T
         wScrn=  0.000000 ICntrl=       600 IOpCl=  0 I1Cent=           0 NGrid=           0
         NMat0=    1 NMatS0=  21528 NMatT0=    0 NMatD0=    1 NMtDS0=    0 NMtDT0=    0
 Petite list used in FoFCou.
 Closed shell SCF:
 Using DIIS extrapolation, IDIIS=  1040.
 NGot= 16106127360 LenX= 15988850015 LenY= 15988789549
 Requested convergence on RMS density matrix=1.00D-08 within 128 cycles.
 Requested convergence on MAX density matrix=1.00D-06.
 Requested convergence on             energy=1.00D-06.
 No special actions if energy rises.

 Cycle   1  Pass 1  IDiag  1:
 E= -279.370197935263    
 DIIS: error= 2.62D-02 at cycle   1 NSaved=   1.
 NSaved= 1 IEnMin= 1 EnMin= -279.370197935263     IErMin= 1 ErrMin= 2.62D-02
 ErrMax= 2.62D-02  0.00D+00 EMaxC= 1.00D-01 BMatC= 4.41D-01 BMatP= 4.41D-01
 IDIUse=3 WtCom= 7.38D-01 WtEn= 2.62D-01
 Coeff-Com:  0.100D+01
 Coeff-En:   0.100D+01
 Coeff:      0.100D+01
 Gap=     0.520 Goal=   None    Shift=    0.000
 GapD=    0.520 DampG=2.000 DampE=0.500 DampFc=1.0000 IDamp=-1.
 RMSDP=1.63D-03 MaxDP=9.81D-02              OVMax= 1.16D-01

 Cycle   2  Pass 1  IDiag  1:
 E= -279.451932850413     Delta-E=       -0.081734915150 Rises=F Damp=F
 DIIS: error= 1.79D-02 at cycle   2 NSaved=   2.
 NSaved= 2 IEnMin= 2 EnMin= -279.451932850413     IErMin= 2 ErrMin= 1.79D-02
 ErrMax= 1.79D-02  0.00D+00 EMaxC= 1.00D-01 BMatC= 7.49D-02 BMatP= 4.41D-01
 IDIUse=3 WtCom= 8.21D-01 WtEn= 1.79D-01
 Coeff-Com:  0.200D+00 0.800D+00
 Coeff-En:   0.131D-01 0.987D+00
 Coeff:      0.167D+00 0.833D+00
 Gap=     0.532 Goal=   None    Shift=    0.000
 RMSDP=9.12D-04 MaxDP=3.78D-02 DE=-8.17D-02 OVMax= 6.80D-02

 Cycle   3  Pass 1  IDiag  1:
 E= -279.482758102430     Delta-E=       -0.030825252017 Rises=F Damp=F
 DIIS: error= 1.01D-02 at cycle   3 NSaved=   3.
 NSaved= 3 IEnMin= 3 EnMin= -279.482758102430     IErMin= 3 ErrMin= 1.01D-02
 ErrMax= 1.01D-02  0.00D+00 EMaxC= 1.00D-01 BMatC= 2.89D-02 BMatP= 7.49D-02
 IDIUse=3 WtCom= 8.99D-01 WtEn= 1.01D-01
 Coeff-Com: -0.334D-01 0.374D+00 0.660D+00
 Coeff-En:   0.000D+00 0.234D+00 0.766D+00
 Coeff:     -0.300D-01 0.360D+00 0.670D+00
 Gap=     0.510 Goal=   None    Shift=    0.000
 RMSDP=3.78D-04 MaxDP=1.51D-02 DE=-3.08D-02 OVMax= 3.94D-02

 Cycle   4  Pass 1  IDiag  1:
 E= -279.502011905604     Delta-E=       -0.019253803175 Rises=F Damp=F
 DIIS: error= 1.27D-03 at cycle   4 NSaved=   4.
 NSaved= 4 IEnMin= 4 EnMin= -279.502011905604     IErMin= 4 ErrMin= 1.27D-03
 ErrMax= 1.27D-03  0.00D+00 EMaxC= 1.00D-01 BMatC= 4.78D-04 BMatP= 2.89D-02
 IDIUse=3 WtCom= 9.87D-01 WtEn= 1.27D-02
 Coeff-Com: -0.113D-01 0.522D-01 0.152D+00 0.807D+00
 Coeff-En:   0.000D+00 0.000D+00 0.000D+00 0.100D+01
 Coeff:     -0.112D-01 0.515D-01 0.150D+00 0.810D+00
 Gap=     0.502 Goal=   None    Shift=    0.000
 RMSDP=9.01D-05 MaxDP=2.73D-03 DE=-1.93D-02 OVMax= 1.09D-02

 Cycle   5  Pass 1  IDiag  1:
 E= -279.502673237852     Delta-E=       -0.000661332248 Rises=F Damp=F
 DIIS: error= 7.10D-04 at cycle   5 NSaved=   5.
 NSaved= 5 IEnMin= 5 EnMin= -279.502673237852     IErMin= 5 ErrMin= 7.10D-04
 ErrMax= 7.10D-04  0.00D+00 EMaxC= 1.00D-01 BMatC= 8.45D-05 BMatP= 4.78D-04
 IDIUse=3 WtCom= 9.93D-01 WtEn= 7.10D-03
 Coeff-Com:  0.603D-02-0.703D-01-0.115D+00 0.257D-01 0.115D+01
 Coeff-En:   0.000D+00 0.000D+00 0.000D+00 0.000D+00 0.100D+01
 Coeff:      0.599D-02-0.698D-01-0.114D+00 0.255D-01 0.115D+01
 Gap=     0.502 Goal=   None    Shift=    0.000
 RMSDP=7.44D-05 MaxDP=2.07D-03 DE=-6.61D-04 OVMax= 1.09D-02

 Cycle   6  Pass 1  IDiag  1:
 E= -279.502974110854     Delta-E=       -0.000300873002 Rises=F Damp=F
 DIIS: error= 2.85D-04 at cycle   6 NSaved=   6.
 NSaved= 6 IEnMin= 6 EnMin= -279.502974110854     IErMin= 6 ErrMin= 2.85D-04
 ErrMax= 2.85D-04  0.00D+00 EMaxC= 1.00D-01 BMatC= 1.62D-05 BMatP= 8.45D-05
 IDIUse=3 WtCom= 9.97D-01 WtEn= 2.85D-03
 Coeff-Com:  0.552D-03 0.202D-02 0.495D-02-0.133D+00-0.224D+00 0.135D+01
 Coeff-En:   0.000D+00 0.000D+00 0.000D+00 0.000D+00 0.000D+00 0.100D+01
 Coeff:      0.550D-03 0.201D-02 0.494D-02-0.133D+00-0.223D+00 0.135D+01
 Gap=     0.502 Goal=   None    Shift=    0.000
 RMSDP=4.41D-05 MaxDP=1.21D-03 DE=-3.01D-04 OVMax= 5.45D-03

 Cycle   7  Pass 1  IDiag  1:
 E= -279.503043191268     Delta-E=       -0.000069080414 Rises=F Damp=F
 DIIS: error= 1.12D-04 at cycle   7 NSaved=   7.
 NSaved= 7 IEnMin= 7 EnMin= -279.503043191268     IErMin= 7 ErrMin= 1.12D-04
 ErrMax= 1.12D-04  0.00D+00 EMaxC= 1.00D-01 BMatC= 4.17D-06 BMatP= 1.62D-05
 IDIUse=3 WtCom= 9.99D-01 WtEn= 1.12D-03
 Coeff-Com: -0.921D-03 0.130D-01 0.255D-01-0.238D-01-0.276D+00 0.364D+00
 Coeff-Com:  0.898D+00
 Coeff-En:   0.000D+00 0.000D+00 0.000D+00 0.000D+00 0.000D+00 0.000D+00
 Coeff-En:   0.100D+01
 Coeff:     -0.920D-03 0.130D-01 0.255D-01-0.237D-01-0.275D+00 0.363D+00
 Coeff:      0.898D+00
 Gap=     0.502 Goal=   None    Shift=    0.000
 RMSDP=1.29D-05 MaxDP=3.65D-04 DE=-6.91D-05 OVMax= 1.52D-03

 Cycle   8  Pass 1  IDiag  1:
 E= -279.503051503981     Delta-E=       -0.000008312713 Rises=F Damp=F
 DIIS: error= 5.67D-05 at cycle   8 NSaved=   8.
 NSaved= 8 IEnMin= 8 EnMin= -279.503051503981     IErMin= 8 ErrMin= 5.67D-05
 ErrMax= 5.67D-05  0.00D+00 EMaxC= 1.00D-01 BMatC= 5.76D-07 BMatP= 4.17D-06
 IDIUse=1 WtCom= 1.00D+00 WtEn= 0.00D+00
 Coeff-Com: -0.429D-03 0.324D-02 0.723D-02 0.271D-01-0.413D-01-0.194D+00
 Coeff-Com:  0.187D+00 0.101D+01
 Coeff:     -0.429D-03 0.324D-02 0.723D-02 0.271D-01-0.413D-01-0.194D+00
 Coeff:      0.187D+00 0.101D+01
 Gap=     0.502 Goal=   None    Shift=    0.000
 RMSDP=6.50D-06 MaxDP=1.95D-04 DE=-8.31D-06 OVMax= 6.89D-04

 Cycle   9  Pass 1  IDiag  1:
 E= -279.503053137687     Delta-E=       -0.000001633706 Rises=F Damp=F
 DIIS: error= 1.59D-05 at cycle   9 NSaved=   9.
 NSaved= 9 IEnMin= 9 EnMin= -279.503053137687     IErMin= 9 ErrMin= 1.59D-05
 ErrMax= 1.59D-05  0.00D+00 EMaxC= 1.00D-01 BMatC= 6.87D-08 BMatP= 5.76D-07
 IDIUse=1 WtCom= 1.00D+00 WtEn= 0.00D+00
 Coeff-Com:  0.115D-03-0.163D-02-0.291D-02-0.143D-02 0.335D-01-0.311D-02
 Coeff-Com: -0.171D+00-0.795D-01 0.123D+01
 Coeff:      0.115D-03-0.163D-02-0.291D-02-0.143D-02 0.335D-01-0.311D-02
 Coeff:     -0.171D+00-0.795D-01 0.123D+01
 Gap=     0.502 Goal=   None    Shift=    0.000
 RMSDP=1.89D-06 MaxDP=6.50D-05 DE=-1.63D-06 OVMax= 1.74D-04

 Cycle  10  Pass 1  IDiag  1:
 E= -279.503053294049     Delta-E=       -0.000000156363 Rises=F Damp=F
 DIIS: error= 4.14D-06 at cycle  10 NSaved=  10.
 NSaved=10 IEnMin=10 EnMin= -279.503053294049     IErMin=10 ErrMin= 4.14D-06
 ErrMax= 4.14D-06  0.00D+00 EMaxC= 1.00D-01 BMatC= 5.63D-09 BMatP= 6.87D-08
 IDIUse=1 WtCom= 1.00D+00 WtEn= 0.00D+00
 Coeff-Com:  0.326D-04-0.258D-03-0.359D-03-0.281D-02 0.210D-02 0.204D-01
 Coeff-Com: -0.168D-01-0.768D-01-0.729D-01 0.115D+01
 Coeff:      0.326D-04-0.258D-03-0.359D-03-0.281D-02 0.210D-02 0.204D-01
 Coeff:     -0.168D-01-0.768D-01-0.729D-01 0.115D+01
 Gap=     0.502 Goal=   None    Shift=    0.000
 RMSDP=5.11D-07 MaxDP=2.13D-05 DE=-1.56D-07 OVMax= 4.35D-05

 Cycle  11  Pass 1  IDiag  1:
 E= -279.503053306939     Delta-E=       -0.000000012889 Rises=F Damp=F
 DIIS: error= 2.03D-06 at cycle  11 NSaved=  11.
 NSaved=11 IEnMin=11 EnMin= -279.503053306939     IErMin=11 ErrMin= 2.03D-06
 ErrMax= 2.03D-06  0.00D+00 EMaxC= 1.00D-01 BMatC= 6.72D-10 BMatP= 5.63D-09
 IDIUse=1 WtCom= 1.00D+00 WtEn= 0.00D+00
 Coeff-Com: -0.212D-04 0.241D-03 0.483D-03 0.528D-03-0.439D-02-0.352D-02
 Coeff-Com:  0.225D-01 0.304D-01-0.140D+00-0.193D+00 0.129D+01
 Coeff:     -0.212D-04 0.241D-03 0.483D-03 0.528D-03-0.439D-02-0.352D-02
 Coeff:      0.225D-01 0.304D-01-0.140D+00-0.193D+00 0.129D+01
 Gap=     0.502 Goal=   None    Shift=    0.000
 RMSDP=1.83D-07 MaxDP=6.82D-06 DE=-1.29D-08 OVMax= 1.74D-05

 Cycle  12  Pass 1  IDiag  1:
 E= -279.503053308798     Delta-E=       -0.000000001859 Rises=F Damp=F
 DIIS: error= 5.69D-07 at cycle  12 NSaved=  12.
 NSaved=12 IEnMin=12 EnMin= -279.503053308798     IErMin=12 ErrMin= 5.69D-07
 ErrMax= 5.69D-07  0.00D+00 EMaxC= 1.00D-01 BMatC= 6.87D-11 BMatP= 6.72D-10
 IDIUse=1 WtCom= 1.00D+00 WtEn= 0.00D+00
 Coeff-Com:  0.109D-05-0.271D-04-0.588D-04 0.201D-03 0.104D-02-0.234D-02
 Coeff-Com: -0.404D-02 0.587D-02 0.410D-01-0.108D+00-0.283D+00 0.135D+01
 Coeff:      0.109D-05-0.271D-04-0.588D-04 0.201D-03 0.104D-02-0.234D-02
 Coeff:     -0.404D-02 0.587D-02 0.410D-01-0.108D+00-0.283D+00 0.135D+01
 Gap=     0.502 Goal=   None    Shift=    0.000
 RMSDP=7.12D-08 MaxDP=2.81D-06 DE=-1.86D-09 OVMax= 6.44D-06

 Cycle  13  Pass 1  IDiag  1:
 E= -279.503053309016     Delta-E=       -0.000000000219 Rises=F Damp=F
 DIIS: error= 1.62D-07 at cycle  13 NSaved=  13.
 NSaved=13 IEnMin=13 EnMin= -279.503053309016     IErMin=13 ErrMin= 1.62D-07
 ErrMax= 1.62D-07  0.00D+00 EMaxC= 1.00D-01 BMatC= 3.62D-12 BMatP= 6.87D-11
 IDIUse=1 WtCom= 1.00D+00 WtEn= 0.00D+00
 Coeff-Com:  0.125D-05-0.135D-04-0.221D-04-0.873D-04 0.132D-03 0.727D-03
 Coeff-Com: -0.926D-03-0.311D-02 0.653D-03 0.388D-01-0.334D-01-0.311D+00
 Coeff-Com:  0.131D+01
 Coeff:      0.125D-05-0.135D-04-0.221D-04-0.873D-04 0.132D-03 0.727D-03
 Coeff:     -0.926D-03-0.311D-02 0.653D-03 0.388D-01-0.334D-01-0.311D+00
 Coeff:      0.131D+01
 Gap=     0.502 Goal=   None    Shift=    0.000
 RMSDP=1.82D-08 MaxDP=5.14D-07 DE=-2.19D-10 OVMax= 1.48D-06

 Cycle  14  Pass 1  IDiag  1:
 E= -279.503053309029     Delta-E=       -0.000000000012 Rises=F Damp=F
 DIIS: error= 2.25D-08 at cycle  14 NSaved=  14.
 NSaved=14 IEnMin=14 EnMin= -279.503053309029     IErMin=14 ErrMin= 2.25D-08
 ErrMax= 2.25D-08  0.00D+00 EMaxC= 1.00D-01 BMatC= 1.74D-13 BMatP= 3.62D-12
 IDIUse=1 WtCom= 1.00D+00 WtEn= 0.00D+00
 Coeff-Com: -0.173D-06 0.284D-05 0.509D-05 0.352D-05-0.781D-04 0.466D-04
 Coeff-Com:  0.283D-03 0.186D-03-0.233D-02 0.124D-02 0.164D-01-0.259D-01
 Coeff-Com: -0.193D+00 0.120D+01
 Coeff:     -0.173D-06 0.284D-05 0.509D-05 0.352D-05-0.781D-04 0.466D-04
 Coeff:      0.283D-03 0.186D-03-0.233D-02 0.124D-02 0.164D-01-0.259D-01
 Coeff:     -0.193D+00 0.120D+01
 Gap=     0.502 Goal=   None    Shift=    0.000
 RMSDP=3.60D-09 MaxDP=8.88D-08 DE=-1.22D-11 OVMax= 3.21D-07

 SCF Done:  E(RHF) =  -279.503053309     A.U. after   14 cycles
            NFock= 14  Conv=0.36D-08     -V/T= 2.0023
 KE= 2.788699187028D+02 PE=-8.958850277104D+02 EE= 2.202349268768D+02
 Leave Link  502 at Mon Feb 14 12:43:10 2022, MaxMem= 16106127360 cpu:              55.1 elap:               3.5
 (Enter /sw/contrib/gaussian/g16/B01/g16/l801.exe)
 ExpMin= 2.53D-02 ExpMax= 1.53D+04 ExpMxC= 5.22D+02 IAcc=3 IRadAn=         5 AccDes= 0.00D+00
 HarFok:  IExCor=  205 AccDes= 0.00D+00 IRadAn=         5 IDoV=-2 UseB2=F ITyADJ=14
 ICtDFT= 12500011 ScaDFX=  1.000000  1.000000  1.000000  1.000000
 Largest valence mixing into a core orbital is  2.08D-04
 Largest core mixing into a valence orbital is  3.58D-05
 Range of M.O.s used for correlation:     5   207
 NBasis=   207 NAE=    16 NBE=    16 NFC=     4 NFV=     0
 NROrb=    203 NOA=    12 NOB=    12 NVA=   191 NVB=   191

 **** Warning!!: The largest alpha MO coefficient is  0.17881333D+02

 Leave Link  801 at Mon Feb 14 12:43:10 2022, MaxMem= 16106127360 cpu:               2.3 elap:               0.1
 (Enter /sw/contrib/gaussian/g16/B01/g16/l906.exe)
 Frozen-core derivative calculation, NFC=   4 NFV=   0.
 FulOut=F Deriv=T AODrv=F NAtomX=     5
   MMem=          76  MDisk=          12 MDiskD=          12
  W3Min=      811440 MinDsk=     1524655 NBas6D=         245
 NBas2D=       30762    NTT=       30135    LW2=     3500000
    MDV= 16105579871 MDiskM=      328644 NBas2p=       30466
 Fully in-core method, ICMem=   960157634.
 IMap=   1   2   3   4   5   6   7   8   9  10  11  12  13  14  15  16
 JobTyp=1 Pass  1 fully in-core, NPsUse= 28.
 Compute canonical integrals.
 FoFCou: FMM=F IPFlag=           0 FMFlag=           0 FMFlg1=           0
         NFxFlg=           0 DoJE=F BraDBF=F KetDBF=F FulRan=T
         wScrn=  0.000000 ICntrl=       600 IOpCl=  1 I1Cent=           0 NGrid=           0
         NMat0=    1 NMatS0=  30762 NMatT0=    0 NMatD0=    1 NMtDS0=    0 NMtDT0=    0
 Symmetry not used in FoFCou.
 Spin components of T(2) and E(2):
     alpha-alpha T2 =       0.3384952200D-01 E2=     -0.1222403161D+00
     alpha-beta  T2 =       0.1858226118D+00 E2=     -0.6991559698D+00
     beta-beta   T2 =       0.3384952200D-01 E2=     -0.1222403161D+00
 The integrals were generated   1 times.
 ANorm=    0.1119607813D+01
 E2 =    -0.9436366021D+00 EUMP2 =    -0.28044668991116D+03
 Leave Link  906 at Mon Feb 14 12:43:18 2022, MaxMem= 16106127360 cpu:             244.3 elap:               8.8
 (Enter /sw/contrib/gaussian/g16/B01/g16/l1002.exe)
 Minotr:  Closed shell wavefunction.
          Computing MP2/KS-MP2 derivatives.
          Using Z-Vector for PSCF gradient.
          Skipping F1 and S1 gradient terms here.
          Frozen-core window.
          Direct CPHF calculation.
          Differentiating once with respect to electric field.
                with respect to dipole field.
          Electric field/nuclear overlap derivatives assumed to be zero.
          Using symmetry in CPHF.
          Requested convergence is 1.0D-10 RMS, and 1.0D-09 maximum.
          NewPWx=F KeepS1=T KeepF1=T KeepIn=T MapXYZ=F SortEE=F KeepMc=T.
 Keep R1 ints in memory in symmetry-blocked form, NReq=348888868.
 FoFCou: FMM=F IPFlag=           0 FMFlag=           0 FMFlg1=           0
         NFxFlg=           0 DoJE=F BraDBF=F KetDBF=F FulRan=T
         wScrn=  0.000000 ICntrl=       600 IOpCl=  0 I1Cent=           0 NGrid=           0
         NMat0=    1 NMatS0=  21528 NMatT0=    0 NMatD0=    1 NMtDS0=    0 NMtDT0=    0
 Petite list used in FoFCou.
          MDV=   16106127360 using IRadAn=       5.
          Solving linear equations separately, MaxMat=       0.
          There are     1 degrees of freedom in the 1st order CPHF.  IDoFFX=0 NUNeed=     1.
 LinEq1:  Iter=  0 NonCon=     1 RMS=5.90D-03 Max=1.33D-01 NDo=     1
 AX will form     1 AO Fock derivatives at one time.
 LinEq1:  Iter=  1 NonCon=     1 RMS=1.86D-03 Max=3.71D-02 NDo=     1
 LinEq1:  Iter=  2 NonCon=     1 RMS=8.47D-04 Max=1.22D-02 NDo=     1
 LinEq1:  Iter=  3 NonCon=     1 RMS=3.76D-04 Max=7.79D-03 NDo=     1
 LinEq1:  Iter=  4 NonCon=     1 RMS=1.16D-04 Max=1.73D-03 NDo=     1
 LinEq1:  Iter=  5 NonCon=     1 RMS=4.45D-05 Max=7.09D-04 NDo=     1
 LinEq1:  Iter=  6 NonCon=     1 RMS=1.99D-05 Max=2.29D-04 NDo=     1
 LinEq1:  Iter=  7 NonCon=     1 RMS=7.92D-06 Max=1.50D-04 NDo=     1
 LinEq1:  Iter=  8 NonCon=     1 RMS=3.38D-06 Max=3.21D-05 NDo=     1
 LinEq1:  Iter=  9 NonCon=     1 RMS=9.17D-07 Max=1.21D-05 NDo=     1
 LinEq1:  Iter= 10 NonCon=     1 RMS=1.77D-07 Max=1.79D-06 NDo=     1
 LinEq1:  Iter= 11 NonCon=     1 RMS=3.26D-08 Max=3.32D-07 NDo=     1
 LinEq1:  Iter= 12 NonCon=     1 RMS=7.85D-09 Max=1.20D-07 NDo=     1
 LinEq1:  Iter= 13 NonCon=     1 RMS=1.43D-09 Max=2.39D-08 NDo=     1
 LinEq1:  Iter= 14 NonCon=     1 RMS=2.57D-10 Max=3.44D-09 NDo=     1
 LinEq1:  Iter= 15 NonCon=     0 RMS=4.64D-11 Max=5.00D-10 NDo=     1
 Linear equations converged to 1.000D-10 1.000D-09 after    15 iterations.
 End of Minotr F.D. properties file   721 does not exist.
 End of Minotr F.D. properties file   722 does not exist.
 End of Minotr F.D. properties file   788 does not exist.
 Leave Link 1002 at Mon Feb 14 12:43:22 2022, MaxMem= 16106127360 cpu:              54.2 elap:               3.9
 (Enter /sw/contrib/gaussian/g16/B01/g16/l601.exe)
 Copying SCF densities to generalized density rwf, IOpCl= 0 IROHF=0.

 **********************************************************************

            Population analysis using the MP2 Density.

 **********************************************************************

 Orbital symmetries:
       Occupied  (A') (A') (A') (A') (A') (A') (A') (A') (A') (A')
                 (A") (A') (A") (A') (A") (A')
       Virtual   (A') (A") (A') (A') (A') (A") (A') (A') (A") (A')
                 (A") (A') (A') (A') (A") (A') (A') (A") (A') (A')
                 (A') (A') (A') (A') (A") (A') (A') (A") (A') (A')
                 (A") (A') (A") (A') (A') (A") (A') (A") (A') (A')
                 (A") (A') (A") (A') (A') (A") (A') (A') (A") (A')
                 (A") (A') (A') (A') (A") (A') (A") (A') (A") (A')
                 (A') (A') (A") (A') (A') (A") (A') (A") (A') (A')
                 (A") (A') (A') (A") (A") (A') (A') (A") (A') (A')
                 (A') (A") (A') (A") (A") (A') (A') (A") (A') (A')
                 (A") (A') (A') (A") (A') (A") (A') (A") (A') (A')
                 (A") (A') (A") (A') (A') (A") (A') (A') (A") (A')
                 (A") (A') (A') (A') (A") (A') (A') (A') (A") (A')
                 (A") (A') (A") (A') (A') (A") (A") (A') (A") (A')
                 (A') (A') (A') (A") (A") (A") (A') (A') (A') (A')
                 (A") (A') (A") (A') (A') (A") (A') (A') (A') (A')
                 (A") (A') (A') (A") (A') (A") (A') (A") (A') (A")
                 (A') (A") (A') (A") (A') (A") (A") (A') (A") (A')
                 (A") (A') (A") (A') (A") (A') (A") (A") (A') (A')
                 (A') (A') (A') (A') (A') (A') (A') (A') (A') (A')
                 (A')
 The electronic state is 1-A'.
 Alpha  occ. eigenvalues --  -20.69338 -20.68078 -20.66178 -15.81047  -1.62496
 Alpha  occ. eigenvalues --   -1.49777  -1.25886  -0.94699  -0.77398  -0.76096
 Alpha  occ. eigenvalues --   -0.71441  -0.67861  -0.61968  -0.59020  -0.48672
 Alpha  occ. eigenvalues --   -0.47307
 Alpha virt. eigenvalues --    0.02922   0.07358   0.08621   0.10188   0.13383
 Alpha virt. eigenvalues --    0.13402   0.14378   0.15424   0.17793   0.19420
 Alpha virt. eigenvalues --    0.19988   0.20821   0.22038   0.23476   0.23756
 Alpha virt. eigenvalues --    0.26614   0.29874   0.30356   0.31175   0.34455
 Alpha virt. eigenvalues --    0.35038   0.38790   0.42144   0.43116   0.52805
 Alpha virt. eigenvalues --    0.52987   0.56015   0.58245   0.62702   0.63917
 Alpha virt. eigenvalues --    0.67491   0.68441   0.70584   0.71081   0.72394
 Alpha virt. eigenvalues --    0.72840   0.74417   0.79151   0.79251   0.81090
 Alpha virt. eigenvalues --    0.81169   0.83133   0.86933   0.90835   0.92140
 Alpha virt. eigenvalues --    0.92740   0.95521   0.97960   0.98405   1.01525
 Alpha virt. eigenvalues --    1.05267   1.05556   1.08375   1.11879   1.14272
 Alpha virt. eigenvalues --    1.19026   1.22118   1.23306   1.34053   1.35323
 Alpha virt. eigenvalues --    1.38457   1.45574   1.48788   1.50830   1.53900
 Alpha virt. eigenvalues --    1.56867   1.58259   1.61401   1.66524   1.66984
 Alpha virt. eigenvalues --    1.70468   1.79327   1.83209   1.83725   1.87796
 Alpha virt. eigenvalues --    1.91197   1.95633   1.99513   2.00704   2.08248
 Alpha virt. eigenvalues --    2.12261   2.13408   2.14792   2.22733   2.26356
 Alpha virt. eigenvalues --    2.26485   2.29198   2.31476   2.34778   2.38604
 Alpha virt. eigenvalues --    2.42659   2.43226   2.45605   2.46459   2.47910
 Alpha virt. eigenvalues --    2.50357   2.58815   2.59780   2.62455   2.62594
 Alpha virt. eigenvalues --    2.63345   2.66927   2.76000   2.83148   2.86213
 Alpha virt. eigenvalues --    2.88970   2.89306   2.93622   2.95879   3.03078
 Alpha virt. eigenvalues --    3.07384   3.12636   3.20267   3.22993   3.31930
 Alpha virt. eigenvalues --    3.34593   3.51938   3.64900   3.84544   3.84828
 Alpha virt. eigenvalues --    4.14880   4.15987   4.18608   4.26418   4.35152
 Alpha virt. eigenvalues --    4.39379   4.46245   4.52101   4.66714   4.71262
 Alpha virt. eigenvalues --    4.80796   4.82691   4.83633   4.89725   5.02819
 Alpha virt. eigenvalues --    5.08192   5.10899   5.14382   5.18324   5.24637
 Alpha virt. eigenvalues --    5.27737   5.31143   5.33106   5.36137   5.60994
 Alpha virt. eigenvalues --    5.67633   5.77804   5.82799   5.96183   6.17495
 Alpha virt. eigenvalues --    6.30896   6.34423   6.39764   6.49712   6.50856
 Alpha virt. eigenvalues --    6.61434   6.66726   6.70492   6.75615   6.76318
 Alpha virt. eigenvalues --    6.83681   6.90324   7.01747   7.05567   7.05878
 Alpha virt. eigenvalues --    7.08992   7.12896   7.15387   7.18217   7.23174
 Alpha virt. eigenvalues --    7.24081   7.30468   7.32770   7.35146   7.40386
 Alpha virt. eigenvalues --    7.43852   7.48851   7.61062   7.62426   7.63990
 Alpha virt. eigenvalues --    7.67410   7.79500   7.89097   8.11052   8.32110
 Alpha virt. eigenvalues --    8.40917   8.55151  13.43000  14.47582  15.17450
 Alpha virt. eigenvalues --   16.18175
          Condensed to atoms (all electrons):
               1          2          3          4          5
     1  H    0.589275   0.128297   0.020168   0.012515  -0.000639
     2  O    0.128297   8.321848  -0.172381  -0.093078   0.015895
     3  O    0.020168  -0.172381   8.465644  -0.134242  -0.041718
     4  N    0.012515  -0.093078  -0.134242   6.985231  -0.057775
     5  O   -0.000639   0.015895  -0.041718  -0.057775   8.283919
 Mulliken charges:
               1
     1  H    0.250385
     2  O   -0.200580
     3  O   -0.137471
     4  N    0.287349
     5  O   -0.199683
 Sum of Mulliken charges =  -0.00000
 Mulliken charges with hydrogens summed into heavy atoms:
               1
     2  O    0.049804
     3  O   -0.137471
     4  N    0.287349
     5  O   -0.199683
 Electronic spatial extent (au):  <R**2>=            251.3691
 Charge=             -0.0000 electrons
 Dipole moment (field-independent basis, Debye):
    X=              0.5756    Y=              1.4453    Z=             -0.0000  Tot=              1.5557
 Quadrupole moment (field-independent basis, Debye-Ang):
   XX=            -22.4945   YY=            -18.6782   ZZ=            -21.9891
   XY=              3.2281   XZ=              0.0000   YZ=              0.0000
 Traceless Quadrupole moment (field-independent basis, Debye-Ang):
   XX=             -1.4405   YY=              2.3757   ZZ=             -0.9352
   XY=              3.2281   XZ=              0.0000   YZ=              0.0000
 Octapole moment (field-independent basis, Debye-Ang**2):
  XXX=              3.1507  YYY=             11.3243  ZZZ=              0.0000  XYY=              7.9333
  XXY=              6.6994  XXZ=             -0.0000  XZZ=             -1.5534  YZZ=             -0.7978
  YYZ=             -0.0000  XYZ=             -0.0000
 Hexadecapole moment (field-independent basis, Debye-Ang**3):
 XXXX=           -158.5323 YYYY=            -88.2958 ZZZZ=            -18.1976 XXXY=            -36.2042
 XXXZ=              0.0000 YYYX=            -30.4953 YYYZ=              0.0000 ZZZX=              0.0000
 ZZZY=              0.0000 XXYY=            -33.7852 XXZZ=            -30.8801 YYZZ=            -20.3589
 XXYZ=              0.0000 YYXZ=              0.0000 ZZXY=            -14.8997
 N-N= 1.172771288218D+02 E-N=-8.966567258222D+02  KE= 2.802161964469D+02
 Symmetry A'   KE= 2.662395791014D+02
 Symmetry A"   KE= 1.397661734555D+01
 No NMR shielding tensors so no spin-rotation constants.
 Leave Link  601 at Mon Feb 14 12:43:23 2022, MaxMem= 16106127360 cpu:               6.4 elap:               0.3
 (Enter /sw/contrib/gaussian/g16/B01/g16/l9999.exe)
 1\1\GINC-N2115\SP\RMP2-FC\Aug-CC-pVTZ\H1N1O3\CGAVINH\14-Feb-2022\0\\#p
  SP mp2/aug-cc-pvtz density=current\\title\\0,1\H\O,1,0.96897556\O,2,1
 .45491931,1,97.59494903\N,3,1.4440289148,2,102.29752444,1,180.,0\O,4,1
 .17072885,3,109.06955123,2,180.,0\\Version=ES64L-G16RevB.01\State=1-A'
 \HF=-279.5030533\MP2=-280.4466899\RMSD=3.597e-09\Dipole=-0.1685035,0.,
 -0.5883974\Quadrupole=-1.5200039,-0.6952964,2.2153003,0.,2.0699073,0.\
 PG=CS [SG(H1N1O3)]\\@


 WERE I TO AWAIT PERFECTION, MY BOOK WOULD NEVER BE FINISHED.
                                    -- HISTORY OF CHINESE WRITING

                                       TAI T'UNG, 13TH CENTURY
 Job cpu time:       0 days  0 hours  6 minutes 25.2 seconds.
 Elapsed time:       0 days  0 hours  0 minutes 17.7 seconds.
 File lengths (MBytes):  RWF=     22 Int=      0 D2E=      0 Chk=      8 Scr=      1
 Normal termination of Gaussian 16 at Mon Feb 14 12:43:23 2022.
