title                                                                   
SP        RMP2-FC                                                     Aug-CC-pVTZ         
Number of atoms                            I                5
Info1-9                                    I   N=           9
          33          24           0           0           0         110
           1           2           1
Full Title                                 C   N=           1
title       
Route                                      C   N=           4
#p SP mp2/aug-cc-pvtz density=current           
Charge                                     I                0
Multiplicity                               I                1
Number of electrons                        I               32
Number of alpha electrons                  I               16
Number of beta electrons                   I               16
Number of basis functions                  I              207
Number of independent functions            I              207
Number of point charges in /Mol/           I                0
Number of translation vectors              I                0
Atomic numbers                             I   N=           5
           1           8           8           7           8
Nuclear charges                            R   N=           5
  1.00000000E+00  8.00000000E+00  8.00000000E+00  7.00000000E+00  8.00000000E+00
Current cartesian coordinates              R   N=          15
 -4.24953425E+00  8.21046842E-01 -2.57714600E-02 -3.02091115E+00 -5.36661966E-01
 -1.99797783E-02 -7.56679284E-01  1.02239050E+00  2.24995680E-02  1.25432493E+00
 -8.63112895E-01  3.46169782E-02  3.21124790E+00  1.66864398E-01 -2.95882131E-02
Number of symbols in /Mol/                 I                0
Force Field                                I                0
Atom Types                                 C   N=           5
                                                            
Int Atom Types                             I   N=           5
           0           0           0           0           0
MM charges                                 R   N=           5
  0.00000000E+00  0.00000000E+00  0.00000000E+00  0.00000000E+00  0.00000000E+00
Integer atomic weights                     I   N=           5
           1          16          16          14          16
Real atomic weights                        R   N=           5
  1.00782504E+00  1.59949146E+01  1.59949146E+01  1.40030740E+01  1.59949146E+01
Atom fragment info                         I   N=           5
           0           0           0           0           0
Atom residue num                           I   N=           5
           0           0           0           0           0
Nuclear spins                              I   N=           5
           1           0           0           2           0
Nuclear ZEff                               R   N=           5
 -1.00000000E+00 -5.60000000E+00 -5.60000000E+00 -4.55000000E+00 -5.60000000E+00
Nuclear ZNuc                               R   N=           5
  1.00000000E+00  8.00000000E+00  8.00000000E+00  7.00000000E+00  8.00000000E+00
Nuclear QMom                               R   N=           5
  0.00000000E+00  0.00000000E+00  0.00000000E+00  2.04400000E+00  0.00000000E+00
Nuclear GFac                               R   N=           5
  2.79284600E+00  0.00000000E+00  0.00000000E+00  4.03761000E-01  0.00000000E+00
MicOpt                                     I   N=           5
          -1          -1          -1          -1          -1
Number of residues                         I                0
Number of secondary structures             I                0
SymInf integers                            I   N=          26
           1           1           1           1           1           0
           0           0           0           0           0           0
           0           0           0           0           0           0
           0           0           0           0           0           0
           0           0
RotTr to input orientation                 R   N=          12
  7.41358576E-01 -1.33668777E-02  6.70975997E-01  6.70937756E-01 -7.83074238E-03
 -7.41472324E-01  1.51654100E-02  9.99879996E-01  3.16295489E-03  2.59994817E+00
 -2.46052308E-02  3.46020050E+00
Number of contracted shells                I               65
Number of primitive shells                 I              119
Pure/Cartesian d shells                    I                0
Pure/Cartesian f shells                    I                0
Highest angular momentum                   I                3
Largest degree of contraction              I                7
Shell types                                I   N=          65
           0           0           0           0           1           1
           1          -2          -2           0           0           0
           0           0           1           1           1           1
          -2          -2          -2          -3          -3           0
           0           0           0           0           1           1
           1           1          -2          -2          -2          -3
          -3           0           0           0           0           0
           1           1           1           1          -2          -2
          -2          -3          -3           0           0           0
           0           0           1           1           1           1
          -2          -2          -2          -3          -3
Number of primitives per shell             I   N=          65
           3           1           1           1           1           1
           1           1           1           7           6           1
           1           1           3           1           1           1
           1           1           1           1           1           7
           6           1           1           1           3           1
           1           1           1           1           1           1
           1           7           6           1           1           1
           3           1           1           1           1           1
           1           1           1           7           6           1
           1           1           3           1           1           1
           1           1           1           1           1
Shell to atom map                          I   N=          65
           1           1           1           1           1           1
           1           1           1           2           2           2
           2           2           2           2           2           2
           2           2           2           2           2           3
           3           3           3           3           3           3
           3           3           3           3           3           3
           3           4           4           4           4           4
           4           4           4           4           4           4
           4           4           4           5           5           5
           5           5           5           5           5           5
           5           5           5           5           5
Primitive exponents                        R   N=         119
  3.38700000E+01  5.09500000E+00  1.15900000E+00  3.25800000E-01  1.02700000E-01
  2.52600000E-02  1.40700000E+00  3.88000000E-01  1.02000000E-01  1.05700000E+00
  2.47000000E-01  1.53300000E+04  2.29900000E+03  5.22400000E+02  1.47300000E+02
  4.75500000E+01  1.67600000E+01  6.20700000E+00  5.22400000E+02  1.47300000E+02
  4.75500000E+01  1.67600000E+01  6.20700000E+00  6.88200000E-01  1.75200000E+00
  2.38400000E-01  7.37600000E-02  3.44600000E+01  7.74900000E+00  2.28000000E+00
  7.15600000E-01  2.14000000E-01  5.97400000E-02  2.31400000E+00  6.45000000E-01
  2.14000000E-01  1.42800000E+00  5.00000000E-01  1.53300000E+04  2.29900000E+03
  5.22400000E+02  1.47300000E+02  4.75500000E+01  1.67600000E+01  6.20700000E+00
  5.22400000E+02  1.47300000E+02  4.75500000E+01  1.67600000E+01  6.20700000E+00
  6.88200000E-01  1.75200000E+00  2.38400000E-01  7.37600000E-02  3.44600000E+01
  7.74900000E+00  2.28000000E+00  7.15600000E-01  2.14000000E-01  5.97400000E-02
  2.31400000E+00  6.45000000E-01  2.14000000E-01  1.42800000E+00  5.00000000E-01
  1.14200000E+04  1.71200000E+03  3.89300000E+02  1.10000000E+02  3.55700000E+01
  1.25400000E+01  4.64400000E+00  3.89300000E+02  1.10000000E+02  3.55700000E+01
  1.25400000E+01  4.64400000E+00  5.11800000E-01  1.29300000E+00  1.78700000E-01
  5.76000000E-02  2.66300000E+01  5.94800000E+00  1.74200000E+00  5.55000000E-01
  1.72500000E-01  4.91000000E-02  1.65400000E+00  4.69000000E-01  1.51000000E-01
  1.09300000E+00  3.64000000E-01  1.53300000E+04  2.29900000E+03  5.22400000E+02
  1.47300000E+02  4.75500000E+01  1.67600000E+01  6.20700000E+00  5.22400000E+02
  1.47300000E+02  4.75500000E+01  1.67600000E+01  6.20700000E+00  6.88200000E-01
  1.75200000E+00  2.38400000E-01  7.37600000E-02  3.44600000E+01  7.74900000E+00
  2.28000000E+00  7.15600000E-01  2.14000000E-01  5.97400000E-02  2.31400000E+00
  6.45000000E-01  2.14000000E-01  1.42800000E+00  5.00000000E-01
Contraction coefficients                   R   N=         119
  2.54948632E-02  1.90362766E-01  8.52162022E-01  1.00000000E+00  1.00000000E+00
  1.00000000E+00  1.00000000E+00  1.00000000E+00  1.00000000E+00  1.00000000E+00
  1.00000000E+00  5.19808943E-04  4.02025621E-03  2.07128267E-02  8.10105536E-02
  2.35962985E-01  4.42653446E-01  3.57064423E-01 -4.42115008E-05 -1.22591041E-03
 -1.05517725E-02 -6.74452633E-02 -1.71198607E-01  1.07329856E+00  1.00000000E+00
  1.00000000E+00  1.00000000E+00  4.11634896E-02  2.57762836E-01  8.02419274E-01
  1.00000000E+00  1.00000000E+00  1.00000000E+00  1.00000000E+00  1.00000000E+00
  1.00000000E+00  1.00000000E+00  1.00000000E+00  5.19808943E-04  4.02025621E-03
  2.07128267E-02  8.10105536E-02  2.35962985E-01  4.42653446E-01  3.57064423E-01
 -4.42115008E-05 -1.22591041E-03 -1.05517725E-02 -6.74452633E-02 -1.71198607E-01
  1.07329856E+00  1.00000000E+00  1.00000000E+00  1.00000000E+00  4.11634896E-02
  2.57762836E-01  8.02419274E-01  1.00000000E+00  1.00000000E+00  1.00000000E+00
  1.00000000E+00  1.00000000E+00  1.00000000E+00  1.00000000E+00  1.00000000E+00
  5.34563860E-04  4.13435660E-03  2.12335358E-02  8.25006224E-02  2.38138871E-01
  4.42551547E-01  3.53757422E-01 -4.89867350E-05 -1.19527323E-03 -1.03490714E-02
 -6.48680190E-02 -1.71552477E-01  1.07289568E+00  1.00000000E+00  1.00000000E+00
  1.00000000E+00  3.98072123E-02  2.49002660E-01  8.10479727E-01  1.00000000E+00
  1.00000000E+00  1.00000000E+00  1.00000000E+00  1.00000000E+00  1.00000000E+00
  1.00000000E+00  1.00000000E+00  5.19808943E-04  4.02025621E-03  2.07128267E-02
  8.10105536E-02  2.35962985E-01  4.42653446E-01  3.57064423E-01 -4.42115008E-05
 -1.22591041E-03 -1.05517725E-02 -6.74452633E-02 -1.71198607E-01  1.07329856E+00
  1.00000000E+00  1.00000000E+00  1.00000000E+00  4.11634896E-02  2.57762836E-01
  8.02419274E-01  1.00000000E+00  1.00000000E+00  1.00000000E+00  1.00000000E+00
  1.00000000E+00  1.00000000E+00  1.00000000E+00  1.00000000E+00
Coordinates of each shell                  R   N=         195
 -4.24953425E+00  8.21046842E-01 -2.57714600E-02 -4.24953425E+00  8.21046842E-01
 -2.57714600E-02 -4.24953425E+00  8.21046842E-01 -2.57714600E-02 -4.24953425E+00
  8.21046842E-01 -2.57714600E-02 -4.24953425E+00  8.21046842E-01 -2.57714600E-02
 -4.24953425E+00  8.21046842E-01 -2.57714600E-02 -4.24953425E+00  8.21046842E-01
 -2.57714600E-02 -4.24953425E+00  8.21046842E-01 -2.57714600E-02 -4.24953425E+00
  8.21046842E-01 -2.57714600E-02 -3.02091115E+00 -5.36661966E-01 -1.99797783E-02
 -3.02091115E+00 -5.36661966E-01 -1.99797783E-02 -3.02091115E+00 -5.36661966E-01
 -1.99797783E-02 -3.02091115E+00 -5.36661966E-01 -1.99797783E-02 -3.02091115E+00
 -5.36661966E-01 -1.99797783E-02 -3.02091115E+00 -5.36661966E-01 -1.99797783E-02
 -3.02091115E+00 -5.36661966E-01 -1.99797783E-02 -3.02091115E+00 -5.36661966E-01
 -1.99797783E-02 -3.02091115E+00 -5.36661966E-01 -1.99797783E-02 -3.02091115E+00
 -5.36661966E-01 -1.99797783E-02 -3.02091115E+00 -5.36661966E-01 -1.99797783E-02
 -3.02091115E+00 -5.36661966E-01 -1.99797783E-02 -3.02091115E+00 -5.36661966E-01
 -1.99797783E-02 -3.02091115E+00 -5.36661966E-01 -1.99797783E-02 -7.56679284E-01
  1.02239050E+00  2.24995680E-02 -7.56679284E-01  1.02239050E+00  2.24995680E-02
 -7.56679284E-01  1.02239050E+00  2.24995680E-02 -7.56679284E-01  1.02239050E+00
  2.24995680E-02 -7.56679284E-01  1.02239050E+00  2.24995680E-02 -7.56679284E-01
  1.02239050E+00  2.24995680E-02 -7.56679284E-01  1.02239050E+00  2.24995680E-02
 -7.56679284E-01  1.02239050E+00  2.24995680E-02 -7.56679284E-01  1.02239050E+00
  2.24995680E-02 -7.56679284E-01  1.02239050E+00  2.24995680E-02 -7.56679284E-01
  1.02239050E+00  2.24995680E-02 -7.56679284E-01  1.02239050E+00  2.24995680E-02
 -7.56679284E-01  1.02239050E+00  2.24995680E-02 -7.56679284E-01  1.02239050E+00
  2.24995680E-02  1.25432493E+00 -8.63112895E-01  3.46169782E-02  1.25432493E+00
 -8.63112895E-01  3.46169782E-02  1.25432493E+00 -8.63112895E-01  3.46169782E-02
  1.25432493E+00 -8.63112895E-01  3.46169782E-02  1.25432493E+00 -8.63112895E-01
  3.46169782E-02  1.25432493E+00 -8.63112895E-01  3.46169782E-02  1.25432493E+00
 -8.63112895E-01  3.46169782E-02  1.25432493E+00 -8.63112895E-01  3.46169782E-02
  1.25432493E+00 -8.63112895E-01  3.46169782E-02  1.25432493E+00 -8.63112895E-01
  3.46169782E-02  1.25432493E+00 -8.63112895E-01  3.46169782E-02  1.25432493E+00
 -8.63112895E-01  3.46169782E-02  1.25432493E+00 -8.63112895E-01  3.46169782E-02
  1.25432493E+00 -8.63112895E-01  3.46169782E-02  3.21124790E+00  1.66864398E-01
 -2.95882131E-02  3.21124790E+00  1.66864398E-01 -2.95882131E-02  3.21124790E+00
  1.66864398E-01 -2.95882131E-02  3.21124790E+00  1.66864398E-01 -2.95882131E-02
  3.21124790E+00  1.66864398E-01 -2.95882131E-02  3.21124790E+00  1.66864398E-01
 -2.95882131E-02  3.21124790E+00  1.66864398E-01 -2.95882131E-02  3.21124790E+00
  1.66864398E-01 -2.95882131E-02  3.21124790E+00  1.66864398E-01 -2.95882131E-02
  3.21124790E+00  1.66864398E-01 -2.95882131E-02  3.21124790E+00  1.66864398E-01
 -2.95882131E-02  3.21124790E+00  1.66864398E-01 -2.95882131E-02  3.21124790E+00
  1.66864398E-01 -2.95882131E-02  3.21124790E+00  1.66864398E-01 -2.95882131E-02
Num ILSW                                   I              100
ILSW                                       I   N=         100
           0           0           0           0           2           0
           0           0           0           0           0          -1
           5           0           0           0           0           0
           0           0           0           0           0           0
           1           0           0           0           0           0
           0           0      100000           0          -1           0
           0           0           0           0           0           0
           0           0           0           1           0           0
           0 -2000000000           1           0           0           0
           0           0           4          52           0           0
           0           0           0           0           0           0
           0           0           0           5           0           1
           0           0           0           0           0           0
           0           0           0           0           0           0
           0           0           0           0           0           0
           0           0           0           0           0           0
           0           0           0           0
Num RLSW                                   I               52
RLSW                                       R   N=          52
  1.00000000E+00  1.00000000E+00  1.00000000E+00  1.00000000E+00  1.00000000E+00
  0.00000000E+00  0.00000000E+00  1.00000000E+00  0.00000000E+00  0.00000000E+00
  0.00000000E+00  0.00000000E+00  1.00000000E+00  0.00000000E+00  0.00000000E+00
  0.00000000E+00  0.00000000E+00  1.00000000E+00  0.00000000E+00  0.00000000E+00
  0.00000000E+00  0.00000000E+00  1.00000000E+00  0.00000000E+00  0.00000000E+00
  0.00000000E+00  0.00000000E+00  1.00000000E+00  0.00000000E+00  0.00000000E+00
  0.00000000E+00  0.00000000E+00  1.00000000E+00  0.00000000E+00  0.00000000E+00
  0.00000000E+00  0.00000000E+00  0.00000000E+00  1.00000000E+00  1.00000000E+00
  0.00000000E+00  1.00000000E+00  0.00000000E+00  0.00000000E+00  0.00000000E+00
  0.00000000E+00  0.00000000E+00  0.00000000E+00  0.00000000E+00  0.00000000E+00
  0.00000000E+00  0.00000000E+00
MxBond                                     I                2
NBond                                      I   N=           5
           1           2           2           2           1
IBond                                      I   N=          10
           2           0           1           3           2           4
           3           5           4           0
RBond                                      R   N=          10
  1.00000000E+00  0.00000000E+00  1.00000000E+00  1.00000000E+00  1.00000000E+00
  1.00000000E+00  1.00000000E+00  2.00000000E+00  2.00000000E+00  0.00000000E+00
Virial Ratio                               R      2.002353241343528E+00
SCF Energy                                 R     -2.795016577663137E+02
MP2 Energy                                 R     -2.804466892191535E+02
Total Energy                               R     -2.804466892191535E+02
Post-SCF wavefunction norm                 R      1.120218812435418E+00
RMS Density                                R      6.573962213826514E-09
Job Status                                 I                1
Nuclear derivative order                   I                0
External E-field                           R   N=          35
  0.00000000E+00  0.00000000E+00  0.00000000E+00  0.00000000E+00  0.00000000E+00
  0.00000000E+00  0.00000000E+00  0.00000000E+00  0.00000000E+00  0.00000000E+00
  0.00000000E+00  0.00000000E+00  0.00000000E+00  0.00000000E+00  0.00000000E+00
  0.00000000E+00  0.00000000E+00  0.00000000E+00  0.00000000E+00  0.00000000E+00
  0.00000000E+00  0.00000000E+00  0.00000000E+00  0.00000000E+00  0.00000000E+00
  0.00000000E+00  0.00000000E+00  0.00000000E+00  0.00000000E+00  0.00000000E+00
  0.00000000E+00  0.00000000E+00  0.00000000E+00  0.00000000E+00  0.00000000E+00
IOpCl                                      I                0
IROHF                                      I                0
Alpha Orbital Energies                     R   N=         207
 -2.06908468E+01 -2.06843209E+01 -2.06599850E+01 -1.58128181E+01 -1.62403591E+00
 -1.49573627E+00 -1.25440532E+00 -9.48065956E-01 -7.72776267E-01 -7.59174991E-01
 -7.11868799E-01 -6.79291497E-01 -6.20481805E-01 -5.89411728E-01 -4.85223631E-01
 -4.72497488E-01  2.96278133E-02  7.16404715E-02  8.59627805E-02  1.01717990E-01
  1.33135990E-01  1.34743547E-01  1.44083305E-01  1.54535669E-01  1.78209078E-01
  1.94159460E-01  1.99733394E-01  2.06433610E-01  2.20839778E-01  2.35088540E-01
  2.37767955E-01  2.65911722E-01  2.93429691E-01  3.03688735E-01  3.10763515E-01
  3.43428453E-01  3.49774689E-01  3.87215316E-01  4.21827272E-01  4.31401122E-01
  5.26644720E-01  5.29973128E-01  5.58459514E-01  5.81553378E-01  6.25968838E-01
  6.38336899E-01  6.73755968E-01  6.85233942E-01  7.06407132E-01  7.11194159E-01
  7.24360497E-01  7.29493837E-01  7.44688220E-01  7.90740158E-01  7.92975557E-01
  8.09326467E-01  8.13744546E-01  8.30480724E-01  8.68194235E-01  9.08187906E-01
  9.21943972E-01  9.26322942E-01  9.56488505E-01  9.77144115E-01  9.84848807E-01
  1.01638168E+00  1.05131399E+00  1.05500465E+00  1.08309750E+00  1.11747560E+00
  1.14086153E+00  1.18975425E+00  1.22100597E+00  1.23253231E+00  1.33871186E+00
  1.35064008E+00  1.38665676E+00  1.45305118E+00  1.48772106E+00  1.50887324E+00
  1.53805121E+00  1.56649660E+00  1.58023712E+00  1.61324825E+00  1.66398069E+00
  1.66944676E+00  1.70345198E+00  1.79273852E+00  1.83035117E+00  1.83569392E+00
  1.87870705E+00  1.91032883E+00  1.95615263E+00  1.99183102E+00  2.00625300E+00
  2.07764920E+00  2.12072290E+00  2.13168129E+00  2.15026175E+00  2.22470425E+00
  2.26427755E+00  2.26507817E+00  2.28968397E+00  2.31425054E+00  2.34430470E+00
  2.38622210E+00  2.42245315E+00  2.43041281E+00  2.45409854E+00  2.46280891E+00
  2.47689205E+00  2.50162272E+00  2.58972410E+00  2.59657726E+00  2.62033657E+00
  2.62465613E+00  2.63484178E+00  2.66734535E+00  2.75692605E+00  2.82396499E+00
  2.85495210E+00  2.88471778E+00  2.89587457E+00  2.92355358E+00  2.95900393E+00
  3.02554212E+00  3.06835546E+00  3.12170450E+00  3.20478032E+00  3.22642382E+00
  3.31632799E+00  3.34176184E+00  3.51660583E+00  3.64270021E+00  3.83797963E+00
  3.84514889E+00  4.14875221E+00  4.16278987E+00  4.18385462E+00  4.25739047E+00
  4.35167771E+00  4.39331496E+00  4.46354608E+00  4.51919219E+00  4.66105088E+00
  4.71041708E+00  4.80531399E+00  4.82465913E+00  4.82847939E+00  4.89649480E+00
  5.02312954E+00  5.07688339E+00  5.10375159E+00  5.14483123E+00  5.17906809E+00
  5.24277181E+00  5.27233093E+00  5.30767081E+00  5.32954804E+00  5.35517324E+00
  5.60634175E+00  5.67376721E+00  5.76932266E+00  5.82894510E+00  5.95753614E+00
  6.16868917E+00  6.30896815E+00  6.33806247E+00  6.39434375E+00  6.49357786E+00
  6.50539639E+00  6.61392220E+00  6.66784043E+00  6.69934050E+00  6.75751725E+00
  6.76353324E+00  6.83260560E+00  6.89826017E+00  7.01371567E+00  7.05551872E+00
  7.05765074E+00  7.09013135E+00  7.12454702E+00  7.15028043E+00  7.18154631E+00
  7.22512756E+00  7.24179593E+00  7.30739213E+00  7.32539706E+00  7.34758883E+00
  7.39938518E+00  7.43159735E+00  7.48429618E+00  7.60211561E+00  7.62267912E+00
  7.62707851E+00  7.66644760E+00  7.78940851E+00  7.88672158E+00  8.09268705E+00
  8.31432359E+00  8.40907663E+00  8.54411000E+00  1.33915657E+01  1.43926788E+01
  1.51621365E+01  1.61517990E+01
Alpha MO coefficients                      R   N=       42849
  9.19698315E-05 -6.41479664E-04 -7.28091945E-04 -4.57655944E-06  3.32227516E-05
 -8.93077364E-06  1.05191882E-07 -1.08225799E-06  7.47772432E-05 -1.16186036E-06
 -9.17175801E-05 -2.27369207E-05 -9.80024322E-07  3.18517080E-05 -1.47298524E-06
 -1.11343887E-06  5.62730497E-06 -5.36844148E-05 -5.24232076E-06  6.39548898E-07
 -1.91528919E-06  7.21525623E-05 -1.67169257E-04  4.58909114E-03 -2.81942585E-04
  1.47867204E-05  1.55760467E-03  1.82516115E-03 -8.98368043E-05 -5.71689121E-05
 -1.93440007E-06  5.17287084E-04  3.38306509E-04  1.07593186E-05  4.12435694E-04
  1.29433898E-03  1.46096516E-05  2.86461998E-04  2.91086223E-04  4.00576572E-06
  2.88156992E-05 -1.40211316E-06 -1.23279133E-06 -1.02637938E-05 -5.34548968E-05
 -3.78056301E-04  1.76596382E-05  1.45500354E-05  1.85434930E-04  7.17168647E-04
 -4.46771592E-04  9.48564482E-06  9.79673096E-06  5.57714511E-05  2.36017241E-04
 -2.79288813E-06 -7.18663680E-05 -3.73527775E-05  1.49109021E-06  3.88523621E-06
 -3.34716678E-05  1.04354634E-04 -1.11844275E-05 -1.87972343E-04 -1.73694365E-04
  1.57328594E-06  1.27318082E-05 -1.65334124E-04  3.16290839E-04  9.76910990E-01
 -9.21631647E-03  4.33185872E-02  2.04060717E-03 -9.18934577E-04 -3.94480819E-04
 -1.97818152E-03 -1.41551945E-05  3.30675651E-04  1.96671853E-03  1.71057743E-05
  6.26042187E-04 -9.82785649E-04  6.72450198E-06  1.15846435E-04  7.07574755E-05
  2.29340675E-06  4.63035169E-05 -1.46125650E-06 -1.31201019E-06  1.01418846E-05
 -3.99239777E-05  7.46943957E-04 -2.38300417E-05 -1.01746362E-05 -4.40269052E-04
 -1.08570350E-04 -3.59393786E-04  2.35957352E-06  6.72998416E-07 -4.49884138E-04
 -1.90015967E-04 -1.51429428E-06 -8.98621068E-06 -6.75274659E-05  1.39394269E-06
  2.63700757E-06  1.84922100E-06  4.19904032E-05 -9.92600363E-07 -3.17451068E-05
  3.71873085E-06 -1.00197996E-06  4.21072797E-06  2.93808259E-05  3.34288667E-04
  3.91211555E-05  4.61988198E-05 -2.64351661E-04 -7.04094492E-04 -1.44536137E-04
  7.96708472E-05 -6.22612319E-05 -8.99564761E-07 -6.38645196E-04  4.09641963E-04
  6.49327313E-06  9.57444132E-04  1.10576116E-04  1.01682125E-05  1.16993043E-04
  5.19614221E-05  6.15409963E-06 -1.81085129E-05  1.28923899E-06 -6.69052721E-07
  5.73552737E-06 -3.27272418E-05 -3.28877379E-04  3.90219721E-06  3.22989074E-06
 -1.19446220E-04 -8.29663901E-04 -3.63021762E-05 -9.02254031E-06  5.30309528E-06
 -8.25799907E-05  1.26371042E-04  2.56827656E-07  8.80251730E-05 -8.41917394E-05
  9.61627107E-07  2.52547332E-06  1.08977766E-04  1.05089921E-04  5.86879515E-06
  8.85373126E-05 -1.24600673E-04 -8.34945800E-06  5.93889457E-06  4.08649451E-04
  9.82071632E-05 -2.59841737E-03  1.21521091E-04 -1.24377871E-04 -2.43632093E-04
  1.36936933E-04  2.29528878E-05 -1.75611069E-05 -1.02365576E-06 -1.52856403E-04
  9.04578034E-05  7.57147709E-06 -3.08331908E-04  2.37361214E-05 -7.32327720E-06
 -1.16379510E-04 -5.59255697E-05 -4.49250362E-06 -3.37280897E-06  6.42800032E-07
  1.41744045E-07 -4.08875112E-06 -1.74266142E-05  8.55164893E-07 -5.97993297E-06
  1.19342937E-06  1.07526538E-04  5.09620274E-05 -1.00251813E-04  2.30356364E-06
 -4.22912328E-06  2.03947364E-04  1.11212857E-04  6.58656676E-07 -1.06001831E-05
 -1.21735791E-05  5.74538100E-07 -1.22245337E-06  9.81774408E-06  8.00259826E-06
 -1.14670259E-06 -9.94542722E-08  5.61221994E-05 -1.49286607E-06  4.13916213E-06
 -5.71192782E-05 -1.08633491E-04  3.88704754E-05 -9.84651363E-04 -4.85391719E-04
 -1.07525272E-05  8.34072709E-06  2.59451067E-05  1.79914114E-07 -1.62736896E-04
  2.19731907E-04 -1.57236716E-06 -4.61036021E-05  1.31935953E-04  7.77737164E-07
  2.58805803E-05 -1.91165054E-08  2.94496216E-07  1.41287889E-05  8.59356059E-06
 -2.73364637E-05  1.94352218E-07  5.91707373E-07  3.65020182E-05  5.64350274E-07
  1.12331042E-04  8.39975060E-05 -2.79242120E-05  7.47307648E-04  6.49114129E-04
 -9.67240873E-06 -4.03645393E-06  2.75423609E-08  4.90208144E-05  5.58015860E-05
 -7.41983904E-07 -8.02656538E-04  5.23768500E-04  1.19323544E-05 -5.10354653E-05
  6.28489369E-05  5.89281252E-06 -2.27801411E-06 -4.71156969E-07  3.26888983E-08
 -5.78299064E-06  1.63039353E-06 -3.56443808E-05  2.69356744E-06 -1.69225065E-07
  7.37435683E-05 -4.31200389E-05 -2.24628515E-05  9.07584567E-06  9.32152067E-07
 -2.32678857E-04 -2.07469704E-04  2.44499975E-07 -1.09976242E-05 -6.01151525E-07
 -2.34617709E-07  3.13571721E-07  1.84494981E-05  3.65820834E-06 -1.73609278E-06
  5.52606897E-05 -6.73383044E-06  3.99510811E-06  3.32529845E-07 -4.43860970E-05
  6.58069760E-05  2.63719885E-03  3.88789317E-05  9.22572445E-05 -7.07475947E-05
 -4.66310356E-04 -1.52746421E-05  8.26827771E-06 -3.27963334E-07  8.31288104E-05
 -7.29241695E-06  1.06166106E-06 -7.78474089E-05 -2.90183423E-04 -1.26173140E-05
  1.88253325E-04  5.95863934E-05 -3.61464803E-06 -8.70494063E-06 -1.00858476E-06
 -3.19254042E-08  2.54525908E-05  1.55968768E-05  4.48289649E-06  3.67873525E-06
  6.39425246E-08 -7.87570147E-05 -9.86264886E-05 -4.49021612E-06  5.71059804E-06
  9.89255349E-06 -2.61552150E-04 -1.51658608E-04 -8.06991564E-07 -2.28308312E-06
 -2.39033198E-06 -7.33708079E-07  2.44084630E-07  1.33347568E-05  2.92674927E-06
  2.13719108E-07  3.51422762E-05  3.04665458E-05  5.59093458E-06 -3.44742891E-06
 -2.02359005E-04  9.19471191E-06  2.58659832E-04  1.46497991E-03 -7.80308684E-05
 -1.53882573E-03  3.97795365E-04  1.15999615E-04  8.59954548E-05 -4.84148473E-06
  1.91896193E-03  9.17759346E-04 -5.73405545E-05 -1.28885449E-03 -4.38159580E-06
  1.73901128E-05  1.03995522E-04  1.46251765E-04 -3.37223010E-06 -1.23015225E-04
 -1.22809233E-05 -5.60527809E-06  1.60893511E-04  2.04815502E-04 -4.40886296E-04
 -4.58707439E-05 -2.85875437E-05  1.99394878E-04  8.77900805E-04  1.12748252E-05
  1.29823667E-05  2.08470779E-06 -2.16045921E-04 -2.87704884E-04 -1.57584799E-06
 -8.06062016E-06  1.30392832E-05  1.55756449E-06  4.85065698E-07 -6.25124368E-06
 -2.22394381E-05  1.86410091E-05 -8.88663011E-05 -1.55012161E-04 -9.10620466E-06
 -1.97332976E-05 -1.19705733E-04  2.12663239E-04  9.76649182E-01 -9.84866242E-03
  4.35679437E-02  4.50159067E-03 -4.45750529E-04 -2.01186309E-03 -8.90654608E-04
  6.54372198E-05  2.27450412E-03  9.32432275E-04 -6.71635792E-05 -9.13470197E-04
 -6.80217259E-04  4.40472940E-05  2.14762791E-05 -3.66859354E-05 -2.21598000E-06
 -2.32008303E-04 -1.00021782E-05 -1.08663902E-05  6.05077767E-05  8.87199265E-05
  3.89635636E-04  4.30844326E-05  1.05365098E-05 -6.44000206E-04 -6.74605580E-04
 -1.52938508E-04 -1.59748397E-05 -1.19801805E-05  9.09178760E-05  2.39764639E-04
  3.80388486E-06 -5.23011727E-05 -1.66995614E-05 -1.69559704E-06 -3.50514470E-06
  5.14126809E-06  2.52002946E-05  9.59871516E-06 -1.16226935E-04 -7.47384415E-05
 -1.08974791E-05 -8.81413998E-06  6.91397351E-05  2.25538091E-04  4.74832922E-04
  2.06060334E-03  1.15862182E-04  1.49481190E-05  1.79916999E-04 -1.73850411E-04
  1.28220263E-06  6.69186088E-04 -1.09099452E-03 -1.53747712E-06 -4.79996882E-05
 -4.56701544E-04 -6.17114228E-06 -2.63339045E-06  1.14723563E-06  5.93305455E-07
  3.69215034E-05  6.81589633E-05 -1.60184733E-04 -2.40429947E-06 -1.97645851E-06
 -1.79311716E-04 -5.06974546E-04  9.76830076E-01 -9.16317811E-03  4.34497460E-02
  1.64844729E-04 -1.13984031E-03  3.96826003E-04  2.08868176E-03  2.36914332E-05
 -5.00252897E-04 -1.96938807E-03 -2.32642852E-05  9.73464518E-04 -3.56880657E-04
  9.97183172E-06 -2.62038083E-05 -5.84242992E-05 -1.68501607E-06  2.94710680E-05
 -2.59168573E-06 -1.69306850E-06 -3.71956740E-05 -1.12060914E-04  7.57094473E-04
 -2.29488669E-05 -1.07078990E-05 -2.83961020E-04 -1.24532278E-04 -2.66341909E-04
  4.90003729E-06  5.61287403E-06  1.71515927E-04  1.24197399E-04  2.48247070E-06
  5.07257480E-05  3.91477076E-05 -7.49698781E-07 -1.61522830E-06 -2.98804442E-06
 -2.10415269E-05 -2.49422662E-07 -7.22118493E-05  9.93016857E-05 -1.29251259E-07
 -6.74033879E-06 -2.52433595E-07 -2.72938513E-04 -4.68137507E-03 -2.11208843E-04