title                                                                   
SP        RMP2-FC                                                     Aug-CC-pVTZ         
Number of atoms                            I                5
Info1-9                                    I   N=           9
          33          24           0           0           0         110
           1           2           1
Full Title                                 C   N=           1
title       
Route                                      C   N=           4
#p SP mp2/aug-cc-pvtz density=current           
Charge                                     I                0
Multiplicity                               I                1
Number of electrons                        I               32
Number of alpha electrons                  I               16
Number of beta electrons                   I               16
Number of basis functions                  I              207
Number of independent functions            I              207
Number of point charges in /Mol/           I                0
Number of translation vectors              I                0
Atomic numbers                             I   N=           5
           1           8           8           7           8
Nuclear charges                            R   N=           5
  1.00000000E+00  8.00000000E+00  8.00000000E+00  7.00000000E+00  8.00000000E+00
Current cartesian coordinates              R   N=          15
  2.92572411E+00  3.18340980E+00  1.52027630E-31  2.74769790E+00  1.36098610E+00
  4.59979475E-32 -7.01767198E-17  1.26428407E+00  7.43525609E-33 -4.92047545E-01
 -1.44814972E+00  7.29311278E-33 -2.68287181E+00 -1.75606539E+00 -1.03958064E-31
Number of symbols in /Mol/                 I                0
Force Field                                I                0
Atom Types                                 C   N=           5
                                                            
Int Atom Types                             I   N=           5
           0           0           0           0           0
MM charges                                 R   N=           5
  0.00000000E+00  0.00000000E+00  0.00000000E+00  0.00000000E+00  0.00000000E+00
Integer atomic weights                     I   N=           5
           1          16          16          14          16
Real atomic weights                        R   N=           5
  1.00782504E+00  1.59949146E+01  1.59949146E+01  1.40030740E+01  1.59949146E+01
Atom fragment info                         I   N=           5
           0           0           0           0           0
Atom residue num                           I   N=           5
           0           0           0           0           0
Nuclear spins                              I   N=           5
           1           0           0           2           0
Nuclear ZEff                               R   N=           5
 -1.00000000E+00 -5.60000000E+00 -5.60000000E+00 -4.55000000E+00 -5.60000000E+00
Nuclear ZNuc                               R   N=           5
  1.00000000E+00  8.00000000E+00  8.00000000E+00  7.00000000E+00  8.00000000E+00
Nuclear QMom                               R   N=           5
  0.00000000E+00  0.00000000E+00  0.00000000E+00  2.04400000E+00  0.00000000E+00
Nuclear GFac                               R   N=           5
  2.79284600E+00  0.00000000E+00  0.00000000E+00  4.03761000E-01  0.00000000E+00
MicOpt                                     I   N=           5
          -1          -1          -1          -1          -1
Number of residues                         I                0
Number of secondary structures             I                0
SymInf integers                            I   N=          26
           1           2           1           1           1           1
           1          -1           0           0           0           0
           0           0           0           0           0           0
           0           0           0           0           0           0
           0           0
RotTr to input orientation                 R   N=          12
 -9.95262552E-01 -9.86591895E-17 -9.72237267E-02  9.72237267E-02 -7.25531678E-17
 -9.95262552E-01  9.11379073E-17 -1.00000000E+00  8.18014650E-17  2.60236068E+00
  0.00000000E+00  3.45277836E+00
Number of contracted shells                I               65
Number of primitive shells                 I              119
Pure/Cartesian d shells                    I                0
Pure/Cartesian f shells                    I                0
Highest angular momentum                   I                3
Largest degree of contraction              I                7
Shell types                                I   N=          65
           0           0           0           0           1           1
           1          -2          -2           0           0           0
           0           0           1           1           1           1
          -2          -2          -2          -3          -3           0
           0           0           0           0           1           1
           1           1          -2          -2          -2          -3
          -3           0           0           0           0           0
           1           1           1           1          -2          -2
          -2          -3          -3           0           0           0
           0           0           1           1           1           1
          -2          -2          -2          -3          -3
Number of primitives per shell             I   N=          65
           3           1           1           1           1           1
           1           1           1           7           6           1
           1           1           3           1           1           1
           1           1           1           1           1           7
           6           1           1           1           3           1
           1           1           1           1           1           1
           1           7           6           1           1           1
           3           1           1           1           1           1
           1           1           1           7           6           1
           1           1           3           1           1           1
           1           1           1           1           1
Shell to atom map                          I   N=          65
           1           1           1           1           1           1
           1           1           1           2           2           2
           2           2           2           2           2           2
           2           2           2           2           2           3
           3           3           3           3           3           3
           3           3           3           3           3           3
           3           4           4           4           4           4
           4           4           4           4           4           4
           4           4           4           5           5           5
           5           5           5           5           5           5
           5           5           5           5           5
Primitive exponents                        R   N=         119
  3.38700000E+01  5.09500000E+00  1.15900000E+00  3.25800000E-01  1.02700000E-01
  2.52600000E-02  1.40700000E+00  3.88000000E-01  1.02000000E-01  1.05700000E+00
  2.47000000E-01  1.53300000E+04  2.29900000E+03  5.22400000E+02  1.47300000E+02
  4.75500000E+01  1.67600000E+01  6.20700000E+00  5.22400000E+02  1.47300000E+02
  4.75500000E+01  1.67600000E+01  6.20700000E+00  6.88200000E-01  1.75200000E+00
  2.38400000E-01  7.37600000E-02  3.44600000E+01  7.74900000E+00  2.28000000E+00
  7.15600000E-01  2.14000000E-01  5.97400000E-02  2.31400000E+00  6.45000000E-01
  2.14000000E-01  1.42800000E+00  5.00000000E-01  1.53300000E+04  2.29900000E+03
  5.22400000E+02  1.47300000E+02  4.75500000E+01  1.67600000E+01  6.20700000E+00
  5.22400000E+02  1.47300000E+02  4.75500000E+01  1.67600000E+01  6.20700000E+00
  6.88200000E-01  1.75200000E+00  2.38400000E-01  7.37600000E-02  3.44600000E+01
  7.74900000E+00  2.28000000E+00  7.15600000E-01  2.14000000E-01  5.97400000E-02
  2.31400000E+00  6.45000000E-01  2.14000000E-01  1.42800000E+00  5.00000000E-01
  1.14200000E+04  1.71200000E+03  3.89300000E+02  1.10000000E+02  3.55700000E+01
  1.25400000E+01  4.64400000E+00  3.89300000E+02  1.10000000E+02  3.55700000E+01
  1.25400000E+01  4.64400000E+00  5.11800000E-01  1.29300000E+00  1.78700000E-01
  5.76000000E-02  2.66300000E+01  5.94800000E+00  1.74200000E+00  5.55000000E-01
  1.72500000E-01  4.91000000E-02  1.65400000E+00  4.69000000E-01  1.51000000E-01
  1.09300000E+00  3.64000000E-01  1.53300000E+04  2.29900000E+03  5.22400000E+02
  1.47300000E+02  4.75500000E+01  1.67600000E+01  6.20700000E+00  5.22400000E+02
  1.47300000E+02  4.75500000E+01  1.67600000E+01  6.20700000E+00  6.88200000E-01
  1.75200000E+00  2.38400000E-01  7.37600000E-02  3.44600000E+01  7.74900000E+00
  2.28000000E+00  7.15600000E-01  2.14000000E-01  5.97400000E-02  2.31400000E+00
  6.45000000E-01  2.14000000E-01  1.42800000E+00  5.00000000E-01
Contraction coefficients                   R   N=         119
  2.54948632E-02  1.90362766E-01  8.52162022E-01  1.00000000E+00  1.00000000E+00
  1.00000000E+00  1.00000000E+00  1.00000000E+00  1.00000000E+00  1.00000000E+00
  1.00000000E+00  5.19808943E-04  4.02025621E-03  2.07128267E-02  8.10105536E-02
  2.35962985E-01  4.42653446E-01  3.57064423E-01 -4.42115008E-05 -1.22591041E-03
 -1.05517725E-02 -6.74452633E-02 -1.71198607E-01  1.07329856E+00  1.00000000E+00
  1.00000000E+00  1.00000000E+00  4.11634896E-02  2.57762836E-01  8.02419274E-01
  1.00000000E+00  1.00000000E+00  1.00000000E+00  1.00000000E+00  1.00000000E+00
  1.00000000E+00  1.00000000E+00  1.00000000E+00  5.19808943E-04  4.02025621E-03
  2.07128267E-02  8.10105536E-02  2.35962985E-01  4.42653446E-01  3.57064423E-01
 -4.42115008E-05 -1.22591041E-03 -1.05517725E-02 -6.74452633E-02 -1.71198607E-01
  1.07329856E+00  1.00000000E+00  1.00000000E+00  1.00000000E+00  4.11634896E-02
  2.57762836E-01  8.02419274E-01  1.00000000E+00  1.00000000E+00  1.00000000E+00
  1.00000000E+00  1.00000000E+00  1.00000000E+00  1.00000000E+00  1.00000000E+00
  5.34563860E-04  4.13435660E-03  2.12335358E-02  8.25006224E-02  2.38138871E-01
  4.42551547E-01  3.53757422E-01 -4.89867350E-05 -1.19527323E-03 -1.03490714E-02
 -6.48680190E-02 -1.71552477E-01  1.07289568E+00  1.00000000E+00  1.00000000E+00
  1.00000000E+00  3.98072123E-02  2.49002660E-01  8.10479727E-01  1.00000000E+00
  1.00000000E+00  1.00000000E+00  1.00000000E+00  1.00000000E+00  1.00000000E+00
  1.00000000E+00  1.00000000E+00  5.19808943E-04  4.02025621E-03  2.07128267E-02
  8.10105536E-02  2.35962985E-01  4.42653446E-01  3.57064423E-01 -4.42115008E-05
 -1.22591041E-03 -1.05517725E-02 -6.74452633E-02 -1.71198607E-01  1.07329856E+00
  1.00000000E+00  1.00000000E+00  1.00000000E+00  4.11634896E-02  2.57762836E-01
  8.02419274E-01  1.00000000E+00  1.00000000E+00  1.00000000E+00  1.00000000E+00
  1.00000000E+00  1.00000000E+00  1.00000000E+00  1.00000000E+00
Coordinates of each shell                  R   N=         195
  2.92572411E+00  3.18340980E+00  5.40935009E-32  2.92572411E+00  3.18340980E+00
  5.40935009E-32  2.92572411E+00  3.18340980E+00  5.40935009E-32  2.92572411E+00
  3.18340980E+00  5.40935009E-32  2.92572411E+00  3.18340980E+00  5.40935009E-32
  2.92572411E+00  3.18340980E+00  5.40935009E-32  2.92572411E+00  3.18340980E+00
  5.40935009E-32  2.92572411E+00  3.18340980E+00  5.40935009E-32  2.92572411E+00
  3.18340980E+00  5.40935009E-32  2.74769790E+00  1.36098610E+00  5.08019871E-32
  2.74769790E+00  1.36098610E+00  5.08019871E-32  2.74769790E+00  1.36098610E+00
  5.08019871E-32  2.74769790E+00  1.36098610E+00  5.08019871E-32  2.74769790E+00
  1.36098610E+00  5.08019871E-32  2.74769790E+00  1.36098610E+00  5.08019871E-32
  2.74769790E+00  1.36098610E+00  5.08019871E-32  2.74769790E+00  1.36098610E+00
  5.08019871E-32  2.74769790E+00  1.36098610E+00  5.08019871E-32  2.74769790E+00
  1.36098610E+00  5.08019871E-32  2.74769790E+00  1.36098610E+00  5.08019871E-32
  2.74769790E+00  1.36098610E+00  5.08019871E-32  2.74769790E+00  1.36098610E+00
  5.08019871E-32  2.74769790E+00  1.36098610E+00  5.08019871E-32 -2.00715485E-18
  1.26428407E+00  0.00000000E+00 -2.00715485E-18  1.26428407E+00  0.00000000E+00
 -2.00715485E-18  1.26428407E+00  0.00000000E+00 -2.00715485E-18  1.26428407E+00
  0.00000000E+00 -2.00715485E-18  1.26428407E+00  0.00000000E+00 -2.00715485E-18
  1.26428407E+00  0.00000000E+00 -2.00715485E-18  1.26428407E+00  0.00000000E+00
 -2.00715485E-18  1.26428407E+00  0.00000000E+00 -2.00715485E-18  1.26428407E+00
  0.00000000E+00 -2.00715485E-18  1.26428407E+00  0.00000000E+00 -2.00715485E-18
  1.26428407E+00  0.00000000E+00 -2.00715485E-18  1.26428407E+00  0.00000000E+00
 -2.00715485E-18  1.26428407E+00  0.00000000E+00 -2.00715485E-18  1.26428407E+00
  0.00000000E+00 -4.92047545E-01 -1.44814972E+00 -9.09743138E-33 -4.92047545E-01
 -1.44814972E+00 -9.09743138E-33 -4.92047545E-01 -1.44814972E+00 -9.09743138E-33
 -4.92047545E-01 -1.44814972E+00 -9.09743138E-33 -4.92047545E-01 -1.44814972E+00
 -9.09743138E-33 -4.92047545E-01 -1.44814972E+00 -9.09743138E-33 -4.92047545E-01
 -1.44814972E+00 -9.09743138E-33 -4.92047545E-01 -1.44814972E+00 -9.09743138E-33
 -4.92047545E-01 -1.44814972E+00 -9.09743138E-33 -4.92047545E-01 -1.44814972E+00
 -9.09743138E-33 -4.92047545E-01 -1.44814972E+00 -9.09743138E-33 -4.92047545E-01
 -1.44814972E+00 -9.09743138E-33 -4.92047545E-01 -1.44814972E+00 -9.09743138E-33
 -4.92047545E-01 -1.44814972E+00 -9.09743138E-33 -2.68287181E+00 -1.75606539E+00
 -4.96034223E-32 -2.68287181E+00 -1.75606539E+00 -4.96034223E-32 -2.68287181E+00
 -1.75606539E+00 -4.96034223E-32 -2.68287181E+00 -1.75606539E+00 -4.96034223E-32
 -2.68287181E+00 -1.75606539E+00 -4.96034223E-32 -2.68287181E+00 -1.75606539E+00
 -4.96034223E-32 -2.68287181E+00 -1.75606539E+00 -4.96034223E-32 -2.68287181E+00
 -1.75606539E+00 -4.96034223E-32 -2.68287181E+00 -1.75606539E+00 -4.96034223E-32
 -2.68287181E+00 -1.75606539E+00 -4.96034223E-32 -2.68287181E+00 -1.75606539E+00
 -4.96034223E-32 -2.68287181E+00 -1.75606539E+00 -4.96034223E-32 -2.68287181E+00
 -1.75606539E+00 -4.96034223E-32 -2.68287181E+00 -1.75606539E+00 -4.96034223E-32
Num ILSW                                   I              100
ILSW                                       I   N=         100
           0           0           0           0           2           0
           0           0           0           0           0          -1
           5           0           0           0           0           0
           0           0           0           0           0           0
           1           0           0           0           0           0
           0           0      100000           0          -1           0
           0           0           0           0           0           0
           0           0           0           1           0           0
           0 -2000000000           1           0           0           0
           0           0           4          52           0           0
           0           0           0           0           0           0
           0           0           0           5           0           1
           0           0           0           0           0           0
           0           0           0           0           0           0
           0           0           0           0           0           0
           0           0           0           0           0           0
           0           0           0           0
Num RLSW                                   I               52
RLSW                                       R   N=          52
  1.00000000E+00  1.00000000E+00  1.00000000E+00  1.00000000E+00  1.00000000E+00
  0.00000000E+00  0.00000000E+00  1.00000000E+00  0.00000000E+00  0.00000000E+00
  0.00000000E+00  0.00000000E+00  1.00000000E+00  0.00000000E+00  0.00000000E+00
  0.00000000E+00  0.00000000E+00  1.00000000E+00  0.00000000E+00  0.00000000E+00
  0.00000000E+00  0.00000000E+00  1.00000000E+00  0.00000000E+00  0.00000000E+00
  0.00000000E+00  0.00000000E+00  1.00000000E+00  0.00000000E+00  0.00000000E+00
  0.00000000E+00  0.00000000E+00  1.00000000E+00  0.00000000E+00  0.00000000E+00
  0.00000000E+00  0.00000000E+00  0.00000000E+00  1.00000000E+00  1.00000000E+00
  0.00000000E+00  1.00000000E+00  0.00000000E+00  0.00000000E+00  0.00000000E+00
  0.00000000E+00  0.00000000E+00  0.00000000E+00  0.00000000E+00  0.00000000E+00
  0.00000000E+00  0.00000000E+00
MxBond                                     I                2
NBond                                      I   N=           5
           1           2           2           2           1
IBond                                      I   N=          10
           2           0           1           3           2           4
           3           5           4           0
RBond                                      R   N=          10
  1.00000000E+00  0.00000000E+00  1.00000000E+00  1.00000000E+00  1.00000000E+00
  1.00000000E+00  1.00000000E+00  2.00000000E+00  2.00000000E+00  0.00000000E+00
Virial Ratio                               R      2.002334041723416E+00
SCF Energy                                 R     -2.795016905384446E+02
MP2 Energy                                 R     -2.804466895305312E+02
Total Energy                               R     -2.804466895305312E+02
Post-SCF wavefunction norm                 R      1.120189375126402E+00
RMS Density                                R      3.756394595485425E-09
Job Status                                 I                1
Nuclear derivative order                   I                0
External E-field                           R   N=          35
  0.00000000E+00  0.00000000E+00  0.00000000E+00  0.00000000E+00  0.00000000E+00
  0.00000000E+00  0.00000000E+00  0.00000000E+00  0.00000000E+00  0.00000000E+00
  0.00000000E+00  0.00000000E+00  0.00000000E+00  0.00000000E+00  0.00000000E+00
  0.00000000E+00  0.00000000E+00  0.00000000E+00  0.00000000E+00  0.00000000E+00
  0.00000000E+00  0.00000000E+00  0.00000000E+00  0.00000000E+00  0.00000000E+00
  0.00000000E+00  0.00000000E+00  0.00000000E+00  0.00000000E+00  0.00000000E+00
  0.00000000E+00  0.00000000E+00  0.00000000E+00  0.00000000E+00  0.00000000E+00
IOpCl                                      I                0
IROHF                                      I                0
Alpha Orbital Energies                     R   N=         207
 -2.06905545E+01 -2.06840182E+01 -2.06594716E+01 -1.58131048E+01 -1.62469358E+00
 -1.49515832E+00 -1.25376609E+00 -9.48276382E-01 -7.72349531E-01 -7.59452816E-01
 -7.11947301E-01 -6.79165601E-01 -6.20143642E-01 -5.88735946E-01 -4.84849929E-01
 -4.73440199E-01  2.96891782E-02  7.13383670E-02  8.60967705E-02  1.01703632E-01
  1.33906582E-01  1.33911078E-01  1.44117262E-01  1.54476980E-01  1.78342524E-01
  1.94138671E-01  1.99838413E-01  2.06508752E-01  2.20801916E-01  2.36205051E-01
  2.37486850E-01  2.66607673E-01  2.92795689E-01  3.03648801E-01  3.10326194E-01
  3.43678834E-01  3.49634540E-01  3.87482369E-01  4.22328533E-01  4.31920006E-01
  5.28056618E-01  5.28643153E-01  5.58189551E-01  5.80870685E-01  6.25505430E-01
  6.39921861E-01  6.74671403E-01  6.84587407E-01  7.05255145E-01  7.11447795E-01
  7.23773774E-01  7.29251186E-01  7.43898303E-01  7.92435767E-01  7.92917752E-01
  8.10761592E-01  8.13014551E-01  8.30946933E-01  8.68194396E-01  9.08815575E-01
  9.22197381E-01  9.27981336E-01  9.56485807E-01  9.76018051E-01  9.84819355E-01
  1.01677048E+00  1.05194956E+00  1.05492549E+00  1.08279279E+00  1.11740709E+00
  1.14166902E+00  1.18999085E+00  1.21924928E+00  1.23306774E+00  1.33923738E+00
  1.35164692E+00  1.38742128E+00  1.45471601E+00  1.48766185E+00  1.50811963E+00
  1.53775393E+00  1.56771117E+00  1.57956380E+00  1.61279868E+00  1.66449921E+00
  1.67074653E+00  1.70247762E+00  1.79265768E+00  1.83036007E+00  1.83501740E+00
  1.87983638E+00  1.90881393E+00  1.95653722E+00  1.99302373E+00  2.00389468E+00
  2.07963000E+00  2.12221028E+00  2.13110848E+00  2.15086167E+00  2.22558505E+00
  2.26526662E+00  2.26658913E+00  2.28948708E+00  2.31450102E+00  2.34606239E+00
  2.38625383E+00  2.42595694E+00  2.42861784E+00  2.45235206E+00  2.46045495E+00
  2.47779450E+00  2.50090377E+00  2.58904205E+00  2.59802607E+00  2.62241762E+00
  2.62396971E+00  2.63434881E+00  2.66991311E+00  2.75485809E+00  2.81945762E+00
  2.85172568E+00  2.88950527E+00  2.89361803E+00  2.93368359E+00  2.95462558E+00
  3.02638126E+00  3.06562162E+00  3.12481982E+00  3.20488273E+00  3.22487235E+00
  3.31828370E+00  3.33913671E+00  3.52276941E+00  3.64022065E+00  3.83843042E+00
  3.84428156E+00  4.14925489E+00  4.16602778E+00  4.18442089E+00  4.25789127E+00
  4.34964948E+00  4.39344328E+00  4.46335448E+00  4.51997274E+00  4.65849346E+00
  4.71155827E+00  4.80319232E+00  4.82762964E+00  4.83026362E+00  4.89622337E+00
  5.02419044E+00  5.07681032E+00  5.10575007E+00  5.14548277E+00  5.17569529E+00
  5.24367056E+00  5.27356122E+00  5.30591296E+00  5.33039576E+00  5.35316019E+00
  5.60422290E+00  5.67357070E+00  5.77868105E+00  5.82907188E+00  5.95694446E+00
  6.16922444E+00  6.31008880E+00  6.33697677E+00  6.39471654E+00  6.49525721E+00
  6.50761220E+00  6.61466187E+00  6.66811291E+00  6.70312684E+00  6.75799580E+00
  6.76446759E+00  6.83528400E+00  6.89511413E+00  7.01553943E+00  7.05698771E+00
  7.05790682E+00  7.09127061E+00  7.12355266E+00  7.15102123E+00  7.18212639E+00
  7.22575552E+00  7.24232121E+00  7.30756355E+00  7.32538409E+00  7.34736125E+00
  7.39900314E+00  7.43116023E+00  7.48351674E+00  7.60892145E+00  7.61474536E+00
  7.62947857E+00  7.66821138E+00  7.79517400E+00  7.88263237E+00  8.09373023E+00
  8.31517341E+00  8.40919473E+00  8.54372127E+00  1.33975629E+01  1.43841876E+01
  1.51664669E+01  1.61556202E+01
Alpha MO coefficients                      R   N=       42849
  9.21516564E-05 -6.29334630E-04 -7.27657701E-04 -4.09485828E-06 -2.14862779E-05
 -2.72874750E-05  0.00000000E+00 -4.34245455E-05  5.73504296E-05  0.00000000E+00
  8.72510319E-05  3.66881316E-05  0.00000000E+00  3.18032775E-05  0.00000000E+00
  0.00000000E+00 -5.01732054E-05  2.07710564E-05 -4.32179554E-06  0.00000000E+00
  0.00000000E+00 -1.40292322E-04  1.18027424E-04  4.55771521E-03 -2.81327080E-04
  1.30947313E-05  1.54282901E-03  1.82506957E-03  1.06595676E-04  7.63811446E-06
  0.00000000E+00 -6.18241063E-04 -3.72958402E-05  0.00000000E+00 -1.10254537E-03
  7.79518925E-04  0.00000000E+00 -4.03763647E-04  6.20204391E-05  0.00000000E+00
  2.89250883E-05  0.00000000E+00  0.00000000E+00 -5.43539502E-05  5.80481632E-06
 -3.78709156E-04  0.00000000E+00  0.00000000E+00  7.42453772E-04 -3.16029643E-05
 -4.46570758E-04  0.00000000E+00  0.00000000E+00  2.46222063E-04 -1.05748716E-05
  0.00000000E+00  8.02231974E-05  1.28137582E-05  0.00000000E+00  0.00000000E+00
 -1.09623869E-04 -3.48761482E-06  0.00000000E+00  2.55686437E-04 -2.72977562E-05
  0.00000000E+00  0.00000000E+00 -3.54335007E-04  4.94234571E-05  9.76911143E-01
 -9.21641971E-03  4.33185525E-02  2.03058098E-03 -9.08983583E-04  1.49859671E-03
 -1.34684904E-03  0.00000000E+00 -1.44099848E-03  1.37513815E-03  0.00000000E+00
  8.25042045E-05 -1.15013249E-03  0.00000000E+00 -1.35532163E-04 -1.36760497E-05
  0.00000000E+00  4.66001723E-05  0.00000000E+00  0.00000000E+00 -3.44133299E-05
  2.18682686E-05  7.48262722E-04  0.00000000E+00  0.00000000E+00 -2.35428863E-04
 -3.90275289E-04 -3.63989627E-04  0.00000000E+00  0.00000000E+00 -3.05498906E-04
 -3.64097191E-04  0.00000000E+00  4.73044791E-05 -4.86690017E-05  0.00000000E+00
  0.00000000E+00 -3.92821533E-05 -1.51389963E-05  0.00000000E+00  2.45804894E-05
  2.22446517E-05  0.00000000E+00  0.00000000E+00 -3.03971897E-04 -1.40858528E-04
  3.89052402E-05  4.52846825E-05 -2.63244456E-04 -7.15940074E-04 -1.58506506E-04
 -2.64904620E-05 -9.68188029E-05  0.00000000E+00  2.71015654E-04  7.03920401E-04
  0.00000000E+00 -8.19049477E-04 -4.65217153E-04  0.00000000E+00 -1.24687792E-04
 -3.01474648E-05  0.00000000E+00 -1.82212994E-05  0.00000000E+00  0.00000000E+00
 -2.98946492E-05  1.59267150E-05 -3.27333319E-04  0.00000000E+00  0.00000000E+00
 -8.25214707E-04  1.25129587E-04 -3.61583158E-05  0.00000000E+00  0.00000000E+00
  9.26258412E-05 -1.20754354E-04  0.00000000E+00 -2.04259911E-05 -1.19744155E-04
  0.00000000E+00  0.00000000E+00 -6.23233866E-05 -1.37399143E-04  0.00000000E+00
  3.93803970E-06 -1.53171872E-04  0.00000000E+00  0.00000000E+00  4.35827820E-05
 -4.14193729E-04 -2.62198491E-03  1.27183869E-04 -1.23328814E-04 -2.31306770E-04
  1.48182760E-04 -7.76038496E-06 -2.62266529E-05  0.00000000E+00  7.19588096E-05
  1.56071156E-04  0.00000000E+00  2.41721209E-04  1.92450417E-04  0.00000000E+00
  1.29731646E-04  2.49426290E-05  0.00000000E+00 -3.71210699E-06  0.00000000E+00
  0.00000000E+00 -1.81269868E-05  1.68414180E-06  4.06000686E-06  0.00000000E+00
  0.00000000E+00  8.64658092E-05  8.14032701E-05 -9.74678250E-05  0.00000000E+00
  0.00000000E+00  1.73802471E-04  1.59087927E-04  0.00000000E+00  1.63272888E-05
 -2.83686162E-06  0.00000000E+00  0.00000000E+00 -3.18196061E-06 -1.22061342E-05
  0.00000000E+00 -3.18901894E-05  4.42643267E-05  0.00000000E+00  0.00000000E+00
  8.75948062E-05  8.91752800E-05  3.92370576E-05 -9.82223198E-04 -4.80836712E-04
 -1.07737521E-05 -2.08268879E-05  1.53313574E-05  0.00000000E+00 -2.54852963E-06
  2.68597731E-04  0.00000000E+00 -4.42342738E-05  1.31816626E-04  0.00000000E+00
  2.56325430E-05  0.00000000E+00  0.00000000E+00  1.16106251E-05  1.09523014E-05
 -2.93623944E-05  0.00000000E+00  0.00000000E+00  1.19447585E-05  3.53628182E-05
  1.12883044E-04  8.38935249E-05 -2.76266565E-05  7.36078810E-04  6.56678623E-04
  1.03006303E-05  2.51196900E-06  0.00000000E+00 -7.39576188E-05  1.38362476E-05
  0.00000000E+00  3.37949034E-04  9.11734451E-04  0.00000000E+00  2.13193203E-06
  8.39524441E-05  0.00000000E+00 -2.30619646E-06  0.00000000E+00  0.00000000E+00
 -1.50189993E-07 -5.29135969E-06 -3.50273064E-05  0.00000000E+00  0.00000000E+00
 -1.79778576E-05  7.88418081E-05 -2.34268278E-05  0.00000000E+00  0.00000000E+00
 -2.71038009E-04 -1.69358234E-04  0.00000000E+00  8.97039347E-06  6.12996391E-06
  0.00000000E+00  0.00000000E+00  2.47373420E-06 -1.84361868E-05  0.00000000E+00
 -3.91912473E-05 -3.88554935E-05  0.00000000E+00  0.00000000E+00 -7.55875197E-05
  2.25691523E-05  2.66148375E-03  3.98560165E-05  9.63894254E-05 -8.30130405E-05
 -4.87957565E-04  6.05043148E-06  1.37497896E-05  0.00000000E+00 -5.78680173E-05
 -4.70234189E-05  0.00000000E+00  2.58504549E-04 -1.88404544E-04  0.00000000E+00
 -1.94463168E-04 -6.74452668E-05  0.00000000E+00 -8.93405970E-06  0.00000000E+00
  0.00000000E+00  2.22807410E-05  2.10269307E-05  8.31210247E-06  0.00000000E+00
  0.00000000E+00 -1.14830179E-04 -5.60232335E-05  3.27585064E-07  0.00000000E+00
  0.00000000E+00 -2.22038443E-04 -2.27960925E-04  0.00000000E+00  2.01592736E-06
 -2.35958017E-06  0.00000000E+00  0.00000000E+00 -3.72993909E-08 -1.21520493E-05
  0.00000000E+00 -4.51350822E-05  5.79985385E-06  0.00000000E+00  0.00000000E+00
 -7.78181435E-05  1.82652952E-04  2.58220161E-04  1.46059129E-03 -7.97857085E-05
 -1.49982317E-03  4.09645174E-04 -1.45132562E-04  5.48844997E-07  0.00000000E+00
 -2.08668732E-03 -3.75307102E-04  0.00000000E+00  1.01146374E-03  7.48058896E-04
  0.00000000E+00 -1.66613082E-04  6.31597818E-05  0.00000000E+00 -1.22757440E-04
  0.00000000E+00  0.00000000E+00  2.45928868E-04  8.85095445E-05 -4.45739497E-04
  0.00000000E+00  0.00000000E+00  8.90127224E-04 -8.38626233E-05  7.29558739E-06
  0.00000000E+00  0.00000000E+00 -3.38749274E-04 -1.19770984E-04  0.00000000E+00
 -1.94132609E-06  1.47607782E-05  0.00000000E+00  0.00000000E+00  1.92913530E-05
  1.18565720E-05  0.00000000E+00  1.66543814E-04 -7.38101430E-05  0.00000000E+00
  0.00000000E+00 -2.36394523E-04  4.48486423E-05  9.76647804E-01 -9.84953342E-03
  4.35699377E-02  4.47999667E-03 -4.51195325E-04  2.15467014E-03  4.45311506E-04
  0.00000000E+00 -2.39102152E-03 -5.66160853E-04  0.00000000E+00  1.13561382E-03
 -3.87315790E-06  0.00000000E+00  3.38115495E-06 -4.48439578E-05  0.00000000E+00
 -2.32944304E-04  0.00000000E+00  0.00000000E+00  1.02870675E-04  2.98501754E-05
  3.89566017E-04  0.00000000E+00  0.00000000E+00 -8.44403754E-04 -3.91634956E-04
 -1.57135416E-04  0.00000000E+00  0.00000000E+00  2.52548000E-04  1.83237606E-05
  0.00000000E+00  5.25082811E-05  1.73986963E-05  0.00000000E+00  0.00000000E+00
 -2.20637849E-05 -1.20973015E-05  0.00000000E+00  1.37941123E-04  5.63325122E-06
  0.00000000E+00  0.00000000E+00 -1.96389984E-04 -1.31613463E-04  4.74967842E-04
  2.05676083E-03  1.10909608E-04  1.48617753E-05 -4.09597295E-05 -2.46896180E-04
  0.00000000E+00  1.12866139E-04 -1.27334601E-03  0.00000000E+00  3.15045262E-04
 -3.36204638E-04  0.00000000E+00 -2.57898531E-06  0.00000000E+00  0.00000000E+00
  7.60880910E-05  1.54737022E-05 -1.59866248E-04  0.00000000E+00  0.00000000E+00
 -5.37507502E-04 -2.55319133E-05  9.76829749E-01 -9.16315268E-03  4.34504477E-02
  1.67979242E-04 -1.15120277E-03 -1.56117020E-03  1.44128314E-03  0.00000000E+00
  1.57369396E-03 -1.28376060E-03  0.00000000E+00 -5.67073582E-04 -8.62255782E-04
  0.00000000E+00  5.65729412E-05 -3.53416175E-05  0.00000000E+00  2.93427244E-05
  0.00000000E+00  0.00000000E+00 -1.17861147E-04 -2.81467558E-06  7.57069971E-04
  0.00000000E+00  0.00000000E+00 -2.01555949E-04 -2.35183891E-04 -2.66640779E-04
  0.00000000E+00  0.00000000E+00  1.67068267E-04  1.27573321E-04  0.00000000E+00
 -6.41149971E-05  1.23163233E-06  0.00000000E+00  0.00000000E+00  1.87598034E-05
  9.99455102E-06  0.00000000E+00 -1.20416558E-06  1.22759208E-04  0.00000000E+00
  0.00000000E+00  2.56865929E-04  9.18038141E-05 -4.64968462E-03 -2.10600146E-04