title                                                                   
SP        RMP2-FC                                                     Aug-CC-pVTZ         
Number of atoms                            I                5
Info1-9                                    I   N=           9
          33          24           0           0           0         110
           1           2           1
Full Title                                 C   N=           1
title       
Route                                      C   N=           4
#p SP mp2/aug-cc-pvtz density=current           
Charge                                     I                0
Multiplicity                               I                1
Number of electrons                        I               32
Number of alpha electrons                  I               16
Number of beta electrons                   I               16
Number of basis functions                  I              207
Number of independent functions            I              207
Number of point charges in /Mol/           I                0
Number of translation vectors              I                0
Atomic numbers                             I   N=           5
           1           8           8           7           8
Nuclear charges                            R   N=           5
  1.00000000E+00  8.00000000E+00  8.00000000E+00  7.00000000E+00  8.00000000E+00
Current cartesian coordinates              R   N=          15
  2.92433632E+00  3.15983605E+00 -8.02674911E-33  2.74777442E+00  1.36723265E+00
 -4.29676249E-33 -5.61086272E-17  1.27273008E+00  5.37809754E-32 -4.94218593E-01
 -1.43930898E+00 -4.32140261E-32 -2.68087520E+00 -1.77554687E+00  6.98396408E-32
Number of symbols in /Mol/                 I                0
Force Field                                I                0
Atom Types                                 C   N=           5
                                                            
Int Atom Types                             I   N=           5
           0           0           0           0           0
MM charges                                 R   N=           5
  0.00000000E+00  0.00000000E+00  0.00000000E+00  0.00000000E+00  0.00000000E+00
Integer atomic weights                     I   N=           5
           1          16          16          14          16
Real atomic weights                        R   N=           5
  1.00782504E+00  1.59949146E+01  1.59949146E+01  1.40030740E+01  1.59949146E+01
Atom fragment info                         I   N=           5
           0           0           0           0           0
Atom residue num                           I   N=           5
           0           0           0           0           0
Nuclear spins                              I   N=           5
           1           0           0           2           0
Nuclear ZEff                               R   N=           5
 -1.00000000E+00 -5.60000000E+00 -5.60000000E+00 -4.55000000E+00 -5.60000000E+00
Nuclear ZNuc                               R   N=           5
  1.00000000E+00  8.00000000E+00  8.00000000E+00  7.00000000E+00  8.00000000E+00
Nuclear QMom                               R   N=           5
  0.00000000E+00  0.00000000E+00  0.00000000E+00  2.04400000E+00  0.00000000E+00
Nuclear GFac                               R   N=           5
  2.79284600E+00  0.00000000E+00  0.00000000E+00  4.03761000E-01  0.00000000E+00
MicOpt                                     I   N=           5
          -1          -1          -1          -1          -1
Number of residues                         I                0
Number of secondary structures             I                0
SymInf integers                            I   N=          26
           1           2           1           1           1           1
           1          -1           0           0           0           0
           0           0           0           0           0           0
           0           0           0           0           0           0
           0           0
RotTr to input orientation                 R   N=          12
 -9.95184409E-01 -9.84812468E-17 -9.80203672E-02  9.80203672E-02 -7.27945181E-17
 -9.95184409E-01  9.08716560E-17 -1.00000000E+00  8.20971374E-17  2.60052562E+00
  0.00000000E+00  3.43126409E+00
Number of contracted shells                I               65
Number of primitive shells                 I              119
Pure/Cartesian d shells                    I                0
Pure/Cartesian f shells                    I                0
Highest angular momentum                   I                3
Largest degree of contraction              I                7
Shell types                                I   N=          65
           0           0           0           0           1           1
           1          -2          -2           0           0           0
           0           0           1           1           1           1
          -2          -2          -2          -3          -3           0
           0           0           0           0           1           1
           1           1          -2          -2          -2          -3
          -3           0           0           0           0           0
           1           1           1           1          -2          -2
          -2          -3          -3           0           0           0
           0           0           1           1           1           1
          -2          -2          -2          -3          -3
Number of primitives per shell             I   N=          65
           3           1           1           1           1           1
           1           1           1           7           6           1
           1           1           3           1           1           1
           1           1           1           1           1           7
           6           1           1           1           3           1
           1           1           1           1           1           1
           1           7           6           1           1           1
           3           1           1           1           1           1
           1           1           1           7           6           1
           1           1           3           1           1           1
           1           1           1           1           1
Shell to atom map                          I   N=          65
           1           1           1           1           1           1
           1           1           1           2           2           2
           2           2           2           2           2           2
           2           2           2           2           2           3
           3           3           3           3           3           3
           3           3           3           3           3           3
           3           4           4           4           4           4
           4           4           4           4           4           4
           4           4           4           5           5           5
           5           5           5           5           5           5
           5           5           5           5           5
Primitive exponents                        R   N=         119
  3.38700000E+01  5.09500000E+00  1.15900000E+00  3.25800000E-01  1.02700000E-01
  2.52600000E-02  1.40700000E+00  3.88000000E-01  1.02000000E-01  1.05700000E+00
  2.47000000E-01  1.53300000E+04  2.29900000E+03  5.22400000E+02  1.47300000E+02
  4.75500000E+01  1.67600000E+01  6.20700000E+00  5.22400000E+02  1.47300000E+02
  4.75500000E+01  1.67600000E+01  6.20700000E+00  6.88200000E-01  1.75200000E+00
  2.38400000E-01  7.37600000E-02  3.44600000E+01  7.74900000E+00  2.28000000E+00
  7.15600000E-01  2.14000000E-01  5.97400000E-02  2.31400000E+00  6.45000000E-01
  2.14000000E-01  1.42800000E+00  5.00000000E-01  1.53300000E+04  2.29900000E+03
  5.22400000E+02  1.47300000E+02  4.75500000E+01  1.67600000E+01  6.20700000E+00
  5.22400000E+02  1.47300000E+02  4.75500000E+01  1.67600000E+01  6.20700000E+00
  6.88200000E-01  1.75200000E+00  2.38400000E-01  7.37600000E-02  3.44600000E+01
  7.74900000E+00  2.28000000E+00  7.15600000E-01  2.14000000E-01  5.97400000E-02
  2.31400000E+00  6.45000000E-01  2.14000000E-01  1.42800000E+00  5.00000000E-01
  1.14200000E+04  1.71200000E+03  3.89300000E+02  1.10000000E+02  3.55700000E+01
  1.25400000E+01  4.64400000E+00  3.89300000E+02  1.10000000E+02  3.55700000E+01
  1.25400000E+01  4.64400000E+00  5.11800000E-01  1.29300000E+00  1.78700000E-01
  5.76000000E-02  2.66300000E+01  5.94800000E+00  1.74200000E+00  5.55000000E-01
  1.72500000E-01  4.91000000E-02  1.65400000E+00  4.69000000E-01  1.51000000E-01
  1.09300000E+00  3.64000000E-01  1.53300000E+04  2.29900000E+03  5.22400000E+02
  1.47300000E+02  4.75500000E+01  1.67600000E+01  6.20700000E+00  5.22400000E+02
  1.47300000E+02  4.75500000E+01  1.67600000E+01  6.20700000E+00  6.88200000E-01
  1.75200000E+00  2.38400000E-01  7.37600000E-02  3.44600000E+01  7.74900000E+00
  2.28000000E+00  7.15600000E-01  2.14000000E-01  5.97400000E-02  2.31400000E+00
  6.45000000E-01  2.14000000E-01  1.42800000E+00  5.00000000E-01
Contraction coefficients                   R   N=         119
  2.54948632E-02  1.90362766E-01  8.52162022E-01  1.00000000E+00  1.00000000E+00
  1.00000000E+00  1.00000000E+00  1.00000000E+00  1.00000000E+00  1.00000000E+00
  1.00000000E+00  5.19808943E-04  4.02025621E-03  2.07128267E-02  8.10105536E-02
  2.35962985E-01  4.42653446E-01  3.57064423E-01 -4.42115008E-05 -1.22591041E-03
 -1.05517725E-02 -6.74452633E-02 -1.71198607E-01  1.07329856E+00  1.00000000E+00
  1.00000000E+00  1.00000000E+00  4.11634896E-02  2.57762836E-01  8.02419274E-01
  1.00000000E+00  1.00000000E+00  1.00000000E+00  1.00000000E+00  1.00000000E+00
  1.00000000E+00  1.00000000E+00  1.00000000E+00  5.19808943E-04  4.02025621E-03
  2.07128267E-02  8.10105536E-02  2.35962985E-01  4.42653446E-01  3.57064423E-01
 -4.42115008E-05 -1.22591041E-03 -1.05517725E-02 -6.74452633E-02 -1.71198607E-01
  1.07329856E+00  1.00000000E+00  1.00000000E+00  1.00000000E+00  4.11634896E-02
  2.57762836E-01  8.02419274E-01  1.00000000E+00  1.00000000E+00  1.00000000E+00
  1.00000000E+00  1.00000000E+00  1.00000000E+00  1.00000000E+00  1.00000000E+00
  5.34563860E-04  4.13435660E-03  2.12335358E-02  8.25006224E-02  2.38138871E-01
  4.42551547E-01  3.53757422E-01 -4.89867350E-05 -1.19527323E-03 -1.03490714E-02
 -6.48680190E-02 -1.71552477E-01  1.07289568E+00  1.00000000E+00  1.00000000E+00
  1.00000000E+00  3.98072123E-02  2.49002660E-01  8.10479727E-01  1.00000000E+00
  1.00000000E+00  1.00000000E+00  1.00000000E+00  1.00000000E+00  1.00000000E+00
  1.00000000E+00  1.00000000E+00  5.19808943E-04  4.02025621E-03  2.07128267E-02
  8.10105536E-02  2.35962985E-01  4.42653446E-01  3.57064423E-01 -4.42115008E-05
 -1.22591041E-03 -1.05517725E-02 -6.74452633E-02 -1.71198607E-01  1.07329856E+00
  1.00000000E+00  1.00000000E+00  1.00000000E+00  4.11634896E-02  2.57762836E-01
  8.02419274E-01  1.00000000E+00  1.00000000E+00  1.00000000E+00  1.00000000E+00
  1.00000000E+00  1.00000000E+00  1.00000000E+00  1.00000000E+00
Coordinates of each shell                  R   N=         195
  2.92433632E+00  3.15983605E+00  2.73951649E-32  2.92433632E+00  3.15983605E+00
  2.73951649E-32  2.92433632E+00  3.15983605E+00  2.73951649E-32  2.92433632E+00
  3.15983605E+00  2.73951649E-32  2.92433632E+00  3.15983605E+00  2.73951649E-32
  2.92433632E+00  3.15983605E+00  2.73951649E-32  2.92433632E+00  3.15983605E+00
  2.73951649E-32  2.92433632E+00  3.15983605E+00  2.73951649E-32  2.92433632E+00
  3.15983605E+00  2.73951649E-32  2.74777442E+00  1.36723265E+00 -3.73223306E-33
  2.74777442E+00  1.36723265E+00 -3.73223306E-33  2.74777442E+00  1.36723265E+00
 -3.73223306E-33  2.74777442E+00  1.36723265E+00 -3.73223306E-33  2.74777442E+00
  1.36723265E+00 -3.73223306E-33  2.74777442E+00  1.36723265E+00 -3.73223306E-33
  2.74777442E+00  1.36723265E+00 -3.73223306E-33  2.74777442E+00  1.36723265E+00
 -3.73223306E-33  2.74777442E+00  1.36723265E+00 -3.73223306E-33  2.74777442E+00
  1.36723265E+00 -3.73223306E-33  2.74777442E+00  1.36723265E+00 -3.73223306E-33
  2.74777442E+00  1.36723265E+00 -3.73223306E-33  2.74777442E+00  1.36723265E+00
 -3.73223306E-33  2.74777442E+00  1.36723265E+00 -3.73223306E-33 -2.70164810E-17
  1.27273008E+00  2.34180964E-32 -2.70164810E-17  1.27273008E+00  2.34180964E-32
 -2.70164810E-17  1.27273008E+00  2.34180964E-32 -2.70164810E-17  1.27273008E+00
  2.34180964E-32 -2.70164810E-17  1.27273008E+00  2.34180964E-32 -2.70164810E-17
  1.27273008E+00  2.34180964E-32 -2.70164810E-17  1.27273008E+00  2.34180964E-32
 -2.70164810E-17  1.27273008E+00  2.34180964E-32 -2.70164810E-17  1.27273008E+00
  2.34180964E-32 -2.70164810E-17  1.27273008E+00  2.34180964E-32 -2.70164810E-17
  1.27273008E+00  2.34180964E-32 -2.70164810E-17  1.27273008E+00  2.34180964E-32
 -2.70164810E-17  1.27273008E+00  2.34180964E-32 -2.70164810E-17  1.27273008E+00
  2.34180964E-32 -4.94218593E-01 -1.43930898E+00 -2.12870839E-32 -4.94218593E-01
 -1.43930898E+00 -2.12870839E-32 -4.94218593E-01 -1.43930898E+00 -2.12870839E-32
 -4.94218593E-01 -1.43930898E+00 -2.12870839E-32 -4.94218593E-01 -1.43930898E+00
 -2.12870839E-32 -4.94218593E-01 -1.43930898E+00 -2.12870839E-32 -4.94218593E-01
 -1.43930898E+00 -2.12870839E-32 -4.94218593E-01 -1.43930898E+00 -2.12870839E-32
 -4.94218593E-01 -1.43930898E+00 -2.12870839E-32 -4.94218593E-01 -1.43930898E+00
 -2.12870839E-32 -4.94218593E-01 -1.43930898E+00 -2.12870839E-32 -4.94218593E-01
 -1.43930898E+00 -2.12870839E-32 -4.94218593E-01 -1.43930898E+00 -2.12870839E-32
 -4.94218593E-01 -1.43930898E+00 -2.12870839E-32 -2.68087520E+00 -1.77554687E+00
 -4.48406054E-33 -2.68087520E+00 -1.77554687E+00 -4.48406054E-33 -2.68087520E+00
 -1.77554687E+00 -4.48406054E-33 -2.68087520E+00 -1.77554687E+00 -4.48406054E-33
 -2.68087520E+00 -1.77554687E+00 -4.48406054E-33 -2.68087520E+00 -1.77554687E+00
 -4.48406054E-33 -2.68087520E+00 -1.77554687E+00 -4.48406054E-33 -2.68087520E+00
 -1.77554687E+00 -4.48406054E-33 -2.68087520E+00 -1.77554687E+00 -4.48406054E-33
 -2.68087520E+00 -1.77554687E+00 -4.48406054E-33 -2.68087520E+00 -1.77554687E+00
 -4.48406054E-33 -2.68087520E+00 -1.77554687E+00 -4.48406054E-33 -2.68087520E+00
 -1.77554687E+00 -4.48406054E-33 -2.68087520E+00 -1.77554687E+00 -4.48406054E-33
Num ILSW                                   I              100
ILSW                                       I   N=         100
           0           0           0           0           2           0
           0           0           0           0           0          -1
           5           0           0           0           0           0
           0           0           0           0           0           0
           1           0           0           0           0           0
           0           0      100000           0          -1           0
           0           0           0           0           0           0
           0           0           0           1           0           0
           0 -2000000000           1           0           0           0
           0           0           4          52           0           0
           0           0           0           0           0           0
           0           0           0           5           0           1
           0           0           0           0           0           0
           0           0           0           0           0           0
           0           0           0           0           0           0
           0           0           0           0           0           0
           0           0           0           0
Num RLSW                                   I               52
RLSW                                       R   N=          52
  1.00000000E+00  1.00000000E+00  1.00000000E+00  1.00000000E+00  1.00000000E+00
  0.00000000E+00  0.00000000E+00  1.00000000E+00  0.00000000E+00  0.00000000E+00
  0.00000000E+00  0.00000000E+00  1.00000000E+00  0.00000000E+00  0.00000000E+00
  0.00000000E+00  0.00000000E+00  1.00000000E+00  0.00000000E+00  0.00000000E+00
  0.00000000E+00  0.00000000E+00  1.00000000E+00  0.00000000E+00  0.00000000E+00
  0.00000000E+00  0.00000000E+00  1.00000000E+00  0.00000000E+00  0.00000000E+00
  0.00000000E+00  0.00000000E+00  1.00000000E+00  0.00000000E+00  0.00000000E+00
  0.00000000E+00  0.00000000E+00  0.00000000E+00  1.00000000E+00  1.00000000E+00
  0.00000000E+00  1.00000000E+00  0.00000000E+00  0.00000000E+00  0.00000000E+00
  0.00000000E+00  0.00000000E+00  0.00000000E+00  0.00000000E+00  0.00000000E+00
  0.00000000E+00  0.00000000E+00
MxBond                                     I                2
NBond                                      I   N=           5
           1           2           2           2           1
IBond                                      I   N=          10
           2           0           1           3           2           4
           3           5           4           0
RBond                                      R   N=          10
  1.00000000E+00  0.00000000E+00  1.00000000E+00  1.00000000E+00  1.00000000E+00
  1.00000000E+00  1.00000000E+00  2.00000000E+00  2.00000000E+00  0.00000000E+00
Virial Ratio                               R      2.002246158746027E+00
SCF Energy                                 R     -2.795022036573320E+02
MP2 Energy                                 R     -2.804464985823400E+02
Total Energy                               R     -2.804464985823400E+02
Post-SCF wavefunction norm                 R      1.119951665709269E+00
RMS Density                                R      3.787018150726973E-09
Job Status                                 I                1
Nuclear derivative order                   I                0
External E-field                           R   N=          35
  0.00000000E+00  0.00000000E+00  0.00000000E+00  0.00000000E+00  0.00000000E+00
  0.00000000E+00  0.00000000E+00  0.00000000E+00  0.00000000E+00  0.00000000E+00
  0.00000000E+00  0.00000000E+00  0.00000000E+00  0.00000000E+00  0.00000000E+00
  0.00000000E+00  0.00000000E+00  0.00000000E+00  0.00000000E+00  0.00000000E+00
  0.00000000E+00  0.00000000E+00  0.00000000E+00  0.00000000E+00  0.00000000E+00
  0.00000000E+00  0.00000000E+00  0.00000000E+00  0.00000000E+00  0.00000000E+00
  0.00000000E+00  0.00000000E+00  0.00000000E+00  0.00000000E+00  0.00000000E+00
IOpCl                                      I                0
IROHF                                      I                0
Alpha Orbital Energies                     R   N=         207
 -2.06913121E+01 -2.06846027E+01 -2.06587278E+01 -1.58131630E+01 -1.62440365E+00
 -1.49774705E+00 -1.25754908E+00 -9.48435880E-01 -7.74163473E-01 -7.60424435E-01
 -7.12168999E-01 -6.81750001E-01 -6.20933388E-01 -5.90185040E-01 -4.85771954E-01
 -4.72933433E-01  2.99200929E-02  7.14289163E-02  8.58731143E-02  1.01674766E-01
  1.33838636E-01  1.33917124E-01  1.44701512E-01  1.55136637E-01  1.78024189E-01
  1.94131554E-01  1.99755022E-01  2.06370609E-01  2.20758529E-01  2.34980659E-01
  2.37230785E-01  2.66415690E-01  2.93711774E-01  3.04614248E-01  3.11065276E-01
  3.43297509E-01  3.48873000E-01  3.87405495E-01  4.23732637E-01  4.33997323E-01
  5.27212037E-01  5.29037627E-01  5.58449220E-01  5.81392054E-01  6.25762931E-01
  6.38256802E-01  6.74257179E-01  6.85905544E-01  7.06325367E-01  7.11728089E-01
  7.25443973E-01  7.29499581E-01  7.44992796E-01  7.91122343E-01  7.92275471E-01
  8.10563603E-01  8.12541120E-01  8.30803811E-01  8.68002015E-01  9.07907021E-01
  9.22781344E-01  9.26550693E-01  9.57877175E-01  9.75609508E-01  9.86748955E-01
  1.01982835E+00  1.05124815E+00  1.05489876E+00  1.08378327E+00  1.12013359E+00
  1.14305904E+00  1.18894570E+00  1.22173698E+00  1.23571432E+00  1.33836744E+00
  1.34963422E+00  1.38597860E+00  1.45792162E+00  1.49214210E+00  1.51169121E+00
  1.53758659E+00  1.56699261E+00  1.57876005E+00  1.61516877E+00  1.66267415E+00
  1.66891863E+00  1.70341439E+00  1.79353886E+00  1.83181166E+00  1.83435641E+00
  1.87776920E+00  1.91159306E+00  1.96416016E+00  1.99272960E+00  2.00903978E+00
  2.07788347E+00  2.12276566E+00  2.13181192E+00  2.14992384E+00  2.22527335E+00
  2.26286501E+00  2.26567677E+00  2.28960741E+00  2.31597525E+00  2.34484639E+00
  2.38937181E+00  2.42454882E+00  2.43013255E+00  2.45406947E+00  2.46308627E+00
  2.47750968E+00  2.50240775E+00  2.58344504E+00  2.59721091E+00  2.62023735E+00
  2.62670288E+00  2.63407622E+00  2.66538175E+00  2.75744748E+00  2.81985674E+00
  2.85635200E+00  2.88500995E+00  2.89359485E+00  2.92567894E+00  2.95758647E+00
  3.02771304E+00  3.06920101E+00  3.11959360E+00  3.20419108E+00  3.22795119E+00
  3.31888092E+00  3.34327726E+00  3.51637541E+00  3.64938505E+00  3.83864834E+00
  3.86189792E+00  4.16298958E+00  4.16840871E+00  4.18751015E+00  4.25917991E+00
  4.36537698E+00  4.39654677E+00  4.46861384E+00  4.52501269E+00  4.66348142E+00
  4.71665079E+00  4.80670681E+00  4.82400535E+00  4.85534054E+00  4.89604829E+00
  5.02318032E+00  5.07755350E+00  5.11641891E+00  5.15381965E+00  5.18793629E+00
  5.26666248E+00  5.27603135E+00  5.31222660E+00  5.35965216E+00  5.36897488E+00
  5.61485413E+00  5.67362086E+00  5.77395871E+00  5.83789376E+00  5.95921741E+00
  6.16529819E+00  6.30911990E+00  6.33601327E+00  6.39853792E+00  6.49358397E+00
  6.50541990E+00  6.61632131E+00  6.66650705E+00  6.69979624E+00  6.75691334E+00
  6.76303492E+00  6.83307657E+00  6.89818752E+00  7.02248195E+00  7.05757387E+00
  7.05966770E+00  7.09161490E+00  7.12738701E+00  7.15316068E+00  7.18132440E+00
  7.22905940E+00  7.27064355E+00  7.32271579E+00  7.32613766E+00  7.35343845E+00
  7.39867877E+00  7.43430700E+00  7.48441744E+00  7.60911257E+00  7.62131572E+00
  7.63013334E+00  7.67112164E+00  7.80854413E+00  7.88757412E+00  8.09952184E+00
  8.31905400E+00  8.42952027E+00  8.55007348E+00  1.33952104E+01  1.44076336E+01
  1.54001053E+01  1.61524143E+01
Alpha MO coefficients                      R   N=       42849
  9.37211941E-05 -6.44307190E-04 -7.38196778E-04 -5.03990696E-06 -1.99879463E-05
 -2.55230386E-05  0.00000000E+00 -7.79289759E-05  4.35645615E-05  0.00000000E+00
  6.34812243E-05  3.00161643E-05  0.00000000E+00  3.22691661E-05  0.00000000E+00
  0.00000000E+00 -5.13383889E-05  2.46391252E-05 -8.02806996E-06  0.00000000E+00
  0.00000000E+00 -1.41958179E-04  1.36745791E-04  4.34104243E-03 -2.85978061E-04
  3.35791572E-06  1.55334419E-03  1.84291645E-03  1.06558096E-04  7.24821821E-06
  0.00000000E+00 -6.17153371E-04 -4.32730277E-05  0.00000000E+00 -1.05773275E-03
  8.05361846E-04  0.00000000E+00 -3.96071461E-04  7.79772955E-05  0.00000000E+00
  2.93875067E-05  0.00000000E+00  0.00000000E+00 -5.41832804E-05  4.83298164E-06
 -3.79857371E-04  0.00000000E+00  0.00000000E+00  7.45947328E-04 -2.45385980E-05
 -4.46647220E-04  0.00000000E+00  0.00000000E+00  2.41183571E-04 -1.43822012E-06
  0.00000000E+00  8.05951219E-05  1.28719874E-05  0.00000000E+00  0.00000000E+00
 -1.09367128E-04 -3.01612519E-06  0.00000000E+00  2.52358634E-04 -2.93114430E-05
  0.00000000E+00  0.00000000E+00 -3.61186680E-04  5.37296024E-05  9.76912156E-01
 -9.21748434E-03  4.33191516E-02  2.04617267E-03 -9.23947574E-04  1.49576660E-03
 -1.35449021E-03  0.00000000E+00 -1.43921409E-03  1.38320067E-03  0.00000000E+00
  8.20630984E-05 -1.16344517E-03  0.00000000E+00 -1.49658156E-04 -2.70197004E-05
  0.00000000E+00  4.63332502E-05  0.00000000E+00  0.00000000E+00 -3.52544166E-05
  2.16629928E-05  7.48033361E-04  0.00000000E+00  0.00000000E+00 -2.35403749E-04
 -3.89981688E-04 -3.59092943E-04  0.00000000E+00  0.00000000E+00 -3.14170867E-04
 -3.74551948E-04  0.00000000E+00  4.74640973E-05 -4.91269570E-05  0.00000000E+00
  0.00000000E+00 -3.91914153E-05 -1.56414362E-05  0.00000000E+00  2.43616322E-05
  2.28332092E-05  0.00000000E+00  0.00000000E+00 -3.06204125E-04 -1.40757928E-04
  3.89938768E-05  4.56975368E-05 -2.64085515E-04 -6.97381174E-04 -1.39469211E-04
 -2.66739344E-05 -9.73388180E-05  0.00000000E+00  2.65345685E-04  7.07753893E-04
  0.00000000E+00 -8.32043329E-04 -4.74334366E-04  0.00000000E+00 -1.18158072E-04
 -2.53444592E-05  0.00000000E+00 -1.81549940E-05  0.00000000E+00  0.00000000E+00
 -2.95430396E-05  1.48988576E-05 -3.28707311E-04  0.00000000E+00  0.00000000E+00
 -8.26704627E-04  1.27371897E-04 -3.79092963E-05  0.00000000E+00  0.00000000E+00
  9.81510537E-05 -1.14916916E-04  0.00000000E+00 -2.02029618E-05 -1.19782838E-04
  0.00000000E+00  0.00000000E+00 -6.26975254E-05 -1.38263802E-04  0.00000000E+00
  1.10691545E-06 -1.53673918E-04  0.00000000E+00  0.00000000E+00  4.33012243E-05
 -4.14882326E-04 -2.52640361E-03  1.22248672E-04 -1.20881040E-04 -2.48889178E-04
  1.27185260E-04 -7.67603867E-06 -2.75112307E-05  0.00000000E+00  6.79983334E-05
  1.62217655E-04  0.00000000E+00  2.29442564E-04  1.97176803E-04  0.00000000E+00
  1.24069533E-04  1.99940132E-05  0.00000000E+00 -3.28923917E-06  0.00000000E+00
  0.00000000E+00 -1.78581264E-05  1.33173675E-06  9.55015725E-07  0.00000000E+00
  0.00000000E+00  7.92023712E-05  8.65281976E-05 -9.94151872E-05  0.00000000E+00
  0.00000000E+00  1.65537243E-04  1.60189414E-04  0.00000000E+00  1.59908368E-05
 -3.53422018E-06  0.00000000E+00  0.00000000E+00 -4.43383262E-06 -1.19723157E-05
  0.00000000E+00 -3.36417037E-05  4.54453843E-05  0.00000000E+00  0.00000000E+00
  8.31658503E-05  8.97048404E-05  3.83197969E-05 -1.02289284E-03 -5.12948994E-04
 -1.14745932E-05 -2.25907695E-05  1.78106087E-05  0.00000000E+00 -3.19907206E-06
  2.74287213E-04  0.00000000E+00 -4.34192757E-05  1.36807400E-04  0.00000000E+00
  2.63189932E-05  0.00000000E+00  0.00000000E+00  1.17534789E-05  1.08863930E-05
 -2.92229288E-05  0.00000000E+00  0.00000000E+00  1.02893804E-05  3.71254381E-05
  1.06877553E-04  8.66182620E-05 -2.77674989E-05  7.86909245E-04  6.77184933E-04
  1.02252668E-05  2.52568698E-06  0.00000000E+00 -7.19642410E-05  1.92981687E-05
  0.00000000E+00  3.39094018E-04  9.21147001E-04  0.00000000E+00  2.33451784E-06
  8.40763974E-05  0.00000000E+00 -2.34349516E-06  0.00000000E+00  0.00000000E+00
 -4.41344781E-07 -6.09358345E-06 -3.63747921E-05  0.00000000E+00  0.00000000E+00
 -1.92481835E-05  8.50852024E-05 -2.38070571E-05  0.00000000E+00  0.00000000E+00
 -2.70323780E-04 -1.62898219E-04  0.00000000E+00  9.15958746E-06  5.95965989E-06
  0.00000000E+00  0.00000000E+00  2.53245560E-06 -1.86061030E-05  0.00000000E+00
 -4.04981615E-05 -3.79836653E-05  0.00000000E+00  0.00000000E+00 -7.75170686E-05
  2.11075400E-05  2.56542858E-03  3.94751922E-05  8.91949731E-05 -6.95396387E-05
 -4.70662993E-04  7.32581645E-06  1.58959814E-05  0.00000000E+00 -6.28627683E-05
 -5.58119341E-05  0.00000000E+00  2.33798805E-04 -1.90176897E-04  0.00000000E+00
 -1.89456993E-04 -6.55487830E-05  0.00000000E+00 -8.71474179E-06  0.00000000E+00
  0.00000000E+00  2.24027501E-05  1.98229885E-05  4.54026563E-06  0.00000000E+00
  0.00000000E+00 -1.17768475E-04 -4.68149360E-05 -4.06445576E-06  0.00000000E+00
  0.00000000E+00 -2.23246639E-04 -2.07303093E-04  0.00000000E+00  3.31189115E-06
 -5.29291123E-07  0.00000000E+00  0.00000000E+00  1.71979622E-06 -1.36479918E-05
  0.00000000E+00 -4.65888719E-05  3.44439588E-06  0.00000000E+00  0.00000000E+00
 -7.67174155E-05  1.88033586E-04  2.58706306E-04  1.46528015E-03 -7.79658090E-05
 -1.53914494E-03  3.92412190E-04 -1.44409581E-04  1.54748832E-07  0.00000000E+00
 -2.09058897E-03 -4.04364229E-04  0.00000000E+00  1.04032901E-03  7.62664082E-04
  0.00000000E+00 -1.71680492E-04  5.32280893E-05  0.00000000E+00 -1.23352672E-04
  0.00000000E+00  0.00000000E+00  2.43128985E-04  9.40780182E-05 -4.42460337E-04
  0.00000000E+00  0.00000000E+00  8.99194656E-04 -6.61026318E-05  1.15784835E-05
  0.00000000E+00  0.00000000E+00 -3.38250334E-04 -1.22558316E-04  0.00000000E+00
 -1.22881251E-06  1.53016397E-05  0.00000000E+00  0.00000000E+00  1.88235230E-05
  1.32598411E-05  0.00000000E+00  1.64458487E-04 -7.19074629E-05  0.00000000E+00
  0.00000000E+00 -2.40484338E-04  4.26742206E-05  9.76649532E-01 -9.84825458E-03
  4.35679426E-02  4.50146813E-03 -4.44954454E-04  2.14828902E-03  4.81282339E-04
  0.00000000E+00 -2.38431472E-03 -6.04387106E-04  0.00000000E+00  1.13888524E-03
 -3.00840919E-06  0.00000000E+00  5.20439137E-06 -4.13753963E-05  0.00000000E+00
 -2.32373158E-04  0.00000000E+00  0.00000000E+00  1.02757144E-04  3.18603443E-05
  3.90711884E-04  0.00000000E+00  0.00000000E+00 -8.34216226E-04 -4.19523570E-04
 -1.53404468E-04  0.00000000E+00  0.00000000E+00  2.55550231E-04  1.71249711E-05
  0.00000000E+00  5.22737478E-05  1.77179926E-05  0.00000000E+00  0.00000000E+00
 -2.21322937E-05 -1.32953995E-05  0.00000000E+00  1.38449903E-04  9.23234986E-06
  0.00000000E+00  0.00000000E+00 -1.89898157E-04 -1.40745849E-04  5.07782662E-04
  1.68075045E-03 -1.21888622E-04  4.84588797E-06 -4.00494483E-05 -1.96046508E-04
  0.00000000E+00  1.28994109E-04 -1.08982236E-03  0.00000000E+00  3.19865338E-04
 -2.71953514E-04  0.00000000E+00  3.14640212E-05  0.00000000E+00  0.00000000E+00
  1.36524255E-04  8.30757628E-06 -1.50509203E-04  0.00000000E+00  0.00000000E+00
 -5.23164571E-04 -2.32130339E-05  9.76824428E-01 -9.11148453E-03  4.34670933E-02
  4.78149377E-04 -9.37922332E-04 -1.56067808E-03  1.44443672E-03  0.00000000E+00
  1.58663528E-03 -1.16675635E-03  0.00000000E+00 -5.12994752E-04 -6.46472878E-04
  0.00000000E+00  4.40307432E-05 -5.81838092E-06  0.00000000E+00  2.02418523E-05
  0.00000000E+00  0.00000000E+00 -1.32266403E-04 -1.19097560E-06  7.31313806E-04
  0.00000000E+00  0.00000000E+00 -2.51793525E-04 -2.19489802E-04 -2.86109488E-04
  0.00000000E+00  0.00000000E+00  1.21239660E-04  1.34329615E-04  0.00000000E+00
 -6.53415260E-05 -9.11136404E-06  0.00000000E+00  0.00000000E+00  1.37472890E-05
 -4.31863683E-06  0.00000000E+00 -3.88925665E-06  1.23989344E-04  0.00000000E+00
  0.00000000E+00  2.55258472E-04  9.26193873E-05 -4.43512933E-03 -2.18620061E-04