 Entering Gaussian System, Link 0=g16
 Input=hoono_d2_173p9672.gjf
 Output=hoono_d2_173p9672.log
 Initial command:
 /sw/contrib/gaussian/g16/B01/g16/l1.exe "/scr/Gau-6277.inp" -scrdir="/scr/"
 Entering Link 1 = /sw/contrib/gaussian/g16/B01/g16/l1.exe PID=      6278.
  
 Copyright (c) 1988-2017, Gaussian, Inc.  All Rights Reserved.
  
 This is part of the Gaussian(R) 16 program.  It is based on
 the Gaussian(R) 09 system (copyright 2009, Gaussian, Inc.),
 the Gaussian(R) 03 system (copyright 2003, Gaussian, Inc.),
 the Gaussian(R) 98 system (copyright 1998, Gaussian, Inc.),
 the Gaussian(R) 94 system (copyright 1995, Gaussian, Inc.),
 the Gaussian 92(TM) system (copyright 1992, Gaussian, Inc.),
 the Gaussian 90(TM) system (copyright 1990, Gaussian, Inc.),
 the Gaussian 88(TM) system (copyright 1988, Gaussian, Inc.),
 the Gaussian 86(TM) system (copyright 1986, Carnegie Mellon
 University), and the Gaussian 82(TM) system (copyright 1983,
 Carnegie Mellon University). Gaussian is a federally registered
 trademark of Gaussian, Inc.
  
 This software contains proprietary and confidential information,
 including trade secrets, belonging to Gaussian, Inc.
  
 This software is provided under written license and may be
 used, copied, transmitted, or stored only in accord with that
 written license.
  
 The following legend is applicable only to US Government
 contracts under FAR:
  
                    RESTRICTED RIGHTS LEGEND
  
 Use, reproduction and disclosure by the US Government is
 subject to restrictions as set forth in subparagraphs (a)
 and (c) of the Commercial Computer Software - Restricted
 Rights clause in FAR 52.227-19.
  
 Gaussian, Inc.
 340 Quinnipiac St., Bldg. 40, Wallingford CT 06492
  
  
 ---------------------------------------------------------------
 Warning -- This program may not be used in any manner that
 competes with the business of Gaussian, Inc. or will provide
 assistance to any competitor of Gaussian, Inc.  The licensee
 of this program is prohibited from giving any competitor of
 Gaussian, Inc. access to this program.  By using this program,
 the user acknowledges that Gaussian, Inc. is engaged in the
 business of creating and licensing software in the field of
 computational chemistry and represents and warrants to the
 licensee that it is not a competitor of Gaussian, Inc. and that
 it will not use this program in any manner prohibited above.
 ---------------------------------------------------------------
  

 Cite this work as:
 Gaussian 16, Revision B.01,
 M. J. Frisch, G. W. Trucks, H. B. Schlegel, G. E. Scuseria, 
 M. A. Robb, J. R. Cheeseman, G. Scalmani, V. Barone, 
 G. A. Petersson, H. Nakatsuji, X. Li, M. Caricato, A. V. Marenich, 
 J. Bloino, B. G. Janesko, R. Gomperts, B. Mennucci, H. P. Hratchian, 
 J. V. Ortiz, A. F. Izmaylov, J. L. Sonnenberg, D. Williams-Young, 
 F. Ding, F. Lipparini, F. Egidi, J. Goings, B. Peng, A. Petrone, 
 T. Henderson, D. Ranasinghe, V. G. Zakrzewski, J. Gao, N. Rega, 
 G. Zheng, W. Liang, M. Hada, M. Ehara, K. Toyota, R. Fukuda, 
 J. Hasegawa, M. Ishida, T. Nakajima, Y. Honda, O. Kitao, H. Nakai, 
 T. Vreven, K. Throssell, J. A. Montgomery, Jr., J. E. Peralta, 
 F. Ogliaro, M. J. Bearpark, J. J. Heyd, E. N. Brothers, K. N. Kudin, 
 V. N. Staroverov, T. A. Keith, R. Kobayashi, J. Normand, 
 K. Raghavachari, A. P. Rendell, J. C. Burant, S. S. Iyengar, 
 J. Tomasi, M. Cossi, J. M. Millam, M. Klene, C. Adamo, R. Cammi, 
 J. W. Ochterski, R. L. Martin, K. Morokuma, O. Farkas, 
 J. B. Foresman, and D. J. Fox, Gaussian, Inc., Wallingford CT, 2016.
 
 ******************************************
 Gaussian 16:  ES64L-G16RevB.01 20-Dec-2017
                14-Feb-2022 
 ******************************************
 %nproc=28
 Will use up to   28 processors via shared memory.
 %mem=120GB
 %chk=hoono_d2_173p9672.chk
 -------------------------------------
 #p SP mp2/aug-cc-pvtz density=current
 -------------------------------------
 1/30=1,38=1,172=1/1;
 2/12=2,17=6,18=5,40=1/2;
 3/5=16,6=1,7=10,11=9,25=1,30=1,71=1/1,2,3;
 4//1;
 5/5=2,38=5/2;
 8/6=4,10=1/1;
 9/15=1,16=-3/6;
 10/5=1,13=10/2;
 6/7=2,8=2,9=2,10=2,22=-1/1;
 99/5=1,9=1/99;
 Leave Link    1 at Mon Feb 14 22:15:27 2022, MaxMem= 16106127360 cpu:              11.2 elap:               0.4
 (Enter /sw/contrib/gaussian/g16/B01/g16/l101.exe)
 -----
 title
 -----
 Symbolic Z-matrix:
 Charge =  0 Multiplicity = 1
 H
 O                    1    r1
 O                    2    r2       1    a1
 N                    3    r3       2    a2       1    d1       0
 O                    4    r4       3    a3       2    d2       0
       Variables:
  r1                    0.96898                  
  r2                    1.45492                  
  r3                    1.45878                  
  r4                    1.17073                  
  a1                   97.59495                  
  a2                  102.29752                  
  a3                  109.06955                  
  d1                  180.                       
  d2                  173.96729                  
 
 ITRead=  0  0  0  0  0
 MicOpt= -1 -1 -1 -1 -1
 NAtoms=      5 NQM=        5 NQMF=       0 NMMI=      0 NMMIF=      0
                NMic=       0 NMicF=      0.
                    Isotopes and Nuclear Properties:
 (Nuclear quadrupole moments (NQMom) in fm**2, nuclear magnetic moments (NMagM)
  in nuclear magnetons)

  Atom         1           2           3           4           5
 IAtWgt=           1          16          16          14          16
 AtmWgt=   1.0078250  15.9949146  15.9949146  14.0030740  15.9949146
 NucSpn=           1           0           0           2           0
 AtZEff=  -0.0000000  -0.0000000  -0.0000000  -0.0000000  -0.0000000
 NQMom=    0.0000000   0.0000000   0.0000000   2.0440000   0.0000000
 NMagM=    2.7928460   0.0000000   0.0000000   0.4037610   0.0000000
 AtZNuc=   1.0000000   8.0000000   8.0000000   7.0000000   8.0000000
 Leave Link  101 at Mon Feb 14 22:15:27 2022, MaxMem= 16106127360 cpu:               2.9 elap:               0.1
 (Enter /sw/contrib/gaussian/g16/B01/g16/l202.exe)
                          Input orientation:                          
 ---------------------------------------------------------------------
 Center     Atomic      Atomic             Coordinates (Angstroms)
 Number     Number       Type             X           Y           Z
 ---------------------------------------------------------------------
      1          1           0        0.000000    0.000000    0.000000
      2          8           0        0.000000    0.000000    0.968976
      3          8           0        1.442156    0.000000    1.161271
      4          7           0        1.561752    0.000000    2.615144
      5          8           0        2.689760   -0.116287    2.906141
 ---------------------------------------------------------------------
                    Distance matrix (angstroms):
                    1          2          3          4          5
     1  H    0.000000
     2  O    0.968976   0.000000
     3  O    1.851584   1.454919   0.000000
     4  N    3.045989   2.269127   1.458784   0.000000
     5  O    3.961564   3.316767   2.148165   1.170729   0.000000
 Stoichiometry    HNO3
 Framework group  C1[X(HNO3)]
 Deg. of freedom     9
 Full point group                 C1      NOp   1
 Largest Abelian subgroup         C1      NOp   1
 Largest concise Abelian subgroup C1      NOp   1
                         Standard orientation:                         
 ---------------------------------------------------------------------
 Center     Atomic      Atomic             Coordinates (Angstroms)
 Number     Number       Type             X           Y           Z
 ---------------------------------------------------------------------
      1          1           0       -2.248252    0.433566   -0.030522
      2          8           0       -1.597595   -0.284425   -0.023590
      3          8           0       -0.400681    0.541210    0.026546
      4          7           0        0.664130   -0.455795    0.040990
      5          8           0        1.698195    0.087841   -0.035007
 ---------------------------------------------------------------------
 Rotational constants (GHZ):          54.6255084           5.0144246           4.5981823
 Leave Link  202 at Mon Feb 14 22:15:27 2022, MaxMem= 16106127360 cpu:               1.1 elap:               0.1
 (Enter /sw/contrib/gaussian/g16/B01/g16/l301.exe)
 Standard basis: Aug-CC-pVTZ (5D, 7F)
 Ernie: Thresh=  0.10000D-02 Tol=  0.10000D-05 Strict=F.
 Ernie:  12 primitive shells out of 131 were deleted.
 There are   245 symmetry adapted cartesian basis functions of A   symmetry.
 There are   207 symmetry adapted basis functions of A   symmetry.
   207 basis functions,   315 primitive gaussians,   245 cartesian basis functions
    16 alpha electrons       16 beta electrons
       nuclear repulsion energy       116.8806465952 Hartrees.
 IExCor=    0 DFT=F Ex=HF Corr=None ExCW=0 ScaHFX=  1.000000
 ScaDFX=  1.000000  1.000000  1.000000  1.000000 ScalE2=  1.000000  1.000000
 IRadAn=      5 IRanWt=     -1 IRanGd=            0 ICorTp=0 IEmpDi=  4
 NAtoms=    5 NActive=    5 NUniq=    5 SFac= 1.00D+00 NAtFMM=   60 NAOKFM=F Big=F
 Integral buffers will be    131072 words long.
 Raffenetti 1 integral format.
 Two-electron integral symmetry is turned on.
 Leave Link  301 at Mon Feb 14 22:15:27 2022, MaxMem= 16106127360 cpu:               2.9 elap:               0.1
 (Enter /sw/contrib/gaussian/g16/B01/g16/l302.exe)
 NPDir=0 NMtPBC=     1 NCelOv=     1 NCel=       1 NClECP=     1 NCelD=      1
         NCelK=      1 NCelE2=     1 NClLst=     1 CellRange=     0.0.
 One-electron integrals computed using PRISM.
 One-electron integral symmetry used in STVInt
 NBasis=   207 RedAO= T EigKep=  1.81D-04  NBF=   207
 NBsUse=   207 1.00D-06 EigRej= -1.00D+00 NBFU=   207
 Leave Link  302 at Mon Feb 14 22:15:28 2022, MaxMem= 16106127360 cpu:               6.4 elap:               0.3
 (Enter /sw/contrib/gaussian/g16/B01/g16/l303.exe)
 DipDrv:  MaxL=1.
 Leave Link  303 at Mon Feb 14 22:15:28 2022, MaxMem= 16106127360 cpu:               0.7 elap:               0.0
 (Enter /sw/contrib/gaussian/g16/B01/g16/l401.exe)
 ExpMin= 2.53D-02 ExpMax= 1.53D+04 ExpMxC= 5.22D+02 IAcc=3 IRadAn=         5 AccDes= 0.00D+00
 Harris functional with IExCor=  205 and IRadAn=       5 diagonalized for initial guess.
 HarFok:  IExCor=  205 AccDes= 0.00D+00 IRadAn=         5 IDoV= 1 UseB2=F ITyADJ=14
 ICtDFT=  3500011 ScaDFX=  1.000000  1.000000  1.000000  1.000000
 FoFCou: FMM=F IPFlag=           0 FMFlag=      100000 FMFlg1=           0
         NFxFlg=           0 DoJE=T BraDBF=F KetDBF=T FulRan=T
         wScrn=  0.000000 ICntrl=       500 IOpCl=  0 I1Cent=   200000004 NGrid=           0
         NMat0=    1 NMatS0=      1 NMatT0=    0 NMatD0=    1 NMtDS0=    0 NMtDT0=    0
 Petite list used in FoFCou.
 Harris En= -279.628472725465    
 JPrj=0 DoOrth=F DoCkMO=F.
 Leave Link  401 at Mon Feb 14 22:15:28 2022, MaxMem= 16106127360 cpu:               6.6 elap:               0.3
 (Enter /sw/contrib/gaussian/g16/B01/g16/l502.exe)
 Keep R1 ints in memory in canonical form, NReq=245616893.
 FoFCou: FMM=F IPFlag=           0 FMFlag=           0 FMFlg1=           0
         NFxFlg=           0 DoJE=F BraDBF=F KetDBF=F FulRan=T
         wScrn=  0.000000 ICntrl=       600 IOpCl=  0 I1Cent=           0 NGrid=           0
         NMat0=    1 NMatS0=  21528 NMatT0=    0 NMatD0=    1 NMtDS0=    0 NMtDT0=    0
 Symmetry not used in FoFCou.
 Two-electron integral symmetry not used.
 Closed shell SCF:
 Using DIIS extrapolation, IDIIS=  1040.
 NGot= 16106127360 LenX= 15874260251 LenY= 15874199785
 Requested convergence on RMS density matrix=1.00D-08 within 128 cycles.
 Requested convergence on MAX density matrix=1.00D-06.
 Requested convergence on             energy=1.00D-06.
 No special actions if energy rises.

 Cycle   1  Pass 1  IDiag  1:
 E= -279.370474836859    
 DIIS: error= 2.43D-02 at cycle   1 NSaved=   1.
 NSaved= 1 IEnMin= 1 EnMin= -279.370474836859     IErMin= 1 ErrMin= 2.43D-02
 ErrMax= 2.43D-02  0.00D+00 EMaxC= 1.00D-01 BMatC= 4.38D-01 BMatP= 4.38D-01
 IDIUse=3 WtCom= 7.57D-01 WtEn= 2.43D-01
 Coeff-Com:  0.100D+01
 Coeff-En:   0.100D+01
 Coeff:      0.100D+01
 Gap=     0.519 Goal=   None    Shift=    0.000
 GapD=    0.519 DampG=2.000 DampE=0.500 DampFc=1.0000 IDamp=-1.
 RMSDP=1.62D-03 MaxDP=9.93D-02              OVMax= 1.13D-01

 Cycle   2  Pass 1  IDiag  1:
 E= -279.452450028240     Delta-E=       -0.081975191381 Rises=F Damp=F
 DIIS: error= 1.76D-02 at cycle   2 NSaved=   2.
 NSaved= 2 IEnMin= 2 EnMin= -279.452450028240     IErMin= 2 ErrMin= 1.76D-02
 ErrMax= 1.76D-02  0.00D+00 EMaxC= 1.00D-01 BMatC= 7.15D-02 BMatP= 4.38D-01
 IDIUse=3 WtCom= 8.24D-01 WtEn= 1.76D-01
 Coeff-Com:  0.194D+00 0.806D+00
 Coeff-En:   0.000D+00 0.100D+01
 Coeff:      0.160D+00 0.840D+00
 Gap=     0.534 Goal=   None    Shift=    0.000
 RMSDP=8.98D-04 MaxDP=3.73D-02 DE=-8.20D-02 OVMax= 6.87D-02

 Cycle   3  Pass 1  IDiag  1:
 E= -279.481496304963     Delta-E=       -0.029046276723 Rises=F Damp=F
 DIIS: error= 1.02D-02 at cycle   3 NSaved=   3.
 NSaved= 3 IEnMin= 3 EnMin= -279.481496304963     IErMin= 3 ErrMin= 1.02D-02
 ErrMax= 1.02D-02  0.00D+00 EMaxC= 1.00D-01 BMatC= 2.86D-02 BMatP= 7.15D-02
 IDIUse=3 WtCom= 8.98D-01 WtEn= 1.02D-01
 Coeff-Com: -0.330D-01 0.378D+00 0.655D+00
 Coeff-En:   0.000D+00 0.240D+00 0.760D+00
 Coeff:     -0.296D-01 0.364D+00 0.666D+00
 Gap=     0.510 Goal=   None    Shift=    0.000
 RMSDP=3.76D-04 MaxDP=1.54D-02 DE=-2.90D-02 OVMax= 3.79D-02

 Cycle   4  Pass 1  IDiag  1:
 E= -279.500465867758     Delta-E=       -0.018969562794 Rises=F Damp=F
 DIIS: error= 1.28D-03 at cycle   4 NSaved=   4.
 NSaved= 4 IEnMin= 4 EnMin= -279.500465867758     IErMin= 4 ErrMin= 1.28D-03
 ErrMax= 1.28D-03  0.00D+00 EMaxC= 1.00D-01 BMatC= 4.90D-04 BMatP= 2.86D-02
 IDIUse=3 WtCom= 9.87D-01 WtEn= 1.28D-02
 Coeff-Com: -0.116D-01 0.575D-01 0.158D+00 0.796D+00
 Coeff-En:   0.000D+00 0.000D+00 0.000D+00 0.100D+01
 Coeff:     -0.115D-01 0.567D-01 0.156D+00 0.799D+00
 Gap=     0.502 Goal=   None    Shift=    0.000
 RMSDP=9.01D-05 MaxDP=2.16D-03 DE=-1.90D-02 OVMax= 1.11D-02

 Cycle   5  Pass 1  IDiag  1:
 E= -279.501139627561     Delta-E=       -0.000673759803 Rises=F Damp=F
 DIIS: error= 7.34D-04 at cycle   5 NSaved=   5.
 NSaved= 5 IEnMin= 5 EnMin= -279.501139627561     IErMin= 5 ErrMin= 7.34D-04
 ErrMax= 7.34D-04  0.00D+00 EMaxC= 1.00D-01 BMatC= 8.70D-05 BMatP= 4.90D-04
 IDIUse=3 WtCom= 9.93D-01 WtEn= 7.34D-03
 Coeff-Com:  0.613D-02-0.724D-01-0.118D+00 0.199D-01 0.116D+01
 Coeff-En:   0.000D+00 0.000D+00 0.000D+00 0.000D+00 0.100D+01
 Coeff:      0.609D-02-0.719D-01-0.117D+00 0.197D-01 0.116D+01
 Gap=     0.502 Goal=   None    Shift=    0.000
 RMSDP=7.62D-05 MaxDP=2.10D-03 DE=-6.74D-04 OVMax= 1.11D-02

 Cycle   6  Pass 1  IDiag  1:
 E= -279.501454380999     Delta-E=       -0.000314753438 Rises=F Damp=F
 DIIS: error= 2.84D-04 at cycle   6 NSaved=   6.
 NSaved= 6 IEnMin= 6 EnMin= -279.501454380999     IErMin= 6 ErrMin= 2.84D-04
 ErrMax= 2.84D-04  0.00D+00 EMaxC= 1.00D-01 BMatC= 1.66D-05 BMatP= 8.70D-05
 IDIUse=3 WtCom= 9.97D-01 WtEn= 2.84D-03
 Coeff-Com:  0.586D-03 0.170D-02 0.473D-02-0.130D+00-0.232D+00 0.135D+01
 Coeff-En:   0.000D+00 0.000D+00 0.000D+00 0.000D+00 0.000D+00 0.100D+01
 Coeff:      0.584D-03 0.170D-02 0.471D-02-0.129D+00-0.231D+00 0.135D+01
 Gap=     0.502 Goal=   None    Shift=    0.000
 RMSDP=4.53D-05 MaxDP=1.06D-03 DE=-3.15D-04 OVMax= 5.55D-03

 Cycle   7  Pass 1  IDiag  1:
 E= -279.501526939351     Delta-E=       -0.000072558351 Rises=F Damp=F
 DIIS: error= 1.21D-04 at cycle   7 NSaved=   7.
 NSaved= 7 IEnMin= 7 EnMin= -279.501526939351     IErMin= 7 ErrMin= 1.21D-04
 ErrMax= 1.21D-04  0.00D+00 EMaxC= 1.00D-01 BMatC= 4.47D-06 BMatP= 1.66D-05
 IDIUse=3 WtCom= 9.99D-01 WtEn= 1.21D-03
 Coeff-Com: -0.937D-03 0.135D-01 0.264D-01-0.238D-01-0.286D+00 0.387D+00
 Coeff-Com:  0.884D+00
 Coeff-En:   0.000D+00 0.000D+00 0.000D+00 0.000D+00 0.000D+00 0.000D+00
 Coeff-En:   0.100D+01
 Coeff:     -0.936D-03 0.135D-01 0.264D-01-0.238D-01-0.285D+00 0.386D+00
 Coeff:      0.884D+00
 Gap=     0.502 Goal=   None    Shift=    0.000
 RMSDP=1.32D-05 MaxDP=3.77D-04 DE=-7.26D-05 OVMax= 1.55D-03

 Cycle   8  Pass 1  IDiag  1:
 E= -279.501535786794     Delta-E=       -0.000008847443 Rises=F Damp=F
 DIIS: error= 5.57D-05 at cycle   8 NSaved=   8.
 NSaved= 8 IEnMin= 8 EnMin= -279.501535786794     IErMin= 8 ErrMin= 5.57D-05
 ErrMax= 5.57D-05  0.00D+00 EMaxC= 1.00D-01 BMatC= 6.07D-07 BMatP= 4.47D-06
 IDIUse=1 WtCom= 1.00D+00 WtEn= 0.00D+00
 Coeff-Com: -0.449D-03 0.345D-02 0.762D-02 0.274D-01-0.409D-01-0.198D+00
 Coeff-Com:  0.176D+00 0.103D+01
 Coeff:     -0.449D-03 0.345D-02 0.762D-02 0.274D-01-0.409D-01-0.198D+00
 Coeff:      0.176D+00 0.103D+01
 Gap=     0.502 Goal=   None    Shift=    0.000
 RMSDP=6.88D-06 MaxDP=2.00D-04 DE=-8.85D-06 OVMax= 7.43D-04

 Cycle   9  Pass 1  IDiag  1:
 E= -279.501537558104     Delta-E=       -0.000001771310 Rises=F Damp=F
 DIIS: error= 1.58D-05 at cycle   9 NSaved=   9.
 NSaved= 9 IEnMin= 9 EnMin= -279.501537558104     IErMin= 9 ErrMin= 1.58D-05
 ErrMax= 1.58D-05  0.00D+00 EMaxC= 1.00D-01 BMatC= 6.97D-08 BMatP= 6.07D-07
 IDIUse=1 WtCom= 1.00D+00 WtEn= 0.00D+00
 Coeff-Com:  0.124D-03-0.173D-02-0.310D-02-0.211D-02 0.344D-01 0.280D-03
 Coeff-Com: -0.169D+00-0.103D+00 0.124D+01
 Coeff:      0.124D-03-0.173D-02-0.310D-02-0.211D-02 0.344D-01 0.280D-03
 Coeff:     -0.169D+00-0.103D+00 0.124D+01
 Gap=     0.502 Goal=   None    Shift=    0.000
 RMSDP=1.95D-06 MaxDP=5.18D-05 DE=-1.77D-06 OVMax= 1.75D-04

 Cycle  10  Pass 1  IDiag  1:
 E= -279.501537721066     Delta-E=       -0.000000162962 Rises=F Damp=F
 DIIS: error= 3.99D-06 at cycle  10 NSaved=  10.
 NSaved=10 IEnMin=10 EnMin= -279.501537721066     IErMin=10 ErrMin= 3.99D-06
 ErrMax= 3.99D-06  0.00D+00 EMaxC= 1.00D-01 BMatC= 5.67D-09 BMatP= 6.97D-08
 IDIUse=1 WtCom= 1.00D+00 WtEn= 0.00D+00
 Coeff-Com:  0.309D-04-0.240D-03-0.319D-03-0.271D-02 0.156D-02 0.198D-01
 Coeff-Com: -0.128D-01-0.745D-01-0.840D-01 0.115D+01
 Coeff:      0.309D-04-0.240D-03-0.319D-03-0.271D-02 0.156D-02 0.198D-01
 Coeff:     -0.128D-01-0.745D-01-0.840D-01 0.115D+01
 Gap=     0.502 Goal=   None    Shift=    0.000
 RMSDP=5.19D-07 MaxDP=2.10D-05 DE=-1.63D-07 OVMax= 4.19D-05

 Cycle  11  Pass 1  IDiag  1:
 E= -279.501537734330     Delta-E=       -0.000000013264 Rises=F Damp=F
 DIIS: error= 1.97D-06 at cycle  11 NSaved=  11.
 NSaved=11 IEnMin=11 EnMin= -279.501537734330     IErMin=11 ErrMin= 1.97D-06
 ErrMax= 1.97D-06  0.00D+00 EMaxC= 1.00D-01 BMatC= 7.05D-10 BMatP= 5.67D-09
 IDIUse=1 WtCom= 1.00D+00 WtEn= 0.00D+00
 Coeff-Com: -0.220D-04 0.252D-03 0.500D-03 0.565D-03-0.439D-02-0.381D-02
 Coeff-Com:  0.219D-01 0.318D-01-0.141D+00-0.189D+00 0.128D+01
 Coeff:     -0.220D-04 0.252D-03 0.500D-03 0.565D-03-0.439D-02-0.381D-02
 Coeff:      0.219D-01 0.318D-01-0.141D+00-0.189D+00 0.128D+01
 Gap=     0.502 Goal=   None    Shift=    0.000
 RMSDP=1.95D-07 MaxDP=6.52D-06 DE=-1.33D-08 OVMax= 1.78D-05

 Cycle  12  Pass 1  IDiag  1:
 E= -279.501537736407     Delta-E=       -0.000000002077 Rises=F Damp=F
 DIIS: error= 5.47D-07 at cycle  12 NSaved=  12.
 NSaved=12 IEnMin=12 EnMin= -279.501537736407     IErMin=12 ErrMin= 5.47D-07
 ErrMax= 5.47D-07  0.00D+00 EMaxC= 1.00D-01 BMatC= 8.39D-11 BMatP= 7.05D-10
 IDIUse=1 WtCom= 1.00D+00 WtEn= 0.00D+00
 Coeff-Com:  0.163D-05-0.342D-04-0.747D-04 0.186D-03 0.120D-02-0.237D-02
 Coeff-Com: -0.462D-02 0.521D-02 0.461D-01-0.118D+00-0.303D+00 0.137D+01
 Coeff:      0.163D-05-0.342D-04-0.747D-04 0.186D-03 0.120D-02-0.237D-02
 Coeff:     -0.462D-02 0.521D-02 0.461D-01-0.118D+00-0.303D+00 0.137D+01
 Gap=     0.502 Goal=   None    Shift=    0.000
 RMSDP=8.69D-08 MaxDP=2.81D-06 DE=-2.08D-09 OVMax= 7.44D-06

 Cycle  13  Pass 1  IDiag  1:
 E= -279.501537736716     Delta-E=       -0.000000000309 Rises=F Damp=F
 DIIS: error= 1.90D-07 at cycle  13 NSaved=  13.
 NSaved=13 IEnMin=13 EnMin= -279.501537736716     IErMin=13 ErrMin= 1.90D-07
 ErrMax= 1.90D-07  0.00D+00 EMaxC= 1.00D-01 BMatC= 7.24D-12 BMatP= 8.39D-11
 IDIUse=1 WtCom= 1.00D+00 WtEn= 0.00D+00
 Coeff-Com:  0.150D-05-0.155D-04-0.254D-04-0.110D-03 0.108D-03 0.981D-03
 Coeff-Com: -0.869D-03-0.413D-02-0.366D-03 0.516D-01-0.346D-01-0.398D+00
 Coeff-Com:  0.139D+01
 Coeff:      0.150D-05-0.155D-04-0.254D-04-0.110D-03 0.108D-03 0.981D-03
 Coeff:     -0.869D-03-0.413D-02-0.366D-03 0.516D-01-0.346D-01-0.398D+00
 Coeff:      0.139D+01
 Gap=     0.502 Goal=   None    Shift=    0.000
 RMSDP=3.04D-08 MaxDP=5.82D-07 DE=-3.09D-10 OVMax= 3.37D-06

 Cycle  14  Pass 1  IDiag  1:
 E= -279.501537736752     Delta-E=       -0.000000000035 Rises=F Damp=F
 DIIS: error= 1.13D-07 at cycle  14 NSaved=  14.
 NSaved=14 IEnMin=14 EnMin= -279.501537736752     IErMin=14 ErrMin= 1.13D-07
 ErrMax= 1.13D-07  0.00D+00 EMaxC= 1.00D-01 BMatC= 1.28D-12 BMatP= 7.24D-12
 IDIUse=1 WtCom= 1.00D+00 WtEn= 0.00D+00
 Coeff-Com: -0.571D-06 0.803D-05 0.136D-04 0.245D-04-0.159D-03-0.758D-04
 Coeff-Com:  0.662D-03 0.925D-03-0.402D-02-0.590D-02 0.357D-01 0.186D-01
 Coeff-Com: -0.523D+00 0.148D+01
 Coeff:     -0.571D-06 0.803D-05 0.136D-04 0.245D-04-0.159D-03-0.758D-04
 Coeff:      0.662D-03 0.925D-03-0.402D-02-0.590D-02 0.357D-01 0.186D-01
 Coeff:     -0.523D+00 0.148D+01
 Gap=     0.502 Goal=   None    Shift=    0.000
 RMSDP=1.38D-08 MaxDP=3.16D-07 DE=-3.54D-11 OVMax= 1.98D-06

 Cycle  15  Pass 1  IDiag  1:
 E= -279.501537736759     Delta-E=       -0.000000000007 Rises=F Damp=F
 DIIS: error= 6.51D-08 at cycle  15 NSaved=  15.
 NSaved=15 IEnMin=15 EnMin= -279.501537736759     IErMin=15 ErrMin= 6.51D-08
 ErrMax= 6.51D-08  0.00D+00 EMaxC= 1.00D-01 BMatC= 3.63D-13 BMatP= 1.28D-12
 IDIUse=1 WtCom= 1.00D+00 WtEn= 0.00D+00
 Coeff-Com:  0.611D-07-0.168D-05-0.444D-05 0.992D-05 0.902D-04-0.182D-03
 Coeff-Com: -0.252D-03 0.242D-03 0.312D-02-0.830D-02-0.169D-01 0.907D-01
 Coeff-Com: -0.106D-01-0.967D+00 0.191D+01
 Coeff:      0.611D-07-0.168D-05-0.444D-05 0.992D-05 0.902D-04-0.182D-03
 Coeff:     -0.252D-03 0.242D-03 0.312D-02-0.830D-02-0.169D-01 0.907D-01
 Coeff:     -0.106D-01-0.967D+00 0.191D+01
 Gap=     0.502 Goal=   None    Shift=    0.000
 RMSDP=1.10D-08 MaxDP=2.79D-07 DE=-6.99D-12 OVMax= 1.77D-06

 Cycle  16  Pass 1  IDiag  1:
 E= -279.501537736762     Delta-E=       -0.000000000003 Rises=F Damp=F
 DIIS: error= 2.46D-08 at cycle  16 NSaved=  16.
 NSaved=16 IEnMin=16 EnMin= -279.501537736762     IErMin=16 ErrMin= 2.46D-08
 ErrMax= 2.46D-08  0.00D+00 EMaxC= 1.00D-01 BMatC= 4.93D-14 BMatP= 3.63D-13
 IDIUse=1 WtCom= 1.00D+00 WtEn= 0.00D+00
 Coeff-Com:  0.544D-07-0.661D-06-0.221D-06-0.847D-05-0.738D-05 0.748D-04
 Coeff-Com: -0.334D-05-0.240D-03-0.469D-03 0.369D-02 0.427D-03-0.370D-01
 Coeff-Com:  0.102D+00 0.973D-01-0.734D+00 0.157D+01
 Coeff:      0.544D-07-0.661D-06-0.221D-06-0.847D-05-0.738D-05 0.748D-04
 Coeff:     -0.334D-05-0.240D-03-0.469D-03 0.369D-02 0.427D-03-0.370D-01
 Coeff:      0.102D+00 0.973D-01-0.734D+00 0.157D+01
 Gap=     0.502 Goal=   None    Shift=    0.000
 RMSDP=4.08D-09 MaxDP=1.14D-07 DE=-3.01D-12 OVMax= 7.34D-07

 SCF Done:  E(RHF) =  -279.501537737     A.U. after   16 cycles
            NFock= 16  Conv=0.41D-08     -V/T= 2.0024
 KE= 2.788459951930D+02 PE=-8.950889270246D+02 EE= 2.198607474996D+02
 Leave Link  502 at Mon Feb 14 22:15:36 2022, MaxMem= 16106127360 cpu:              42.3 elap:               7.9
 (Enter /sw/contrib/gaussian/g16/B01/g16/l801.exe)
 ExpMin= 2.53D-02 ExpMax= 1.53D+04 ExpMxC= 5.22D+02 IAcc=3 IRadAn=         5 AccDes= 0.00D+00
 HarFok:  IExCor=  205 AccDes= 0.00D+00 IRadAn=         5 IDoV=-2 UseB2=F ITyADJ=14
 ICtDFT= 12500011 ScaDFX=  1.000000  1.000000  1.000000  1.000000
 Largest valence mixing into a core orbital is  2.08D-04
 Largest core mixing into a valence orbital is  3.63D-05
 Range of M.O.s used for correlation:     5   207
 NBasis=   207 NAE=    16 NBE=    16 NFC=     4 NFV=     0
 NROrb=    203 NOA=    12 NOB=    12 NVA=   191 NVB=   191

 **** Warning!!: The largest alpha MO coefficient is  0.17664618D+02

 Leave Link  801 at Mon Feb 14 22:15:36 2022, MaxMem= 16106127360 cpu:               3.3 elap:               0.2
 (Enter /sw/contrib/gaussian/g16/B01/g16/l906.exe)
 Frozen-core derivative calculation, NFC=   4 NFV=   0.
 FulOut=F Deriv=T AODrv=F NAtomX=     5
   MMem=          76  MDisk=          12 MDiskD=          12
  W3Min=      811440 MinDsk=     1524655 NBas6D=         245
 NBas2D=       30762    NTT=       30135    LW2=     3500000
    MDV= 16105643539 MDiskM=      328645 NBas2p=       30466
 Fully in-core method, ICMem=   960157634.
 IMap=   1   2   3   4   5   6   7   8   9  10  11  12  13  14  15  16
 JobTyp=1 Pass  1 fully in-core, NPsUse= 28.
 Compute canonical integrals.
 FoFCou: FMM=F IPFlag=           0 FMFlag=           0 FMFlg1=           0
         NFxFlg=           0 DoJE=F BraDBF=F KetDBF=F FulRan=T
         wScrn=  0.000000 ICntrl=       600 IOpCl=  1 I1Cent=           0 NGrid=           0
         NMat0=    1 NMatS0=  30762 NMatT0=    0 NMatD0=    1 NMtDS0=    0 NMtDT0=    0
 Symmetry not used in FoFCou.
 Spin components of T(2) and E(2):
     alpha-alpha T2 =       0.3401565640D-01 E2=     -0.1223892876D+00
     alpha-beta  T2 =       0.1868215216D+00 E2=     -0.7001912421D+00
     beta-beta   T2 =       0.3401565640D-01 E2=     -0.1223892876D+00
 The integrals were generated   1 times.
 ANorm=    0.1120202140D+01
 E2 =    -0.9449698173D+00 EUMP2 =    -0.28044650755404D+03
 Leave Link  906 at Mon Feb 14 22:15:45 2022, MaxMem= 16106127360 cpu:             253.1 elap:               9.1
 (Enter /sw/contrib/gaussian/g16/B01/g16/l1002.exe)
 Minotr:  Closed shell wavefunction.
          Computing MP2/KS-MP2 derivatives.
          Using Z-Vector for PSCF gradient.
          Skipping F1 and S1 gradient terms here.
          Frozen-core window.
          Direct CPHF calculation.
          Differentiating once with respect to electric field.
                with respect to dipole field.
          Electric field/nuclear overlap derivatives assumed to be zero.
          Requested convergence is 1.0D-10 RMS, and 1.0D-09 maximum.
          NewPWx=F KeepS1=T KeepF1=T KeepIn=T MapXYZ=F SortEE=F KeepMc=T.
 Keep R1 ints in memory in canonical form, NReq=245621348.
 FoFCou: FMM=F IPFlag=           0 FMFlag=           0 FMFlg1=           0
         NFxFlg=           0 DoJE=F BraDBF=F KetDBF=F FulRan=T
         wScrn=  0.000000 ICntrl=       600 IOpCl=  0 I1Cent=           0 NGrid=           0
         NMat0=    1 NMatS0=  21528 NMatT0=    0 NMatD0=    1 NMtDS0=    0 NMtDT0=    0
 Symmetry not used in FoFCou.
 Two-electron integral symmetry not used.
          MDV=   16106127360 using IRadAn=       5.
          Solving linear equations separately, MaxMat=       0.
          There are     1 degrees of freedom in the 1st order CPHF.  IDoFFX=0 NUNeed=     1.
 LinEq1:  Iter=  0 NonCon=     1 RMS=5.95D-03 Max=1.31D-01 NDo=     1
 AX will form     1 AO Fock derivatives at one time.
 LinEq1:  Iter=  1 NonCon=     1 RMS=1.90D-03 Max=3.81D-02 NDo=     1
 LinEq1:  Iter=  2 NonCon=     1 RMS=8.67D-04 Max=1.36D-02 NDo=     1
 LinEq1:  Iter=  3 NonCon=     1 RMS=3.86D-04 Max=7.79D-03 NDo=     1
 LinEq1:  Iter=  4 NonCon=     1 RMS=1.19D-04 Max=1.85D-03 NDo=     1
 LinEq1:  Iter=  5 NonCon=     1 RMS=4.55D-05 Max=7.17D-04 NDo=     1
 LinEq1:  Iter=  6 NonCon=     1 RMS=2.04D-05 Max=2.13D-04 NDo=     1
 LinEq1:  Iter=  7 NonCon=     1 RMS=8.18D-06 Max=1.36D-04 NDo=     1
 LinEq1:  Iter=  8 NonCon=     1 RMS=3.53D-06 Max=3.30D-05 NDo=     1
 LinEq1:  Iter=  9 NonCon=     1 RMS=9.82D-07 Max=1.22D-05 NDo=     1
 LinEq1:  Iter= 10 NonCon=     1 RMS=2.14D-07 Max=3.96D-06 NDo=     1
 LinEq1:  Iter= 11 NonCon=     1 RMS=5.51D-08 Max=1.52D-06 NDo=     1
 LinEq1:  Iter= 12 NonCon=     1 RMS=1.76D-08 Max=4.00D-07 NDo=     1
 LinEq1:  Iter= 13 NonCon=     1 RMS=3.84D-09 Max=6.40D-08 NDo=     1
 LinEq1:  Iter= 14 NonCon=     1 RMS=7.92D-10 Max=1.27D-08 NDo=     1
 LinEq1:  Iter= 15 NonCon=     1 RMS=1.84D-10 Max=2.85D-09 NDo=     1
 LinEq1:  Iter= 16 NonCon=     0 RMS=4.77D-11 Max=6.22D-10 NDo=     1
 Linear equations converged to 1.000D-10 1.000D-09 after    16 iterations.
 End of Minotr F.D. properties file   721 does not exist.
 End of Minotr F.D. properties file   722 does not exist.
 End of Minotr F.D. properties file   788 does not exist.
 Leave Link 1002 at Mon Feb 14 22:15:54 2022, MaxMem= 16106127360 cpu:              40.1 elap:               8.4
 (Enter /sw/contrib/gaussian/g16/B01/g16/l601.exe)
 Copying SCF densities to generalized density rwf, IOpCl= 0 IROHF=0.

 **********************************************************************

            Population analysis using the MP2 Density.

 **********************************************************************

 Orbital symmetries:
       Occupied  (A) (A) (A) (A) (A) (A) (A) (A) (A) (A) (A) (A)
                 (A) (A) (A) (A)
       Virtual   (A) (A) (A) (A) (A) (A) (A) (A) (A) (A) (A) (A)
                 (A) (A) (A) (A) (A) (A) (A) (A) (A) (A) (A) (A)
                 (A) (A) (A) (A) (A) (A) (A) (A) (A) (A) (A) (A)
                 (A) (A) (A) (A) (A) (A) (A) (A) (A) (A) (A) (A)
                 (A) (A) (A) (A) (A) (A) (A) (A) (A) (A) (A) (A)
                 (A) (A) (A) (A) (A) (A) (A) (A) (A) (A) (A) (A)
                 (A) (A) (A) (A) (A) (A) (A) (A) (A) (A) (A) (A)
                 (A) (A) (A) (A) (A) (A) (A) (A) (A) (A) (A) (A)
                 (A) (A) (A) (A) (A) (A) (A) (A) (A) (A) (A) (A)
                 (A) (A) (A) (A) (A) (A) (A) (A) (A) (A) (A) (A)
                 (A) (A) (A) (A) (A) (A) (A) (A) (A) (A) (A) (A)
                 (A) (A) (A) (A) (A) (A) (A) (A) (A) (A) (A) (A)
                 (A) (A) (A) (A) (A) (A) (A) (A) (A) (A) (A) (A)
                 (A) (A) (A) (A) (A) (A) (A) (A) (A) (A) (A) (A)
                 (A) (A) (A) (A) (A) (A) (A) (A) (A) (A) (A) (A)
                 (A) (A) (A) (A) (A) (A) (A) (A) (A) (A) (A)
 The electronic state is 1-A.
 Alpha  occ. eigenvalues --  -20.69070 -20.68442 -20.66000 -15.81275  -1.62405
 Alpha  occ. eigenvalues --   -1.49570  -1.25438  -0.94806  -0.77275  -0.75915
 Alpha  occ. eigenvalues --   -0.71216  -0.67897  -0.62058  -0.58934  -0.48522
 Alpha  occ. eigenvalues --   -0.47248
 Alpha virt. eigenvalues --    0.02963   0.07151   0.08603   0.10172   0.13208
 Alpha virt. eigenvalues --    0.13568   0.14410   0.15455   0.17802   0.19409
 Alpha virt. eigenvalues --    0.19946   0.20669   0.22094   0.23430   0.23877
 Alpha virt. eigenvalues --    0.26539   0.29342   0.30306   0.31181   0.34339
 Alpha virt. eigenvalues --    0.34992   0.38719   0.42108   0.43056   0.52519
 Alpha virt. eigenvalues --    0.53155   0.55829   0.58118   0.62604   0.63848
 Alpha virt. eigenvalues --    0.67161   0.68764   0.70652   0.71143   0.72524
 Alpha virt. eigenvalues --    0.72992   0.74478   0.78961   0.79454   0.80739
 Alpha virt. eigenvalues --    0.81584   0.83008   0.86804   0.90776   0.92190
 Alpha virt. eigenvalues --    0.92635   0.95603   0.97580   0.98555   1.01604
 Alpha virt. eigenvalues --    1.04922   1.05532   1.08577   1.11676   1.13960
 Alpha virt. eigenvalues --    1.19070   1.22187   1.23207   1.33823   1.35129
 Alpha virt. eigenvalues --    1.38830   1.45139   1.48744   1.50848   1.53809
 Alpha virt. eigenvalues --    1.56497   1.58201   1.61323   1.66277   1.66907
 Alpha virt. eigenvalues --    1.70407   1.79116   1.82822   1.83808   1.88016
 Alpha virt. eigenvalues --    1.91103   1.95593   1.99078   2.00812   2.07750
 Alpha virt. eigenvalues --    2.11971   2.13043   2.15157   2.22570   2.26385
 Alpha virt. eigenvalues --    2.26585   2.29002   2.31397   2.34521   2.38653
 Alpha virt. eigenvalues --    2.41796   2.43327   2.45393   2.46261   2.47772
 Alpha virt. eigenvalues --    2.50280   2.59057   2.59642   2.61835   2.62445
 Alpha virt. eigenvalues --    2.63554   2.66652   2.75456   2.82021   2.85426
 Alpha virt. eigenvalues --    2.88539   2.90125   2.92311   2.96226   3.02715
 Alpha virt. eigenvalues --    3.06926   3.12190   3.20517   3.22556   3.31497
 Alpha virt. eigenvalues --    3.34225   3.51476   3.63976   3.83668   3.84720
 Alpha virt. eigenvalues --    4.14895   4.16173   4.18410   4.25653   4.35185
 Alpha virt. eigenvalues --    4.39356   4.46444   4.51921   4.65811   4.70956
 Alpha virt. eigenvalues --    4.80583   4.82402   4.82706   4.89930   5.02261
 Alpha virt. eigenvalues --    5.07469   5.10467   5.14668   5.17911   5.24385
 Alpha virt. eigenvalues --    5.27296   5.30532   5.32905   5.35520   5.60586
 Alpha virt. eigenvalues --    5.67426   5.76873   5.82885   5.95811   6.16908
 Alpha virt. eigenvalues --    6.30985   6.33719   6.39412   6.49343   6.50539
 Alpha virt. eigenvalues --    6.61462   6.66726   6.69864   6.75660   6.76401
 Alpha virt. eigenvalues --    6.83235   6.89808   7.01461   7.05392   7.05861
 Alpha virt. eigenvalues --    7.09032   7.12511   7.15251   7.18158   7.22536
 Alpha virt. eigenvalues --    7.24197   7.30798   7.32632   7.34833   7.39928
 Alpha virt. eigenvalues --    7.43208   7.48342   7.59035   7.62556   7.63196
 Alpha virt. eigenvalues --    7.66938   7.78990   7.88633   8.09190   8.31293
 Alpha virt. eigenvalues --    8.40865   8.54330  13.39334  14.39013  15.16318
 Alpha virt. eigenvalues --   16.14936
          Condensed to atoms (all electrons):
               1          2          3          4          5
     1  H    0.589533   0.128411   0.019870   0.012437  -0.000636
     2  O    0.128411   8.321328  -0.173108  -0.090467   0.015378
     3  O    0.019870  -0.173108   8.470329  -0.130616  -0.038798
     4  N    0.012437  -0.090467  -0.130616   6.972752  -0.055709
     5  O   -0.000636   0.015378  -0.038798  -0.055709   8.272535
 Mulliken charges:
               1
     1  H    0.250385
     2  O   -0.201542
     3  O   -0.147677
     4  N    0.291603
     5  O   -0.192769
 Sum of Mulliken charges =  -0.00000
 Mulliken charges with hydrogens summed into heavy atoms:
               1
     2  O    0.048843
     3  O   -0.147677
     4  N    0.291603
     5  O   -0.192769
 Electronic spatial extent (au):  <R**2>=            252.7541
 Charge=              0.0000 electrons
 Dipole moment (field-independent basis, Debye):
    X=             -1.2149    Y=              0.7902    Z=             -0.0112  Tot=              1.4493
 Quadrupole moment (field-independent basis, Debye-Ang):
   XX=            -17.9825   YY=            -23.0931   ZZ=            -22.0167
   XY=             -2.7847   XZ=              0.1644   YZ=              0.0641
 Traceless Quadrupole moment (field-independent basis, Debye-Ang):
   XX=              3.0482   YY=             -2.0623   ZZ=             -0.9859
   XY=             -2.7847   XZ=              0.1644   YZ=              0.0641
 Octapole moment (field-independent basis, Debye-Ang**2):
  XXX=            -18.1831  YYY=              1.7506  ZZZ=             -0.0907  XYY=             -1.0822
  XXY=              6.1994  XXZ=             -0.2032  XZZ=              1.7680  YZZ=              0.2562
  YYZ=             -0.1201  XYZ=              0.1450
 Hexadecapole moment (field-independent basis, Debye-Ang**3):
 XXXX=           -189.8613 YYYY=            -41.0554 ZZZZ=            -18.3901 XXXY=            -12.1114
 XXXZ=              0.8945 YYYX=             -0.9995 YYYZ=              0.2059 ZZZX=             -0.1379
 ZZZY=              0.0445 XXYY=            -42.4172 XXZZ=            -41.6246 YYZZ=             -9.9072
 XXYZ=              0.0014 YYXZ=              0.0503 ZZXY=             -0.4747
 N-N= 1.168806465952D+02 E-N=-8.958724096966D+02  KE= 2.801979045677D+02
 No NMR shielding tensors so no spin-rotation constants.
 Leave Link  601 at Mon Feb 14 22:15:54 2022, MaxMem= 16106127360 cpu:               4.6 elap:               0.2
 (Enter /sw/contrib/gaussian/g16/B01/g16/l9999.exe)
 1\1\GINC-N2180\SP\RMP2-FC\Aug-CC-pVTZ\H1N1O3\CGAVINH\14-Feb-2022\0\\#p
  SP mp2/aug-cc-pvtz density=current\\title\\0,1\H\O,1,0.96897556\O,2,1
 .45491931,1,97.59494903\N,3,1.45878406,2,102.29752444,1,180.,0\O,4,1.1
 7072885,3,109.06955123,2,173.96729347,0\\Version=ES64L-G16RevB.01\Stat
 e=1-A\HF=-279.5015377\MP2=-280.4465076\RMSD=4.077e-09\Dipole=-0.145345
 2,0.0044486,-0.5513583\Quadrupole=-1.4992083,-0.7416872,2.2408954,0.13
 34815,2.0943198,-0.0453828\PG=C01 [X(H1N1O3)]\\@


 IF OTHER PEOPLE ARE GOING TO TALK, CONVERSATION IS SIMPLY IMPOSSIBLE.

                                               -- WHISTLER'S PRINCIPLE
 Job cpu time:       0 days  0 hours  6 minutes 16.3 seconds.
 Elapsed time:       0 days  0 hours  0 minutes 27.2 seconds.
 File lengths (MBytes):  RWF=     21 Int=      0 D2E=      0 Chk=      8 Scr=      1
 Normal termination of Gaussian 16 at Mon Feb 14 22:15:54 2022.
