 Entering Gaussian System, Link 0=g16
 Input=hoono_r3_1p491777.gjf
 Output=hoono_r3_1p491777.log
 Initial command:
 /sw/contrib/gaussian/g16/B01/g16/l1.exe "/scr/Gau-707.inp" -scrdir="/scr/"
 Entering Link 1 = /sw/contrib/gaussian/g16/B01/g16/l1.exe PID=       708.
  
 Copyright (c) 1988-2017, Gaussian, Inc.  All Rights Reserved.
  
 This is part of the Gaussian(R) 16 program.  It is based on
 the Gaussian(R) 09 system (copyright 2009, Gaussian, Inc.),
 the Gaussian(R) 03 system (copyright 2003, Gaussian, Inc.),
 the Gaussian(R) 98 system (copyright 1998, Gaussian, Inc.),
 the Gaussian(R) 94 system (copyright 1995, Gaussian, Inc.),
 the Gaussian 92(TM) system (copyright 1992, Gaussian, Inc.),
 the Gaussian 90(TM) system (copyright 1990, Gaussian, Inc.),
 the Gaussian 88(TM) system (copyright 1988, Gaussian, Inc.),
 the Gaussian 86(TM) system (copyright 1986, Carnegie Mellon
 University), and the Gaussian 82(TM) system (copyright 1983,
 Carnegie Mellon University). Gaussian is a federally registered
 trademark of Gaussian, Inc.
  
 This software contains proprietary and confidential information,
 including trade secrets, belonging to Gaussian, Inc.
  
 This software is provided under written license and may be
 used, copied, transmitted, or stored only in accord with that
 written license.
  
 The following legend is applicable only to US Government
 contracts under FAR:
  
                    RESTRICTED RIGHTS LEGEND
  
 Use, reproduction and disclosure by the US Government is
 subject to restrictions as set forth in subparagraphs (a)
 and (c) of the Commercial Computer Software - Restricted
 Rights clause in FAR 52.227-19.
  
 Gaussian, Inc.
 340 Quinnipiac St., Bldg. 40, Wallingford CT 06492
  
  
 ---------------------------------------------------------------
 Warning -- This program may not be used in any manner that
 competes with the business of Gaussian, Inc. or will provide
 assistance to any competitor of Gaussian, Inc.  The licensee
 of this program is prohibited from giving any competitor of
 Gaussian, Inc. access to this program.  By using this program,
 the user acknowledges that Gaussian, Inc. is engaged in the
 business of creating and licensing software in the field of
 computational chemistry and represents and warrants to the
 licensee that it is not a competitor of Gaussian, Inc. and that
 it will not use this program in any manner prohibited above.
 ---------------------------------------------------------------
  

 Cite this work as:
 Gaussian 16, Revision B.01,
 M. J. Frisch, G. W. Trucks, H. B. Schlegel, G. E. Scuseria, 
 M. A. Robb, J. R. Cheeseman, G. Scalmani, V. Barone, 
 G. A. Petersson, H. Nakatsuji, X. Li, M. Caricato, A. V. Marenich, 
 J. Bloino, B. G. Janesko, R. Gomperts, B. Mennucci, H. P. Hratchian, 
 J. V. Ortiz, A. F. Izmaylov, J. L. Sonnenberg, D. Williams-Young, 
 F. Ding, F. Lipparini, F. Egidi, J. Goings, B. Peng, A. Petrone, 
 T. Henderson, D. Ranasinghe, V. G. Zakrzewski, J. Gao, N. Rega, 
 G. Zheng, W. Liang, M. Hada, M. Ehara, K. Toyota, R. Fukuda, 
 J. Hasegawa, M. Ishida, T. Nakajima, Y. Honda, O. Kitao, H. Nakai, 
 T. Vreven, K. Throssell, J. A. Montgomery, Jr., J. E. Peralta, 
 F. Ogliaro, M. J. Bearpark, J. J. Heyd, E. N. Brothers, K. N. Kudin, 
 V. N. Staroverov, T. A. Keith, R. Kobayashi, J. Normand, 
 K. Raghavachari, A. P. Rendell, J. C. Burant, S. S. Iyengar, 
 J. Tomasi, M. Cossi, J. M. Millam, M. Klene, C. Adamo, R. Cammi, 
 J. W. Ochterski, R. L. Martin, K. Morokuma, O. Farkas, 
 J. B. Foresman, and D. J. Fox, Gaussian, Inc., Wallingford CT, 2016.
 
 ******************************************
 Gaussian 16:  ES64L-G16RevB.01 20-Dec-2017
                14-Feb-2022 
 ******************************************
 %nproc=28
 Will use up to   28 processors via shared memory.
 %mem=120GB
 %chk=hoono_r3_1p491777.chk
 -------------------------------------
 #p SP mp2/aug-cc-pvtz density=current
 -------------------------------------
 1/30=1,38=1,172=1/1;
 2/12=2,17=6,18=5,40=1/2;
 3/5=16,6=1,7=10,11=9,25=1,30=1,71=1/1,2,3;
 4//1;
 5/5=2,38=5/2;
 8/6=4,10=1/1;
 9/15=1,16=-3/6;
 10/5=1,13=10/2;
 6/7=2,8=2,9=2,10=2,22=-1/1;
 99/5=1,9=1/99;
 Leave Link    1 at Mon Feb 14 22:11:04 2022, MaxMem= 16106127360 cpu:              10.4 elap:               0.4
 (Enter /sw/contrib/gaussian/g16/B01/g16/l101.exe)
 -----
 title
 -----
 Symbolic Z-matrix:
 Charge =  0 Multiplicity = 1
 H
 O                    1    r1
 O                    2    r2       1    a1
 N                    3    r3       2    a2       1    d1       0
 O                    4    r4       3    a3       2    d2       0
       Variables:
  r1                    0.96898                  
  r2                    1.45492                  
  r3                    1.49178                  
  r4                    1.17073                  
  a1                   97.59495                  
  a2                  102.29752                  
  a3                  109.06955                  
  d1                  180.                       
  d2                  180.                       
 
 ITRead=  0  0  0  0  0
 MicOpt= -1 -1 -1 -1 -1
 NAtoms=      5 NQM=        5 NQMF=       0 NMMI=      0 NMMIF=      0
                NMic=       0 NMicF=      0.
                    Isotopes and Nuclear Properties:
 (Nuclear quadrupole moments (NQMom) in fm**2, nuclear magnetic moments (NMagM)
  in nuclear magnetons)

  Atom         1           2           3           4           5
 IAtWgt=           1          16          16          14          16
 AtmWgt=   1.0078250  15.9949146  15.9949146  14.0030740  15.9949146
 NucSpn=           1           0           0           2           0
 AtZEff=  -0.0000000  -0.0000000  -0.0000000  -0.0000000  -0.0000000
 NQMom=    0.0000000   0.0000000   0.0000000   2.0440000   0.0000000
 NMagM=    2.7928460   0.0000000   0.0000000   0.4037610   0.0000000
 AtZNuc=   1.0000000   8.0000000   8.0000000   7.0000000   8.0000000
 Leave Link  101 at Mon Feb 14 22:11:05 2022, MaxMem= 16106127360 cpu:               2.5 elap:               0.1
 (Enter /sw/contrib/gaussian/g16/B01/g16/l202.exe)
                          Input orientation:                          
 ---------------------------------------------------------------------
 Center     Atomic      Atomic             Coordinates (Angstroms)
 Number     Number       Type             X           Y           Z
 ---------------------------------------------------------------------
      1          1           0        0.000000    0.000000    0.000000
      2          8           0        0.000000    0.000000    0.968976
      3          8           0        1.442156    0.000000    1.161271
      4          7           0        1.564456    0.000000    2.648027
      5          8           0        2.698572    0.000000    2.938521
 ---------------------------------------------------------------------
                    Distance matrix (angstroms):
                    1          2          3          4          5
     1  H    0.000000
     2  O    0.968976   0.000000
     3  O    1.851584   1.454919   0.000000
     4  N    3.075641   2.294937   1.491778   0.000000
     5  O    3.989637   3.340869   2.176512   1.170729   0.000000
 Stoichiometry    HNO3
 Framework group  CS[SG(HNO3)]
 Deg. of freedom     7
 Full point group                 CS      NOp   2
 Largest Abelian subgroup         CS      NOp   2
 Largest concise Abelian subgroup C1      NOp   1
                         Standard orientation:                         
 ---------------------------------------------------------------------
 Center     Atomic      Atomic             Coordinates (Angstroms)
 Number     Number       Type             X           Y           Z
 ---------------------------------------------------------------------
      1          1           0        1.545012    1.708671   -0.000000
      2          8           0        1.453850    0.743994   -0.000000
      3          8           0       -0.000000    0.688230   -0.000000
      4          7           0       -0.261633   -0.780426    0.000000
      5          8           0       -1.418048   -0.962934    0.000000
 ---------------------------------------------------------------------
 Rotational constants (GHZ):          53.5903252           4.9279109           4.5129239
 Leave Link  202 at Mon Feb 14 22:11:05 2022, MaxMem= 16106127360 cpu:               0.4 elap:               0.0
 (Enter /sw/contrib/gaussian/g16/B01/g16/l301.exe)
 Standard basis: Aug-CC-pVTZ (5D, 7F)
 Ernie: Thresh=  0.10000D-02 Tol=  0.10000D-05 Strict=F.
 Ernie:  12 primitive shells out of 131 were deleted.
 There are   166 symmetry adapted cartesian basis functions of A'  symmetry.
 There are    79 symmetry adapted cartesian basis functions of A"  symmetry.
 There are   136 symmetry adapted basis functions of A'  symmetry.
 There are    71 symmetry adapted basis functions of A"  symmetry.
   207 basis functions,   315 primitive gaussians,   245 cartesian basis functions
    16 alpha electrons       16 beta electrons
       nuclear repulsion energy       115.9862513700 Hartrees.
 IExCor=    0 DFT=F Ex=HF Corr=None ExCW=0 ScaHFX=  1.000000
 ScaDFX=  1.000000  1.000000  1.000000  1.000000 ScalE2=  1.000000  1.000000
 IRadAn=      5 IRanWt=     -1 IRanGd=            0 ICorTp=0 IEmpDi=  4
 NAtoms=    5 NActive=    5 NUniq=    5 SFac= 1.00D+00 NAtFMM=   60 NAOKFM=F Big=F
 Integral buffers will be    131072 words long.
 Raffenetti 1 integral format.
 Two-electron integral symmetry is turned on.
 Leave Link  301 at Mon Feb 14 22:11:05 2022, MaxMem= 16106127360 cpu:               1.8 elap:               0.1
 (Enter /sw/contrib/gaussian/g16/B01/g16/l302.exe)
 NPDir=0 NMtPBC=     1 NCelOv=     1 NCel=       1 NClECP=     1 NCelD=      1
         NCelK=      1 NCelE2=     1 NClLst=     1 CellRange=     0.0.
 One-electron integrals computed using PRISM.
 One-electron integral symmetry used in STVInt
 NBasis=   207 RedAO= T EigKep=  1.85D-04  NBF=   136    71
 NBsUse=   207 1.00D-06 EigRej= -1.00D+00 NBFU=   136    71
 Leave Link  302 at Mon Feb 14 22:11:05 2022, MaxMem= 16106127360 cpu:               4.7 elap:               0.2
 (Enter /sw/contrib/gaussian/g16/B01/g16/l303.exe)
 DipDrv:  MaxL=1.
 Leave Link  303 at Mon Feb 14 22:11:05 2022, MaxMem= 16106127360 cpu:               0.8 elap:               0.1
 (Enter /sw/contrib/gaussian/g16/B01/g16/l401.exe)
 ExpMin= 2.53D-02 ExpMax= 1.53D+04 ExpMxC= 5.22D+02 IAcc=3 IRadAn=         5 AccDes= 0.00D+00
 Harris functional with IExCor=  205 and IRadAn=       5 diagonalized for initial guess.
 HarFok:  IExCor=  205 AccDes= 0.00D+00 IRadAn=         5 IDoV= 1 UseB2=F ITyADJ=14
 ICtDFT=  3500011 ScaDFX=  1.000000  1.000000  1.000000  1.000000
 FoFCou: FMM=F IPFlag=           0 FMFlag=      100000 FMFlg1=           0
         NFxFlg=           0 DoJE=T BraDBF=F KetDBF=T FulRan=T
         wScrn=  0.000000 ICntrl=       500 IOpCl=  0 I1Cent=   200000004 NGrid=           0
         NMat0=    1 NMatS0=      1 NMatT0=    0 NMatD0=    1 NMtDS0=    0 NMtDT0=    0
 Petite list used in FoFCou.
 Harris En= -279.627331477763    
 JPrj=0 DoOrth=F DoCkMO=F.
 Initial guess orbital symmetries:
       Occupied  (A') (A') (A') (A') (A') (A') (A') (A') (A') (A')
                 (A") (A') (A') (A") (A") (A')
       Virtual   (A") (A') (A') (A') (A') (A') (A") (A') (A') (A')
                 (A") (A') (A") (A') (A') (A") (A') (A") (A') (A')
                 (A') (A') (A') (A') (A') (A") (A') (A") (A') (A')
                 (A") (A') (A") (A') (A') (A") (A') (A") (A') (A')
                 (A") (A') (A") (A') (A") (A') (A') (A') (A") (A")
                 (A') (A') (A') (A') (A") (A') (A") (A') (A") (A')
                 (A') (A') (A") (A') (A') (A") (A') (A") (A') (A')
                 (A") (A') (A') (A") (A") (A') (A') (A") (A') (A')
                 (A') (A") (A') (A") (A') (A") (A') (A") (A') (A')
                 (A') (A") (A') (A") (A') (A") (A") (A') (A') (A')
                 (A") (A') (A") (A') (A') (A') (A") (A') (A") (A')
                 (A") (A') (A') (A') (A") (A') (A') (A') (A") (A')
                 (A") (A') (A') (A") (A") (A') (A') (A") (A") (A')
                 (A') (A') (A') (A") (A") (A') (A") (A') (A') (A')
                 (A') (A") (A") (A') (A') (A") (A') (A') (A') (A')
                 (A') (A") (A') (A") (A') (A") (A') (A") (A") (A')
                 (A') (A") (A') (A") (A') (A") (A") (A") (A') (A')
                 (A") (A') (A") (A') (A') (A") (A") (A") (A') (A')
                 (A') (A') (A') (A') (A') (A') (A') (A') (A') (A')
                 (A')
 The electronic state of the initial guess is 1-A'.
 Leave Link  401 at Mon Feb 14 22:11:06 2022, MaxMem= 16106127360 cpu:               7.0 elap:               0.3
 (Enter /sw/contrib/gaussian/g16/B01/g16/l502.exe)
 Keep R1 ints in memory in symmetry-blocked form, NReq=348887737.
 FoFCou: FMM=F IPFlag=           0 FMFlag=           0 FMFlg1=           0
         NFxFlg=           0 DoJE=F BraDBF=F KetDBF=F FulRan=T
         wScrn=  0.000000 ICntrl=       600 IOpCl=  0 I1Cent=           0 NGrid=           0
         NMat0=    1 NMatS0=  21528 NMatT0=    0 NMatD0=    1 NMtDS0=    0 NMtDT0=    0
 Petite list used in FoFCou.
 Closed shell SCF:
 Using DIIS extrapolation, IDIIS=  1040.
 NGot= 16106127360 LenX= 15988850015 LenY= 15988789549
 Requested convergence on RMS density matrix=1.00D-08 within 128 cycles.
 Requested convergence on MAX density matrix=1.00D-06.
 Requested convergence on             energy=1.00D-06.
 No special actions if energy rises.

 Cycle   1  Pass 1  IDiag  1:
 E= -279.370297862821    
 DIIS: error= 2.75D-02 at cycle   1 NSaved=   1.
 NSaved= 1 IEnMin= 1 EnMin= -279.370297862821     IErMin= 1 ErrMin= 2.75D-02
 ErrMax= 2.75D-02  0.00D+00 EMaxC= 1.00D-01 BMatC= 4.34D-01 BMatP= 4.34D-01
 IDIUse=3 WtCom= 7.25D-01 WtEn= 2.75D-01
 Coeff-Com:  0.100D+01
 Coeff-En:   0.100D+01
 Coeff:      0.100D+01
 Gap=     0.496 Goal=   None    Shift=    0.000
 GapD=    0.496 DampG=2.000 DampE=0.500 DampFc=1.0000 IDamp=-1.
 RMSDP=1.60D-03 MaxDP=1.02D-01              OVMax= 1.04D-01

 Cycle   2  Pass 1  IDiag  1:
 E= -279.452913518424     Delta-E=       -0.082615655603 Rises=F Damp=F
 DIIS: error= 1.74D-02 at cycle   2 NSaved=   2.
 NSaved= 2 IEnMin= 2 EnMin= -279.452913518424     IErMin= 2 ErrMin= 1.74D-02
 ErrMax= 1.74D-02  0.00D+00 EMaxC= 1.00D-01 BMatC= 6.53D-02 BMatP= 4.34D-01
 IDIUse=3 WtCom= 8.26D-01 WtEn= 1.74D-01
 Coeff-Com:  0.183D+00 0.817D+00
 Coeff-En:   0.000D+00 0.100D+01
 Coeff:      0.151D+00 0.849D+00
 Gap=     0.523 Goal=   None    Shift=    0.000
 RMSDP=8.66D-04 MaxDP=3.60D-02 DE=-8.26D-02 OVMax= 7.14D-02

 Cycle   3  Pass 1  IDiag  1:
 E= -279.479133860909     Delta-E=       -0.026220342485 Rises=F Damp=F
 DIIS: error= 1.07D-02 at cycle   3 NSaved=   3.
 NSaved= 3 IEnMin= 3 EnMin= -279.479133860909     IErMin= 3 ErrMin= 1.07D-02
 ErrMax= 1.07D-02  0.00D+00 EMaxC= 1.00D-01 BMatC= 2.71D-02 BMatP= 6.53D-02
 IDIUse=3 WtCom= 8.93D-01 WtEn= 1.07D-01
 Coeff-Com: -0.321D-01 0.383D+00 0.649D+00
 Coeff-En:   0.000D+00 0.245D+00 0.755D+00
 Coeff:     -0.286D-01 0.368D+00 0.661D+00
 Gap=     0.509 Goal=   None    Shift=    0.000
 RMSDP=3.67D-04 MaxDP=1.61D-02 DE=-2.62D-02 OVMax= 3.49D-02

 Cycle   4  Pass 1  IDiag  1:
 E= -279.497090314253     Delta-E=       -0.017956453344 Rises=F Damp=F
 DIIS: error= 1.34D-03 at cycle   4 NSaved=   4.
 NSaved= 4 IEnMin= 4 EnMin= -279.497090314253     IErMin= 4 ErrMin= 1.34D-03
 ErrMax= 1.34D-03  0.00D+00 EMaxC= 1.00D-01 BMatC= 5.30D-04 BMatP= 2.71D-02
 IDIUse=3 WtCom= 9.87D-01 WtEn= 1.34D-02
 Coeff-Com: -0.123D-01 0.679D-01 0.174D+00 0.770D+00
 Coeff-En:   0.000D+00 0.000D+00 0.000D+00 0.100D+01
 Coeff:     -0.121D-01 0.670D-01 0.172D+00 0.773D+00
 Gap=     0.502 Goal=   None    Shift=    0.000
 RMSDP=9.05D-05 MaxDP=2.86D-03 DE=-1.80D-02 OVMax= 1.18D-02

 Cycle   5  Pass 1  IDiag  1:
 E= -279.497801696396     Delta-E=       -0.000711382143 Rises=F Damp=F
 DIIS: error= 7.91D-04 at cycle   5 NSaved=   5.
 NSaved= 5 IEnMin= 5 EnMin= -279.497801696396     IErMin= 5 ErrMin= 7.91D-04
 ErrMax= 7.91D-04  0.00D+00 EMaxC= 1.00D-01 BMatC= 9.33D-05 BMatP= 5.30D-04
 IDIUse=3 WtCom= 9.92D-01 WtEn= 7.91D-03
 Coeff-Com:  0.637D-02-0.765D-01-0.125D+00 0.729D-02 0.119D+01
 Coeff-En:   0.000D+00 0.000D+00 0.000D+00 0.000D+00 0.100D+01
 Coeff:      0.632D-02-0.759D-01-0.124D+00 0.723D-02 0.119D+01
 Gap=     0.501 Goal=   None    Shift=    0.000
 RMSDP=8.06D-05 MaxDP=2.18D-03 DE=-7.11D-04 OVMax= 1.16D-02

 Cycle   6  Pass 1  IDiag  1:
 E= -279.498151273569     Delta-E=       -0.000349577173 Rises=F Damp=F
 DIIS: error= 2.85D-04 at cycle   6 NSaved=   6.
 NSaved= 6 IEnMin= 6 EnMin= -279.498151273569     IErMin= 6 ErrMin= 2.85D-04
 ErrMax= 2.85D-04  0.00D+00 EMaxC= 1.00D-01 BMatC= 1.78D-05 BMatP= 9.33D-05
 IDIUse=3 WtCom= 9.97D-01 WtEn= 2.85D-03
 Coeff-Com:  0.700D-03 0.599D-03 0.342D-02-0.122D+00-0.245D+00 0.136D+01
 Coeff-En:   0.000D+00 0.000D+00 0.000D+00 0.000D+00 0.000D+00 0.100D+01
 Coeff:      0.698D-03 0.597D-03 0.341D-02-0.122D+00-0.245D+00 0.136D+01
 Gap=     0.502 Goal=   None    Shift=    0.000
 RMSDP=4.82D-05 MaxDP=1.35D-03 DE=-3.50D-04 OVMax= 5.89D-03

 Cycle   7  Pass 1  IDiag  1:
 E= -279.498232918572     Delta-E=       -0.000081645003 Rises=F Damp=F
 DIIS: error= 1.46D-04 at cycle   7 NSaved=   7.
 NSaved= 7 IEnMin= 7 EnMin= -279.498232918572     IErMin= 7 ErrMin= 1.46D-04
 ErrMax= 1.46D-04  0.00D+00 EMaxC= 1.00D-01 BMatC= 5.36D-06 BMatP= 1.78D-05
 IDIUse=3 WtCom= 9.99D-01 WtEn= 1.46D-03
 Coeff-Com: -0.981D-03 0.147D-01 0.290D-01-0.242D-01-0.313D+00 0.443D+00
 Coeff-Com:  0.852D+00
 Coeff-En:   0.000D+00 0.000D+00 0.000D+00 0.000D+00 0.000D+00 0.000D+00
 Coeff-En:   0.100D+01
 Coeff:     -0.979D-03 0.146D-01 0.289D-01-0.242D-01-0.312D+00 0.442D+00
 Coeff:      0.852D+00
 Gap=     0.502 Goal=   None    Shift=    0.000
 RMSDP=1.43D-05 MaxDP=4.08D-04 DE=-8.16D-05 OVMax= 1.64D-03

 Cycle   8  Pass 1  IDiag  1:
 E= -279.498243304197     Delta-E=       -0.000010385625 Rises=F Damp=F
 DIIS: error= 5.91D-05 at cycle   8 NSaved=   8.
 NSaved= 8 IEnMin= 8 EnMin= -279.498243304197     IErMin= 8 ErrMin= 5.91D-05
 ErrMax= 5.91D-05  0.00D+00 EMaxC= 1.00D-01 BMatC= 6.81D-07 BMatP= 5.36D-06
 IDIUse=1 WtCom= 1.00D+00 WtEn= 0.00D+00
 Coeff-Com: -0.497D-03 0.392D-02 0.866D-02 0.278D-01-0.403D-01-0.204D+00
 Coeff-Com:  0.139D+00 0.107D+01
 Coeff:     -0.497D-03 0.392D-02 0.866D-02 0.278D-01-0.403D-01-0.204D+00
 Coeff:      0.139D+00 0.107D+01
 Gap=     0.501 Goal=   None    Shift=    0.000
 RMSDP=7.83D-06 MaxDP=2.20D-04 DE=-1.04D-05 OVMax= 8.95D-04

 Cycle   9  Pass 1  IDiag  1:
 E= -279.498245429624     Delta-E=       -0.000002125427 Rises=F Damp=F
 DIIS: error= 1.62D-05 at cycle   9 NSaved=   9.
 NSaved= 9 IEnMin= 9 EnMin= -279.498245429624     IErMin= 9 ErrMin= 1.62D-05
 ErrMax= 1.62D-05  0.00D+00 EMaxC= 1.00D-01 BMatC= 7.20D-08 BMatP= 6.81D-07
 IDIUse=1 WtCom= 1.00D+00 WtEn= 0.00D+00
 Coeff-Com:  0.142D-03-0.193D-02-0.353D-02-0.342D-02 0.359D-01 0.664D-02
 Coeff-Com: -0.157D+00-0.151D+00 0.127D+01
 Coeff:      0.142D-03-0.193D-02-0.353D-02-0.342D-02 0.359D-01 0.664D-02
 Coeff:     -0.157D+00-0.151D+00 0.127D+01
 Gap=     0.501 Goal=   None    Shift=    0.000
 RMSDP=2.06D-06 MaxDP=6.99D-05 DE=-2.13D-06 OVMax= 1.77D-04

 Cycle  10  Pass 1  IDiag  1:
 E= -279.498245601148     Delta-E=       -0.000000171524 Rises=F Damp=F
 DIIS: error= 4.19D-06 at cycle  10 NSaved=  10.
 NSaved=10 IEnMin=10 EnMin= -279.498245601148     IErMin=10 ErrMin= 4.19D-06
 ErrMax= 4.19D-06  0.00D+00 EMaxC= 1.00D-01 BMatC= 5.39D-09 BMatP= 7.20D-08
 IDIUse=1 WtCom= 1.00D+00 WtEn= 0.00D+00
 Coeff-Com:  0.268D-04-0.197D-03-0.231D-03-0.240D-02 0.487D-03 0.180D-01
 Coeff-Com: -0.506D-02-0.677D-01-0.102D+00 0.116D+01
 Coeff:      0.268D-04-0.197D-03-0.231D-03-0.240D-02 0.487D-03 0.180D-01
 Coeff:     -0.506D-02-0.677D-01-0.102D+00 0.116D+01
 Gap=     0.501 Goal=   None    Shift=    0.000
 RMSDP=4.95D-07 MaxDP=2.07D-05 DE=-1.72D-07 OVMax= 3.98D-05

 Cycle  11  Pass 1  IDiag  1:
 E= -279.498245613039     Delta-E=       -0.000000011890 Rises=F Damp=F
 DIIS: error= 2.02D-06 at cycle  11 NSaved=  11.
 NSaved=11 IEnMin=11 EnMin= -279.498245613039     IErMin=11 ErrMin= 2.02D-06
 ErrMax= 2.02D-06  0.00D+00 EMaxC= 1.00D-01 BMatC= 6.30D-10 BMatP= 5.39D-09
 IDIUse=1 WtCom= 1.00D+00 WtEn= 0.00D+00
 Coeff-Com: -0.215D-04 0.249D-03 0.503D-03 0.532D-03-0.404D-02-0.366D-02
 Coeff-Com:  0.183D-01 0.318D-01-0.135D+00-0.147D+00 0.124D+01
 Coeff:     -0.215D-04 0.249D-03 0.503D-03 0.532D-03-0.404D-02-0.366D-02
 Coeff:      0.183D-01 0.318D-01-0.135D+00-0.147D+00 0.124D+01
 Gap=     0.501 Goal=   None    Shift=    0.000
 RMSDP=1.67D-07 MaxDP=5.81D-06 DE=-1.19D-08 OVMax= 1.71D-05

 Cycle  12  Pass 1  IDiag  1:
 E= -279.498245614712     Delta-E=       -0.000000001674 Rises=F Damp=F
 DIIS: error= 6.16D-07 at cycle  12 NSaved=  12.
 NSaved=12 IEnMin=12 EnMin= -279.498245614712     IErMin=12 ErrMin= 6.16D-07
 ErrMax= 6.16D-07  0.00D+00 EMaxC= 1.00D-01 BMatC= 7.70D-11 BMatP= 6.30D-10
 IDIUse=1 WtCom= 1.00D+00 WtEn= 0.00D+00
 Coeff-Com:  0.155D-05-0.331D-04-0.721D-04 0.133D-03 0.116D-02-0.220D-02
 Coeff-Com: -0.416D-02 0.464D-02 0.421D-01-0.127D+00-0.262D+00 0.135D+01
 Coeff:      0.155D-05-0.331D-04-0.721D-04 0.133D-03 0.116D-02-0.220D-02
 Coeff:     -0.416D-02 0.464D-02 0.421D-01-0.127D+00-0.262D+00 0.135D+01
 Gap=     0.501 Goal=   None    Shift=    0.000
 RMSDP=7.15D-08 MaxDP=2.77D-06 DE=-1.67D-09 OVMax= 7.18D-06

 Cycle  13  Pass 1  IDiag  1:
 E= -279.498245614956     Delta-E=       -0.000000000244 Rises=F Damp=F
 DIIS: error= 1.91D-07 at cycle  13 NSaved=  13.
 NSaved=13 IEnMin=13 EnMin= -279.498245614956     IErMin=13 ErrMin= 1.91D-07
 ErrMax= 1.91D-07  0.00D+00 EMaxC= 1.00D-01 BMatC= 4.93D-12 BMatP= 7.70D-11
 IDIUse=1 WtCom= 1.00D+00 WtEn= 0.00D+00
 Coeff-Com:  0.136D-05-0.149D-04-0.238D-04-0.894D-04 0.999D-04 0.826D-03
 Coeff-Com: -0.662D-03-0.356D-02 0.395D-03 0.462D-01-0.431D-01-0.358D+00
 Coeff-Com:  0.136D+01
 Coeff:      0.136D-05-0.149D-04-0.238D-04-0.894D-04 0.999D-04 0.826D-03
 Coeff:     -0.662D-03-0.356D-02 0.395D-03 0.462D-01-0.431D-01-0.358D+00
 Coeff:      0.136D+01
 Gap=     0.501 Goal=   None    Shift=    0.000
 RMSDP=2.11D-08 MaxDP=6.64D-07 DE=-2.44D-10 OVMax= 1.96D-06

 Cycle  14  Pass 1  IDiag  1:
 E= -279.498245614974     Delta-E=       -0.000000000018 Rises=F Damp=F
 DIIS: error= 2.95D-08 at cycle  14 NSaved=  14.
 NSaved=14 IEnMin=14 EnMin= -279.498245614974     IErMin=14 ErrMin= 2.95D-08
 ErrMax= 2.95D-08  0.00D+00 EMaxC= 1.00D-01 BMatC= 2.54D-13 BMatP= 4.93D-12
 IDIUse=1 WtCom= 1.00D+00 WtEn= 0.00D+00
 Coeff-Com: -0.239D-06 0.382D-05 0.700D-05 0.704D-05-0.925D-04 0.399D-04
 Coeff-Com:  0.277D-03 0.326D-03-0.270D-02 0.187D-02 0.185D-01-0.243D-01
 Coeff-Com: -0.219D+00 0.122D+01
 Coeff:     -0.239D-06 0.382D-05 0.700D-05 0.704D-05-0.925D-04 0.399D-04
 Coeff:      0.277D-03 0.326D-03-0.270D-02 0.187D-02 0.185D-01-0.243D-01
 Coeff:     -0.219D+00 0.122D+01
 Gap=     0.501 Goal=   None    Shift=    0.000
 RMSDP=4.30D-09 MaxDP=1.11D-07 DE=-1.80D-11 OVMax= 3.97D-07

 SCF Done:  E(RHF) =  -279.498245615     A.U. after   14 cycles
            NFock= 14  Conv=0.43D-08     -V/T= 2.0025
 KE= 2.787944183242D+02 PE=-8.932906921811D+02 EE= 2.190117768719D+02
 Leave Link  502 at Mon Feb 14 22:11:09 2022, MaxMem= 16106127360 cpu:              58.0 elap:               3.7
 (Enter /sw/contrib/gaussian/g16/B01/g16/l801.exe)
 ExpMin= 2.53D-02 ExpMax= 1.53D+04 ExpMxC= 5.22D+02 IAcc=3 IRadAn=         5 AccDes= 0.00D+00
 HarFok:  IExCor=  205 AccDes= 0.00D+00 IRadAn=         5 IDoV=-2 UseB2=F ITyADJ=14
 ICtDFT= 12500011 ScaDFX=  1.000000  1.000000  1.000000  1.000000
 Largest valence mixing into a core orbital is  2.10D-04
 Largest core mixing into a valence orbital is  3.73D-05
 Range of M.O.s used for correlation:     5   207
 NBasis=   207 NAE=    16 NBE=    16 NFC=     4 NFV=     0
 NROrb=    203 NOA=    12 NOB=    12 NVA=   191 NVB=   191

 **** Warning!!: The largest alpha MO coefficient is  0.17098862D+02

 Leave Link  801 at Mon Feb 14 22:11:09 2022, MaxMem= 16106127360 cpu:               1.9 elap:               0.1
 (Enter /sw/contrib/gaussian/g16/B01/g16/l906.exe)
 Frozen-core derivative calculation, NFC=   4 NFV=   0.
 FulOut=F Deriv=T AODrv=F NAtomX=     5
   MMem=          76  MDisk=          12 MDiskD=          12
  W3Min=      811440 MinDsk=     1524655 NBas6D=         245
 NBas2D=       30762    NTT=       30135    LW2=     3500000
    MDV= 16105580053 MDiskM=      328644 NBas2p=       30466
 Fully in-core method, ICMem=   960157634.
 IMap=   1   2   3   4   5   6   7   8   9  10  11  12  13  14  15  16
 JobTyp=1 Pass  1 fully in-core, NPsUse= 28.
 Compute canonical integrals.
 FoFCou: FMM=F IPFlag=           0 FMFlag=           0 FMFlg1=           0
         NFxFlg=           0 DoJE=F BraDBF=F KetDBF=F FulRan=T
         wScrn=  0.000000 ICntrl=       600 IOpCl=  1 I1Cent=           0 NGrid=           0
         NMat0=    1 NMatS0=  30762 NMatT0=    0 NMatD0=    1 NMtDS0=    0 NMtDT0=    0
 Symmetry not used in FoFCou.
 Spin components of T(2) and E(2):
     alpha-alpha T2 =       0.3442442913D-01 E2=     -0.1227889783D+00
     alpha-beta  T2 =       0.1892125738D+00 E2=     -0.7026957556D+00
     beta-beta   T2 =       0.3442442913D-01 E2=     -0.1227889783D+00
 The integrals were generated   1 times.
 ANorm=    0.1121633377D+01
 E2 =    -0.9482737121D+00 EUMP2 =    -0.28044651932712D+03
 Leave Link  906 at Mon Feb 14 22:11:18 2022, MaxMem= 16106127360 cpu:             250.0 elap:               9.0
 (Enter /sw/contrib/gaussian/g16/B01/g16/l1002.exe)
 Minotr:  Closed shell wavefunction.
          Computing MP2/KS-MP2 derivatives.
          Using Z-Vector for PSCF gradient.
          Skipping F1 and S1 gradient terms here.
          Frozen-core window.
          Direct CPHF calculation.
          Differentiating once with respect to electric field.
                with respect to dipole field.
          Electric field/nuclear overlap derivatives assumed to be zero.
          Using symmetry in CPHF.
          Requested convergence is 1.0D-10 RMS, and 1.0D-09 maximum.
          NewPWx=F KeepS1=T KeepF1=T KeepIn=T MapXYZ=F SortEE=F KeepMc=T.
 Keep R1 ints in memory in symmetry-blocked form, NReq=348888868.
 FoFCou: FMM=F IPFlag=           0 FMFlag=           0 FMFlg1=           0
         NFxFlg=           0 DoJE=F BraDBF=F KetDBF=F FulRan=T
         wScrn=  0.000000 ICntrl=       600 IOpCl=  0 I1Cent=           0 NGrid=           0
         NMat0=    1 NMatS0=  21528 NMatT0=    0 NMatD0=    1 NMtDS0=    0 NMtDT0=    0
 Petite list used in FoFCou.
          MDV=   16106127360 using IRadAn=       5.
          Solving linear equations separately, MaxMat=       0.
          There are     1 degrees of freedom in the 1st order CPHF.  IDoFFX=0 NUNeed=     1.
 LinEq1:  Iter=  0 NonCon=     1 RMS=6.08D-03 Max=1.32D-01 NDo=     1
 AX will form     1 AO Fock derivatives at one time.
 LinEq1:  Iter=  1 NonCon=     1 RMS=2.00D-03 Max=4.04D-02 NDo=     1
 LinEq1:  Iter=  2 NonCon=     1 RMS=9.17D-04 Max=1.41D-02 NDo=     1
 LinEq1:  Iter=  3 NonCon=     1 RMS=4.10D-04 Max=7.84D-03 NDo=     1
 LinEq1:  Iter=  4 NonCon=     1 RMS=1.27D-04 Max=1.82D-03 NDo=     1
 LinEq1:  Iter=  5 NonCon=     1 RMS=4.78D-05 Max=7.53D-04 NDo=     1
 LinEq1:  Iter=  6 NonCon=     1 RMS=2.12D-05 Max=2.44D-04 NDo=     1
 LinEq1:  Iter=  7 NonCon=     1 RMS=8.72D-06 Max=1.79D-04 NDo=     1
 LinEq1:  Iter=  8 NonCon=     1 RMS=3.67D-06 Max=3.85D-05 NDo=     1
 LinEq1:  Iter=  9 NonCon=     1 RMS=1.00D-06 Max=1.55D-05 NDo=     1
 LinEq1:  Iter= 10 NonCon=     1 RMS=2.05D-07 Max=2.35D-06 NDo=     1
 LinEq1:  Iter= 11 NonCon=     1 RMS=3.93D-08 Max=4.66D-07 NDo=     1
 LinEq1:  Iter= 12 NonCon=     1 RMS=9.47D-09 Max=1.45D-07 NDo=     1
 LinEq1:  Iter= 13 NonCon=     1 RMS=1.67D-09 Max=3.00D-08 NDo=     1
 LinEq1:  Iter= 14 NonCon=     1 RMS=3.08D-10 Max=4.67D-09 NDo=     1
 LinEq1:  Iter= 15 NonCon=     0 RMS=5.54D-11 Max=6.62D-10 NDo=     1
 Linear equations converged to 1.000D-10 1.000D-09 after    15 iterations.
 End of Minotr F.D. properties file   721 does not exist.
 End of Minotr F.D. properties file   722 does not exist.
 End of Minotr F.D. properties file   788 does not exist.
 Leave Link 1002 at Mon Feb 14 22:11:22 2022, MaxMem= 16106127360 cpu:              53.5 elap:               3.9
 (Enter /sw/contrib/gaussian/g16/B01/g16/l601.exe)
 Copying SCF densities to generalized density rwf, IOpCl= 0 IROHF=0.

 **********************************************************************

            Population analysis using the MP2 Density.

 **********************************************************************

 Orbital symmetries:
       Occupied  (A') (A') (A') (A') (A') (A') (A') (A') (A') (A')
                 (A") (A') (A") (A') (A") (A')
       Virtual   (A') (A") (A') (A') (A") (A') (A') (A') (A") (A')
                 (A") (A') (A') (A') (A") (A') (A') (A") (A') (A')
                 (A') (A') (A') (A') (A") (A') (A') (A") (A') (A')
                 (A") (A') (A") (A') (A') (A") (A') (A') (A") (A')
                 (A") (A') (A") (A') (A') (A") (A') (A') (A") (A')
                 (A") (A') (A') (A') (A") (A') (A") (A') (A") (A')
                 (A') (A') (A") (A') (A') (A") (A') (A") (A') (A')
                 (A") (A') (A") (A') (A") (A') (A') (A") (A') (A')
                 (A') (A") (A') (A") (A') (A") (A') (A") (A') (A')
                 (A") (A') (A') (A") (A') (A") (A') (A") (A') (A')
                 (A") (A') (A") (A') (A') (A") (A') (A') (A") (A')
                 (A") (A') (A') (A') (A") (A') (A') (A') (A") (A')
                 (A") (A') (A") (A') (A') (A") (A") (A') (A") (A')
                 (A') (A') (A') (A") (A") (A") (A') (A') (A') (A')
                 (A") (A') (A") (A') (A') (A") (A') (A') (A') (A')
                 (A") (A') (A') (A") (A') (A") (A') (A") (A') (A")
                 (A') (A") (A') (A') (A") (A") (A") (A') (A") (A')
                 (A") (A') (A") (A') (A") (A') (A") (A') (A") (A')
                 (A') (A') (A') (A') (A') (A') (A') (A') (A') (A')
                 (A')
 The electronic state is 1-A'.
 Alpha  occ. eigenvalues --  -20.69207 -20.68531 -20.65594 -15.81817  -1.62312
 Alpha  occ. eigenvalues --   -1.49084  -1.24460  -0.95078  -0.77023  -0.75560
 Alpha  occ. eigenvalues --   -0.70665  -0.68101  -0.62199  -0.58760  -0.48166
 Alpha  occ. eigenvalues --   -0.47079
 Alpha virt. eigenvalues --    0.03053   0.06743   0.08530   0.10132   0.13375
 Alpha virt. eigenvalues --    0.13416   0.14477   0.15518   0.17898   0.19394
 Alpha virt. eigenvalues --    0.19965   0.20126   0.22164   0.23680   0.23702
 Alpha virt. eigenvalues --    0.26482   0.28127   0.30461   0.30969   0.34100
 Alpha virt. eigenvalues --    0.34866   0.38696   0.42318   0.43281   0.52568
 Alpha virt. eigenvalues --    0.52778   0.55498   0.57982   0.62352   0.63640
 Alpha virt. eigenvalues --    0.67320   0.68449   0.70744   0.71181   0.72451
 Alpha virt. eigenvalues --    0.73173   0.74594   0.78952   0.79324   0.80903
 Alpha virt. eigenvalues --    0.81510   0.82915   0.86570   0.90815   0.92319
 Alpha virt. eigenvalues --    0.92390   0.95970   0.97292   0.98599   1.01930
 Alpha virt. eigenvalues --    1.05069   1.05306   1.07945   1.11511   1.13804
 Alpha virt. eigenvalues --    1.18780   1.21972   1.23188   1.33520   1.34423
 Alpha virt. eigenvalues --    1.38959   1.44831   1.48754   1.51005   1.53581
 Alpha virt. eigenvalues --    1.56287   1.57379   1.61159   1.66132   1.66971
 Alpha virt. eigenvalues --    1.70004   1.79284   1.82912   1.82951   1.87925
 Alpha virt. eigenvalues --    1.90606   1.95560   1.98562   2.00131   2.06776
 Alpha virt. eigenvalues --    2.11702   2.12747   2.15390   2.21803   2.26077
 Alpha virt. eigenvalues --    2.26733   2.28678   2.31345   2.33603   2.38595
 Alpha virt. eigenvalues --    2.41934   2.42114   2.45113   2.45951   2.47094
 Alpha virt. eigenvalues --    2.49641   2.59247   2.59422   2.61306   2.62176
 Alpha virt. eigenvalues --    2.63725   2.66448   2.75205   2.80829   2.84093
 Alpha virt. eigenvalues --    2.87220   2.89611   2.89676   2.95623   3.01350
 Alpha virt. eigenvalues --    3.05427   3.11309   3.20564   3.22420   3.31104
 Alpha virt. eigenvalues --    3.33301   3.51145   3.63137   3.82272   3.83756
 Alpha virt. eigenvalues --    4.14822   4.17189   4.18016   4.24378   4.35197
 Alpha virt. eigenvalues --    4.39280   4.46571   4.51482   4.65011   4.70498
 Alpha virt. eigenvalues --    4.79445   4.80651   4.83313   4.89205   5.01212
 Alpha virt. eigenvalues --    5.06790   5.08868   5.14605   5.16924   5.23473
 Alpha virt. eigenvalues --    5.26010   5.30158   5.32803   5.34155   5.59513
 Alpha virt. eigenvalues --    5.66757   5.74873   5.83136   5.94047   6.15417
 Alpha virt. eigenvalues --    6.30846   6.32536   6.39032   6.48563   6.49853
 Alpha virt. eigenvalues --    6.61252   6.66927   6.69044   6.76275   6.76349
 Alpha virt. eigenvalues --    6.82242   6.88837   7.00621   7.05200   7.06012
 Alpha virt. eigenvalues --    7.09053   7.11461   7.14093   7.18039   7.20816
 Alpha virt. eigenvalues --    7.24358   7.31357   7.31993   7.33718   7.38927
 Alpha virt. eigenvalues --    7.41490   7.47591   7.59368   7.60268   7.61102
 Alpha virt. eigenvalues --    7.65102   7.77603   7.87956   8.05589   8.29916
 Alpha virt. eigenvalues --    8.40840   8.52917  13.33042  14.22511  15.13604
 Alpha virt. eigenvalues --   16.09233
          Condensed to atoms (all electrons):
               1          2          3          4          5
     1  H    0.590179   0.128595   0.019817   0.012162  -0.000675
     2  O    0.128595   8.321977  -0.176290  -0.085119   0.014688
     3  O    0.019817  -0.176290   8.477989  -0.120055  -0.033140
     4  N    0.012162  -0.085119  -0.120055   6.942669  -0.050775
     5  O   -0.000675   0.014688  -0.033140  -0.050775   8.248770
 Mulliken charges:
               1
     1  H    0.249922
     2  O   -0.203852
     3  O   -0.168320
     4  N    0.301118
     5  O   -0.178868
 Sum of Mulliken charges =  -0.00000
 Mulliken charges with hydrogens summed into heavy atoms:
               1
     2  O    0.046070
     3  O   -0.168320
     4  N    0.301118
     5  O   -0.178868
 Electronic spatial extent (au):  <R**2>=            256.3511
 Charge=             -0.0000 electrons
 Dipole moment (field-independent basis, Debye):
    X=              0.3599    Y=              1.1683    Z=             -0.0000  Tot=              1.2225
 Quadrupole moment (field-independent basis, Debye-Ang):
   XX=            -22.4130   YY=            -18.4740   ZZ=            -22.0573
   XY=              3.3180   XZ=              0.0000   YZ=             -0.0000
 Traceless Quadrupole moment (field-independent basis, Debye-Ang):
   XX=             -1.4316   YY=              2.5074   ZZ=             -1.0759
   XY=              3.3180   XZ=              0.0000   YZ=             -0.0000
 Octapole moment (field-independent basis, Debye-Ang**2):
  XXX=              2.2205  YYY=             11.2223  ZZZ=              0.0000  XYY=              7.8501
  XXY=              6.3039  XXZ=             -0.0000  XZZ=             -1.6322  YZZ=             -0.9818
  YYZ=             -0.0000  XYZ=             -0.0000
 Hexadecapole moment (field-independent basis, Debye-Ang**3):
 XXXX=           -158.2970 YYYY=            -92.9894 ZZZZ=            -18.3424 XXXY=            -37.7472
 XXXZ=              0.0000 YYYX=            -31.2555 YYYZ=              0.0000 ZZZX=              0.0000
 ZZZY=              0.0000 XXYY=            -34.3719 XXZZ=            -30.8562 YYZZ=            -21.3763
 XXYZ=              0.0000 YYXZ=              0.0000 ZZXY=            -15.4131
 N-N= 1.159862513700D+02 E-N=-8.941011041375D+02  KE= 2.801590888988D+02
 Symmetry A'   KE= 2.661983231323D+02
 Symmetry A"   KE= 1.396076576648D+01
 No NMR shielding tensors so no spin-rotation constants.
 Leave Link  601 at Mon Feb 14 22:11:23 2022, MaxMem= 16106127360 cpu:               5.7 elap:               0.3
 (Enter /sw/contrib/gaussian/g16/B01/g16/l9999.exe)
 1\1\GINC-N2180\SP\RMP2-FC\Aug-CC-pVTZ\H1N1O3\CGAVINH\14-Feb-2022\0\\#p
  SP mp2/aug-cc-pvtz density=current\\title\\0,1\H\O,1,0.96897556\O,2,1
 .45491931,1,97.59494903\N,3,1.4917775676,2,102.29752444,1,180.,0\O,4,1
 .17072885,3,109.06955123,2,180.,0\\Version=ES64L-G16RevB.01\State=1-A'
 \HF=-279.4982456\MP2=-280.4465193\RMSD=4.296e-09\Dipole=-0.0977426,0.,
 -0.4709193\Quadrupole=-1.5005339,-0.7998719,2.3004058,0.,2.1488714,0.\
 PG=CS [SG(H1N1O3)]\\@


 LAW OF COMPENSATION:
      NO CALCULATION IS EVER A COMPLETE FAILURE; IT 
      CAN ALWAYS SERVE AS A BAD EXAMPLE.

                                           -- ANON
 Job cpu time:       0 days  0 hours  6 minutes 37.6 seconds.
 Elapsed time:       0 days  0 hours  0 minutes 18.2 seconds.
 File lengths (MBytes):  RWF=     22 Int=      0 D2E=      0 Chk=      8 Scr=      1
 Normal termination of Gaussian 16 at Mon Feb 14 22:11:23 2022.
