 Entering Gaussian System, Link 0=g16
 Input=hoono_r3_1p425790.gjf
 Output=hoono_r3_1p425790.log
 Initial command:
 /sw/contrib/gaussian/g16/B01/g16/l1.exe "/scr/Gau-1167.inp" -scrdir="/scr/"
 Entering Link 1 = /sw/contrib/gaussian/g16/B01/g16/l1.exe PID=      1168.
  
 Copyright (c) 1988-2017, Gaussian, Inc.  All Rights Reserved.
  
 This is part of the Gaussian(R) 16 program.  It is based on
 the Gaussian(R) 09 system (copyright 2009, Gaussian, Inc.),
 the Gaussian(R) 03 system (copyright 2003, Gaussian, Inc.),
 the Gaussian(R) 98 system (copyright 1998, Gaussian, Inc.),
 the Gaussian(R) 94 system (copyright 1995, Gaussian, Inc.),
 the Gaussian 92(TM) system (copyright 1992, Gaussian, Inc.),
 the Gaussian 90(TM) system (copyright 1990, Gaussian, Inc.),
 the Gaussian 88(TM) system (copyright 1988, Gaussian, Inc.),
 the Gaussian 86(TM) system (copyright 1986, Carnegie Mellon
 University), and the Gaussian 82(TM) system (copyright 1983,
 Carnegie Mellon University). Gaussian is a federally registered
 trademark of Gaussian, Inc.
  
 This software contains proprietary and confidential information,
 including trade secrets, belonging to Gaussian, Inc.
  
 This software is provided under written license and may be
 used, copied, transmitted, or stored only in accord with that
 written license.
  
 The following legend is applicable only to US Government
 contracts under FAR:
  
                    RESTRICTED RIGHTS LEGEND
  
 Use, reproduction and disclosure by the US Government is
 subject to restrictions as set forth in subparagraphs (a)
 and (c) of the Commercial Computer Software - Restricted
 Rights clause in FAR 52.227-19.
  
 Gaussian, Inc.
 340 Quinnipiac St., Bldg. 40, Wallingford CT 06492
  
  
 ---------------------------------------------------------------
 Warning -- This program may not be used in any manner that
 competes with the business of Gaussian, Inc. or will provide
 assistance to any competitor of Gaussian, Inc.  The licensee
 of this program is prohibited from giving any competitor of
 Gaussian, Inc. access to this program.  By using this program,
 the user acknowledges that Gaussian, Inc. is engaged in the
 business of creating and licensing software in the field of
 computational chemistry and represents and warrants to the
 licensee that it is not a competitor of Gaussian, Inc. and that
 it will not use this program in any manner prohibited above.
 ---------------------------------------------------------------
  

 Cite this work as:
 Gaussian 16, Revision B.01,
 M. J. Frisch, G. W. Trucks, H. B. Schlegel, G. E. Scuseria, 
 M. A. Robb, J. R. Cheeseman, G. Scalmani, V. Barone, 
 G. A. Petersson, H. Nakatsuji, X. Li, M. Caricato, A. V. Marenich, 
 J. Bloino, B. G. Janesko, R. Gomperts, B. Mennucci, H. P. Hratchian, 
 J. V. Ortiz, A. F. Izmaylov, J. L. Sonnenberg, D. Williams-Young, 
 F. Ding, F. Lipparini, F. Egidi, J. Goings, B. Peng, A. Petrone, 
 T. Henderson, D. Ranasinghe, V. G. Zakrzewski, J. Gao, N. Rega, 
 G. Zheng, W. Liang, M. Hada, M. Ehara, K. Toyota, R. Fukuda, 
 J. Hasegawa, M. Ishida, T. Nakajima, Y. Honda, O. Kitao, H. Nakai, 
 T. Vreven, K. Throssell, J. A. Montgomery, Jr., J. E. Peralta, 
 F. Ogliaro, M. J. Bearpark, J. J. Heyd, E. N. Brothers, K. N. Kudin, 
 V. N. Staroverov, T. A. Keith, R. Kobayashi, J. Normand, 
 K. Raghavachari, A. P. Rendell, J. C. Burant, S. S. Iyengar, 
 J. Tomasi, M. Cossi, J. M. Millam, M. Klene, C. Adamo, R. Cammi, 
 J. W. Ochterski, R. L. Martin, K. Morokuma, O. Farkas, 
 J. B. Foresman, and D. J. Fox, Gaussian, Inc., Wallingford CT, 2016.
 
 ******************************************
 Gaussian 16:  ES64L-G16RevB.01 20-Dec-2017
                14-Feb-2022 
 ******************************************
 %nproc=28
 Will use up to   28 processors via shared memory.
 %mem=120GB
 %chk=hoono_r3_1p425790.chk
 -------------------------------------
 #p SP mp2/aug-cc-pvtz density=current
 -------------------------------------
 1/30=1,38=1,172=1/1;
 2/12=2,17=6,18=5,40=1/2;
 3/5=16,6=1,7=10,11=9,25=1,30=1,71=1/1,2,3;
 4//1;
 5/5=2,38=5/2;
 8/6=4,10=1/1;
 9/15=1,16=-3/6;
 10/5=1,13=10/2;
 6/7=2,8=2,9=2,10=2,22=-1/1;
 99/5=1,9=1/99;
 Leave Link    1 at Mon Feb 14 22:11:23 2022, MaxMem= 16106127360 cpu:               3.6 elap:               0.1
 (Enter /sw/contrib/gaussian/g16/B01/g16/l101.exe)
 -----
 title
 -----
 Symbolic Z-matrix:
 Charge =  0 Multiplicity = 1
 H
 O                    1    r1
 O                    2    r2       1    a1
 N                    3    r3       2    a2       1    d1       0
 O                    4    r4       3    a3       2    d2       0
       Variables:
  r1                    0.96898                  
  r2                    1.45492                  
  r3                    1.42579                  
  r4                    1.17073                  
  a1                   97.59495                  
  a2                  102.29752                  
  a3                  109.06955                  
  d1                  180.                       
  d2                  180.                       
 
 ITRead=  0  0  0  0  0
 MicOpt= -1 -1 -1 -1 -1
 NAtoms=      5 NQM=        5 NQMF=       0 NMMI=      0 NMMIF=      0
                NMic=       0 NMicF=      0.
                    Isotopes and Nuclear Properties:
 (Nuclear quadrupole moments (NQMom) in fm**2, nuclear magnetic moments (NMagM)
  in nuclear magnetons)

  Atom         1           2           3           4           5
 IAtWgt=           1          16          16          14          16
 AtmWgt=   1.0078250  15.9949146  15.9949146  14.0030740  15.9949146
 NucSpn=           1           0           0           2           0
 AtZEff=  -0.0000000  -0.0000000  -0.0000000  -0.0000000  -0.0000000
 NQMom=    0.0000000   0.0000000   0.0000000   2.0440000   0.0000000
 NMagM=    2.7928460   0.0000000   0.0000000   0.4037610   0.0000000
 AtZNuc=   1.0000000   8.0000000   8.0000000   7.0000000   8.0000000
 Leave Link  101 at Mon Feb 14 22:11:23 2022, MaxMem= 16106127360 cpu:               3.1 elap:               0.1
 (Enter /sw/contrib/gaussian/g16/B01/g16/l202.exe)
                          Input orientation:                          
 ---------------------------------------------------------------------
 Center     Atomic      Atomic             Coordinates (Angstroms)
 Number     Number       Type             X           Y           Z
 ---------------------------------------------------------------------
      1          1           0        0.000000    0.000000    0.000000
      2          8           0        0.000000    0.000000    0.968976
      3          8           0        1.442156    0.000000    1.161271
      4          7           0        1.559047    0.000000    2.582262
      5          8           0        2.693162    0.000000    2.872757
 ---------------------------------------------------------------------
                    Distance matrix (angstroms):
                    1          2          3          4          5
     1  H    0.000000
     2  O    0.968976   0.000000
     3  O    1.851584   1.454919   0.000000
     4  N    3.016405   2.243506   1.425791   0.000000
     5  O    3.937747   3.298106   2.119953   1.170729   0.000000
 Stoichiometry    HNO3
 Framework group  CS[SG(HNO3)]
 Deg. of freedom     7
 Full point group                 CS      NOp   2
 Largest Abelian subgroup         CS      NOp   2
 Largest concise Abelian subgroup C1      NOp   1
                         Standard orientation:                         
 ---------------------------------------------------------------------
 Center     Atomic      Atomic             Coordinates (Angstroms)
 Number     Number       Type             X           Y           Z
 ---------------------------------------------------------------------
      1          1           0        1.553375    1.665465    0.000000
      2          8           0        1.454261    0.701572    0.000000
      3          8           0        0.000000    0.657800    0.000000
      4          7           0       -0.261627   -0.743781   -0.000000
      5          8           0       -1.419509   -0.916747   -0.000000
 ---------------------------------------------------------------------
 Rotational constants (GHZ):          56.4067608           5.0953202           4.6731835
 Leave Link  202 at Mon Feb 14 22:11:23 2022, MaxMem= 16106127360 cpu:               0.3 elap:               0.0
 (Enter /sw/contrib/gaussian/g16/B01/g16/l301.exe)
 Standard basis: Aug-CC-pVTZ (5D, 7F)
 Ernie: Thresh=  0.10000D-02 Tol=  0.10000D-05 Strict=F.
 Ernie:  12 primitive shells out of 131 were deleted.
 There are   166 symmetry adapted cartesian basis functions of A'  symmetry.
 There are    79 symmetry adapted cartesian basis functions of A"  symmetry.
 There are   136 symmetry adapted basis functions of A'  symmetry.
 There are    71 symmetry adapted basis functions of A"  symmetry.
   207 basis functions,   315 primitive gaussians,   245 cartesian basis functions
    16 alpha electrons       16 beta electrons
       nuclear repulsion energy       117.7858414868 Hartrees.
 IExCor=    0 DFT=F Ex=HF Corr=None ExCW=0 ScaHFX=  1.000000
 ScaDFX=  1.000000  1.000000  1.000000  1.000000 ScalE2=  1.000000  1.000000
 IRadAn=      5 IRanWt=     -1 IRanGd=            0 ICorTp=0 IEmpDi=  4
 NAtoms=    5 NActive=    5 NUniq=    5 SFac= 1.00D+00 NAtFMM=   60 NAOKFM=F Big=F
 Integral buffers will be    131072 words long.
 Raffenetti 1 integral format.
 Two-electron integral symmetry is turned on.
 Leave Link  301 at Mon Feb 14 22:11:23 2022, MaxMem= 16106127360 cpu:               1.9 elap:               0.1
 (Enter /sw/contrib/gaussian/g16/B01/g16/l302.exe)
 NPDir=0 NMtPBC=     1 NCelOv=     1 NCel=       1 NClECP=     1 NCelD=      1
         NCelK=      1 NCelE2=     1 NClLst=     1 CellRange=     0.0.
 One-electron integrals computed using PRISM.
 One-electron integral symmetry used in STVInt
 NBasis=   207 RedAO= T EigKep=  1.78D-04  NBF=   136    71
 NBsUse=   207 1.00D-06 EigRej= -1.00D+00 NBFU=   136    71
 Leave Link  302 at Mon Feb 14 22:11:23 2022, MaxMem= 16106127360 cpu:               4.5 elap:               0.2
 (Enter /sw/contrib/gaussian/g16/B01/g16/l303.exe)
 DipDrv:  MaxL=1.
 Leave Link  303 at Mon Feb 14 22:11:24 2022, MaxMem= 16106127360 cpu:               1.2 elap:               0.1
 (Enter /sw/contrib/gaussian/g16/B01/g16/l401.exe)
 ExpMin= 2.53D-02 ExpMax= 1.53D+04 ExpMxC= 5.22D+02 IAcc=3 IRadAn=         5 AccDes= 0.00D+00
 Harris functional with IExCor=  205 and IRadAn=       5 diagonalized for initial guess.
 HarFok:  IExCor=  205 AccDes= 0.00D+00 IRadAn=         5 IDoV= 1 UseB2=F ITyADJ=14
 ICtDFT=  3500011 ScaDFX=  1.000000  1.000000  1.000000  1.000000
 FoFCou: FMM=F IPFlag=           0 FMFlag=      100000 FMFlg1=           0
         NFxFlg=           0 DoJE=T BraDBF=F KetDBF=T FulRan=T
         wScrn=  0.000000 ICntrl=       500 IOpCl=  0 I1Cent=   200000004 NGrid=           0
         NMat0=    1 NMatS0=      1 NMatT0=    0 NMatD0=    1 NMtDS0=    0 NMtDT0=    0
 Petite list used in FoFCou.
 Harris En= -279.629864299428    
 JPrj=0 DoOrth=F DoCkMO=F.
 Initial guess orbital symmetries:
       Occupied  (A') (A') (A') (A') (A') (A') (A') (A') (A') (A')
                 (A") (A') (A') (A") (A") (A')
       Virtual   (A") (A') (A') (A') (A') (A") (A') (A') (A') (A')
                 (A") (A') (A") (A') (A') (A") (A') (A") (A') (A')
                 (A') (A') (A') (A') (A') (A") (A') (A") (A') (A')
                 (A") (A') (A") (A') (A') (A") (A') (A") (A') (A')
                 (A") (A') (A") (A') (A") (A') (A') (A') (A") (A")
                 (A') (A') (A') (A') (A") (A') (A") (A') (A") (A')
                 (A') (A') (A") (A') (A') (A") (A') (A") (A') (A')
                 (A") (A') (A') (A") (A") (A') (A') (A") (A') (A')
                 (A') (A") (A') (A") (A') (A") (A') (A") (A') (A')
                 (A') (A") (A') (A") (A') (A") (A") (A') (A") (A')
                 (A') (A') (A") (A') (A') (A') (A") (A') (A") (A')
                 (A") (A') (A') (A') (A") (A') (A') (A') (A") (A')
                 (A") (A') (A') (A") (A") (A') (A') (A") (A") (A')
                 (A') (A') (A') (A") (A") (A') (A") (A') (A') (A')
                 (A') (A") (A") (A') (A') (A") (A') (A') (A') (A')
                 (A") (A') (A') (A") (A') (A") (A') (A") (A') (A")
                 (A') (A") (A') (A") (A') (A") (A") (A") (A') (A')
                 (A") (A') (A") (A') (A") (A') (A") (A") (A') (A')
                 (A') (A') (A') (A') (A') (A') (A') (A') (A') (A')
                 (A')
 The electronic state of the initial guess is 1-A'.
 Leave Link  401 at Mon Feb 14 22:11:24 2022, MaxMem= 16106127360 cpu:               7.0 elap:               0.3
 (Enter /sw/contrib/gaussian/g16/B01/g16/l502.exe)
 Keep R1 ints in memory in symmetry-blocked form, NReq=348887737.
 FoFCou: FMM=F IPFlag=           0 FMFlag=           0 FMFlg1=           0
         NFxFlg=           0 DoJE=F BraDBF=F KetDBF=F FulRan=T
         wScrn=  0.000000 ICntrl=       600 IOpCl=  0 I1Cent=           0 NGrid=           0
         NMat0=    1 NMatS0=  21528 NMatT0=    0 NMatD0=    1 NMtDS0=    0 NMtDT0=    0
 Petite list used in FoFCou.
 Closed shell SCF:
 Using DIIS extrapolation, IDIIS=  1040.
 NGot= 16106127360 LenX= 15988850015 LenY= 15988789549
 Requested convergence on RMS density matrix=1.00D-08 within 128 cycles.
 Requested convergence on MAX density matrix=1.00D-06.
 Requested convergence on             energy=1.00D-06.
 No special actions if energy rises.

 Cycle   1  Pass 1  IDiag  1:
 E= -279.369578886008    
 DIIS: error= 2.53D-02 at cycle   1 NSaved=   1.
 NSaved= 1 IEnMin= 1 EnMin= -279.369578886008     IErMin= 1 ErrMin= 2.53D-02
 ErrMax= 2.53D-02  0.00D+00 EMaxC= 1.00D-01 BMatC= 4.44D-01 BMatP= 4.44D-01
 IDIUse=3 WtCom= 7.47D-01 WtEn= 2.53D-01
 Coeff-Com:  0.100D+01
 Coeff-En:   0.100D+01
 Coeff:      0.100D+01
 Gap=     0.522 Goal=   None    Shift=    0.000
 GapD=    0.522 DampG=2.000 DampE=0.500 DampFc=1.0000 IDamp=-1.
 RMSDP=1.65D-03 MaxDP=9.68D-02              OVMax= 1.18D-01

 Cycle   2  Pass 1  IDiag  1:
 E= -279.451156810174     Delta-E=       -0.081577924166 Rises=F Damp=F
 DIIS: error= 1.78D-02 at cycle   2 NSaved=   2.
 NSaved= 2 IEnMin= 2 EnMin= -279.451156810174     IErMin= 2 ErrMin= 1.78D-02
 ErrMax= 1.78D-02  0.00D+00 EMaxC= 1.00D-01 BMatC= 7.87D-02 BMatP= 4.44D-01
 IDIUse=3 WtCom= 8.22D-01 WtEn= 1.78D-01
 Coeff-Com:  0.207D+00 0.793D+00
 Coeff-En:   0.379D-01 0.962D+00
 Coeff:      0.177D+00 0.823D+00
 Gap=     0.535 Goal=   None    Shift=    0.000
 RMSDP=9.24D-04 MaxDP=3.81D-02 DE=-8.16D-02 OVMax= 6.59D-02

 Cycle   3  Pass 1  IDiag  1:
 E= -279.484399063933     Delta-E=       -0.033242253759 Rises=F Damp=F
 DIIS: error= 9.50D-03 at cycle   3 NSaved=   3.
 NSaved= 3 IEnMin= 3 EnMin= -279.484399063933     IErMin= 3 ErrMin= 9.50D-03
 ErrMax= 9.50D-03  0.00D+00 EMaxC= 1.00D-01 BMatC= 2.87D-02 BMatP= 7.87D-02
 IDIUse=3 WtCom= 9.05D-01 WtEn= 9.50D-02
 Coeff-Com: -0.339D-01 0.366D+00 0.667D+00
 Coeff-En:   0.000D+00 0.222D+00 0.778D+00
 Coeff:     -0.307D-01 0.353D+00 0.678D+00
 Gap=     0.510 Goal=   None    Shift=    0.000
 RMSDP=3.78D-04 MaxDP=1.48D-02 DE=-3.32D-02 OVMax= 4.08D-02

 Cycle   4  Pass 1  IDiag  1:
 E= -279.503566648607     Delta-E=       -0.019167584674 Rises=F Damp=F
 DIIS: error= 1.25D-03 at cycle   4 NSaved=   4.
 NSaved= 4 IEnMin= 4 EnMin= -279.503566648607     IErMin= 4 ErrMin= 1.25D-03
 ErrMax= 1.25D-03  0.00D+00 EMaxC= 1.00D-01 BMatC= 4.59D-04 BMatP= 2.87D-02
 IDIUse=3 WtCom= 9.88D-01 WtEn= 1.25D-02
 Coeff-Com: -0.109D-01 0.455D-01 0.144D+00 0.822D+00
 Coeff-En:   0.000D+00 0.000D+00 0.000D+00 0.100D+01
 Coeff:     -0.107D-01 0.449D-01 0.142D+00 0.824D+00
 Gap=     0.502 Goal=   None    Shift=    0.000
 RMSDP=8.98D-05 MaxDP=2.66D-03 DE=-1.92D-02 OVMax= 1.05D-02

 Cycle   5  Pass 1  IDiag  1:
 E= -279.504208632608     Delta-E=       -0.000641984001 Rises=F Damp=F
 DIIS: error= 6.76D-04 at cycle   5 NSaved=   5.
 NSaved= 5 IEnMin= 5 EnMin= -279.504208632608     IErMin= 5 ErrMin= 6.76D-04
 ErrMax= 6.76D-04  0.00D+00 EMaxC= 1.00D-01 BMatC= 8.12D-05 BMatP= 4.59D-04
 IDIUse=3 WtCom= 9.93D-01 WtEn= 6.76D-03
 Coeff-Com:  0.591D-02-0.676D-01-0.112D+00 0.315D-01 0.114D+01
 Coeff-En:   0.000D+00 0.000D+00 0.000D+00 0.000D+00 0.100D+01
 Coeff:      0.587D-02-0.671D-01-0.112D+00 0.313D-01 0.114D+01
 Gap=     0.502 Goal=   None    Shift=    0.000
 RMSDP=7.21D-05 MaxDP=2.03D-03 DE=-6.42D-04 OVMax= 1.06D-02

 Cycle   6  Pass 1  IDiag  1:
 E= -279.504491885996     Delta-E=       -0.000283253388 Rises=F Damp=F
 DIIS: error= 2.84D-04 at cycle   6 NSaved=   6.
 NSaved= 6 IEnMin= 6 EnMin= -279.504491885996     IErMin= 6 ErrMin= 2.84D-04
 ErrMax= 2.84D-04  0.00D+00 EMaxC= 1.00D-01 BMatC= 1.57D-05 BMatP= 8.12D-05
 IDIUse=3 WtCom= 9.97D-01 WtEn= 2.84D-03
 Coeff-Com:  0.499D-03 0.247D-02 0.554D-02-0.138D+00-0.213D+00 0.134D+01
 Coeff-En:   0.000D+00 0.000D+00 0.000D+00 0.000D+00 0.000D+00 0.100D+01
 Coeff:      0.498D-03 0.246D-02 0.552D-02-0.138D+00-0.213D+00 0.134D+01
 Gap=     0.502 Goal=   None    Shift=    0.000
 RMSDP=4.24D-05 MaxDP=1.15D-03 DE=-2.83D-04 OVMax= 5.31D-03

 Cycle   7  Pass 1  IDiag  1:
 E= -279.504556381174     Delta-E=       -0.000064495178 Rises=F Damp=F
 DIIS: error= 9.81D-05 at cycle   7 NSaved=   7.
 NSaved= 7 IEnMin= 7 EnMin= -279.504556381174     IErMin= 7 ErrMin= 9.81D-05
 ErrMax= 9.81D-05  0.00D+00 EMaxC= 1.00D-01 BMatC= 3.73D-06 BMatP= 1.57D-05
 IDIUse=1 WtCom= 1.00D+00 WtEn= 0.00D+00
 Coeff-Com: -0.899D-03 0.122D-01 0.244D-01-0.221D-01-0.260D+00 0.323D+00
 Coeff-Com:  0.923D+00
 Coeff:     -0.899D-03 0.122D-01 0.244D-01-0.221D-01-0.260D+00 0.323D+00
 Coeff:      0.923D+00
 Gap=     0.502 Goal=   None    Shift=    0.000
 RMSDP=1.24D-05 MaxDP=3.49D-04 DE=-6.45D-05 OVMax= 1.48D-03

 Cycle   8  Pass 1  IDiag  1:
 E= -279.504563994503     Delta-E=       -0.000007613329 Rises=F Damp=F
 DIIS: error= 5.59D-05 at cycle   8 NSaved=   8.
 NSaved= 8 IEnMin= 8 EnMin= -279.504563994503     IErMin= 8 ErrMin= 5.59D-05
 ErrMax= 5.59D-05  0.00D+00 EMaxC= 1.00D-01 BMatC= 5.38D-07 BMatP= 3.73D-06
 IDIUse=1 WtCom= 1.00D+00 WtEn= 0.00D+00
 Coeff-Com: -0.406D-03 0.299D-02 0.683D-02 0.265D-01-0.419D-01-0.189D+00
 Coeff-Com:  0.210D+00 0.985D+00
 Coeff:     -0.406D-03 0.299D-02 0.683D-02 0.265D-01-0.419D-01-0.189D+00
 Coeff:      0.210D+00 0.985D+00
 Gap=     0.502 Goal=   None    Shift=    0.000
 RMSDP=5.98D-06 MaxDP=1.85D-04 DE=-7.61D-06 OVMax= 6.50D-04

 Cycle   9  Pass 1  IDiag  1:
 E= -279.504565450286     Delta-E=       -0.000001455783 Rises=F Damp=F
 DIIS: error= 1.60D-05 at cycle   9 NSaved=   9.
 NSaved= 9 IEnMin= 9 EnMin= -279.504565450286     IErMin= 9 ErrMin= 1.60D-05
 ErrMax= 1.60D-05  0.00D+00 EMaxC= 1.00D-01 BMatC= 6.85D-08 BMatP= 5.38D-07
 IDIUse=1 WtCom= 1.00D+00 WtEn= 0.00D+00
 Coeff-Com:  0.107D-03-0.153D-02-0.275D-02-0.645D-03 0.327D-01-0.697D-02
 Coeff-Com: -0.177D+00-0.474D-01 0.120D+01
 Coeff:      0.107D-03-0.153D-02-0.275D-02-0.645D-03 0.327D-01-0.697D-02
 Coeff:     -0.177D+00-0.474D-01 0.120D+01
 Gap=     0.502 Goal=   None    Shift=    0.000
 RMSDP=1.84D-06 MaxDP=6.32D-05 DE=-1.46D-06 OVMax= 1.73D-04

 Cycle  10  Pass 1  IDiag  1:
 E= -279.504565602538     Delta-E=       -0.000000152253 Rises=F Damp=F
 DIIS: error= 4.29D-06 at cycle  10 NSaved=  10.
 NSaved=10 IEnMin=10 EnMin= -279.504565602538     IErMin=10 ErrMin= 4.29D-06
 ErrMax= 4.29D-06  0.00D+00 EMaxC= 1.00D-01 BMatC= 5.73D-09 BMatP= 6.85D-08
 IDIUse=1 WtCom= 1.00D+00 WtEn= 0.00D+00
 Coeff-Com:  0.342D-04-0.271D-03-0.399D-03-0.294D-02 0.266D-02 0.213D-01
 Coeff-Com: -0.216D-01-0.795D-01-0.665D-01 0.115D+01
 Coeff:      0.342D-04-0.271D-03-0.399D-03-0.294D-02 0.266D-02 0.213D-01
 Coeff:     -0.216D-01-0.795D-01-0.665D-01 0.115D+01
 Gap=     0.502 Goal=   None    Shift=    0.000
 RMSDP=5.21D-07 MaxDP=2.17D-05 DE=-1.52D-07 OVMax= 4.57D-05

 Cycle  11  Pass 1  IDiag  1:
 E= -279.504565615931     Delta-E=       -0.000000013393 Rises=F Damp=F
 DIIS: error= 2.01D-06 at cycle  11 NSaved=  11.
 NSaved=11 IEnMin=11 EnMin= -279.504565615931     IErMin=11 ErrMin= 2.01D-06
 ErrMax= 2.01D-06  0.00D+00 EMaxC= 1.00D-01 BMatC= 6.84D-10 BMatP= 5.73D-09
 IDIUse=1 WtCom= 1.00D+00 WtEn= 0.00D+00
 Coeff-Com: -0.212D-04 0.237D-03 0.481D-03 0.523D-03-0.453D-02-0.351D-02
 Coeff-Com:  0.245D-01 0.291D-01-0.140D+00-0.211D+00 0.130D+01
 Coeff:     -0.212D-04 0.237D-03 0.481D-03 0.523D-03-0.453D-02-0.351D-02
 Coeff:      0.245D-01 0.291D-01-0.140D+00-0.211D+00 0.130D+01
 Gap=     0.502 Goal=   None    Shift=    0.000
 RMSDP=1.88D-07 MaxDP=7.16D-06 DE=-1.34D-08 OVMax= 1.76D-05

 Cycle  12  Pass 1  IDiag  1:
 E= -279.504565617843     Delta-E=       -0.000000001912 Rises=F Damp=F
 DIIS: error= 5.41D-07 at cycle  12 NSaved=  12.
 NSaved=12 IEnMin=12 EnMin= -279.504565617843     IErMin=12 ErrMin= 5.41D-07
 ErrMax= 5.41D-07  0.00D+00 EMaxC= 1.00D-01 BMatC= 6.43D-11 BMatP= 6.84D-10
 IDIUse=1 WtCom= 1.00D+00 WtEn= 0.00D+00
 Coeff-Com:  0.919D-06-0.245D-04-0.540D-04 0.219D-03 0.974D-03-0.236D-02
 Coeff-Com: -0.393D-02 0.638D-02 0.399D-01-0.100D+00-0.285D+00 0.134D+01
 Coeff:      0.919D-06-0.245D-04-0.540D-04 0.219D-03 0.974D-03-0.236D-02
 Coeff:     -0.393D-02 0.638D-02 0.399D-01-0.100D+00-0.285D+00 0.134D+01
 Gap=     0.502 Goal=   None    Shift=    0.000
 RMSDP=6.99D-08 MaxDP=2.77D-06 DE=-1.91D-09 OVMax= 6.11D-06

 Cycle  13  Pass 1  IDiag  1:
 E= -279.504565618049     Delta-E=       -0.000000000206 Rises=F Damp=F
 DIIS: error= 1.53D-07 at cycle  13 NSaved=  13.
 NSaved=13 IEnMin=13 EnMin= -279.504565618049     IErMin=13 ErrMin= 1.53D-07
 ErrMax= 1.53D-07  0.00D+00 EMaxC= 1.00D-01 BMatC= 3.16D-12 BMatP= 6.43D-11
 IDIUse=1 WtCom= 1.00D+00 WtEn= 0.00D+00
 Coeff-Com:  0.120D-05-0.129D-04-0.216D-04-0.840D-04 0.144D-03 0.684D-03
 Coeff-Com: -0.103D-02-0.291D-02 0.754D-03 0.361D-01-0.314D-01-0.293D+00
 Coeff-Com:  0.129D+01
 Coeff:      0.120D-05-0.129D-04-0.216D-04-0.840D-04 0.144D-03 0.684D-03
 Coeff:     -0.103D-02-0.291D-02 0.754D-03 0.361D-01-0.314D-01-0.293D+00
 Coeff:      0.129D+01
 Gap=     0.502 Goal=   None    Shift=    0.000
 RMSDP=1.71D-08 MaxDP=4.56D-07 DE=-2.06D-10 OVMax= 1.39D-06

 Cycle  14  Pass 1  IDiag  1:
 E= -279.504565618058     Delta-E=       -0.000000000009 Rises=F Damp=F
 DIIS: error= 2.02D-08 at cycle  14 NSaved=  14.
 NSaved=14 IEnMin=14 EnMin= -279.504565618058     IErMin=14 ErrMin= 2.02D-08
 ErrMax= 2.02D-08  0.00D+00 EMaxC= 1.00D-01 BMatC= 1.50D-13 BMatP= 3.16D-12
 IDIUse=1 WtCom= 1.00D+00 WtEn= 0.00D+00
 Coeff-Com: -0.156D-06 0.256D-05 0.463D-05 0.248D-05-0.735D-04 0.467D-04
 Coeff-Com:  0.289D-03 0.140D-03-0.220D-02 0.992D-03 0.157D-01-0.261D-01
 Coeff-Com: -0.187D+00 0.120D+01
 Coeff:     -0.156D-06 0.256D-05 0.463D-05 0.248D-05-0.735D-04 0.467D-04
 Coeff:      0.289D-03 0.140D-03-0.220D-02 0.992D-03 0.157D-01-0.261D-01
 Coeff:     -0.187D+00 0.120D+01
 Gap=     0.502 Goal=   None    Shift=    0.000
 RMSDP=3.39D-09 MaxDP=8.58D-08 DE=-8.98D-12 OVMax= 3.06D-07

 SCF Done:  E(RHF) =  -279.504565618     A.U. after   14 cycles
            NFock= 14  Conv=0.34D-08     -V/T= 2.0022
 KE= 2.789020325670D+02 PE=-8.969077483853D+02 EE= 2.207153087134D+02
 Leave Link  502 at Mon Feb 14 22:11:28 2022, MaxMem= 16106127360 cpu:              55.2 elap:               3.6
 (Enter /sw/contrib/gaussian/g16/B01/g16/l801.exe)
 ExpMin= 2.53D-02 ExpMax= 1.53D+04 ExpMxC= 5.22D+02 IAcc=3 IRadAn=         5 AccDes= 0.00D+00
 HarFok:  IExCor=  205 AccDes= 0.00D+00 IRadAn=         5 IDoV=-2 UseB2=F ITyADJ=14
 ICtDFT= 12500011 ScaDFX=  1.000000  1.000000  1.000000  1.000000
 Largest valence mixing into a core orbital is  2.07D-04
 Largest core mixing into a valence orbital is  3.52D-05
 Range of M.O.s used for correlation:     5   207
 NBasis=   207 NAE=    16 NBE=    16 NFC=     4 NFV=     0
 NROrb=    203 NOA=    12 NOB=    12 NVA=   191 NVB=   191

 **** Warning!!: The largest alpha MO coefficient is  0.17991276D+02

 Leave Link  801 at Mon Feb 14 22:11:28 2022, MaxMem= 16106127360 cpu:               2.4 elap:               0.1
 (Enter /sw/contrib/gaussian/g16/B01/g16/l906.exe)
 Frozen-core derivative calculation, NFC=   4 NFV=   0.
 FulOut=F Deriv=T AODrv=F NAtomX=     5
   MMem=          76  MDisk=          12 MDiskD=          12
  W3Min=      811440 MinDsk=     1524655 NBas6D=         245
 NBas2D=       30762    NTT=       30135    LW2=     3500000
    MDV= 16105579773 MDiskM=      328644 NBas2p=       30466
 Fully in-core method, ICMem=   960157634.
 IMap=   1   2   3   4   5   6   7   8   9  10  11  12  13  14  15  16
 JobTyp=1 Pass  1 fully in-core, NPsUse= 28.
 Compute canonical integrals.
 FoFCou: FMM=F IPFlag=           0 FMFlag=           0 FMFlg1=           0
         NFxFlg=           0 DoJE=F BraDBF=F KetDBF=F FulRan=T
         wScrn=  0.000000 ICntrl=       600 IOpCl=  1 I1Cent=           0 NGrid=           0
         NMat0=    1 NMatS0=  30762 NMatT0=    0 NMatD0=    1 NMtDS0=    0 NMtDT0=    0
 Symmetry not used in FoFCou.
 Spin components of T(2) and E(2):
     alpha-alpha T2 =       0.3363559955D-01 E2=     -0.1220430474D+00
     alpha-beta  T2 =       0.1845804590D+00 E2=     -0.6978400384D+00
     beta-beta   T2 =       0.3363559955D-01 E2=     -0.1220430474D+00
 The integrals were generated   1 times.
 ANorm=    0.1118861769D+01
 E2 =    -0.9419261331D+00 EUMP2 =    -0.28044649175118D+03
 Leave Link  906 at Mon Feb 14 22:11:36 2022, MaxMem= 16106127360 cpu:             243.1 elap:               8.7
 (Enter /sw/contrib/gaussian/g16/B01/g16/l1002.exe)
 Minotr:  Closed shell wavefunction.
          Computing MP2/KS-MP2 derivatives.
          Using Z-Vector for PSCF gradient.
          Skipping F1 and S1 gradient terms here.
          Frozen-core window.
          Direct CPHF calculation.
          Differentiating once with respect to electric field.
                with respect to dipole field.
          Electric field/nuclear overlap derivatives assumed to be zero.
          Using symmetry in CPHF.
          Requested convergence is 1.0D-10 RMS, and 1.0D-09 maximum.
          NewPWx=F KeepS1=T KeepF1=T KeepIn=T MapXYZ=F SortEE=F KeepMc=T.
 Keep R1 ints in memory in symmetry-blocked form, NReq=348888868.
 FoFCou: FMM=F IPFlag=           0 FMFlag=           0 FMFlg1=           0
         NFxFlg=           0 DoJE=F BraDBF=F KetDBF=F FulRan=T
         wScrn=  0.000000 ICntrl=       600 IOpCl=  0 I1Cent=           0 NGrid=           0
         NMat0=    1 NMatS0=  21528 NMatT0=    0 NMatD0=    1 NMtDS0=    0 NMtDT0=    0
 Petite list used in FoFCou.
          MDV=   16106127360 using IRadAn=       5.
          Solving linear equations separately, MaxMat=       0.
          There are     1 degrees of freedom in the 1st order CPHF.  IDoFFX=0 NUNeed=     1.
 LinEq1:  Iter=  0 NonCon=     1 RMS=5.83D-03 Max=1.33D-01 NDo=     1
 AX will form     1 AO Fock derivatives at one time.
 LinEq1:  Iter=  1 NonCon=     1 RMS=1.81D-03 Max=3.55D-02 NDo=     1
 LinEq1:  Iter=  2 NonCon=     1 RMS=8.21D-04 Max=1.20D-02 NDo=     1
 LinEq1:  Iter=  3 NonCon=     1 RMS=3.63D-04 Max=7.76D-03 NDo=     1
 LinEq1:  Iter=  4 NonCon=     1 RMS=1.12D-04 Max=1.41D-03 NDo=     1
 LinEq1:  Iter=  5 NonCon=     1 RMS=4.33D-05 Max=6.90D-04 NDo=     1
 LinEq1:  Iter=  6 NonCon=     1 RMS=1.95D-05 Max=2.18D-04 NDo=     1
 LinEq1:  Iter=  7 NonCon=     1 RMS=7.64D-06 Max=1.37D-04 NDo=     1
 LinEq1:  Iter=  8 NonCon=     1 RMS=3.27D-06 Max=2.92D-05 NDo=     1
 LinEq1:  Iter=  9 NonCon=     1 RMS=8.81D-07 Max=1.10D-05 NDo=     1
 LinEq1:  Iter= 10 NonCon=     1 RMS=1.67D-07 Max=1.74D-06 NDo=     1
 LinEq1:  Iter= 11 NonCon=     1 RMS=3.03D-08 Max=3.01D-07 NDo=     1
 LinEq1:  Iter= 12 NonCon=     1 RMS=7.28D-09 Max=1.08D-07 NDo=     1
 LinEq1:  Iter= 13 NonCon=     1 RMS=1.34D-09 Max=2.13D-08 NDo=     1
 LinEq1:  Iter= 14 NonCon=     1 RMS=2.38D-10 Max=2.98D-09 NDo=     1
 LinEq1:  Iter= 15 NonCon=     0 RMS=4.33D-11 Max=4.31D-10 NDo=     1
 Linear equations converged to 1.000D-10 1.000D-09 after    15 iterations.
 End of Minotr F.D. properties file   721 does not exist.
 End of Minotr F.D. properties file   722 does not exist.
 End of Minotr F.D. properties file   788 does not exist.
 Leave Link 1002 at Mon Feb 14 22:11:40 2022, MaxMem= 16106127360 cpu:              52.9 elap:               3.9
 (Enter /sw/contrib/gaussian/g16/B01/g16/l601.exe)
 Copying SCF densities to generalized density rwf, IOpCl= 0 IROHF=0.

 **********************************************************************

            Population analysis using the MP2 Density.

 **********************************************************************

 Orbital symmetries:
       Occupied  (A') (A') (A') (A') (A') (A') (A') (A') (A') (A')
                 (A") (A') (A") (A') (A") (A')
       Virtual   (A') (A") (A') (A') (A') (A") (A') (A') (A") (A')
                 (A") (A') (A') (A') (A") (A') (A") (A') (A') (A')
                 (A') (A') (A') (A') (A") (A') (A') (A") (A') (A')
                 (A") (A') (A") (A') (A') (A") (A') (A") (A') (A")
                 (A') (A') (A") (A') (A') (A") (A') (A') (A") (A')
                 (A") (A') (A') (A') (A") (A') (A") (A') (A") (A')
                 (A') (A') (A") (A') (A') (A") (A') (A") (A') (A')
                 (A") (A') (A') (A") (A") (A') (A') (A") (A') (A')
                 (A') (A") (A') (A") (A") (A') (A') (A") (A') (A')
                 (A") (A') (A') (A") (A') (A") (A') (A") (A') (A')
                 (A") (A') (A") (A') (A') (A') (A") (A') (A") (A')
                 (A") (A') (A') (A') (A") (A') (A') (A') (A') (A")
                 (A") (A') (A") (A') (A') (A") (A") (A') (A") (A')
                 (A') (A') (A') (A") (A") (A") (A') (A') (A') (A')
                 (A") (A') (A") (A') (A') (A") (A') (A') (A') (A')
                 (A") (A') (A') (A") (A') (A") (A') (A") (A') (A")
                 (A') (A") (A') (A") (A') (A") (A") (A') (A") (A')
                 (A") (A') (A") (A') (A") (A') (A") (A") (A') (A')
                 (A') (A') (A') (A') (A') (A') (A') (A') (A') (A')
                 (A')
 The electronic state is 1-A'.
 Alpha  occ. eigenvalues --  -20.69647 -20.67639 -20.66400 -15.80757  -1.62661
 Alpha  occ. eigenvalues --   -1.50009  -1.26442  -0.94578  -0.77553  -0.76329
 Alpha  occ. eigenvalues --   -0.71790  -0.67767  -0.61869  -0.59108  -0.48847
 Alpha  occ. eigenvalues --   -0.47359
 Alpha virt. eigenvalues --    0.02872   0.07595   0.08651   0.10206   0.13365
 Alpha virt. eigenvalues --    0.13409   0.14342   0.15388   0.17753   0.19420
 Alpha virt. eigenvalues --    0.19999   0.21019   0.21976   0.23395   0.23781
 Alpha virt. eigenvalues --    0.26611   0.30317   0.30319   0.31544   0.34586
 Alpha virt. eigenvalues --    0.35141   0.38951   0.42074   0.43059   0.52890
 Alpha virt. eigenvalues --    0.53060   0.56224   0.58341   0.62833   0.64028
 Alpha virt. eigenvalues --    0.67532   0.68431   0.70509   0.71040   0.72377
 Alpha virt. eigenvalues --    0.72720   0.74364   0.79086   0.79370   0.81046
 Alpha virt. eigenvalues --    0.81165   0.83233   0.87065   0.90840   0.92071
 Alpha virt. eigenvalues --    0.92875   0.95348   0.98214   0.98336   1.01381
 Alpha virt. eigenvalues --    1.05359   1.05643   1.08553   1.12018   1.14469
 Alpha virt. eigenvalues --    1.19122   1.22164   1.23359   1.34264   1.35663
 Alpha virt. eigenvalues --    1.38239   1.45851   1.48797   1.50734   1.54016
 Alpha virt. eigenvalues --    1.57071   1.58627   1.61496   1.66620   1.67042
 Alpha virt. eigenvalues --    1.70634   1.79335   1.83311   1.84044   1.87761
 Alpha virt. eigenvalues --    1.91416   1.95636   1.99883   2.00829   2.08853
 Alpha virt. eigenvalues --    2.12439   2.13665   2.14538   2.23089   2.26228
 Alpha virt. eigenvalues --    2.26416   2.29571   2.31530   2.35238   2.38583
 Alpha virt. eigenvalues --    2.42913   2.43620   2.45907   2.46702   2.48192
 Alpha virt. eigenvalues --    2.50641   2.58661   2.59939   2.62733   2.62890
 Alpha virt. eigenvalues --    2.63212   2.67188   2.76310   2.83887   2.86999
 Alpha virt. eigenvalues --    2.89218   2.89640   2.95043   2.95967   3.03812
 Alpha virt. eigenvalues --    3.08047   3.13268   3.19952   3.23563   3.32259
 Alpha virt. eigenvalues --    3.35166   3.52210   3.65593   3.85359   3.85403
 Alpha virt. eigenvalues --    4.14882   4.15676   4.18948   4.27259   4.35144
 Alpha virt. eigenvalues --    4.39480   4.46164   4.52327   4.67379   4.71457
 Alpha virt. eigenvalues --    4.81121   4.82445   4.85182   4.89893   5.03421
 Alpha virt. eigenvalues --    5.08744   5.11433   5.14395   5.18814   5.25148
 Alpha virt. eigenvalues --    5.28345   5.31556   5.33380   5.36913   5.61258
 Alpha virt. eigenvalues --    5.67963   5.78816   5.82706   5.96438   6.18299
 Alpha virt. eigenvalues --    6.30930   6.35100   6.40337   6.50140   6.51256
 Alpha virt. eigenvalues --    6.61506   6.66625   6.71267   6.75492   6.76277
 Alpha virt. eigenvalues --    6.84130   6.90990   7.02257   7.05427   7.06263
 Alpha virt. eigenvalues --    7.08979   7.13466   7.15917   7.18311   7.23937
 Alpha virt. eigenvalues --    7.23955   7.30182   7.33102   7.35595   7.40928
 Alpha virt. eigenvalues --    7.44645   7.49354   7.61417   7.63220   7.65477
 Alpha virt. eigenvalues --    7.68785   7.80192   7.89725   8.13320   8.32861
 Alpha virt. eigenvalues --    8.40881   8.56069  13.49095  14.58261  15.19159
 Alpha virt. eigenvalues --   16.22037
          Condensed to atoms (all electrons):
               1          2          3          4          5
     1  H    0.588988   0.128173   0.020312   0.012646  -0.000624
     2  O    0.128173   8.322203  -0.170836  -0.096587   0.016390
     3  O    0.020312  -0.170836   8.460825  -0.139262  -0.045711
     4  N    0.012646  -0.096587  -0.139262   7.001491  -0.060073
     5  O   -0.000624   0.016390  -0.045711  -0.060073   8.297636
 Mulliken charges:
               1
     1  H    0.250505
     2  O   -0.199343
     3  O   -0.125328
     4  N    0.281785
     5  O   -0.207619
 Sum of Mulliken charges =  -0.00000
 Mulliken charges with hydrogens summed into heavy atoms:
               1
     2  O    0.051162
     3  O   -0.125328
     4  N    0.281785
     5  O   -0.207619
 Electronic spatial extent (au):  <R**2>=            249.4993
 Charge=             -0.0000 electrons
 Dipole moment (field-independent basis, Debye):
    X=              0.6595    Y=              1.5480    Z=              0.0000  Tot=              1.6826
 Quadrupole moment (field-independent basis, Debye-Ang):
   XX=            -22.5264   YY=            -18.7543   ZZ=            -21.9626
   XY=              3.1934   XZ=             -0.0000   YZ=             -0.0000
 Traceless Quadrupole moment (field-independent basis, Debye-Ang):
   XX=             -1.4453   YY=              2.3268   ZZ=             -0.8815
   XY=              3.1934   XZ=             -0.0000   YZ=             -0.0000
 Octapole moment (field-independent basis, Debye-Ang**2):
  XXX=              3.5105  YYY=             11.3480  ZZZ=             -0.0000  XYY=              7.9583
  XXY=              6.8432  XXZ=              0.0000  XZZ=             -1.5219  YZZ=             -0.7285
  YYZ=              0.0000  XYZ=              0.0000
 Hexadecapole moment (field-independent basis, Debye-Ang**3):
 XXXX=           -158.6312 YYYY=            -86.5284 ZZZZ=            -18.1449 XXXY=            -35.6106
 XXXZ=             -0.0000 YYYX=            -30.1947 YYYZ=             -0.0000 ZZZX=             -0.0000
 ZZZY=             -0.0000 XXYY=            -33.5713 XXZZ=            -30.8927 YYZZ=            -19.9779
 XXYZ=             -0.0000 YYXZ=             -0.0000 ZZXY=            -14.7022
 N-N= 1.177858414868D+02 E-N=-8.976643141432D+02  KE= 2.802410446534D+02
 Symmetry A'   KE= 2.662575516231D+02
 Symmetry A"   KE= 1.398349303037D+01
 No NMR shielding tensors so no spin-rotation constants.
 Leave Link  601 at Mon Feb 14 22:11:41 2022, MaxMem= 16106127360 cpu:               6.0 elap:               0.3
 (Enter /sw/contrib/gaussian/g16/B01/g16/l9999.exe)
 1\1\GINC-N2180\SP\RMP2-FC\Aug-CC-pVTZ\H1N1O3\CGAVINH\14-Feb-2022\0\\#p
  SP mp2/aug-cc-pvtz density=current\\title\\0,1\H\O,1,0.96897556\O,2,1
 .45491931,1,97.59494903\N,3,1.4257905524,2,102.29752444,1,180.,0\O,4,1
 .17072885,3,109.06955123,2,180.,0\\Version=ES64L-G16RevB.01\State=1-A'
 \HF=-279.5045656\MP2=-280.4464918\RMSD=3.388e-09\Dipole=-0.1958293,0.,
 -0.6323626\Quadrupole=-1.5283237,-0.6554002,2.183724,0.,2.0391541,0.\P
 G=CS [SG(H1N1O3)]\\@


 Life may have no meaning.  Or even worse, it may have a
 meaning of which I disapprove.
                                 -- Ashleigh Brilliant
 Job cpu time:       0 days  0 hours  6 minutes 22.1 seconds.
 Elapsed time:       0 days  0 hours  0 minutes 17.8 seconds.
 File lengths (MBytes):  RWF=     22 Int=      0 D2E=      0 Chk=      8 Scr=      1
 Normal termination of Gaussian 16 at Mon Feb 14 22:11:41 2022.
