title                                                                   
SP        RMP2-FC                                                     Aug-CC-pVTZ         
Number of atoms                            I                5
Info1-9                                    I   N=           9
          33          24           0           0           0         110
           1           2           1
Full Title                                 C   N=           1
title       
Route                                      C   N=           4
#p SP mp2/aug-cc-pvtz density=current           
Charge                                     I                0
Multiplicity                               I                1
Number of electrons                        I               32
Number of alpha electrons                  I               16
Number of beta electrons                   I               16
Number of basis functions                  I              207
Number of independent functions            I              207
Number of point charges in /Mol/           I                0
Number of translation vectors              I                0
Atomic numbers                             I   N=           5
           1           8           8           7           8
Nuclear charges                            R   N=           5
  1.00000000E+00  8.00000000E+00  8.00000000E+00  7.00000000E+00  8.00000000E+00
Current cartesian coordinates              R   N=          15
  2.93619246E+00  3.17398751E+00  6.43111711E-32  2.74818637E+00  1.35256631E+00
  3.23763524E-32  3.25615775E-17  1.27091657E+00 -7.10111668E-33 -5.06897839E-01
 -1.43878128E+00 -1.51908045E-32 -2.67167482E+00 -1.76129770E+00 -2.58696175E-32
Number of symbols in /Mol/                 I                0
Force Field                                I                0
Atom Types                                 C   N=           5
                                                            
Int Atom Types                             I   N=           5
           0           0           0           0           0
MM charges                                 R   N=           5
  0.00000000E+00  0.00000000E+00  0.00000000E+00  0.00000000E+00  0.00000000E+00
Integer atomic weights                     I   N=           5
           1          16          16          14          16
Real atomic weights                        R   N=           5
  1.00782504E+00  1.59949146E+01  1.59949146E+01  1.40030740E+01  1.59949146E+01
Atom fragment info                         I   N=           5
           0           0           0           0           0
Atom residue num                           I   N=           5
           0           0           0           0           0
Nuclear spins                              I   N=           5
           1           0           0           2           0
Nuclear ZEff                               R   N=           5
 -1.00000000E+00 -5.60000000E+00 -5.60000000E+00 -4.55000000E+00 -5.60000000E+00
Nuclear ZNuc                               R   N=           5
  1.00000000E+00  8.00000000E+00  8.00000000E+00  7.00000000E+00  8.00000000E+00
Nuclear QMom                               R   N=           5
  0.00000000E+00  0.00000000E+00  0.00000000E+00  2.04400000E+00  0.00000000E+00
Nuclear GFac                               R   N=           5
  2.79284600E+00  0.00000000E+00  0.00000000E+00  4.03761000E-01  0.00000000E+00
MicOpt                                     I   N=           5
          -1          -1          -1          -1          -1
Number of residues                         I                0
Number of secondary structures             I                0
SymInf integers                            I   N=          26
           1           2           1           1           1           1
           1          -1           0           0           0           0
           0           0           0           0           0           0
           0           0           0           0           0           0
           0           0
RotTr to input orientation                 R   N=          12
 -9.94715066E-01 -9.86432618E-17 -1.02673936E-01  1.02673936E-01 -7.25748216E-17
 -9.94715066E-01  9.06703961E-17 -1.00000000E+00  8.23193604E-17  2.59478908E+00
  0.00000000E+00  3.45868363E+00
Number of contracted shells                I               65
Number of primitive shells                 I              119
Pure/Cartesian d shells                    I                0
Pure/Cartesian f shells                    I                0
Highest angular momentum                   I                3
Largest degree of contraction              I                7
Shell types                                I   N=          65
           0           0           0           0           1           1
           1          -2          -2           0           0           0
           0           0           1           1           1           1
          -2          -2          -2          -3          -3           0
           0           0           0           0           1           1
           1           1          -2          -2          -2          -3
          -3           0           0           0           0           0
           1           1           1           1          -2          -2
          -2          -3          -3           0           0           0
           0           0           1           1           1           1
          -2          -2          -2          -3          -3
Number of primitives per shell             I   N=          65
           3           1           1           1           1           1
           1           1           1           7           6           1
           1           1           3           1           1           1
           1           1           1           1           1           7
           6           1           1           1           3           1
           1           1           1           1           1           1
           1           7           6           1           1           1
           3           1           1           1           1           1
           1           1           1           7           6           1
           1           1           3           1           1           1
           1           1           1           1           1
Shell to atom map                          I   N=          65
           1           1           1           1           1           1
           1           1           1           2           2           2
           2           2           2           2           2           2
           2           2           2           2           2           3
           3           3           3           3           3           3
           3           3           3           3           3           3
           3           4           4           4           4           4
           4           4           4           4           4           4
           4           4           4           5           5           5
           5           5           5           5           5           5
           5           5           5           5           5
Primitive exponents                        R   N=         119
  3.38700000E+01  5.09500000E+00  1.15900000E+00  3.25800000E-01  1.02700000E-01
  2.52600000E-02  1.40700000E+00  3.88000000E-01  1.02000000E-01  1.05700000E+00
  2.47000000E-01  1.53300000E+04  2.29900000E+03  5.22400000E+02  1.47300000E+02
  4.75500000E+01  1.67600000E+01  6.20700000E+00  5.22400000E+02  1.47300000E+02
  4.75500000E+01  1.67600000E+01  6.20700000E+00  6.88200000E-01  1.75200000E+00
  2.38400000E-01  7.37600000E-02  3.44600000E+01  7.74900000E+00  2.28000000E+00
  7.15600000E-01  2.14000000E-01  5.97400000E-02  2.31400000E+00  6.45000000E-01
  2.14000000E-01  1.42800000E+00  5.00000000E-01  1.53300000E+04  2.29900000E+03
  5.22400000E+02  1.47300000E+02  4.75500000E+01  1.67600000E+01  6.20700000E+00
  5.22400000E+02  1.47300000E+02  4.75500000E+01  1.67600000E+01  6.20700000E+00
  6.88200000E-01  1.75200000E+00  2.38400000E-01  7.37600000E-02  3.44600000E+01
  7.74900000E+00  2.28000000E+00  7.15600000E-01  2.14000000E-01  5.97400000E-02
  2.31400000E+00  6.45000000E-01  2.14000000E-01  1.42800000E+00  5.00000000E-01
  1.14200000E+04  1.71200000E+03  3.89300000E+02  1.10000000E+02  3.55700000E+01
  1.25400000E+01  4.64400000E+00  3.89300000E+02  1.10000000E+02  3.55700000E+01
  1.25400000E+01  4.64400000E+00  5.11800000E-01  1.29300000E+00  1.78700000E-01
  5.76000000E-02  2.66300000E+01  5.94800000E+00  1.74200000E+00  5.55000000E-01
  1.72500000E-01  4.91000000E-02  1.65400000E+00  4.69000000E-01  1.51000000E-01
  1.09300000E+00  3.64000000E-01  1.53300000E+04  2.29900000E+03  5.22400000E+02
  1.47300000E+02  4.75500000E+01  1.67600000E+01  6.20700000E+00  5.22400000E+02
  1.47300000E+02  4.75500000E+01  1.67600000E+01  6.20700000E+00  6.88200000E-01
  1.75200000E+00  2.38400000E-01  7.37600000E-02  3.44600000E+01  7.74900000E+00
  2.28000000E+00  7.15600000E-01  2.14000000E-01  5.97400000E-02  2.31400000E+00
  6.45000000E-01  2.14000000E-01  1.42800000E+00  5.00000000E-01
Contraction coefficients                   R   N=         119
  2.54948632E-02  1.90362766E-01  8.52162022E-01  1.00000000E+00  1.00000000E+00
  1.00000000E+00  1.00000000E+00  1.00000000E+00  1.00000000E+00  1.00000000E+00
  1.00000000E+00  5.19808943E-04  4.02025621E-03  2.07128267E-02  8.10105536E-02
  2.35962985E-01  4.42653446E-01  3.57064423E-01 -4.42115008E-05 -1.22591041E-03
 -1.05517725E-02 -6.74452633E-02 -1.71198607E-01  1.07329856E+00  1.00000000E+00
  1.00000000E+00  1.00000000E+00  4.11634896E-02  2.57762836E-01  8.02419274E-01
  1.00000000E+00  1.00000000E+00  1.00000000E+00  1.00000000E+00  1.00000000E+00
  1.00000000E+00  1.00000000E+00  1.00000000E+00  5.19808943E-04  4.02025621E-03
  2.07128267E-02  8.10105536E-02  2.35962985E-01  4.42653446E-01  3.57064423E-01
 -4.42115008E-05 -1.22591041E-03 -1.05517725E-02 -6.74452633E-02 -1.71198607E-01
  1.07329856E+00  1.00000000E+00  1.00000000E+00  1.00000000E+00  4.11634896E-02
  2.57762836E-01  8.02419274E-01  1.00000000E+00  1.00000000E+00  1.00000000E+00
  1.00000000E+00  1.00000000E+00  1.00000000E+00  1.00000000E+00  1.00000000E+00
  5.34563860E-04  4.13435660E-03  2.12335358E-02  8.25006224E-02  2.38138871E-01
  4.42551547E-01  3.53757422E-01 -4.89867350E-05 -1.19527323E-03 -1.03490714E-02
 -6.48680190E-02 -1.71552477E-01  1.07289568E+00  1.00000000E+00  1.00000000E+00
  1.00000000E+00  3.98072123E-02  2.49002660E-01  8.10479727E-01  1.00000000E+00
  1.00000000E+00  1.00000000E+00  1.00000000E+00  1.00000000E+00  1.00000000E+00
  1.00000000E+00  1.00000000E+00  5.19808943E-04  4.02025621E-03  2.07128267E-02
  8.10105536E-02  2.35962985E-01  4.42653446E-01  3.57064423E-01 -4.42115008E-05
 -1.22591041E-03 -1.05517725E-02 -6.74452633E-02 -1.71198607E-01  1.07329856E+00
  1.00000000E+00  1.00000000E+00  1.00000000E+00  4.11634896E-02  2.57762836E-01
  8.02419274E-01  1.00000000E+00  1.00000000E+00  1.00000000E+00  1.00000000E+00
  1.00000000E+00  1.00000000E+00  1.00000000E+00  1.00000000E+00
Coordinates of each shell                  R   N=         195
  2.93619246E+00  3.17398751E+00  1.80956831E-32  2.93619246E+00  3.17398751E+00
  1.80956831E-32  2.93619246E+00  3.17398751E+00  1.80956831E-32  2.93619246E+00
  3.17398751E+00  1.80956831E-32  2.93619246E+00  3.17398751E+00  1.80956831E-32
  2.93619246E+00  3.17398751E+00  1.80956831E-32  2.93619246E+00  3.17398751E+00
  1.80956831E-32  2.93619246E+00  3.17398751E+00  1.80956831E-32  2.93619246E+00
  3.17398751E+00  1.80956831E-32  2.74818637E+00  1.35256631E+00  1.69370062E-32
  2.74818637E+00  1.35256631E+00  1.69370062E-32  2.74818637E+00  1.35256631E+00
  1.69370062E-32  2.74818637E+00  1.35256631E+00  1.69370062E-32  2.74818637E+00
  1.35256631E+00  1.69370062E-32  2.74818637E+00  1.35256631E+00  1.69370062E-32
  2.74818637E+00  1.35256631E+00  1.69370062E-32  2.74818637E+00  1.35256631E+00
  1.69370062E-32  2.74818637E+00  1.35256631E+00  1.69370062E-32  2.74818637E+00
  1.35256631E+00  1.69370062E-32  2.74818637E+00  1.35256631E+00  1.69370062E-32
  2.74818637E+00  1.35256631E+00  1.69370062E-32  2.74818637E+00  1.35256631E+00
  1.69370062E-32  2.74818637E+00  1.35256631E+00  1.69370062E-32  4.29473486E-18
  1.27091657E+00  0.00000000E+00  4.29473486E-18  1.27091657E+00  0.00000000E+00
  4.29473486E-18  1.27091657E+00  0.00000000E+00  4.29473486E-18  1.27091657E+00
  0.00000000E+00  4.29473486E-18  1.27091657E+00  0.00000000E+00  4.29473486E-18
  1.27091657E+00  0.00000000E+00  4.29473486E-18  1.27091657E+00  0.00000000E+00
  4.29473486E-18  1.27091657E+00  0.00000000E+00  4.29473486E-18  1.27091657E+00
  0.00000000E+00  4.29473486E-18  1.27091657E+00  0.00000000E+00  4.29473486E-18
  1.27091657E+00  0.00000000E+00  4.29473486E-18  1.27091657E+00  0.00000000E+00
  4.29473486E-18  1.27091657E+00  0.00000000E+00  4.29473486E-18  1.27091657E+00
  0.00000000E+00 -5.06897839E-01 -1.43878128E+00 -3.12399913E-33 -5.06897839E-01
 -1.43878128E+00 -3.12399913E-33 -5.06897839E-01 -1.43878128E+00 -3.12399913E-33
 -5.06897839E-01 -1.43878128E+00 -3.12399913E-33 -5.06897839E-01 -1.43878128E+00
 -3.12399913E-33 -5.06897839E-01 -1.43878128E+00 -3.12399913E-33 -5.06897839E-01
 -1.43878128E+00 -3.12399913E-33 -5.06897839E-01 -1.43878128E+00 -3.12399913E-33
 -5.06897839E-01 -1.43878128E+00 -3.12399913E-33 -5.06897839E-01 -1.43878128E+00
 -3.12399913E-33 -5.06897839E-01 -1.43878128E+00 -3.12399913E-33 -5.06897839E-01
 -1.43878128E+00 -3.12399913E-33 -5.06897839E-01 -1.43878128E+00 -3.12399913E-33
 -5.06897839E-01 -1.43878128E+00 -3.12399913E-33 -2.67167482E+00 -1.76129770E+00
 -1.64654673E-32 -2.67167482E+00 -1.76129770E+00 -1.64654673E-32 -2.67167482E+00
 -1.76129770E+00 -1.64654673E-32 -2.67167482E+00 -1.76129770E+00 -1.64654673E-32
 -2.67167482E+00 -1.76129770E+00 -1.64654673E-32 -2.67167482E+00 -1.76129770E+00
 -1.64654673E-32 -2.67167482E+00 -1.76129770E+00 -1.64654673E-32 -2.67167482E+00
 -1.76129770E+00 -1.64654673E-32 -2.67167482E+00 -1.76129770E+00 -1.64654673E-32
 -2.67167482E+00 -1.76129770E+00 -1.64654673E-32 -2.67167482E+00 -1.76129770E+00
 -1.64654673E-32 -2.67167482E+00 -1.76129770E+00 -1.64654673E-32 -2.67167482E+00
 -1.76129770E+00 -1.64654673E-32 -2.67167482E+00 -1.76129770E+00 -1.64654673E-32
Num ILSW                                   I              100
ILSW                                       I   N=         100
           0           0           0           0           2           0
           0           0           0           0           0          -1
           5           0           0           0           0           0
           0           0           0           0           0           0
           1           0           0           0           0           0
           0           0      100000           0          -1           0
           0           0           0           0           0           0
           0           0           0           1           0           0
           0 -2000000000           1           0           0           0
           0           0           4          52           0           0
           0           0           0           0           0           0
           0           0           0           5           0           1
           0           0           0           0           0           0
           0           0           0           0           0           0
           0           0           0           0           0           0
           0           0           0           0           0           0
           0           0           0           0
Num RLSW                                   I               52
RLSW                                       R   N=          52
  1.00000000E+00  1.00000000E+00  1.00000000E+00  1.00000000E+00  1.00000000E+00
  0.00000000E+00  0.00000000E+00  1.00000000E+00  0.00000000E+00  0.00000000E+00
  0.00000000E+00  0.00000000E+00  1.00000000E+00  0.00000000E+00  0.00000000E+00
  0.00000000E+00  0.00000000E+00  1.00000000E+00  0.00000000E+00  0.00000000E+00
  0.00000000E+00  0.00000000E+00  1.00000000E+00  0.00000000E+00  0.00000000E+00
  0.00000000E+00  0.00000000E+00  1.00000000E+00  0.00000000E+00  0.00000000E+00
  0.00000000E+00  0.00000000E+00  1.00000000E+00  0.00000000E+00  0.00000000E+00
  0.00000000E+00  0.00000000E+00  0.00000000E+00  1.00000000E+00  1.00000000E+00
  0.00000000E+00  1.00000000E+00  0.00000000E+00  0.00000000E+00  0.00000000E+00
  0.00000000E+00  0.00000000E+00  0.00000000E+00  0.00000000E+00  0.00000000E+00
  0.00000000E+00  0.00000000E+00
MxBond                                     I                2
NBond                                      I   N=           5
           1           2           2           2           1
IBond                                      I   N=          10
           2           0           1           3           2           4
           3           5           4           0
RBond                                      R   N=          10
  1.00000000E+00  0.00000000E+00  1.00000000E+00  1.00000000E+00  1.00000000E+00
  1.00000000E+00  1.00000000E+00  2.00000000E+00  2.00000000E+00  0.00000000E+00
Virial Ratio                               R      2.002134355388245E+00
SCF Energy                                 R     -2.795035699142546E+02
MP2 Energy                                 R     -2.804464901154320E+02
Total Energy                               R     -2.804464901154320E+02
Post-SCF wavefunction norm                 R      1.119355065482682E+00
RMS Density                                R      3.464128913460586E-09
Job Status                                 I                1
Nuclear derivative order                   I                0
External E-field                           R   N=          35
  0.00000000E+00  0.00000000E+00  0.00000000E+00  0.00000000E+00  0.00000000E+00
  0.00000000E+00  0.00000000E+00  0.00000000E+00  0.00000000E+00  0.00000000E+00
  0.00000000E+00  0.00000000E+00  0.00000000E+00  0.00000000E+00  0.00000000E+00
  0.00000000E+00  0.00000000E+00  0.00000000E+00  0.00000000E+00  0.00000000E+00
  0.00000000E+00  0.00000000E+00  0.00000000E+00  0.00000000E+00  0.00000000E+00
  0.00000000E+00  0.00000000E+00  0.00000000E+00  0.00000000E+00  0.00000000E+00
  0.00000000E+00  0.00000000E+00  0.00000000E+00  0.00000000E+00  0.00000000E+00
IOpCl                                      I                0
IROHF                                      I                0
Alpha Orbital Energies                     R   N=         207
 -2.06879094E+01 -2.06848297E+01 -2.06583608E+01 -1.58110014E+01 -1.63447004E+00
 -1.49577351E+00 -1.25313148E+00 -9.46374801E-01 -7.74372870E-01 -7.62530654E-01
 -7.14581847E-01 -6.80792513E-01 -6.22855155E-01 -5.88576026E-01 -4.84134301E-01
 -4.70024028E-01  2.99709120E-02  7.55462469E-02  8.57251498E-02  1.01716459E-01
  1.33717502E-01  1.34122222E-01  1.44350807E-01  1.54838628E-01  1.78491965E-01
  1.94024798E-01  2.00285121E-01  2.06375406E-01  2.21219251E-01  2.36509906E-01
  2.37472530E-01  2.66194715E-01  2.94716429E-01  3.04386201E-01  3.11053400E-01
  3.43289024E-01  3.50169879E-01  3.87710128E-01  4.22598987E-01  4.31827271E-01
  5.27078351E-01  5.30832701E-01  5.59148368E-01  5.81917218E-01  6.32454734E-01
  6.37981268E-01  6.70577147E-01  6.85499810E-01  7.06529572E-01  7.11502440E-01
  7.24553974E-01  7.30166853E-01  7.44661736E-01  7.92231715E-01  7.92848224E-01
  8.09919703E-01  8.13868313E-01  8.33964685E-01  8.69287442E-01  9.09466439E-01
  9.23115742E-01  9.27484265E-01  9.57299014E-01  9.80220512E-01  9.85726348E-01
  1.01708938E+00  1.05283434E+00  1.05604626E+00  1.08512590E+00  1.11943288E+00
  1.14241165E+00  1.19029575E+00  1.22257273E+00  1.23456141E+00  1.33979764E+00
  1.35128133E+00  1.38828146E+00  1.45417315E+00  1.48843075E+00  1.51058856E+00
  1.53835492E+00  1.56688044E+00  1.57946330E+00  1.61421315E+00  1.66696792E+00
  1.67046561E+00  1.70284604E+00  1.79378793E+00  1.83016163E+00  1.83513500E+00
  1.88172920E+00  1.90959232E+00  1.95284899E+00  1.99547934E+00  2.00587269E+00
  2.07847754E+00  2.12137878E+00  2.13331077E+00  2.15130970E+00  2.22511351E+00
  2.26544067E+00  2.26604089E+00  2.29075182E+00  2.31587283E+00  2.34809502E+00
  2.38728545E+00  2.42732382E+00  2.43186897E+00  2.45458689E+00  2.46450322E+00
  2.47876388E+00  2.50366990E+00  2.59129398E+00  2.59933635E+00  2.62332992E+00
  2.62972852E+00  2.63638486E+00  2.67162599E+00  2.76245341E+00  2.83040736E+00
  2.86041153E+00  2.89036363E+00  2.89781455E+00  2.92912359E+00  2.96129422E+00
  3.02802337E+00  3.06616075E+00  3.12597703E+00  3.20582954E+00  3.23013192E+00
  3.31917288E+00  3.34375863E+00  3.52249019E+00  3.64448223E+00  3.84003985E+00
  3.84822337E+00  4.15031769E+00  4.16494846E+00  4.18588013E+00  4.28773788E+00
  4.35326924E+00  4.39527911E+00  4.46673613E+00  4.52201425E+00  4.67758498E+00
  4.71300673E+00  4.81106431E+00  4.82743904E+00  4.83264103E+00  4.89518777E+00
  5.02127850E+00  5.07870293E+00  5.10841465E+00  5.13796119E+00  5.18282631E+00
  5.24715752E+00  5.27325122E+00  5.30658448E+00  5.33173465E+00  5.36863732E+00
  5.60861075E+00  5.69481921E+00  5.78215546E+00  5.83479206E+00  5.95441487E+00
  6.17202677E+00  6.31121770E+00  6.33967675E+00  6.39632440E+00  6.49363456E+00
  6.50564037E+00  6.61565265E+00  6.66970878E+00  6.70480041E+00  6.75986927E+00
  6.76574223E+00  6.84044171E+00  6.90296660E+00  7.01782540E+00  7.05933534E+00
  7.06028567E+00  7.09207182E+00  7.13089783E+00  7.15319180E+00  7.18346310E+00
  7.23438961E+00  7.24449825E+00  7.31334428E+00  7.34786549E+00  7.35709484E+00
  7.41394014E+00  7.43375642E+00  7.48624395E+00  7.61080507E+00  7.63542694E+00
  7.64626900E+00  7.67007631E+00  7.80009836E+00  7.90784653E+00  8.09881255E+00
  8.31998594E+00  8.41081931E+00  8.54741797E+00  1.34134994E+01  1.44934651E+01
  1.51676944E+01  1.65473873E+01
Alpha MO coefficients                      R   N=       42849
  9.24199650E-05 -6.24577838E-04 -7.28759659E-04 -3.58347898E-06 -2.14192337E-05
 -2.74388442E-05  0.00000000E+00 -4.30211111E-05  5.77204036E-05  0.00000000E+00
  8.93734652E-05  3.73115097E-05  0.00000000E+00  3.19397788E-05  0.00000000E+00
  0.00000000E+00 -4.98747769E-05  2.10955149E-05 -3.78981644E-06  0.00000000E+00
  0.00000000E+00 -1.38547235E-04  1.17897591E-04  4.79189619E-03 -2.83614300E-04
  2.38018589E-05  1.54204769E-03  1.82565690E-03  1.06154487E-04  7.35973184E-06
  0.00000000E+00 -6.17139129E-04 -3.36412944E-05  0.00000000E+00 -1.10076812E-03
  7.81237807E-04  0.00000000E+00 -4.04684761E-04  6.21997423E-05  0.00000000E+00
  2.88739389E-05  0.00000000E+00  0.00000000E+00 -5.43131486E-05  6.47001948E-06
 -3.78081604E-04  0.00000000E+00  0.00000000E+00  7.41742090E-04 -4.00090612E-05
 -4.46795869E-04  0.00000000E+00  0.00000000E+00  2.46115763E-04 -1.21247198E-05
  0.00000000E+00  8.01791160E-05  1.23316637E-05  0.00000000E+00  0.00000000E+00
 -1.09793391E-04 -1.73181699E-06  0.00000000E+00  2.55665059E-04 -2.81645280E-05
  0.00000000E+00  0.00000000E+00 -3.52329634E-04  5.52612530E-05  9.76893297E-01
 -9.21888486E-03  4.33233876E-02  2.07703612E-03 -9.02903897E-04  1.48999642E-03
 -1.34242795E-03  0.00000000E+00 -1.43381438E-03  1.37080765E-03  0.00000000E+00
  8.18410323E-05 -1.16212098E-03  0.00000000E+00 -1.32781531E-04 -1.22201889E-05
  0.00000000E+00  4.59461096E-05  0.00000000E+00  0.00000000E+00 -3.59487432E-05
  2.23790047E-05  7.44440993E-04  0.00000000E+00  0.00000000E+00 -2.42896507E-04
 -3.86528379E-04 -3.59786111E-04  0.00000000E+00  0.00000000E+00 -3.12202310E-04
 -3.68087576E-04  0.00000000E+00  4.74540857E-05 -4.83899484E-05  0.00000000E+00
  0.00000000E+00 -3.90062628E-05 -1.47722778E-05  0.00000000E+00  2.33043240E-05
  2.13303468E-05  0.00000000E+00  0.00000000E+00 -3.07229970E-04 -1.34398168E-04
  3.67645618E-05  3.27245281E-05 -2.64113617E-04 -7.37700440E-04 -1.69413432E-04
 -2.61687506E-05 -9.59256091E-05  0.00000000E+00  2.83349511E-04  7.03688431E-04
  0.00000000E+00 -8.53584832E-04 -5.11658075E-04  0.00000000E+00 -1.27121446E-04
 -3.30086780E-05  0.00000000E+00 -1.78083871E-05  0.00000000E+00  0.00000000E+00
 -3.09624165E-05  1.52570963E-05 -3.23971299E-04  0.00000000E+00  0.00000000E+00
 -8.23064218E-04  1.31745210E-04 -3.22921711E-05  0.00000000E+00  0.00000000E+00
  1.04511189E-04 -1.17657820E-04  0.00000000E+00 -2.05852000E-05 -1.19354992E-04
  0.00000000E+00  0.00000000E+00 -6.38368445E-05 -1.35124513E-04  0.00000000E+00
  3.31193602E-06 -1.49823563E-04  0.00000000E+00  0.00000000E+00  4.24843515E-05
 -4.16881070E-04 -5.62573279E-03  1.53118266E-04 -2.58298410E-04 -2.53082825E-04
  1.55539824E-04 -1.51053678E-05 -2.86479032E-05  0.00000000E+00  7.88305579E-05
  1.64721136E-04  0.00000000E+00  2.50659102E-04  2.11879226E-04  0.00000000E+00
  1.31895731E-04  2.72998437E-05  0.00000000E+00 -2.36862003E-06  0.00000000E+00
  0.00000000E+00 -1.90432067E-05  1.65481447E-06  1.05404497E-07  0.00000000E+00
  0.00000000E+00  8.80367537E-05  8.48326801E-05 -1.04075339E-04  0.00000000E+00
  0.00000000E+00  1.71409126E-04  1.67237142E-04  0.00000000E+00  1.56696933E-05
 -2.90819756E-06  0.00000000E+00  0.00000000E+00 -2.96517838E-06 -1.23907529E-05
  0.00000000E+00 -3.43716729E-05  4.56698075E-05  0.00000000E+00  0.00000000E+00
  8.55008492E-05  8.86501219E-05  4.06556016E-05 -9.79541194E-04 -4.70019207E-04
 -7.85610470E-06 -2.17178694E-05  1.51737227E-05  0.00000000E+00  4.42535123E-06
  2.69994988E-04  0.00000000E+00 -3.76393588E-05  1.28881063E-04  0.00000000E+00
  2.59404005E-05  0.00000000E+00  0.00000000E+00  1.18088127E-05  1.01235958E-05
 -2.77963104E-05  0.00000000E+00  0.00000000E+00  1.20081516E-05  3.27367375E-05
  1.21271118E-04  8.36643522E-05 -2.83758449E-05  7.56921781E-04  6.44042873E-04
  1.13448816E-05  2.06512676E-06  0.00000000E+00 -7.95542853E-05  1.72285990E-05
  0.00000000E+00  3.16381703E-04  9.03987278E-04  0.00000000E+00 -2.42533147E-06
  7.40645042E-05  0.00000000E+00 -2.34580855E-06  0.00000000E+00  0.00000000E+00
 -7.60448306E-07 -5.38758586E-06 -3.68975852E-05  0.00000000E+00  0.00000000E+00
 -1.09158402E-05  7.81662672E-05 -2.74918205E-05  0.00000000E+00  0.00000000E+00
 -2.64462965E-04 -1.69208698E-04  0.00000000E+00  9.24458474E-06  5.66381300E-06
  0.00000000E+00  0.00000000E+00  1.24065219E-06 -1.79882517E-05  0.00000000E+00
 -3.73440951E-05 -3.68215973E-05  0.00000000E+00  0.00000000E+00 -7.69876755E-05
  2.25968184E-05  5.66521021E-03  8.77536129E-06  2.28416358E-04 -7.07329436E-05
 -4.59845245E-04  1.07656705E-05  1.16997724E-05  0.00000000E+00 -6.17540407E-05
 -4.80107719E-05  0.00000000E+00  2.46227868E-04 -2.24302324E-04  0.00000000E+00
 -1.79725581E-04 -6.30021237E-05  0.00000000E+00 -8.57078081E-06  0.00000000E+00
  0.00000000E+00  2.39371107E-05  2.22517019E-05  8.49409660E-06  0.00000000E+00
  0.00000000E+00 -1.26992822E-04 -6.32155091E-05 -6.91237026E-06  0.00000000E+00
  0.00000000E+00 -2.33557475E-04 -2.33040519E-04  0.00000000E+00  2.91199653E-06
 -1.26813051E-06  0.00000000E+00  0.00000000E+00  1.29704511E-06 -1.08209698E-05
  0.00000000E+00 -4.61811656E-05  7.67170488E-06  0.00000000E+00  0.00000000E+00
 -8.87664827E-05  1.86470059E-04  2.61161788E-04  1.47933788E-03 -2.16072585E-05
 -1.82704112E-03  3.19622201E-04 -1.76840496E-04 -5.11446099E-06  0.00000000E+00
 -2.03808944E-03 -3.74585034E-04  0.00000000E+00  1.18103801E-03  7.65747352E-04
  0.00000000E+00 -1.57666798E-04  5.64649792E-05  0.00000000E+00 -1.19115947E-04
  0.00000000E+00  0.00000000E+00  2.38854971E-04  9.20521344E-05 -4.04975551E-04
  0.00000000E+00  0.00000000E+00  8.24940504E-04 -1.16043795E-04  3.13314326E-05
  0.00000000E+00  0.00000000E+00 -3.78389276E-04 -1.36242660E-04  0.00000000E+00
 -2.22513088E-05  1.09564795E-05  0.00000000E+00  0.00000000E+00  4.39670346E-05
  2.64157698E-05  0.00000000E+00  1.58477791E-04 -7.18489310E-05  0.00000000E+00
  0.00000000E+00 -2.09764781E-04  3.87179027E-05  9.76615707E-01 -9.82690262E-03
  4.36036286E-02  4.76838089E-03 -3.50863021E-04  2.16266360E-03  4.73959856E-04
  0.00000000E+00 -2.32168564E-03 -5.86678104E-04  0.00000000E+00  1.20127106E-03
  9.14914347E-06  0.00000000E+00  1.47648288E-05 -3.85240682E-05  0.00000000E+00
 -2.41617190E-04  0.00000000E+00  0.00000000E+00  1.18836690E-04  3.61531636E-05
  3.81077442E-04  0.00000000E+00  0.00000000E+00 -8.13406496E-04 -4.07071618E-04
 -1.42576740E-04  0.00000000E+00  0.00000000E+00  2.41455810E-04  1.54713116E-05
  0.00000000E+00  4.46745996E-05  1.66382504E-05  0.00000000E+00  0.00000000E+00
 -1.27905273E-05 -9.16845476E-06  0.00000000E+00  1.46233296E-04  1.00369781E-05
  0.00000000E+00  0.00000000E+00 -1.94424650E-04 -1.40876658E-04  4.74908183E-04
  2.06484371E-03  1.18532508E-04  1.43556793E-05 -4.21662042E-05 -2.46712078E-04
  0.00000000E+00  1.05067426E-04 -1.27653081E-03  0.00000000E+00  3.06853248E-04
 -3.41337400E-04  0.00000000E+00 -2.65114838E-06  0.00000000E+00  0.00000000E+00
  7.60996208E-05  1.45717935E-05 -1.60243179E-04  0.00000000E+00  0.00000000E+00
 -5.37277560E-04 -1.82786744E-05  9.76828697E-01 -9.16312846E-03  4.34502850E-02
  1.65311507E-04 -1.14007753E-03 -1.55305499E-03  1.44944669E-03  0.00000000E+00
  1.56650418E-03 -1.29233075E-03  0.00000000E+00 -5.75261447E-04 -8.67936157E-04
  0.00000000E+00  5.66284792E-05 -2.86089586E-05  0.00000000E+00  2.92865981E-05
  0.00000000E+00  0.00000000E+00 -1.17813523E-04 -1.59834183E-06  7.57199610E-04
  0.00000000E+00  0.00000000E+00 -2.03151099E-04 -2.33525773E-04 -2.65833493E-04
  0.00000000E+00  0.00000000E+00  1.70653928E-04  1.27004801E-04  0.00000000E+00
 -6.40336956E-05  1.51469748E-06  0.00000000E+00  0.00000000E+00  1.88827576E-05
  9.62784528E-06  0.00000000E+00 -6.07408225E-07  1.23076656E-04  0.00000000E+00
  0.00000000E+00  2.58645106E-04  8.81504972E-05 -4.88441353E-03 -2.09341400E-04