 Entering Gaussian System, Link 0=g16
 Input=hoono_a3_110p8299.gjf
 Output=hoono_a3_110p8299.log
 Initial command:
 /sw/contrib/gaussian/g16/B01/g16/l1.exe "/scr/Gau-4096.inp" -scrdir="/scr/"
 Entering Link 1 = /sw/contrib/gaussian/g16/B01/g16/l1.exe PID=      4097.
  
 Copyright (c) 1988-2017, Gaussian, Inc.  All Rights Reserved.
  
 This is part of the Gaussian(R) 16 program.  It is based on
 the Gaussian(R) 09 system (copyright 2009, Gaussian, Inc.),
 the Gaussian(R) 03 system (copyright 2003, Gaussian, Inc.),
 the Gaussian(R) 98 system (copyright 1998, Gaussian, Inc.),
 the Gaussian(R) 94 system (copyright 1995, Gaussian, Inc.),
 the Gaussian 92(TM) system (copyright 1992, Gaussian, Inc.),
 the Gaussian 90(TM) system (copyright 1990, Gaussian, Inc.),
 the Gaussian 88(TM) system (copyright 1988, Gaussian, Inc.),
 the Gaussian 86(TM) system (copyright 1986, Carnegie Mellon
 University), and the Gaussian 82(TM) system (copyright 1983,
 Carnegie Mellon University). Gaussian is a federally registered
 trademark of Gaussian, Inc.
  
 This software contains proprietary and confidential information,
 including trade secrets, belonging to Gaussian, Inc.
  
 This software is provided under written license and may be
 used, copied, transmitted, or stored only in accord with that
 written license.
  
 The following legend is applicable only to US Government
 contracts under FAR:
  
                    RESTRICTED RIGHTS LEGEND
  
 Use, reproduction and disclosure by the US Government is
 subject to restrictions as set forth in subparagraphs (a)
 and (c) of the Commercial Computer Software - Restricted
 Rights clause in FAR 52.227-19.
  
 Gaussian, Inc.
 340 Quinnipiac St., Bldg. 40, Wallingford CT 06492
  
  
 ---------------------------------------------------------------
 Warning -- This program may not be used in any manner that
 competes with the business of Gaussian, Inc. or will provide
 assistance to any competitor of Gaussian, Inc.  The licensee
 of this program is prohibited from giving any competitor of
 Gaussian, Inc. access to this program.  By using this program,
 the user acknowledges that Gaussian, Inc. is engaged in the
 business of creating and licensing software in the field of
 computational chemistry and represents and warrants to the
 licensee that it is not a competitor of Gaussian, Inc. and that
 it will not use this program in any manner prohibited above.
 ---------------------------------------------------------------
  

 Cite this work as:
 Gaussian 16, Revision B.01,
 M. J. Frisch, G. W. Trucks, H. B. Schlegel, G. E. Scuseria, 
 M. A. Robb, J. R. Cheeseman, G. Scalmani, V. Barone, 
 G. A. Petersson, H. Nakatsuji, X. Li, M. Caricato, A. V. Marenich, 
 J. Bloino, B. G. Janesko, R. Gomperts, B. Mennucci, H. P. Hratchian, 
 J. V. Ortiz, A. F. Izmaylov, J. L. Sonnenberg, D. Williams-Young, 
 F. Ding, F. Lipparini, F. Egidi, J. Goings, B. Peng, A. Petrone, 
 T. Henderson, D. Ranasinghe, V. G. Zakrzewski, J. Gao, N. Rega, 
 G. Zheng, W. Liang, M. Hada, M. Ehara, K. Toyota, R. Fukuda, 
 J. Hasegawa, M. Ishida, T. Nakajima, Y. Honda, O. Kitao, H. Nakai, 
 T. Vreven, K. Throssell, J. A. Montgomery, Jr., J. E. Peralta, 
 F. Ogliaro, M. J. Bearpark, J. J. Heyd, E. N. Brothers, K. N. Kudin, 
 V. N. Staroverov, T. A. Keith, R. Kobayashi, J. Normand, 
 K. Raghavachari, A. P. Rendell, J. C. Burant, S. S. Iyengar, 
 J. Tomasi, M. Cossi, J. M. Millam, M. Klene, C. Adamo, R. Cammi, 
 J. W. Ochterski, R. L. Martin, K. Morokuma, O. Farkas, 
 J. B. Foresman, and D. J. Fox, Gaussian, Inc., Wallingford CT, 2016.
 
 ******************************************
 Gaussian 16:  ES64L-G16RevB.01 20-Dec-2017
                14-Feb-2022 
 ******************************************
 %nproc=28
 Will use up to   28 processors via shared memory.
 %mem=120GB
 %chk=hoono_a3_110p8299.chk
 -------------------------------------
 #p SP mp2/aug-cc-pvtz density=current
 -------------------------------------
 1/30=1,38=1,172=1/1;
 2/12=2,17=6,18=5,40=1/2;
 3/5=16,6=1,7=10,11=9,25=1,30=1,71=1/1,2,3;
 4//1;
 5/5=2,38=5/2;
 8/6=4,10=1/1;
 9/15=1,16=-3/6;
 10/5=1,13=10/2;
 6/7=2,8=2,9=2,10=2,22=-1/1;
 99/5=1,9=1/99;
 Leave Link    1 at Mon Feb 14 22:13:30 2022, MaxMem= 16106127360 cpu:               3.2 elap:               0.1
 (Enter /sw/contrib/gaussian/g16/B01/g16/l101.exe)
 -----
 title
 -----
 Symbolic Z-matrix:
 Charge =  0 Multiplicity = 1
 H
 O                    1    r1
 O                    2    r2       1    a1
 N                    3    r3       2    a2       1    d1       0
 O                    4    r4       3    a3       2    d2       0
       Variables:
  r1                    0.96898                  
  r2                    1.45492                  
  r3                    1.45878                  
  r4                    1.17073                  
  a1                   97.59495                  
  a2                  102.29752                  
  a3                  110.82991                  
  d1                  180.                       
  d2                  180.                       
 
 ITRead=  0  0  0  0  0
 MicOpt= -1 -1 -1 -1 -1
 NAtoms=      5 NQM=        5 NQMF=       0 NMMI=      0 NMMIF=      0
                NMic=       0 NMicF=      0.
                    Isotopes and Nuclear Properties:
 (Nuclear quadrupole moments (NQMom) in fm**2, nuclear magnetic moments (NMagM)
  in nuclear magnetons)

  Atom         1           2           3           4           5
 IAtWgt=           1          16          16          14          16
 AtmWgt=   1.0078250  15.9949146  15.9949146  14.0030740  15.9949146
 NucSpn=           1           0           0           2           0
 AtZEff=  -0.0000000  -0.0000000  -0.0000000  -0.0000000  -0.0000000
 NQMom=    0.0000000   0.0000000   0.0000000   2.0440000   0.0000000
 NMagM=    2.7928460   0.0000000   0.0000000   0.4037610   0.0000000
 AtZNuc=   1.0000000   8.0000000   8.0000000   7.0000000   8.0000000
 Leave Link  101 at Mon Feb 14 22:13:30 2022, MaxMem= 16106127360 cpu:               2.8 elap:               0.1
 (Enter /sw/contrib/gaussian/g16/B01/g16/l202.exe)
                          Input orientation:                          
 ---------------------------------------------------------------------
 Center     Atomic      Atomic             Coordinates (Angstroms)
 Number     Number       Type             X           Y           Z
 ---------------------------------------------------------------------
      1          1           0        0.000000    0.000000    0.000000
      2          8           0        0.000000    0.000000    0.968976
      3          8           0        1.442156    0.000000    1.161271
      4          7           0        1.561752    0.000000    2.615144
      5          8           0        2.686408    0.000000    2.940341
 ---------------------------------------------------------------------
                    Distance matrix (angstroms):
                    1          2          3          4          5
     1  H    0.000000
     2  O    0.968976   0.000000
     3  O    1.851584   1.454919   0.000000
     4  N    3.045989   2.269127   1.458784   0.000000
     5  O    3.982762   3.332127   2.171003   1.170729   0.000000
 Stoichiometry    HNO3
 Framework group  CS[SG(HNO3)]
 Deg. of freedom     7
 Full point group                 CS      NOp   2
 Largest Abelian subgroup         CS      NOp   2
 Largest concise Abelian subgroup C1      NOp   1
                         Standard orientation:                         
 ---------------------------------------------------------------------
 Center     Atomic      Atomic             Coordinates (Angstroms)
 Number     Number       Type             X           Y           Z
 ---------------------------------------------------------------------
      1          1           0        1.551343    1.692667    0.000000
      2          8           0        1.454170    0.728577   -0.000000
      3          8           0       -0.000000    0.681876    0.000000
      4          7           0       -0.264794   -0.752674   -0.000000
      5          8           0       -1.416393   -0.963446    0.000000
 ---------------------------------------------------------------------
 Rotational constants (GHZ):          55.4083103           4.9688207           4.5599047
 Leave Link  202 at Mon Feb 14 22:13:30 2022, MaxMem= 16106127360 cpu:               1.4 elap:               0.1
 (Enter /sw/contrib/gaussian/g16/B01/g16/l301.exe)
 Standard basis: Aug-CC-pVTZ (5D, 7F)
 Ernie: Thresh=  0.10000D-02 Tol=  0.10000D-05 Strict=F.
 Ernie:  12 primitive shells out of 131 were deleted.
 There are   166 symmetry adapted cartesian basis functions of A'  symmetry.
 There are    79 symmetry adapted cartesian basis functions of A"  symmetry.
 There are   136 symmetry adapted basis functions of A'  symmetry.
 There are    71 symmetry adapted basis functions of A"  symmetry.
   207 basis functions,   315 primitive gaussians,   245 cartesian basis functions
    16 alpha electrons       16 beta electrons
       nuclear repulsion energy       116.6620392537 Hartrees.
 IExCor=    0 DFT=F Ex=HF Corr=None ExCW=0 ScaHFX=  1.000000
 ScaDFX=  1.000000  1.000000  1.000000  1.000000 ScalE2=  1.000000  1.000000
 IRadAn=      5 IRanWt=     -1 IRanGd=            0 ICorTp=0 IEmpDi=  4
 NAtoms=    5 NActive=    5 NUniq=    5 SFac= 1.00D+00 NAtFMM=   60 NAOKFM=F Big=F
 Integral buffers will be    131072 words long.
 Raffenetti 1 integral format.
 Two-electron integral symmetry is turned on.
 Leave Link  301 at Mon Feb 14 22:13:30 2022, MaxMem= 16106127360 cpu:               1.7 elap:               0.1
 (Enter /sw/contrib/gaussian/g16/B01/g16/l302.exe)
 NPDir=0 NMtPBC=     1 NCelOv=     1 NCel=       1 NClECP=     1 NCelD=      1
         NCelK=      1 NCelE2=     1 NClLst=     1 CellRange=     0.0.
 One-electron integrals computed using PRISM.
 One-electron integral symmetry used in STVInt
 NBasis=   207 RedAO= T EigKep=  1.82D-04  NBF=   136    71
 NBsUse=   207 1.00D-06 EigRej= -1.00D+00 NBFU=   136    71
 Leave Link  302 at Mon Feb 14 22:13:30 2022, MaxMem= 16106127360 cpu:               4.5 elap:               0.2
 (Enter /sw/contrib/gaussian/g16/B01/g16/l303.exe)
 DipDrv:  MaxL=1.
 Leave Link  303 at Mon Feb 14 22:13:31 2022, MaxMem= 16106127360 cpu:               0.9 elap:               0.1
 (Enter /sw/contrib/gaussian/g16/B01/g16/l401.exe)
 ExpMin= 2.53D-02 ExpMax= 1.53D+04 ExpMxC= 5.22D+02 IAcc=3 IRadAn=         5 AccDes= 0.00D+00
 Harris functional with IExCor=  205 and IRadAn=       5 diagonalized for initial guess.
 HarFok:  IExCor=  205 AccDes= 0.00D+00 IRadAn=         5 IDoV= 1 UseB2=F ITyADJ=14
 ICtDFT=  3500011 ScaDFX=  1.000000  1.000000  1.000000  1.000000
 FoFCou: FMM=F IPFlag=           0 FMFlag=      100000 FMFlg1=           0
         NFxFlg=           0 DoJE=T BraDBF=F KetDBF=T FulRan=T
         wScrn=  0.000000 ICntrl=       500 IOpCl=  0 I1Cent=   200000004 NGrid=           0
         NMat0=    1 NMatS0=      1 NMatT0=    0 NMatD0=    1 NMtDS0=    0 NMtDT0=    0
 Petite list used in FoFCou.
 Harris En= -279.628483785317    
 JPrj=0 DoOrth=F DoCkMO=F.
 Initial guess orbital symmetries:
       Occupied  (A') (A') (A') (A') (A') (A') (A') (A') (A') (A')
                 (A") (A') (A') (A") (A") (A')
       Virtual   (A") (A') (A') (A') (A') (A') (A") (A') (A') (A')
                 (A") (A') (A") (A') (A') (A") (A') (A") (A') (A')
                 (A') (A') (A') (A') (A') (A") (A') (A") (A') (A')
                 (A") (A') (A") (A') (A') (A") (A') (A") (A') (A')
                 (A") (A') (A") (A') (A") (A') (A') (A') (A") (A")
                 (A') (A') (A') (A') (A") (A') (A") (A') (A") (A')
                 (A') (A') (A") (A') (A') (A") (A') (A") (A') (A')
                 (A") (A') (A') (A") (A") (A') (A') (A") (A') (A')
                 (A') (A") (A') (A") (A') (A") (A') (A") (A') (A')
                 (A') (A") (A') (A") (A') (A") (A") (A') (A') (A")
                 (A') (A') (A") (A') (A') (A') (A") (A') (A") (A')
                 (A") (A') (A') (A') (A") (A') (A') (A') (A") (A')
                 (A") (A') (A') (A") (A") (A') (A') (A") (A") (A')
                 (A') (A') (A') (A") (A") (A') (A") (A') (A') (A')
                 (A') (A") (A") (A') (A') (A") (A') (A') (A') (A')
                 (A") (A') (A') (A") (A') (A") (A') (A") (A") (A')
                 (A') (A") (A') (A") (A') (A") (A") (A") (A') (A')
                 (A") (A') (A") (A') (A") (A') (A") (A") (A') (A')
                 (A') (A') (A') (A') (A') (A') (A') (A') (A') (A')
                 (A')
 The electronic state of the initial guess is 1-A'.
 Leave Link  401 at Mon Feb 14 22:13:31 2022, MaxMem= 16106127360 cpu:               7.1 elap:               0.3
 (Enter /sw/contrib/gaussian/g16/B01/g16/l502.exe)
 Keep R1 ints in memory in symmetry-blocked form, NReq=348887737.
 FoFCou: FMM=F IPFlag=           0 FMFlag=           0 FMFlg1=           0
         NFxFlg=           0 DoJE=F BraDBF=F KetDBF=F FulRan=T
         wScrn=  0.000000 ICntrl=       600 IOpCl=  0 I1Cent=           0 NGrid=           0
         NMat0=    1 NMatS0=  21528 NMatT0=    0 NMatD0=    1 NMtDS0=    0 NMtDT0=    0
 Petite list used in FoFCou.
 Closed shell SCF:
 Using DIIS extrapolation, IDIIS=  1040.
 NGot= 16106127360 LenX= 15988850015 LenY= 15988789549
 Requested convergence on RMS density matrix=1.00D-08 within 128 cycles.
 Requested convergence on MAX density matrix=1.00D-06.
 Requested convergence on             energy=1.00D-06.
 No special actions if energy rises.

 Cycle   1  Pass 1  IDiag  1:
 E= -279.370644321189    
 DIIS: error= 2.94D-02 at cycle   1 NSaved=   1.
 NSaved= 1 IEnMin= 1 EnMin= -279.370644321189     IErMin= 1 ErrMin= 2.94D-02
 ErrMax= 2.94D-02  0.00D+00 EMaxC= 1.00D-01 BMatC= 4.37D-01 BMatP= 4.37D-01
 IDIUse=3 WtCom= 7.06D-01 WtEn= 2.94D-01
 Coeff-Com:  0.100D+01
 Coeff-En:   0.100D+01
 Coeff:      0.100D+01
 Gap=     0.516 Goal=   None    Shift=    0.000
 GapD=    0.516 DampG=2.000 DampE=0.500 DampFc=1.0000 IDamp=-1.
 RMSDP=1.61D-03 MaxDP=9.71D-02              OVMax= 1.12D-01

 Cycle   2  Pass 1  IDiag  1:
 E= -279.452183343995     Delta-E=       -0.081539022807 Rises=F Damp=F
 DIIS: error= 1.76D-02 at cycle   2 NSaved=   2.
 NSaved= 2 IEnMin= 2 EnMin= -279.452183343995     IErMin= 2 ErrMin= 1.76D-02
 ErrMax= 1.76D-02  0.00D+00 EMaxC= 1.00D-01 BMatC= 7.15D-02 BMatP= 4.37D-01
 IDIUse=3 WtCom= 8.24D-01 WtEn= 1.76D-01
 Coeff-Com:  0.194D+00 0.806D+00
 Coeff-En:   0.000D+00 0.100D+01
 Coeff:      0.160D+00 0.840D+00
 Gap=     0.526 Goal=   None    Shift=    0.000
 RMSDP=9.01D-04 MaxDP=3.70D-02 DE=-8.15D-02 OVMax= 6.90D-02

 Cycle   3  Pass 1  IDiag  1:
 E= -279.480958883591     Delta-E=       -0.028775539596 Rises=F Damp=F
 DIIS: error= 1.02D-02 at cycle   3 NSaved=   3.
 NSaved= 3 IEnMin= 3 EnMin= -279.480958883591     IErMin= 3 ErrMin= 1.02D-02
 ErrMax= 1.02D-02  0.00D+00 EMaxC= 1.00D-01 BMatC= 2.90D-02 BMatP= 7.15D-02
 IDIUse=3 WtCom= 8.98D-01 WtEn= 1.02D-01
 Coeff-Com: -0.331D-01 0.380D+00 0.653D+00
 Coeff-En:   0.000D+00 0.245D+00 0.755D+00
 Coeff:     -0.297D-01 0.366D+00 0.663D+00
 Gap=     0.508 Goal=   None    Shift=    0.000
 RMSDP=3.77D-04 MaxDP=1.51D-02 DE=-2.88D-02 OVMax= 3.83D-02

 Cycle   4  Pass 1  IDiag  1:
 E= -279.500246332402     Delta-E=       -0.019287448811 Rises=F Damp=F
 DIIS: error= 1.31D-03 at cycle   4 NSaved=   4.
 NSaved= 4 IEnMin= 4 EnMin= -279.500246332402     IErMin= 4 ErrMin= 1.31D-03
 ErrMax= 1.31D-03  0.00D+00 EMaxC= 1.00D-01 BMatC= 4.89D-04 BMatP= 2.90D-02
 IDIUse=3 WtCom= 9.87D-01 WtEn= 1.31D-02
 Coeff-Com: -0.117D-01 0.578D-01 0.157D+00 0.797D+00
 Coeff-En:   0.000D+00 0.000D+00 0.000D+00 0.100D+01
 Coeff:     -0.115D-01 0.571D-01 0.155D+00 0.800D+00
 Gap=     0.500 Goal=   None    Shift=    0.000
 RMSDP=9.08D-05 MaxDP=2.80D-03 DE=-1.93D-02 OVMax= 1.12D-02

 Cycle   5  Pass 1  IDiag  1:
 E= -279.500921367805     Delta-E=       -0.000675035403 Rises=F Damp=F
 DIIS: error= 7.44D-04 at cycle   5 NSaved=   5.
 NSaved= 5 IEnMin= 5 EnMin= -279.500921367805     IErMin= 5 ErrMin= 7.44D-04
 ErrMax= 7.44D-04  0.00D+00 EMaxC= 1.00D-01 BMatC= 8.76D-05 BMatP= 4.89D-04
 IDIUse=3 WtCom= 9.93D-01 WtEn= 7.44D-03
 Coeff-Com:  0.607D-02-0.721D-01-0.117D+00 0.246D-01 0.116D+01
 Coeff-En:   0.000D+00 0.000D+00 0.000D+00 0.000D+00 0.100D+01
 Coeff:      0.603D-02-0.716D-01-0.116D+00 0.244D-01 0.116D+01
 Gap=     0.500 Goal=   None    Shift=    0.000
 RMSDP=7.60D-05 MaxDP=2.09D-03 DE=-6.75D-04 OVMax= 1.10D-02

 Cycle   6  Pass 1  IDiag  1:
 E= -279.501236522970     Delta-E=       -0.000315155165 Rises=F Damp=F
 DIIS: error= 2.96D-04 at cycle   6 NSaved=   6.
 NSaved= 6 IEnMin= 6 EnMin= -279.501236522970     IErMin= 6 ErrMin= 2.96D-04
 ErrMax= 2.96D-04  0.00D+00 EMaxC= 1.00D-01 BMatC= 1.68D-05 BMatP= 8.76D-05
 IDIUse=3 WtCom= 9.97D-01 WtEn= 2.96D-03
 Coeff-Com:  0.642D-03 0.111D-02 0.356D-02-0.131D+00-0.226D+00 0.135D+01
 Coeff-En:   0.000D+00 0.000D+00 0.000D+00 0.000D+00 0.000D+00 0.100D+01
 Coeff:      0.640D-03 0.111D-02 0.355D-02-0.130D+00-0.225D+00 0.135D+01
 Gap=     0.500 Goal=   None    Shift=    0.000
 RMSDP=4.57D-05 MaxDP=1.27D-03 DE=-3.15D-04 OVMax= 5.55D-03

 Cycle   7  Pass 1  IDiag  1:
 E= -279.501310234689     Delta-E=       -0.000073711719 Rises=F Damp=F
 DIIS: error= 1.24D-04 at cycle   7 NSaved=   7.
 NSaved= 7 IEnMin= 7 EnMin= -279.501310234689     IErMin= 7 ErrMin= 1.24D-04
 ErrMax= 1.24D-04  0.00D+00 EMaxC= 1.00D-01 BMatC= 4.68D-06 BMatP= 1.68D-05
 IDIUse=3 WtCom= 9.99D-01 WtEn= 1.24D-03
 Coeff-Com: -0.940D-03 0.137D-01 0.265D-01-0.255D-01-0.292D+00 0.401D+00
 Coeff-Com:  0.877D+00
 Coeff-En:   0.000D+00 0.000D+00 0.000D+00 0.000D+00 0.000D+00 0.000D+00
 Coeff-En:   0.100D+01
 Coeff:     -0.939D-03 0.137D-01 0.265D-01-0.255D-01-0.291D+00 0.401D+00
 Coeff:      0.877D+00
 Gap=     0.500 Goal=   None    Shift=    0.000
 RMSDP=1.35D-05 MaxDP=3.88D-04 DE=-7.37D-05 OVMax= 1.56D-03

 Cycle   8  Pass 1  IDiag  1:
 E= -279.501319426258     Delta-E=       -0.000009191568 Rises=F Damp=F
 DIIS: error= 5.94D-05 at cycle   8 NSaved=   8.
 NSaved= 8 IEnMin= 8 EnMin= -279.501319426258     IErMin= 8 ErrMin= 5.94D-05
 ErrMax= 5.94D-05  0.00D+00 EMaxC= 1.00D-01 BMatC= 6.10D-07 BMatP= 4.68D-06
 IDIUse=1 WtCom= 1.00D+00 WtEn= 0.00D+00
 Coeff-Com: -0.451D-03 0.349D-02 0.760D-02 0.278D-01-0.416D-01-0.196D+00
 Coeff-Com:  0.159D+00 0.104D+01
 Coeff:     -0.451D-03 0.349D-02 0.760D-02 0.278D-01-0.416D-01-0.196D+00
 Coeff:      0.159D+00 0.104D+01
 Gap=     0.500 Goal=   None    Shift=    0.000
 RMSDP=7.05D-06 MaxDP=2.04D-04 DE=-9.19D-06 OVMax= 7.70D-04

 Cycle   9  Pass 1  IDiag  1:
 E= -279.501321247810     Delta-E=       -0.000001821553 Rises=F Damp=F
 DIIS: error= 1.52D-05 at cycle   9 NSaved=   9.
 NSaved= 9 IEnMin= 9 EnMin= -279.501321247810     IErMin= 9 ErrMin= 1.52D-05
 ErrMax= 1.52D-05  0.00D+00 EMaxC= 1.00D-01 BMatC= 6.88D-08 BMatP= 6.10D-07
 IDIUse=1 WtCom= 1.00D+00 WtEn= 0.00D+00
 Coeff-Com:  0.121D-03-0.171D-02-0.303D-02-0.195D-02 0.340D-01-0.368D-03
 Coeff-Com: -0.162D+00-0.107D+00 0.124D+01
 Coeff:      0.121D-03-0.171D-02-0.303D-02-0.195D-02 0.340D-01-0.368D-03
 Coeff:     -0.162D+00-0.107D+00 0.124D+01
 Gap=     0.500 Goal=   None    Shift=    0.000
 RMSDP=1.95D-06 MaxDP=6.60D-05 DE=-1.82D-06 OVMax= 1.76D-04

 Cycle  10  Pass 1  IDiag  1:
 E= -279.501321408871     Delta-E=       -0.000000161060 Rises=F Damp=F
 DIIS: error= 4.14D-06 at cycle  10 NSaved=  10.
 NSaved=10 IEnMin=10 EnMin= -279.501321408871     IErMin=10 ErrMin= 4.14D-06
 ErrMax= 4.14D-06  0.00D+00 EMaxC= 1.00D-01 BMatC= 5.66D-09 BMatP= 6.88D-08
 IDIUse=1 WtCom= 1.00D+00 WtEn= 0.00D+00
 Coeff-Com:  0.319D-04-0.253D-03-0.335D-03-0.275D-02 0.174D-02 0.197D-01
 Coeff-Com: -0.127D-01-0.759D-01-0.788D-01 0.115D+01
 Coeff:      0.319D-04-0.253D-03-0.335D-03-0.275D-02 0.174D-02 0.197D-01
 Coeff:     -0.127D-01-0.759D-01-0.788D-01 0.115D+01
 Gap=     0.500 Goal=   None    Shift=    0.000
 RMSDP=5.17D-07 MaxDP=2.12D-05 DE=-1.61D-07 OVMax= 4.26D-05

 Cycle  11  Pass 1  IDiag  1:
 E= -279.501321421702     Delta-E=       -0.000000012832 Rises=F Damp=F
 DIIS: error= 2.06D-06 at cycle  11 NSaved=  11.
 NSaved=11 IEnMin=11 EnMin= -279.501321421702     IErMin=11 ErrMin= 2.06D-06
 ErrMax= 2.06D-06  0.00D+00 EMaxC= 1.00D-01 BMatC= 6.73D-10 BMatP= 5.66D-09
 IDIUse=1 WtCom= 1.00D+00 WtEn= 0.00D+00
 Coeff-Com: -0.213D-04 0.245D-03 0.486D-03 0.541D-03-0.430D-02-0.356D-02
 Coeff-Com:  0.204D-01 0.322D-01-0.139D+00-0.183D+00 0.128D+01
 Coeff:     -0.213D-04 0.245D-03 0.486D-03 0.541D-03-0.430D-02-0.356D-02
 Coeff:      0.204D-01 0.322D-01-0.139D+00-0.183D+00 0.128D+01
 Gap=     0.500 Goal=   None    Shift=    0.000
 RMSDP=1.82D-07 MaxDP=6.84D-06 DE=-1.28D-08 OVMax= 1.74D-05

 Cycle  12  Pass 1  IDiag  1:
 E= -279.501321423551     Delta-E=       -0.000000001849 Rises=F Damp=F
 DIIS: error= 6.04D-07 at cycle  12 NSaved=  12.
 NSaved=12 IEnMin=12 EnMin= -279.501321423551     IErMin=12 ErrMin= 6.04D-07
 ErrMax= 6.04D-07  0.00D+00 EMaxC= 1.00D-01 BMatC= 7.25D-11 BMatP= 6.73D-10
 IDIUse=1 WtCom= 1.00D+00 WtEn= 0.00D+00
 Coeff-Com:  0.121D-05-0.291D-04-0.623D-04 0.185D-03 0.108D-02-0.227D-02
 Coeff-Com: -0.413D-02 0.536D-02 0.420D-01-0.111D+00-0.284D+00 0.135D+01
 Coeff:      0.121D-05-0.291D-04-0.623D-04 0.185D-03 0.108D-02-0.227D-02
 Coeff:     -0.413D-02 0.536D-02 0.420D-01-0.111D+00-0.284D+00 0.135D+01
 Gap=     0.500 Goal=   None    Shift=    0.000
 RMSDP=7.25D-08 MaxDP=2.97D-06 DE=-1.85D-09 OVMax= 6.67D-06

 Cycle  13  Pass 1  IDiag  1:
 E= -279.501321423784     Delta-E=       -0.000000000233 Rises=F Damp=F
 DIIS: error= 1.74D-07 at cycle  13 NSaved=  13.
 NSaved=13 IEnMin=13 EnMin= -279.501321423784     IErMin=13 ErrMin= 1.74D-07
 ErrMax= 1.74D-07  0.00D+00 EMaxC= 1.00D-01 BMatC= 4.13D-12 BMatP= 7.25D-11
 IDIUse=1 WtCom= 1.00D+00 WtEn= 0.00D+00
 Coeff-Com:  0.128D-05-0.139D-04-0.221D-04-0.913D-04 0.117D-03 0.768D-03
 Coeff-Com: -0.779D-03-0.332D-02 0.311D-03 0.413D-01-0.337D-01-0.333D+00
 Coeff-Com:  0.133D+01
 Coeff:      0.128D-05-0.139D-04-0.221D-04-0.913D-04 0.117D-03 0.768D-03
 Coeff:     -0.779D-03-0.332D-02 0.311D-03 0.413D-01-0.337D-01-0.333D+00
 Coeff:      0.133D+01
 Gap=     0.500 Goal=   None    Shift=    0.000
 RMSDP=1.94D-08 MaxDP=5.65D-07 DE=-2.33D-10 OVMax= 1.58D-06

 Cycle  14  Pass 1  IDiag  1:
 E= -279.501321423797     Delta-E=       -0.000000000013 Rises=F Damp=F
 DIIS: error= 2.45D-08 at cycle  14 NSaved=  14.
 NSaved=14 IEnMin=14 EnMin= -279.501321423797     IErMin=14 ErrMin= 2.45D-08
 ErrMax= 2.45D-08  0.00D+00 EMaxC= 1.00D-01 BMatC= 2.04D-13 BMatP= 4.13D-12
 IDIUse=1 WtCom= 1.00D+00 WtEn= 0.00D+00
 Coeff-Com: -0.194D-06 0.319D-05 0.560D-05 0.480D-05-0.832D-04 0.428D-04
 Coeff-Com:  0.278D-03 0.245D-03-0.244D-02 0.124D-02 0.171D-01-0.246D-01
 Coeff-Com: -0.204D+00 0.121D+01
 Coeff:     -0.194D-06 0.319D-05 0.560D-05 0.480D-05-0.832D-04 0.428D-04
 Coeff:      0.278D-03 0.245D-03-0.244D-02 0.124D-02 0.171D-01-0.246D-01
 Coeff:     -0.204D+00 0.121D+01
 Gap=     0.500 Goal=   None    Shift=    0.000
 RMSDP=3.88D-09 MaxDP=9.37D-08 DE=-1.27D-11 OVMax= 3.50D-07

 SCF Done:  E(RHF) =  -279.501321424     A.U. after   14 cycles
            NFock= 14  Conv=0.39D-08     -V/T= 2.0024
 KE= 2.788340543518D+02 PE=-8.946311710507D+02 EE= 2.196337560214D+02
 Leave Link  502 at Mon Feb 14 22:13:34 2022, MaxMem= 16106127360 cpu:              55.2 elap:               3.6
 (Enter /sw/contrib/gaussian/g16/B01/g16/l801.exe)
 ExpMin= 2.53D-02 ExpMax= 1.53D+04 ExpMxC= 5.22D+02 IAcc=3 IRadAn=         5 AccDes= 0.00D+00
 HarFok:  IExCor=  205 AccDes= 0.00D+00 IRadAn=         5 IDoV=-2 UseB2=F ITyADJ=14
 ICtDFT= 12500011 ScaDFX=  1.000000  1.000000  1.000000  1.000000
 DSYEVD-2 returned Info=          93 IAlg= 4 N=    46 NDim=    46 NE2=   350130240 trying  DSYEV.
 Largest valence mixing into a core orbital is  2.08D-04
 Largest core mixing into a valence orbital is  3.61D-05
 Range of M.O.s used for correlation:     5   207
 NBasis=   207 NAE=    16 NBE=    16 NFC=     4 NFV=     0
 NROrb=    203 NOA=    12 NOB=    12 NVA=   191 NVB=   191

 **** Warning!!: The largest alpha MO coefficient is  0.17776090D+02

 Leave Link  801 at Mon Feb 14 22:13:35 2022, MaxMem= 16106127360 cpu:               2.4 elap:               0.1
 (Enter /sw/contrib/gaussian/g16/B01/g16/l906.exe)
 Frozen-core derivative calculation, NFC=   4 NFV=   0.
 FulOut=F Deriv=T AODrv=F NAtomX=     5
   MMem=          76  MDisk=          12 MDiskD=          12
  W3Min=      811440 MinDsk=     1524655 NBas6D=         245
 NBas2D=       30762    NTT=       30135    LW2=     3500000
    MDV= 16105579941 MDiskM=      328644 NBas2p=       30466
 Fully in-core method, ICMem=   960157634.
 IMap=   1   2   3   4   5   6   7   8   9  10  11  12  13  14  15  16
 JobTyp=1 Pass  1 fully in-core, NPsUse= 28.
 Compute canonical integrals.
 FoFCou: FMM=F IPFlag=           0 FMFlag=           0 FMFlg1=           0
         NFxFlg=           0 DoJE=F BraDBF=F KetDBF=F FulRan=T
         wScrn=  0.000000 ICntrl=       600 IOpCl=  1 I1Cent=           0 NGrid=           0
         NMat0=    1 NMatS0=  30762 NMatT0=    0 NMatD0=    1 NMtDS0=    0 NMtDT0=    0
 Symmetry not used in FoFCou.
 Spin components of T(2) and E(2):
     alpha-alpha T2 =       0.3406874892D-01 E2=     -0.1224407203D+00
     alpha-beta  T2 =       0.1869506042D+00 E2=     -0.7003062590D+00
     beta-beta   T2 =       0.3406874892D-01 E2=     -0.1224407203D+00
 The integrals were generated   1 times.
 ANorm=    0.1120307146D+01
 E2 =    -0.9451876996D+00 EUMP2 =    -0.28044650912335D+03
 Leave Link  906 at Mon Feb 14 22:13:44 2022, MaxMem= 16106127360 cpu:             249.3 elap:               9.0
 (Enter /sw/contrib/gaussian/g16/B01/g16/l1002.exe)
 Minotr:  Closed shell wavefunction.
          Computing MP2/KS-MP2 derivatives.
          Using Z-Vector for PSCF gradient.
          Skipping F1 and S1 gradient terms here.
          Frozen-core window.
          Direct CPHF calculation.
          Differentiating once with respect to electric field.
                with respect to dipole field.
          Electric field/nuclear overlap derivatives assumed to be zero.
          Using symmetry in CPHF.
          Requested convergence is 1.0D-10 RMS, and 1.0D-09 maximum.
          NewPWx=F KeepS1=T KeepF1=T KeepIn=T MapXYZ=F SortEE=F KeepMc=T.
 Keep R1 ints in memory in symmetry-blocked form, NReq=348888868.
 FoFCou: FMM=F IPFlag=           0 FMFlag=           0 FMFlg1=           0
         NFxFlg=           0 DoJE=F BraDBF=F KetDBF=F FulRan=T
         wScrn=  0.000000 ICntrl=       600 IOpCl=  0 I1Cent=           0 NGrid=           0
         NMat0=    1 NMatS0=  21528 NMatT0=    0 NMatD0=    1 NMtDS0=    0 NMtDT0=    0
 Petite list used in FoFCou.
          MDV=   16106127360 using IRadAn=       5.
          Solving linear equations separately, MaxMat=       0.
          There are     1 degrees of freedom in the 1st order CPHF.  IDoFFX=0 NUNeed=     1.
 LinEq1:  Iter=  0 NonCon=     1 RMS=5.99D-03 Max=1.34D-01 NDo=     1
 AX will form     1 AO Fock derivatives at one time.
 LinEq1:  Iter=  1 NonCon=     1 RMS=1.92D-03 Max=3.85D-02 NDo=     1
 LinEq1:  Iter=  2 NonCon=     1 RMS=8.75D-04 Max=1.41D-02 NDo=     1
 LinEq1:  Iter=  3 NonCon=     1 RMS=3.89D-04 Max=7.83D-03 NDo=     1
 LinEq1:  Iter=  4 NonCon=     1 RMS=1.21D-04 Max=1.96D-03 NDo=     1
 LinEq1:  Iter=  5 NonCon=     1 RMS=4.79D-05 Max=7.64D-04 NDo=     1
 LinEq1:  Iter=  6 NonCon=     1 RMS=2.12D-05 Max=2.39D-04 NDo=     1
 LinEq1:  Iter=  7 NonCon=     1 RMS=8.42D-06 Max=1.58D-04 NDo=     1
 LinEq1:  Iter=  8 NonCon=     1 RMS=3.54D-06 Max=3.46D-05 NDo=     1
 LinEq1:  Iter=  9 NonCon=     1 RMS=9.50D-07 Max=1.32D-05 NDo=     1
 LinEq1:  Iter= 10 NonCon=     1 RMS=1.86D-07 Max=2.01D-06 NDo=     1
 LinEq1:  Iter= 11 NonCon=     1 RMS=3.44D-08 Max=3.50D-07 NDo=     1
 LinEq1:  Iter= 12 NonCon=     1 RMS=8.32D-09 Max=1.23D-07 NDo=     1
 LinEq1:  Iter= 13 NonCon=     1 RMS=1.51D-09 Max=2.58D-08 NDo=     1
 LinEq1:  Iter= 14 NonCon=     1 RMS=2.74D-10 Max=3.83D-09 NDo=     1
 LinEq1:  Iter= 15 NonCon=     0 RMS=4.84D-11 Max=5.61D-10 NDo=     1
 Linear equations converged to 1.000D-10 1.000D-09 after    15 iterations.
 End of Minotr F.D. properties file   721 does not exist.
 End of Minotr F.D. properties file   722 does not exist.
 End of Minotr F.D. properties file   788 does not exist.
 Leave Link 1002 at Mon Feb 14 22:13:48 2022, MaxMem= 16106127360 cpu:              54.0 elap:               4.0
 (Enter /sw/contrib/gaussian/g16/B01/g16/l601.exe)
 Copying SCF densities to generalized density rwf, IOpCl= 0 IROHF=0.

 **********************************************************************

            Population analysis using the MP2 Density.

 **********************************************************************

 Orbital symmetries:
       Occupied  (A') (A') (A') (A') (A') (A') (A') (A') (A') (A')
                 (A") (A') (A") (A') (A") (A')
       Virtual   (A') (A") (A') (A') (A') (A") (A') (A') (A") (A')
                 (A") (A') (A') (A') (A") (A') (A') (A") (A') (A')
                 (A') (A') (A') (A') (A") (A') (A') (A") (A') (A')
                 (A") (A') (A") (A') (A') (A") (A') (A') (A") (A')
                 (A") (A') (A") (A') (A') (A") (A') (A') (A") (A')
                 (A") (A') (A') (A') (A") (A') (A") (A') (A") (A')
                 (A') (A') (A") (A') (A') (A") (A') (A") (A') (A')
                 (A") (A') (A") (A') (A") (A') (A') (A") (A') (A')
                 (A') (A") (A') (A") (A') (A") (A') (A") (A') (A')
                 (A") (A') (A') (A") (A') (A") (A') (A") (A') (A')
                 (A") (A') (A") (A') (A') (A") (A') (A') (A") (A')
                 (A") (A') (A') (A') (A") (A') (A') (A') (A") (A')
                 (A") (A') (A") (A') (A') (A") (A") (A') (A") (A')
                 (A') (A') (A') (A") (A") (A") (A') (A') (A') (A')
                 (A") (A') (A") (A') (A') (A") (A') (A') (A') (A')
                 (A") (A') (A') (A") (A') (A") (A') (A") (A') (A")
                 (A') (A") (A') (A') (A") (A") (A") (A') (A") (A')
                 (A") (A') (A") (A') (A") (A') (A") (A") (A') (A')
                 (A') (A') (A') (A') (A') (A') (A') (A') (A') (A')
                 (A')
 The electronic state is 1-A'.
 Alpha  occ. eigenvalues --  -20.69162 -20.68490 -20.66107 -15.81221  -1.62261
 Alpha  occ. eigenvalues --   -1.49701  -1.25580  -0.94762  -0.77370  -0.75861
 Alpha  occ. eigenvalues --   -0.71147  -0.67982  -0.62113  -0.59091  -0.48604
 Alpha  occ. eigenvalues --   -0.47029
 Alpha virt. eigenvalues --    0.02949   0.07241   0.08559   0.10173   0.13405
 Alpha virt. eigenvalues --    0.13406   0.14402   0.15464   0.17807   0.19424
 Alpha virt. eigenvalues --    0.19974   0.20600   0.22080   0.23370   0.23715
 Alpha virt. eigenvalues --    0.26481   0.29471   0.30445   0.31077   0.34284
 Alpha virt. eigenvalues --    0.35000   0.38660   0.42126   0.43107   0.52569
 Alpha virt. eigenvalues --    0.53065   0.55924   0.58341   0.62698   0.63444
 Alpha virt. eigenvalues --    0.67396   0.68412   0.70908   0.71061   0.72466
 Alpha virt. eigenvalues --    0.72988   0.74645   0.78875   0.79119   0.80942
 Alpha virt. eigenvalues --    0.81206   0.82987   0.86830   0.90710   0.92154
 Alpha virt. eigenvalues --    0.92262   0.95680   0.98072   0.98426   1.01578
 Alpha virt. eigenvalues --    1.05224   1.05458   1.08143   1.11851   1.14013
 Alpha virt. eigenvalues --    1.18854   1.22440   1.23185   1.33800   1.34817
 Alpha virt. eigenvalues --    1.38307   1.45083   1.48812   1.51073   1.53938
 Alpha virt. eigenvalues --    1.56514   1.58020   1.61436   1.66320   1.66730
 Alpha virt. eigenvalues --    1.70485   1.79352   1.83365   1.83371   1.87530
 Alpha virt. eigenvalues --    1.91261   1.95532   1.99028   2.01075   2.07320
 Alpha virt. eigenvalues --    2.11829   2.13400   2.14809   2.22230   2.26003
 Alpha virt. eigenvalues --    2.26330   2.28995   2.31415   2.33922   2.38600
 Alpha virt. eigenvalues --    2.42104   2.42853   2.45758   2.46810   2.47585
 Alpha virt. eigenvalues --    2.50245   2.58980   2.59360   2.61531   2.62794
 Alpha virt. eigenvalues --    2.63505   2.66344   2.76305   2.83573   2.86580
 Alpha virt. eigenvalues --    2.87324   2.89469   2.90350   2.96629   3.02210
 Alpha virt. eigenvalues --    3.07419   3.11502   3.20497   3.23138   3.31325
 Alpha virt. eigenvalues --    3.34741   3.50450   3.65065   3.83862   3.84491
 Alpha virt. eigenvalues --    4.14747   4.15673   4.18260   4.25719   4.35658
 Alpha virt. eigenvalues --    4.39278   4.46333   4.51777   4.66948   4.70873
 Alpha virt. eigenvalues --    4.80875   4.81804   4.82645   4.89461   5.02109
 Alpha virt. eigenvalues --    5.07888   5.09793   5.14160   5.18648   5.24002
 Alpha virt. eigenvalues --    5.26893   5.31296   5.32813   5.35975   5.61057
 Alpha virt. eigenvalues --    5.67348   5.74927   5.82941   5.95823   6.16719
 Alpha virt. eigenvalues --    6.30602   6.34050   6.39352   6.49014   6.50065
 Alpha virt. eigenvalues --    6.61187   6.66746   6.69233   6.75643   6.76092
 Alpha virt. eigenvalues --    6.82379   6.90472   7.01254   7.05439   7.05685
 Alpha virt. eigenvalues --    7.08752   7.12658   7.14625   7.18038   7.22401
 Alpha virt. eigenvalues --    7.24048   7.30681   7.32458   7.34861   7.40048
 Alpha virt. eigenvalues --    7.43306   7.48696   7.60589   7.61382   7.63167
 Alpha virt. eigenvalues --    7.65963   7.77846   7.89646   8.09144   8.31393
 Alpha virt. eigenvalues --    8.40914   8.54552  13.37413  14.41449  15.15163
 Alpha virt. eigenvalues --   16.15057
          Condensed to atoms (all electrons):
               1          2          3          4          5
     1  H    0.589410   0.128880   0.019853   0.012258  -0.000699
     2  O    0.128880   8.316601  -0.170606  -0.092153   0.015119
     3  O    0.019853  -0.170606   8.470058  -0.137190  -0.032575
     4  N    0.012258  -0.092153  -0.137190   6.986040  -0.058667
     5  O   -0.000699   0.015119  -0.032575  -0.058667   8.269453
 Mulliken charges:
               1
     1  H    0.250299
     2  O   -0.197840
     3  O   -0.149540
     4  N    0.289711
     5  O   -0.192630
 Sum of Mulliken charges =  -0.00000
 Mulliken charges with hydrogens summed into heavy atoms:
               1
     2  O    0.052458
     3  O   -0.149540
     4  N    0.289711
     5  O   -0.192630
 Electronic spatial extent (au):  <R**2>=            254.3139
 Charge=             -0.0000 electrons
 Dipole moment (field-independent basis, Debye):
    X=              0.5024    Y=              1.3829    Z=              0.0000  Tot=              1.4714
 Quadrupole moment (field-independent basis, Debye-Ang):
   XX=            -22.4129   YY=            -18.6273   ZZ=            -22.0192
   XY=              3.2989   XZ=              0.0000   YZ=             -0.0000
 Traceless Quadrupole moment (field-independent basis, Debye-Ang):
   XX=             -1.3931   YY=              2.3925   ZZ=             -0.9994
   XY=              3.2989   XZ=              0.0000   YZ=             -0.0000
 Octapole moment (field-independent basis, Debye-Ang**2):
  XXX=              2.9528  YYY=             11.3242  ZZZ=              0.0000  XYY=              7.9614
  XXY=              6.6018  XXZ=              0.0000  XZZ=             -1.5674  YZZ=             -0.8636
  YYZ=              0.0000  XYZ=              0.0000
 Hexadecapole moment (field-independent basis, Debye-Ang**3):
 XXXX=           -158.1963 YYYY=            -91.2242 ZZZZ=            -18.2676 XXXY=            -37.0775
 XXXZ=              0.0000 YYYX=            -31.1193 YYYZ=             -0.0000 ZZZX=              0.0000
 ZZZY=             -0.0000 XXYY=            -33.9691 XXZZ=            -30.8516 YYZZ=            -20.9491
 XXYZ=              0.0000 YYXZ=              0.0000 ZZXY=            -15.2486
 N-N= 1.166620392537D+02 E-N=-8.954174631773D+02  KE= 2.801865544848D+02
 Symmetry A'   KE= 2.662195920985D+02
 Symmetry A"   KE= 1.396696238629D+01
 No NMR shielding tensors so no spin-rotation constants.
 Leave Link  601 at Mon Feb 14 22:13:48 2022, MaxMem= 16106127360 cpu:               4.5 elap:               0.2
 (Enter /sw/contrib/gaussian/g16/B01/g16/l9999.exe)
 1\1\GINC-N2180\SP\RMP2-FC\Aug-CC-pVTZ\H1N1O3\CGAVINH\14-Feb-2022\0\\#p
  SP mp2/aug-cc-pvtz density=current\\title\\0,1\H\O,1,0.96897556\O,2,1
 .45491931,1,97.59494903\N,3,1.45878406,2,102.29752444,1,180.,0\O,4,1.1
 7072885,3,110.82991396,2,180.,0\\Version=ES64L-G16RevB.01\State=1-A'\H
 F=-279.5013214\MP2=-280.4465091\RMSD=3.879e-09\Dipole=-0.1421149,0.,-0
 .5611603\Quadrupole=-1.496853,-0.74304,2.239893,0.,2.1225068,0.\PG=CS 
 [SG(H1N1O3)]\\@


 Not by the face shall a man be known, but by the mask.
                               -- Karen Blixen
 Job cpu time:       0 days  0 hours  6 minutes 28.5 seconds.
 Elapsed time:       0 days  0 hours  0 minutes 17.9 seconds.
 File lengths (MBytes):  RWF=     22 Int=      0 D2E=      0 Chk=      8 Scr=      1
 Normal termination of Gaussian 16 at Mon Feb 14 22:13:48 2022.
