title                                                                   
SP        RMP2-FC                                                     Aug-CC-pVTZ         
Number of atoms                            I                5
Info1-9                                    I   N=           9
          33          24           0           0           0         110
           1           2           1
Full Title                                 C   N=           1
title       
Route                                      C   N=           4
#p SP mp2/aug-cc-pvtz density=current           
Charge                                     I                0
Multiplicity                               I                1
Number of electrons                        I               32
Number of alpha electrons                  I               16
Number of beta electrons                   I               16
Number of basis functions                  I              207
Number of independent functions            I              207
Number of point charges in /Mol/           I                0
Number of translation vectors              I                0
Atomic numbers                             I   N=           5
           1           8           8           7           8
Nuclear charges                            R   N=           5
  1.00000000E+00  8.00000000E+00  8.00000000E+00  7.00000000E+00  8.00000000E+00
Current cartesian coordinates              R   N=          15
  2.91964890E+00  3.22892093E+00 -2.11336829E-30  2.74737881E+00  1.40594411E+00
 -1.45667724E-30  1.10762551E-16  1.30056529E+00 -2.06985573E-31 -4.94414102E-01
 -1.47479117E+00  3.28418325E-31 -2.67972258E+00 -1.81968225E+00  1.55718182E-30
Number of symbols in /Mol/                 I                0
Force Field                                I                0
Atom Types                                 C   N=           5
                                                            
Int Atom Types                             I   N=           5
           0           0           0           0           0
MM charges                                 R   N=           5
  0.00000000E+00  0.00000000E+00  0.00000000E+00  0.00000000E+00  0.00000000E+00
Integer atomic weights                     I   N=           5
           1          16          16          14          16
Real atomic weights                        R   N=           5
  1.00782504E+00  1.59949146E+01  1.59949146E+01  1.40030740E+01  1.59949146E+01
Atom fragment info                         I   N=           5
           0           0           0           0           0
Atom residue num                           I   N=           5
           0           0           0           0           0
Nuclear spins                              I   N=           5
           1           0           0           2           0
Nuclear ZEff                               R   N=           5
 -1.00000000E+00 -5.60000000E+00 -5.60000000E+00 -4.55000000E+00 -5.60000000E+00
Nuclear ZNuc                               R   N=           5
  1.00000000E+00  8.00000000E+00  8.00000000E+00  7.00000000E+00  8.00000000E+00
Nuclear QMom                               R   N=           5
  0.00000000E+00  0.00000000E+00  0.00000000E+00  2.04400000E+00  0.00000000E+00
Nuclear GFac                               R   N=           5
  2.79284600E+00  0.00000000E+00  0.00000000E+00  4.03761000E-01  0.00000000E+00
MicOpt                                     I   N=           5
          -1          -1          -1          -1          -1
Number of residues                         I                0
Number of secondary structures             I                0
SymInf integers                            I   N=          26
           1           2           1           1           1           1
           1          -1           0           0           0           0
           0           0           0           0           0           0
           0           0           0           0           0           0
           0           0
RotTr to input orientation                 R   N=          12
 -9.95564623E-01 -8.63351884E-16 -9.40801897E-02  9.40801897E-02  7.52330296E-16
 -9.95564623E-01  9.30301970E-16 -1.00000000E+00 -6.67769119E-16  2.60292166E+00
  0.00000000E+00  3.48928057E+00
Number of contracted shells                I               65
Number of primitive shells                 I              119
Pure/Cartesian d shells                    I                0
Pure/Cartesian f shells                    I                0
Highest angular momentum                   I                3
Largest degree of contraction              I                7
Shell types                                I   N=          65
           0           0           0           0           1           1
           1          -2          -2           0           0           0
           0           0           1           1           1           1
          -2          -2          -2          -3          -3           0
           0           0           0           0           1           1
           1           1          -2          -2          -2          -3
          -3           0           0           0           0           0
           1           1           1           1          -2          -2
          -2          -3          -3           0           0           0
           0           0           1           1           1           1
          -2          -2          -2          -3          -3
Number of primitives per shell             I   N=          65
           3           1           1           1           1           1
           1           1           1           7           6           1
           1           1           3           1           1           1
           1           1           1           1           1           7
           6           1           1           1           3           1
           1           1           1           1           1           1
           1           7           6           1           1           1
           3           1           1           1           1           1
           1           1           1           7           6           1
           1           1           3           1           1           1
           1           1           1           1           1
Shell to atom map                          I   N=          65
           1           1           1           1           1           1
           1           1           1           2           2           2
           2           2           2           2           2           2
           2           2           2           2           2           3
           3           3           3           3           3           3
           3           3           3           3           3           3
           3           4           4           4           4           4
           4           4           4           4           4           4
           4           4           4           5           5           5
           5           5           5           5           5           5
           5           5           5           5           5
Primitive exponents                        R   N=         119
  3.38700000E+01  5.09500000E+00  1.15900000E+00  3.25800000E-01  1.02700000E-01
  2.52600000E-02  1.40700000E+00  3.88000000E-01  1.02000000E-01  1.05700000E+00
  2.47000000E-01  1.53300000E+04  2.29900000E+03  5.22400000E+02  1.47300000E+02
  4.75500000E+01  1.67600000E+01  6.20700000E+00  5.22400000E+02  1.47300000E+02
  4.75500000E+01  1.67600000E+01  6.20700000E+00  6.88200000E-01  1.75200000E+00
  2.38400000E-01  7.37600000E-02  3.44600000E+01  7.74900000E+00  2.28000000E+00
  7.15600000E-01  2.14000000E-01  5.97400000E-02  2.31400000E+00  6.45000000E-01
  2.14000000E-01  1.42800000E+00  5.00000000E-01  1.53300000E+04  2.29900000E+03
  5.22400000E+02  1.47300000E+02  4.75500000E+01  1.67600000E+01  6.20700000E+00
  5.22400000E+02  1.47300000E+02  4.75500000E+01  1.67600000E+01  6.20700000E+00
  6.88200000E-01  1.75200000E+00  2.38400000E-01  7.37600000E-02  3.44600000E+01
  7.74900000E+00  2.28000000E+00  7.15600000E-01  2.14000000E-01  5.97400000E-02
  2.31400000E+00  6.45000000E-01  2.14000000E-01  1.42800000E+00  5.00000000E-01
  1.14200000E+04  1.71200000E+03  3.89300000E+02  1.10000000E+02  3.55700000E+01
  1.25400000E+01  4.64400000E+00  3.89300000E+02  1.10000000E+02  3.55700000E+01
  1.25400000E+01  4.64400000E+00  5.11800000E-01  1.29300000E+00  1.78700000E-01
  5.76000000E-02  2.66300000E+01  5.94800000E+00  1.74200000E+00  5.55000000E-01
  1.72500000E-01  4.91000000E-02  1.65400000E+00  4.69000000E-01  1.51000000E-01
  1.09300000E+00  3.64000000E-01  1.53300000E+04  2.29900000E+03  5.22400000E+02
  1.47300000E+02  4.75500000E+01  1.67600000E+01  6.20700000E+00  5.22400000E+02
  1.47300000E+02  4.75500000E+01  1.67600000E+01  6.20700000E+00  6.88200000E-01
  1.75200000E+00  2.38400000E-01  7.37600000E-02  3.44600000E+01  7.74900000E+00
  2.28000000E+00  7.15600000E-01  2.14000000E-01  5.97400000E-02  2.31400000E+00
  6.45000000E-01  2.14000000E-01  1.42800000E+00  5.00000000E-01
Contraction coefficients                   R   N=         119
  2.54948632E-02  1.90362766E-01  8.52162022E-01  1.00000000E+00  1.00000000E+00
  1.00000000E+00  1.00000000E+00  1.00000000E+00  1.00000000E+00  1.00000000E+00
  1.00000000E+00  5.19808943E-04  4.02025621E-03  2.07128267E-02  8.10105536E-02
  2.35962985E-01  4.42653446E-01  3.57064423E-01 -4.42115008E-05 -1.22591041E-03
 -1.05517725E-02 -6.74452633E-02 -1.71198607E-01  1.07329856E+00  1.00000000E+00
  1.00000000E+00  1.00000000E+00  4.11634896E-02  2.57762836E-01  8.02419274E-01
  1.00000000E+00  1.00000000E+00  1.00000000E+00  1.00000000E+00  1.00000000E+00
  1.00000000E+00  1.00000000E+00  1.00000000E+00  5.19808943E-04  4.02025621E-03
  2.07128267E-02  8.10105536E-02  2.35962985E-01  4.42653446E-01  3.57064423E-01
 -4.42115008E-05 -1.22591041E-03 -1.05517725E-02 -6.74452633E-02 -1.71198607E-01
  1.07329856E+00  1.00000000E+00  1.00000000E+00  1.00000000E+00  4.11634896E-02
  2.57762836E-01  8.02419274E-01  1.00000000E+00  1.00000000E+00  1.00000000E+00
  1.00000000E+00  1.00000000E+00  1.00000000E+00  1.00000000E+00  1.00000000E+00
  5.34563860E-04  4.13435660E-03  2.12335358E-02  8.25006224E-02  2.38138871E-01
  4.42551547E-01  3.53757422E-01 -4.89867350E-05 -1.19527323E-03 -1.03490714E-02
 -6.48680190E-02 -1.71552477E-01  1.07289568E+00  1.00000000E+00  1.00000000E+00
  1.00000000E+00  3.98072123E-02  2.49002660E-01  8.10479727E-01  1.00000000E+00
  1.00000000E+00  1.00000000E+00  1.00000000E+00  1.00000000E+00  1.00000000E+00
  1.00000000E+00  1.00000000E+00  5.19808943E-04  4.02025621E-03  2.07128267E-02
  8.10105536E-02  2.35962985E-01  4.42653446E-01  3.57064423E-01 -4.42115008E-05
 -1.22591041E-03 -1.05517725E-02 -6.74452633E-02 -1.71198607E-01  1.07329856E+00
  1.00000000E+00  1.00000000E+00  1.00000000E+00  4.11634896E-02  2.57762836E-01
  8.02419274E-01  1.00000000E+00  1.00000000E+00  1.00000000E+00  1.00000000E+00
  1.00000000E+00  1.00000000E+00  1.00000000E+00  1.00000000E+00
Coordinates of each shell                  R   N=         195
  2.91964890E+00  3.22892093E+00 -1.20776846E-30  2.91964890E+00  3.22892093E+00
 -1.20776846E-30  2.91964890E+00  3.22892093E+00 -1.20776846E-30  2.91964890E+00
  3.22892093E+00 -1.20776846E-30  2.91964890E+00  3.22892093E+00 -1.20776846E-30
  2.91964890E+00  3.22892093E+00 -1.20776846E-30  2.91964890E+00  3.22892093E+00
 -1.20776846E-30  2.91964890E+00  3.22892093E+00 -1.20776846E-30  2.91964890E+00
  3.22892093E+00 -1.20776846E-30  2.74737881E+00  1.40594411E+00 -9.76246783E-31
  2.74737881E+00  1.40594411E+00 -9.76246783E-31  2.74737881E+00  1.40594411E+00
 -9.76246783E-31  2.74737881E+00  1.40594411E+00 -9.76246783E-31  2.74737881E+00
  1.40594411E+00 -9.76246783E-31  2.74737881E+00  1.40594411E+00 -9.76246783E-31
  2.74737881E+00  1.40594411E+00 -9.76246783E-31  2.74737881E+00  1.40594411E+00
 -9.76246783E-31  2.74737881E+00  1.40594411E+00 -9.76246783E-31  2.74737881E+00
  1.40594411E+00 -9.76246783E-31  2.74737881E+00  1.40594411E+00 -9.76246783E-31
  2.74737881E+00  1.40594411E+00 -9.76246783E-31  2.74737881E+00  1.40594411E+00
 -9.76246783E-31  2.74737881E+00  1.40594411E+00 -9.76246783E-31 -1.53769326E-17
  1.30056529E+00 -1.27676821E-31 -1.53769326E-17  1.30056529E+00 -1.27676821E-31
 -1.53769326E-17  1.30056529E+00 -1.27676821E-31 -1.53769326E-17  1.30056529E+00
 -1.27676821E-31 -1.53769326E-17  1.30056529E+00 -1.27676821E-31 -1.53769326E-17
  1.30056529E+00 -1.27676821E-31 -1.53769326E-17  1.30056529E+00 -1.27676821E-31
 -1.53769326E-17  1.30056529E+00 -1.27676821E-31 -1.53769326E-17  1.30056529E+00
 -1.27676821E-31 -1.53769326E-17  1.30056529E+00 -1.27676821E-31 -1.53769326E-17
  1.30056529E+00 -1.27676821E-31 -1.53769326E-17  1.30056529E+00 -1.27676821E-31
 -1.53769326E-17  1.30056529E+00 -1.27676821E-31 -1.53769326E-17  1.30056529E+00
 -1.27676821E-31 -4.94414102E-01 -1.47479117E+00  2.95626294E-31 -4.94414102E-01
 -1.47479117E+00  2.95626294E-31 -4.94414102E-01 -1.47479117E+00  2.95626294E-31
 -4.94414102E-01 -1.47479117E+00  2.95626294E-31 -4.94414102E-01 -1.47479117E+00
  2.95626294E-31 -4.94414102E-01 -1.47479117E+00  2.95626294E-31 -4.94414102E-01
 -1.47479117E+00  2.95626294E-31 -4.94414102E-01 -1.47479117E+00  2.95626294E-31
 -4.94414102E-01 -1.47479117E+00  2.95626294E-31 -4.94414102E-01 -1.47479117E+00
  2.95626294E-31 -4.94414102E-01 -1.47479117E+00  2.95626294E-31 -4.94414102E-01
 -1.47479117E+00  2.95626294E-31 -4.94414102E-01 -1.47479117E+00  2.95626294E-31
 -4.94414102E-01 -1.47479117E+00  2.95626294E-31 -2.67972258E+00 -1.81968225E+00
  9.96221655E-31 -2.67972258E+00 -1.81968225E+00  9.96221655E-31 -2.67972258E+00
 -1.81968225E+00  9.96221655E-31 -2.67972258E+00 -1.81968225E+00  9.96221655E-31
 -2.67972258E+00 -1.81968225E+00  9.96221655E-31 -2.67972258E+00 -1.81968225E+00
  9.96221655E-31 -2.67972258E+00 -1.81968225E+00  9.96221655E-31 -2.67972258E+00
 -1.81968225E+00  9.96221655E-31 -2.67972258E+00 -1.81968225E+00  9.96221655E-31
 -2.67972258E+00 -1.81968225E+00  9.96221655E-31 -2.67972258E+00 -1.81968225E+00
  9.96221655E-31 -2.67972258E+00 -1.81968225E+00  9.96221655E-31 -2.67972258E+00
 -1.81968225E+00  9.96221655E-31 -2.67972258E+00 -1.81968225E+00  9.96221655E-31
Num ILSW                                   I              100
ILSW                                       I   N=         100
           0           0           0           0           2           0
           0           0           0           0           0          -1
           5           0           0           0           0           0
           0           0           0           0           0           0
           1           0           0           0           0           0
           0           0      100000           0          -1           0
           0           0           0           0           0           0
           0           0           0           1           0           0
           0 -2000000000           1           0           0           0
           0           0           4          52           0           0
           0           0           0           0           0           0
           0           0           0           5           0           1
           0           0           0           0           0           0
           0           0           0           0           0           0
           0           0           0           0           0           0
           0           0           0           0           0           0
           0           0           0           0
Num RLSW                                   I               52
RLSW                                       R   N=          52
  1.00000000E+00  1.00000000E+00  1.00000000E+00  1.00000000E+00  1.00000000E+00
  0.00000000E+00  0.00000000E+00  1.00000000E+00  0.00000000E+00  0.00000000E+00
  0.00000000E+00  0.00000000E+00  1.00000000E+00  0.00000000E+00  0.00000000E+00
  0.00000000E+00  0.00000000E+00  1.00000000E+00  0.00000000E+00  0.00000000E+00
  0.00000000E+00  0.00000000E+00  1.00000000E+00  0.00000000E+00  0.00000000E+00
  0.00000000E+00  0.00000000E+00  1.00000000E+00  0.00000000E+00  0.00000000E+00
  0.00000000E+00  0.00000000E+00  1.00000000E+00  0.00000000E+00  0.00000000E+00
  0.00000000E+00  0.00000000E+00  0.00000000E+00  1.00000000E+00  1.00000000E+00
  0.00000000E+00  1.00000000E+00  0.00000000E+00  0.00000000E+00  0.00000000E+00
  0.00000000E+00  0.00000000E+00  0.00000000E+00  0.00000000E+00  0.00000000E+00
  0.00000000E+00  0.00000000E+00
MxBond                                     I                2
NBond                                      I   N=           5
           1           2           2           2           1
IBond                                      I   N=          10
           2           0           1           3           2           4
           3           5           4           0
RBond                                      R   N=          10
  1.00000000E+00  0.00000000E+00  1.00000000E+00  1.00000000E+00  1.00000000E+00
  1.00000000E+00  1.00000000E+00  2.00000000E+00  2.00000000E+00  0.00000000E+00
Virial Ratio                               R      2.002524538672674E+00
SCF Energy                                 R     -2.794982456149744E+02
MP2 Energy                                 R     -2.804465193271211E+02
Total Energy                               R     -2.804465193271211E+02
Post-SCF wavefunction norm                 R      1.121633376845956E+00
RMS Density                                R      4.295894064496503E-09
Job Status                                 I                1
Nuclear derivative order                   I                0
External E-field                           R   N=          35
  0.00000000E+00  0.00000000E+00  0.00000000E+00  0.00000000E+00  0.00000000E+00
  0.00000000E+00  0.00000000E+00  0.00000000E+00  0.00000000E+00  0.00000000E+00
  0.00000000E+00  0.00000000E+00  0.00000000E+00  0.00000000E+00  0.00000000E+00
  0.00000000E+00  0.00000000E+00  0.00000000E+00  0.00000000E+00  0.00000000E+00
  0.00000000E+00  0.00000000E+00  0.00000000E+00  0.00000000E+00  0.00000000E+00
  0.00000000E+00  0.00000000E+00  0.00000000E+00  0.00000000E+00  0.00000000E+00
  0.00000000E+00  0.00000000E+00  0.00000000E+00  0.00000000E+00  0.00000000E+00
IOpCl                                      I                0
IROHF                                      I                0
Alpha Orbital Energies                     R   N=         207
 -2.06920659E+01 -2.06853073E+01 -2.06559365E+01 -1.58181730E+01 -1.62311798E+00
 -1.49084427E+00 -1.24460141E+00 -9.50781231E-01 -7.70225796E-01 -7.55603571E-01
 -7.06652310E-01 -6.81014710E-01 -6.21987096E-01 -5.87601899E-01 -4.81656113E-01
 -4.70790631E-01  3.05332514E-02  6.74348284E-02  8.52963488E-02  1.01316406E-01
  1.33753397E-01  1.34161269E-01  1.44771227E-01  1.55182560E-01  1.78977749E-01
  1.93940496E-01  1.99645189E-01  2.01263343E-01  2.21637331E-01  2.36797128E-01
  2.37016225E-01  2.64817655E-01  2.81265095E-01  3.04607594E-01  3.09688653E-01
  3.41003852E-01  3.48659992E-01  3.86961145E-01  4.23179164E-01  4.32805897E-01
  5.25680735E-01  5.27776189E-01  5.54975873E-01  5.79819717E-01  6.23520022E-01
  6.36401422E-01  6.73199014E-01  6.84494674E-01  7.07438609E-01  7.11814218E-01
  7.24508244E-01  7.31731935E-01  7.45940716E-01  7.89520377E-01  7.93243021E-01
  8.09025496E-01  8.15096920E-01  8.29147871E-01  8.65699337E-01  9.08151054E-01
  9.23187161E-01  9.23902975E-01  9.59696599E-01  9.72920857E-01  9.85993206E-01
  1.01929580E+00  1.05068640E+00  1.05306128E+00  1.07945493E+00  1.11511497E+00
  1.13804415E+00  1.18779782E+00  1.21972037E+00  1.23188159E+00  1.33519746E+00
  1.34422997E+00  1.38958694E+00  1.44830818E+00  1.48754126E+00  1.51004837E+00
  1.53581004E+00  1.56287066E+00  1.57379439E+00  1.61159488E+00  1.66131670E+00
  1.66970561E+00  1.70004328E+00  1.79283963E+00  1.82912444E+00  1.82951042E+00
  1.87925467E+00  1.90605692E+00  1.95559814E+00  1.98562294E+00  2.00131087E+00
  2.06776266E+00  2.11701761E+00  2.12746941E+00  2.15389812E+00  2.21802745E+00
  2.26076575E+00  2.26733388E+00  2.28678248E+00  2.31344573E+00  2.33603428E+00
  2.38595477E+00  2.41934038E+00  2.42114488E+00  2.45112926E+00  2.45951319E+00
  2.47093967E+00  2.49640581E+00  2.59246900E+00  2.59421855E+00  2.61305642E+00
  2.62175669E+00  2.63724990E+00  2.66448076E+00  2.75205380E+00  2.80828896E+00
  2.84092715E+00  2.87219595E+00  2.89611202E+00  2.89676069E+00  2.95623373E+00
  3.01350311E+00  3.05426782E+00  3.11308664E+00  3.20563846E+00  3.22420352E+00
  3.31104442E+00  3.33300793E+00  3.51145144E+00  3.63137325E+00  3.82272030E+00
  3.83755559E+00  4.14822055E+00  4.17189493E+00  4.18016014E+00  4.24378185E+00
  4.35197263E+00  4.39279508E+00  4.46571165E+00  4.51482321E+00  4.65010658E+00
  4.70497751E+00  4.79445185E+00  4.80651071E+00  4.83313183E+00  4.89205238E+00
  5.01211768E+00  5.06790451E+00  5.08868274E+00  5.14605408E+00  5.16923888E+00
  5.23472956E+00  5.26010052E+00  5.30157722E+00  5.32803283E+00  5.34154869E+00
  5.59513042E+00  5.66756502E+00  5.74873163E+00  5.83135506E+00  5.94047434E+00
  6.15416894E+00  6.30845697E+00  6.32535564E+00  6.39031712E+00  6.48562763E+00
  6.49852625E+00  6.61252278E+00  6.66927497E+00  6.69043608E+00  6.76275119E+00
  6.76348938E+00  6.82241622E+00  6.88837404E+00  7.00620738E+00  7.05200427E+00
  7.06011995E+00  7.09053352E+00  7.11461054E+00  7.14093063E+00  7.18039316E+00
  7.20815691E+00  7.24358104E+00  7.31356658E+00  7.31993340E+00  7.33717835E+00
  7.38927456E+00  7.41490268E+00  7.47591077E+00  7.59367698E+00  7.60267703E+00
  7.61102160E+00  7.65102124E+00  7.77602913E+00  7.87956096E+00  8.05589247E+00
  8.29916044E+00  8.40839814E+00  8.52916698E+00  1.33304162E+01  1.42251092E+01
  1.51360362E+01  1.60923343E+01
Alpha MO coefficients                      R   N=       42849
  3.70347273E-05 -9.69939887E-04 -4.83054716E-04 -1.34436205E-05 -2.28543400E-05
  1.69878535E-05  0.00000000E+00  5.50325819E-06  2.75379151E-04  0.00000000E+00
 -3.94839196E-05  1.33742046E-04  0.00000000E+00  2.55004819E-05  0.00000000E+00
  0.00000000E+00  1.38424628E-05  9.95945687E-06 -2.36688790E-05  0.00000000E+00
  0.00000000E+00  8.46789507E-06  2.90868804E-05  5.70332855E-05  8.59603619E-05
 -2.87489466E-05  6.97613281E-04  6.20290154E-04  8.87703554E-06  2.19774900E-06
  0.00000000E+00 -6.31452698E-05  2.06882630E-05  0.00000000E+00  3.45268064E-04
  8.50372452E-04  0.00000000E+00  9.61423167E-06  7.62119236E-05  0.00000000E+00
 -2.39036734E-06  0.00000000E+00  0.00000000E+00  4.61974283E-07 -7.14960522E-06
 -3.29554811E-05  0.00000000E+00  0.00000000E+00 -3.01528404E-05  8.73307675E-05
 -1.99544866E-05  0.00000000E+00  0.00000000E+00 -2.65706904E-04 -1.41236051E-04
  0.00000000E+00  8.42874523E-06  5.43138164E-06  0.00000000E+00  0.00000000E+00
  3.97748671E-06 -1.82852936E-05  0.00000000E+00 -4.17278261E-05 -3.54231606E-05
  0.00000000E+00  0.00000000E+00 -7.08418160E-05  1.13948310E-05 -2.41314594E-03
  8.69985107E-05 -1.32850773E-04 -1.10539364E-04 -4.91676334E-04  1.97101498E-06
  2.27289488E-05  0.00000000E+00 -5.94225210E-05 -5.70613110E-05  0.00000000E+00
  2.61058093E-04 -6.06170503E-05  0.00000000E+00 -1.72563754E-04 -4.31299765E-05
  0.00000000E+00 -8.21472708E-06  0.00000000E+00  0.00000000E+00  1.97185258E-05
  1.70136262E-05 -5.34358325E-07  0.00000000E+00  0.00000000E+00 -9.44527904E-05
 -2.94561207E-05  3.69114421E-06  0.00000000E+00  0.00000000E+00 -1.70386930E-04
 -1.82285998E-04  0.00000000E+00  5.87134574E-06  1.75954350E-06  0.00000000E+00
  0.00000000E+00  6.03858021E-06 -1.84242878E-05  0.00000000E+00 -4.97013456E-05
 -3.46961466E-06  0.00000000E+00  0.00000000E+00 -7.44804654E-05  1.83428209E-04
  2.60645633E-04  1.46894690E-03 -8.29922328E-05 -1.42416538E-03  4.44451454E-04
 -1.46699946E-04 -1.42450185E-06  0.00000000E+00 -2.05739989E-03 -3.92813088E-04
  0.00000000E+00  1.01339386E-03  7.84335402E-04  0.00000000E+00 -1.73908186E-04
  5.94764987E-05  0.00000000E+00 -1.23462952E-04  0.00000000E+00  0.00000000E+00
  2.39897601E-04  9.41188059E-05 -4.46208990E-04  0.00000000E+00  0.00000000E+00
  8.95846977E-04 -2.84765383E-05  3.66606622E-06  0.00000000E+00  0.00000000E+00
 -3.32532831E-04 -1.09399353E-04  0.00000000E+00 -2.88988942E-06  1.50249991E-05
  0.00000000E+00  0.00000000E+00  1.69134870E-05  1.37421704E-05  0.00000000E+00
  1.70054601E-04 -6.55101654E-05  0.00000000E+00  0.00000000E+00 -2.53061572E-04
  2.60452807E-05  9.76657348E-01 -9.85497123E-03  4.35499341E-02  4.46102600E-03
 -4.58601767E-04  2.14083840E-03  4.82910527E-04  0.00000000E+00 -2.38037363E-03
 -6.02479228E-04  0.00000000E+00  1.14281842E-03  1.11082527E-05  0.00000000E+00
  2.74415213E-06 -3.89814548E-05  0.00000000E+00 -2.31685020E-04  0.00000000E+00
  0.00000000E+00  1.04906459E-04  3.09537418E-05  3.85290123E-04  0.00000000E+00
  0.00000000E+00 -8.25084592E-04 -4.16014995E-04 -1.57957720E-04  0.00000000E+00
  0.00000000E+00  2.64499171E-04  2.61092206E-05  0.00000000E+00  5.16904726E-05
  1.76099527E-05  0.00000000E+00  0.00000000E+00 -2.26545143E-05 -1.36017737E-05
  0.00000000E+00  1.34641213E-04  9.25013582E-06  0.00000000E+00  0.00000000E+00
 -1.86406812E-04 -1.37977953E-04  9.41096329E-05 -6.92017212E-04 -7.82720513E-04
 -5.24841250E-06 -2.35510940E-05 -2.68038148E-05  0.00000000E+00 -5.24741675E-05
  7.69524468E-05  0.00000000E+00  8.86478088E-05  5.38780117E-05  0.00000000E+00
  3.29872811E-05  0.00000000E+00  0.00000000E+00 -4.81732625E-05  2.26781457E-05
 -4.13569057E-06  0.00000000E+00  0.00000000E+00 -1.41191468E-04  1.17112602E-04
  4.82409148E-03 -2.77816204E-04  2.34921083E-05  1.53520042E-03  1.83343205E-03
  1.06284937E-04  8.42582859E-06  0.00000000E+00 -6.14481167E-04 -3.62125051E-05
  0.00000000E+00 -1.03910308E-03  8.21206465E-04  0.00000000E+00 -3.96442401E-04
  6.72887304E-05  0.00000000E+00  2.86955626E-05  0.00000000E+00  0.00000000E+00
 -5.49082184E-05  4.07273535E-06 -3.79116904E-04  0.00000000E+00  0.00000000E+00
  7.40695030E-04 -1.60605741E-05 -4.48802506E-04  0.00000000E+00  0.00000000E+00
  2.18757801E-04  5.57390908E-07  0.00000000E+00  8.05397050E-05  1.32105852E-05
  0.00000000E+00  0.00000000E+00 -1.09905400E-04 -4.75135938E-06  0.00000000E+00
  2.54463998E-04 -2.67321410E-05  0.00000000E+00  0.00000000E+00 -3.62202144E-04
  3.97022130E-05  9.76929351E-01 -9.19932749E-03  4.32766507E-02  2.29976890E-03
 -8.02342073E-04  1.51594599E-03 -1.27896509E-03  0.00000000E+00 -1.47529314E-03
  1.27181471E-03  0.00000000E+00  1.24713547E-04 -1.24656951E-03  0.00000000E+00
 -1.38171526E-04 -3.23089688E-05  0.00000000E+00  5.48137799E-05  0.00000000E+00
  0.00000000E+00 -2.66515581E-05  1.84858404E-05  7.17964314E-04  0.00000000E+00
  0.00000000E+00 -2.81352439E-04 -3.67547082E-04 -3.83798268E-04  0.00000000E+00
  0.00000000E+00 -3.12148728E-04 -3.61606902E-04  0.00000000E+00  5.04305025E-05
 -4.53771110E-05  0.00000000E+00  0.00000000E+00 -3.71716507E-05 -1.44708455E-05
  0.00000000E+00  1.84534245E-05  3.55491025E-05  0.00000000E+00  0.00000000E+00
 -2.96113229E-04 -1.18344164E-04  2.89347674E-05 -1.51651638E-05 -2.33671837E-04
 -8.06982563E-04 -1.76599773E-04 -2.73547097E-05 -8.93218627E-05  0.00000000E+00
  2.36958405E-04  5.55107192E-04  0.00000000E+00 -8.59828429E-04 -6.45685476E-04
  0.00000000E+00 -1.28177540E-04 -4.36987667E-05  0.00000000E+00 -6.39783461E-06
  0.00000000E+00  0.00000000E+00 -5.31071301E-06  9.00973673E-06 -2.94970456E-04
  0.00000000E+00  0.00000000E+00 -7.62291468E-04  1.15455861E-04 -2.15218293E-05
  0.00000000E+00  0.00000000E+00  1.14741571E-04 -1.02586787E-04  0.00000000E+00
 -1.93859486E-05 -1.13561772E-04  0.00000000E+00  0.00000000E+00 -5.44193103E-05
 -1.33720168E-04  0.00000000E+00  1.32588558E-05 -1.39440177E-04  0.00000000E+00
  0.00000000E+00  7.18009786E-05 -4.26722498E-04  2.45259862E-03  7.99285676E-05
  9.84947460E-05 -2.64723886E-04  8.90765958E-05  3.93181742E-06 -2.88487698E-05
  0.00000000E+00  5.25370139E-05  1.76418857E-04  0.00000000E+00  2.00405028E-04
  2.49032292E-04  0.00000000E+00  1.12990856E-04  2.22436868E-05  0.00000000E+00
 -5.83734576E-06  0.00000000E+00  0.00000000E+00 -1.64824282E-05  3.38803860E-07
  7.02550747E-06  0.00000000E+00  0.00000000E+00  6.60259547E-05  1.01883605E-04
 -9.37038233E-05  0.00000000E+00  0.00000000E+00  1.56614562E-04  1.79579764E-04
  0.00000000E+00  1.48881011E-05 -5.81725709E-06  0.00000000E+00  0.00000000E+00
 -8.46200185E-06 -9.65338361E-06  0.00000000E+00 -2.69248318E-05  4.83614458E-05
  0.00000000E+00  0.00000000E+00  8.19521368E-05  9.48301763E-05  4.75418686E-04
  2.00933256E-03  7.58311205E-05  1.30314668E-05 -4.11181550E-05 -2.45483291E-04
  0.00000000E+00  1.19577407E-04 -1.25680630E-03  0.00000000E+00  3.08730949E-04
 -3.22520434E-04  0.00000000E+00 -1.28736037E-06  0.00000000E+00  0.00000000E+00
  7.68862583E-05  1.57367874E-05 -1.59301218E-04  0.00000000E+00  0.00000000E+00
 -5.36749606E-04 -2.79701672E-05  9.76829216E-01 -9.15728036E-03  4.34484983E-02
  2.00333370E-04 -1.08905568E-03 -1.56302756E-03  1.43161017E-03  0.00000000E+00
  1.57304127E-03 -1.27098100E-03  0.00000000E+00 -5.56787004E-04 -8.22963847E-04
  0.00000000E+00  5.42181477E-05 -2.06013346E-05  0.00000000E+00  2.92795747E-05
  0.00000000E+00  0.00000000E+00 -1.16991401E-04 -4.50522216E-06  7.52838159E-04
  0.00000000E+00  0.00000000E+00 -1.98471925E-04 -2.35614081E-04 -2.72550243E-04
  0.00000000E+00  0.00000000E+00  1.64356746E-04  1.26940642E-04  0.00000000E+00
 -6.40964300E-05  1.00264104E-06  0.00000000E+00  0.00000000E+00  1.89581926E-05
  1.03056930E-05  0.00000000E+00  1.11266535E-08  1.21005315E-04  0.00000000E+00
  0.00000000E+00  2.50524070E-04  9.21747474E-05 -4.91280389E-03 -1.96542174E-04