title                                                                   
SP        RMP2-FC                                                     Aug-CC-pVTZ         
Number of atoms                            I                4
Info1-9                                    I   N=           9
          29          20           0           0           0         110
           1           2           1
Full Title                                 C   N=           1
title       
Route                                      C   N=           4
#p SP mp2/aug-cc-pvtz density=current           
Charge                                     I                0
Multiplicity                               I                1
Number of electrons                        I               24
Number of alpha electrons                  I               12
Number of beta electrons                   I               12
Number of basis functions                  I              161
Number of independent functions            I              161
Number of point charges in /Mol/           I                0
Number of translation vectors              I                0
Atomic numbers                             I   N=           4
           1           8           7           8
Nuclear charges                            R   N=           4
  1.00000000E+00  8.00000000E+00  7.00000000E+00  8.00000000E+00
Current cartesian coordinates              R   N=          12
  3.33136481E+00 -2.96719242E-01  7.17829452E-32  1.69869810E+00 -1.13112608E+00
  4.39218913E-32 -7.00199638E-17  9.89347858E-01  1.65013460E-32 -2.11511870E+00
  3.02536613E-01  4.49980728E-32
Number of symbols in /Mol/                 I                0
Force Field                                I                0
Atom Types                                 C   N=           4
                                                
Int Atom Types                             I   N=           4
           0           0           0           0
MM charges                                 R   N=           4
  0.00000000E+00  0.00000000E+00  0.00000000E+00  0.00000000E+00
Integer atomic weights                     I   N=           4
           1          16          14          16
Real atomic weights                        R   N=           4
  1.00782504E+00  1.59949146E+01  1.40030740E+01  1.59949146E+01
Atom fragment info                         I   N=           4
           0           0           0           0
Atom residue num                           I   N=           4
           0           0           0           0
Nuclear spins                              I   N=           4
           1           0           2           0
Nuclear ZEff                               R   N=           4
 -1.00000000E+00 -5.60000000E+00 -4.55000000E+00 -5.60000000E+00
Nuclear ZNuc                               R   N=           4
  1.00000000E+00  8.00000000E+00  7.00000000E+00  8.00000000E+00
Nuclear QMom                               R   N=           4
  0.00000000E+00  0.00000000E+00  2.04400000E+00  0.00000000E+00
Nuclear GFac                               R   N=           4
  2.79284600E+00  0.00000000E+00  4.03761000E-01  0.00000000E+00
MicOpt                                     I   N=           4
          -1          -1          -1          -1
Number of residues                         I                0
Number of secondary structures             I                0
SymInf integers                            I   N=          26
           1           2           1           1           1           1
           1          -1           0           0           0           0
           0           0           0           0           0           0
           0           0           0           0           0           0
           0           0
RotTr to input orientation                 R   N=          12
 -4.55081976E-01 -1.15251487E-16 -8.90449547E-01  8.90449547E-01  4.14088478E-17
 -4.55081976E-01  8.93213640E-17 -1.00000000E+00  8.37812136E-17  1.78025759E+00
  0.00000000E+00  2.83138070E+00
Number of contracted shells                I               51
Number of primitive shells                 I               92
Pure/Cartesian d shells                    I                0
Pure/Cartesian f shells                    I                0
Highest angular momentum                   I                3
Largest degree of contraction              I                7
Shell types                                I   N=          51
           0           0           0           0           1           1
           1          -2          -2           0           0           0
           0           0           1           1           1           1
          -2          -2          -2          -3          -3           0
           0           0           0           0           1           1
           1           1          -2          -2          -2          -3
          -3           0           0           0           0           0
           1           1           1           1          -2          -2
          -2          -3          -3
Number of primitives per shell             I   N=          51
           3           1           1           1           1           1
           1           1           1           7           6           1
           1           1           3           1           1           1
           1           1           1           1           1           7
           6           1           1           1           3           1
           1           1           1           1           1           1
           1           7           6           1           1           1
           3           1           1           1           1           1
           1           1           1
Shell to atom map                          I   N=          51
           1           1           1           1           1           1
           1           1           1           2           2           2
           2           2           2           2           2           2
           2           2           2           2           2           3
           3           3           3           3           3           3
           3           3           3           3           3           3
           3           4           4           4           4           4
           4           4           4           4           4           4
           4           4           4
Primitive exponents                        R   N=          92
  3.38700000E+01  5.09500000E+00  1.15900000E+00  3.25800000E-01  1.02700000E-01
  2.52600000E-02  1.40700000E+00  3.88000000E-01  1.02000000E-01  1.05700000E+00
  2.47000000E-01  1.53300000E+04  2.29900000E+03  5.22400000E+02  1.47300000E+02
  4.75500000E+01  1.67600000E+01  6.20700000E+00  5.22400000E+02  1.47300000E+02
  4.75500000E+01  1.67600000E+01  6.20700000E+00  6.88200000E-01  1.75200000E+00
  2.38400000E-01  7.37600000E-02  3.44600000E+01  7.74900000E+00  2.28000000E+00
  7.15600000E-01  2.14000000E-01  5.97400000E-02  2.31400000E+00  6.45000000E-01
  2.14000000E-01  1.42800000E+00  5.00000000E-01  1.14200000E+04  1.71200000E+03
  3.89300000E+02  1.10000000E+02  3.55700000E+01  1.25400000E+01  4.64400000E+00
  3.89300000E+02  1.10000000E+02  3.55700000E+01  1.25400000E+01  4.64400000E+00
  5.11800000E-01  1.29300000E+00  1.78700000E-01  5.76000000E-02  2.66300000E+01
  5.94800000E+00  1.74200000E+00  5.55000000E-01  1.72500000E-01  4.91000000E-02
  1.65400000E+00  4.69000000E-01  1.51000000E-01  1.09300000E+00  3.64000000E-01
  1.53300000E+04  2.29900000E+03  5.22400000E+02  1.47300000E+02  4.75500000E+01
  1.67600000E+01  6.20700000E+00  5.22400000E+02  1.47300000E+02  4.75500000E+01
  1.67600000E+01  6.20700000E+00  6.88200000E-01  1.75200000E+00  2.38400000E-01
  7.37600000E-02  3.44600000E+01  7.74900000E+00  2.28000000E+00  7.15600000E-01
  2.14000000E-01  5.97400000E-02  2.31400000E+00  6.45000000E-01  2.14000000E-01
  1.42800000E+00  5.00000000E-01
Contraction coefficients                   R   N=          92
  2.54948632E-02  1.90362766E-01  8.52162022E-01  1.00000000E+00  1.00000000E+00
  1.00000000E+00  1.00000000E+00  1.00000000E+00  1.00000000E+00  1.00000000E+00
  1.00000000E+00  5.19808943E-04  4.02025621E-03  2.07128267E-02  8.10105536E-02
  2.35962985E-01  4.42653446E-01  3.57064423E-01 -4.42115008E-05 -1.22591041E-03
 -1.05517725E-02 -6.74452633E-02 -1.71198607E-01  1.07329856E+00  1.00000000E+00
  1.00000000E+00  1.00000000E+00  4.11634896E-02  2.57762836E-01  8.02419274E-01
  1.00000000E+00  1.00000000E+00  1.00000000E+00  1.00000000E+00  1.00000000E+00
  1.00000000E+00  1.00000000E+00  1.00000000E+00  5.34563860E-04  4.13435660E-03
  2.12335358E-02  8.25006224E-02  2.38138871E-01  4.42551547E-01  3.53757422E-01
 -4.89867350E-05 -1.19527323E-03 -1.03490714E-02 -6.48680190E-02 -1.71552477E-01
  1.07289568E+00  1.00000000E+00  1.00000000E+00  1.00000000E+00  3.98072123E-02
  2.49002660E-01  8.10479727E-01  1.00000000E+00  1.00000000E+00  1.00000000E+00
  1.00000000E+00  1.00000000E+00  1.00000000E+00  1.00000000E+00  1.00000000E+00
  5.19808943E-04  4.02025621E-03  2.07128267E-02  8.10105536E-02  2.35962985E-01
  4.42653446E-01  3.57064423E-01 -4.42115008E-05 -1.22591041E-03 -1.05517725E-02
 -6.74452633E-02 -1.71198607E-01  1.07329856E+00  1.00000000E+00  1.00000000E+00
  1.00000000E+00  4.11634896E-02  2.57762836E-01  8.02419274E-01  1.00000000E+00
  1.00000000E+00  1.00000000E+00  1.00000000E+00  1.00000000E+00  1.00000000E+00
  1.00000000E+00  1.00000000E+00
Coordinates of each shell                  R   N=         153
  3.33136481E+00 -2.96719242E-01  3.48994616E-32  3.33136481E+00 -2.96719242E-01
  3.48994616E-32  3.33136481E+00 -2.96719242E-01  3.48994616E-32  3.33136481E+00
 -2.96719242E-01  3.48994616E-32  3.33136481E+00 -2.96719242E-01  3.48994616E-32
  3.33136481E+00 -2.96719242E-01  3.48994616E-32  3.33136481E+00 -2.96719242E-01
  3.48994616E-32  3.33136481E+00 -2.96719242E-01  3.48994616E-32  3.33136481E+00
 -2.96719242E-01  3.48994616E-32  1.69869810E+00 -1.13112608E+00  1.22994491E-32
  1.69869810E+00 -1.13112608E+00  1.22994491E-32  1.69869810E+00 -1.13112608E+00
  1.22994491E-32  1.69869810E+00 -1.13112608E+00  1.22994491E-32  1.69869810E+00
 -1.13112608E+00  1.22994491E-32  1.69869810E+00 -1.13112608E+00  1.22994491E-32
  1.69869810E+00 -1.13112608E+00  1.22994491E-32  1.69869810E+00 -1.13112608E+00
  1.22994491E-32  1.69869810E+00 -1.13112608E+00  1.22994491E-32  1.69869810E+00
 -1.13112608E+00  1.22994491E-32  1.69869810E+00 -1.13112608E+00  1.22994491E-32
  1.69869810E+00 -1.13112608E+00  1.22994491E-32  1.69869810E+00 -1.13112608E+00
  1.22994491E-32  1.69869810E+00 -1.13112608E+00  1.22994491E-32 -7.69228324E-17
  9.89347858E-01  5.54956718E-33 -7.69228324E-17  9.89347858E-01  5.54956718E-33
 -7.69228324E-17  9.89347858E-01  5.54956718E-33 -7.69228324E-17  9.89347858E-01
  5.54956718E-33 -7.69228324E-17  9.89347858E-01  5.54956718E-33 -7.69228324E-17
  9.89347858E-01  5.54956718E-33 -7.69228324E-17  9.89347858E-01  5.54956718E-33
 -7.69228324E-17  9.89347858E-01  5.54956718E-33 -7.69228324E-17  9.89347858E-01
  5.54956718E-33 -7.69228324E-17  9.89347858E-01  5.54956718E-33 -7.69228324E-17
  9.89347858E-01  5.54956718E-33 -7.69228324E-17  9.89347858E-01  5.54956718E-33
 -7.69228324E-17  9.89347858E-01  5.54956718E-33 -7.69228324E-17  9.89347858E-01
  5.54956718E-33 -2.11511870E+00  3.02536613E-01 -2.15177531E-32 -2.11511870E+00
  3.02536613E-01 -2.15177531E-32 -2.11511870E+00  3.02536613E-01 -2.15177531E-32
 -2.11511870E+00  3.02536613E-01 -2.15177531E-32 -2.11511870E+00  3.02536613E-01
 -2.15177531E-32 -2.11511870E+00  3.02536613E-01 -2.15177531E-32 -2.11511870E+00
  3.02536613E-01 -2.15177531E-32 -2.11511870E+00  3.02536613E-01 -2.15177531E-32
 -2.11511870E+00  3.02536613E-01 -2.15177531E-32 -2.11511870E+00  3.02536613E-01
 -2.15177531E-32 -2.11511870E+00  3.02536613E-01 -2.15177531E-32 -2.11511870E+00
  3.02536613E-01 -2.15177531E-32 -2.11511870E+00  3.02536613E-01 -2.15177531E-32
 -2.11511870E+00  3.02536613E-01 -2.15177531E-32
Num ILSW                                   I              100
ILSW                                       I   N=         100
           0           0           0           0           2           0
           0           0           0           0           0          -1
           5           0           0           0           0           0
           0           0           0           0           0           0
           1           0           0           0           0           0
           0           0      100000           0          -1           0
           0           0           0           0           0           0
           0           0           0           1           0           0
           0 -2000000000           1           0           0           0
           0           0           4          52           0           0
           0           0           0           0           0           0
           0           0           0           4           0           1
           0           0           0           0           0           0
           0           0           0           0           0           0
           0           0           0           0           0           0
           0           0           0           0           0           0
           0           0           0           0
Num RLSW                                   I               52
RLSW                                       R   N=          52
  1.00000000E+00  1.00000000E+00  1.00000000E+00  1.00000000E+00  1.00000000E+00
  0.00000000E+00  0.00000000E+00  1.00000000E+00  0.00000000E+00  0.00000000E+00
  0.00000000E+00  0.00000000E+00  1.00000000E+00  0.00000000E+00  0.00000000E+00
  0.00000000E+00  0.00000000E+00  1.00000000E+00  0.00000000E+00  0.00000000E+00
  0.00000000E+00  0.00000000E+00  1.00000000E+00  0.00000000E+00  0.00000000E+00
  0.00000000E+00  0.00000000E+00  1.00000000E+00  0.00000000E+00  0.00000000E+00
  0.00000000E+00  0.00000000E+00  1.00000000E+00  0.00000000E+00  0.00000000E+00
  0.00000000E+00  0.00000000E+00  0.00000000E+00  1.00000000E+00  1.00000000E+00
  0.00000000E+00  1.00000000E+00  0.00000000E+00  0.00000000E+00  0.00000000E+00
  0.00000000E+00  0.00000000E+00  0.00000000E+00  0.00000000E+00  0.00000000E+00
  0.00000000E+00  0.00000000E+00
MxBond                                     I                2
NBond                                      I   N=           4
           1           2           2           1
IBond                                      I   N=           8
           2           0           1           3           2           4
           3           0
RBond                                      R   N=           8
  1.00000000E+00  0.00000000E+00  1.00000000E+00  1.00000000E+00  1.00000000E+00
  2.00000000E+00  2.00000000E+00  0.00000000E+00
Virial Ratio                               R      2.002449013257729E+00
SCF Energy                                 R     -2.047224463063084E+02
MP2 Energy                                 R     -2.054213248247495E+02
Total Energy                               R     -2.054213248247495E+02
Post-SCF wavefunction norm                 R      1.090424737022613E+00
RMS Density                                R      5.794010752792107E-09
Job Status                                 I                1
Nuclear derivative order                   I                0
External E-field                           R   N=          35
  0.00000000E+00  0.00000000E+00  0.00000000E+00  0.00000000E+00  0.00000000E+00
  0.00000000E+00  0.00000000E+00  0.00000000E+00  0.00000000E+00  0.00000000E+00
  0.00000000E+00  0.00000000E+00  0.00000000E+00  0.00000000E+00  0.00000000E+00
  0.00000000E+00  0.00000000E+00  0.00000000E+00  0.00000000E+00  0.00000000E+00
  0.00000000E+00  0.00000000E+00  0.00000000E+00  0.00000000E+00  0.00000000E+00
  0.00000000E+00  0.00000000E+00  0.00000000E+00  0.00000000E+00  0.00000000E+00
  0.00000000E+00  0.00000000E+00  0.00000000E+00  0.00000000E+00  0.00000000E+00
IOpCl                                      I                0
IROHF                                      I                0
Alpha Orbital Energies                     R   N=         161
 -2.06676464E+01 -2.06407707E+01 -1.58002114E+01 -1.60224666E+00 -1.39952589E+00
 -9.48800830E-01 -7.82284519E-01 -7.29238770E-01 -6.80296965E-01 -6.26110319E-01
 -5.28531976E-01 -4.61580954E-01  2.82323997E-02  7.92049150E-02  9.36891634E-02
  9.75205184E-02  1.28986074E-01  1.44027548E-01  1.56769414E-01  1.72306065E-01
  1.87421311E-01  1.96510443E-01  2.05260449E-01  2.32957081E-01  2.57833553E-01
  2.96564823E-01  3.03541595E-01  3.29408330E-01  3.64771530E-01  3.81684168E-01
  4.24205986E-01  5.24685302E-01  5.25894514E-01  5.47021119E-01  5.73059044E-01
  6.12458243E-01  6.30713551E-01  6.48069280E-01  6.80148815E-01  7.14596773E-01
  7.17525392E-01  7.48212125E-01  7.74340004E-01  7.82951817E-01  8.10889796E-01
  8.11377479E-01  8.59968320E-01  8.78461487E-01  9.25677669E-01  9.39154020E-01
  9.45969054E-01  9.95722307E-01  1.04886694E+00  1.06193018E+00  1.08025498E+00
  1.10457241E+00  1.16043018E+00  1.19493366E+00  1.25202992E+00  1.26739466E+00
  1.36280406E+00  1.43299295E+00  1.48922430E+00  1.52272380E+00  1.52334511E+00
  1.54315791E+00  1.55337235E+00  1.60850307E+00  1.65734829E+00  1.72756735E+00
  1.75328274E+00  1.82030020E+00  1.85356927E+00  1.96152731E+00  1.97438574E+00
  1.99663186E+00  2.07199280E+00  2.13209885E+00  2.13251583E+00  2.18599889E+00
  2.26932126E+00  2.30770830E+00  2.32633626E+00  2.38208052E+00  2.44891977E+00
  2.46895294E+00  2.49832751E+00  2.50175633E+00  2.51928210E+00  2.54291123E+00
  2.56799393E+00  2.60676092E+00  2.60683224E+00  2.66000132E+00  2.76980465E+00
  2.77656556E+00  2.83490201E+00  2.93450186E+00  2.93933773E+00  3.11155116E+00
  3.14216774E+00  3.18381627E+00  3.24300250E+00  3.45613727E+00  3.82920822E+00
  3.84989017E+00  4.02790315E+00  4.17026303E+00  4.18085913E+00  4.20990301E+00
  4.36225674E+00  4.37105109E+00  4.57802608E+00  4.63044957E+00  4.74830828E+00
  4.80888372E+00  4.87126391E+00  4.88711184E+00  4.98037863E+00  4.99971122E+00
  5.07204155E+00  5.08709689E+00  5.16665571E+00  5.24584651E+00  5.25583931E+00
  5.33114931E+00  5.36357645E+00  5.36613274E+00  5.57464880E+00  5.66630386E+00
  5.79439313E+00  5.99112759E+00  6.10902018E+00  6.42757909E+00  6.50445304E+00
  6.50813093E+00  6.67279840E+00  6.71362955E+00  6.74520303E+00  6.84266944E+00
  6.91151296E+00  7.06402588E+00  7.11726736E+00  7.18072688E+00  7.22775323E+00
  7.25490457E+00  7.25871879E+00  7.32903791E+00  7.38036706E+00  7.42741063E+00
  7.47653006E+00  7.60029607E+00  7.64487527E+00  7.69184934E+00  7.77945899E+00
  7.96466828E+00  8.05966922E+00  8.42066838E+00  1.41650292E+01  1.50795262E+01
  1.59490957E+01
Alpha MO coefficients                      R   N=       25921
  5.56808382E-05  1.87356650E-04 -3.85773678E-04  2.74498208E-06 -5.41099741E-05
  1.10754222E-05  0.00000000E+00  4.22651285E-05  6.56037903E-05  0.00000000E+00
  2.64400267E-04  1.82587203E-05  0.00000000E+00  2.07204869E-05  0.00000000E+00
  0.00000000E+00  1.41541365E-05  6.18517247E-06  5.20043011E-05  0.00000000E+00
  0.00000000E+00 -2.91992604E-05  1.71738188E-05 -6.75100383E-04  7.85005759E-05
 -5.51389502E-05 -1.04023814E-04  2.08846267E-04  1.87976108E-05 -1.66108306E-05
  0.00000000E+00 -8.75717372E-05  4.16168815E-05  0.00000000E+00 -1.24650543E-04
  1.43048533E-05  0.00000000E+00 -1.10609310E-04  4.94606423E-05  0.00000000E+00
 -8.67503180E-06  0.00000000E+00  0.00000000E+00  2.61339607E-05  1.01733739E-05
  1.86704477E-06  0.00000000E+00  0.00000000E+00 -8.95846495E-05 -1.18191809E-04
 -1.33213074E-05  0.00000000E+00  0.00000000E+00 -6.59641468E-05 -2.28652415E-04
  0.00000000E+00  4.87345649E-06  1.77653121E-06  0.00000000E+00  0.00000000E+00
 -9.44378331E-06 -1.26903585E-05  0.00000000E+00 -2.19375376E-05 -1.63030681E-05
  0.00000000E+00  0.00000000E+00  1.91091040E-04 -5.18874388E-05  2.50182349E-04
  1.42185880E-03 -1.03225833E-04 -1.49446151E-03  3.96883791E-04 -1.14009713E-04
 -6.39697439E-05  0.00000000E+00 -2.03495614E-03 -5.53151838E-04  0.00000000E+00
  1.13616236E-03 -7.56345976E-05  0.00000000E+00 -1.15224205E-04 -9.33638685E-05
  0.00000000E+00 -1.25483376E-04  0.00000000E+00  0.00000000E+00  2.14160670E-04
  1.42391273E-04 -4.40452596E-04  0.00000000E+00  0.00000000E+00  5.65735724E-04
  7.79068831E-04 -4.82016817E-06  0.00000000E+00  0.00000000E+00 -1.55002478E-04
 -1.53531017E-04  0.00000000E+00  1.20762730E-05 -1.28005946E-05  0.00000000E+00
  0.00000000E+00  1.59759806E-05  1.38050875E-05  0.00000000E+00  1.46120823E-04
  1.26996380E-04  0.00000000E+00  0.00000000E+00 -3.10431911E-05 -2.94035179E-04
  9.76653121E-01 -9.86685331E-03  4.35577483E-02  4.26610183E-03 -5.33949939E-04
  2.10976643E-03  5.56504166E-04  0.00000000E+00 -2.41383686E-03 -5.76835108E-04
  0.00000000E+00  9.95439464E-04  5.37352795E-04  0.00000000E+00 -5.10147214E-05
  2.78249973E-05  0.00000000E+00 -2.29153144E-04  0.00000000E+00  0.00000000E+00
  7.71741435E-05  5.58936722E-05  3.85899531E-04  0.00000000E+00  0.00000000E+00
 -8.28138868E-04 -4.34220997E-04 -1.61091736E-04  0.00000000E+00  0.00000000E+00
  1.84254616E-04  2.45190528E-04  0.00000000E+00  5.51794470E-05  1.04852392E-05
  0.00000000E+00  0.00000000E+00 -1.76756634E-05 -2.43132533E-05  0.00000000E+00
  1.23350685E-04  4.57561487E-05  0.00000000E+00  0.00000000E+00 -1.60770338E-04
 -1.50863358E-04  4.74895132E-04  2.47808423E-03  3.45330246E-04 -5.58630925E-06
 -2.26961221E-04 -1.06399098E-04  0.00000000E+00 -1.00295270E-03 -8.68512200E-04
  0.00000000E+00 -9.71700470E-05 -4.22596202E-04  0.00000000E+00  1.14096631E-05
  0.00000000E+00  0.00000000E+00 -4.62077549E-05 -5.28011018E-05 -1.57125833E-04
  0.00000000E+00  0.00000000E+00  1.73622018E-04  4.15560543E-04  9.76762270E-01
 -9.24569545E-03  4.35405693E-02  8.82555745E-04 -8.67966434E-04  4.35637450E-04
  1.82619116E-03  0.00000000E+00 -2.47423310E-04 -1.81416653E-03  0.00000000E+00
 -1.52039608E-03  3.61815295E-04  0.00000000E+00 -6.01607446E-05  3.67986946E-05
  0.00000000E+00 -3.95164075E-05  0.00000000E+00  0.00000000E+00  3.78089194E-05
  4.91410572E-05  6.43475624E-04  0.00000000E+00  0.00000000E+00 -3.09246861E-04
  2.33156381E-04 -9.70400285E-05  0.00000000E+00  0.00000000E+00 -2.87975425E-04
 -3.82846762E-04  0.00000000E+00 -2.91317930E-05  4.55033897E-05  0.00000000E+00
  0.00000000E+00 -1.28922257E-05 -4.02153960E-06  0.00000000E+00  9.45933908E-05
  4.88950797E-05  0.00000000E+00  0.00000000E+00 -2.18976044E-04 -2.24929389E-04
  5.51791308E-05  1.33264071E-04 -3.12695840E-04 -3.95473068E-04  8.50574599E-04
 -8.27857131E-05  7.76082956E-05  0.00000000E+00  6.69781016E-04 -6.16260652E-04
  0.00000000E+00 -4.50034898E-04  5.87210564E-04  0.00000000E+00  1.53932546E-04
 -1.71111505E-04  0.00000000E+00 -3.02588360E-05  0.00000000E+00  0.00000000E+00
 -3.27824535E-05 -4.05769224E-05 -3.91043590E-04  0.00000000E+00  0.00000000E+00
 -1.63338689E-04 -9.16520037E-04 -1.84241393E-04  0.00000000E+00  0.00000000E+00
  5.60110355E-04 -6.36967234E-05  0.00000000E+00 -8.59226698E-05  9.88261790E-05
  0.00000000E+00  0.00000000E+00 -1.49514578E-04 -5.45000889E-05  0.00000000E+00
 -5.00984657E-05  1.17940285E-04  0.00000000E+00  0.00000000E+00 -4.29925305E-04
  3.23598441E-05  7.09570766E-04  4.91149583E-05  1.48231304E-05 -3.04731412E-04
 -2.03865669E-04 -1.55354538E-05  2.36323005E-05  0.00000000E+00  1.10591784E-04
 -1.33820533E-04  0.00000000E+00  4.10951605E-04 -4.58243099E-04  0.00000000E+00
 -8.88452932E-06  3.08554306E-07  0.00000000E+00 -5.42149725E-06  0.00000000E+00
  0.00000000E+00 -1.34144784E-05 -1.00913431E-05  2.22141123E-06  0.00000000E+00
  0.00000000E+00  1.42255839E-04 -4.23455814E-05 -6.47519378E-05  0.00000000E+00
  0.00000000E+00  2.63488696E-04 -2.92573601E-05  0.00000000E+00  2.45227676E-06
  1.07310860E-05  0.00000000E+00  0.00000000E+00 -1.24649390E-05 -1.15189923E-05
  0.00000000E+00  1.37081153E-05 -5.11884514E-05  0.00000000E+00  0.00000000E+00
  1.19836622E-04  7.14223277E-05 -7.04593602E-05 -4.93186533E-04 -3.27187965E-04
  2.05554669E-04  3.20800937E-05  3.52968452E-05  0.00000000E+00  4.74227634E-04
 -3.23681603E-04  0.00000000E+00  3.08328910E-04 -3.17806789E-04  0.00000000E+00
 -1.05765030E-05  0.00000000E+00  0.00000000E+00 -3.67450434E-05  2.87356640E-05
  1.14623230E-04  0.00000000E+00  0.00000000E+00 -3.05148472E-05  1.71468503E-04
 -1.27130303E-04 -2.40078130E-04 -2.07054907E-04  4.87646870E-03  3.21112049E-03
  1.07243981E-05 -4.42745774E-05  0.00000000E+00 -4.91385651E-04  8.31531866E-04
  0.00000000E+00 -2.34734546E-03  3.07700506E-03  0.00000000E+00 -8.16873344E-04
  5.66397776E-04  0.00000000E+00  3.16139863E-06  0.00000000E+00  0.00000000E+00
 -2.90816465E-05 -3.68478524E-05 -4.47109403E-04  0.00000000E+00  0.00000000E+00
 -5.09576289E-05 -5.30622453E-04 -6.10398004E-04  0.00000000E+00  0.00000000E+00
 -3.17986365E-04 -9.46907629E-04  0.00000000E+00  1.97553340E-05 -2.29202222E-05
  0.00000000E+00  0.00000000E+00  4.25147102E-05  3.25258706E-05  0.00000000E+00
  9.81241373E-05 -1.51731986E-04  0.00000000E+00  0.00000000E+00  4.57755611E-05
  2.25715359E-04  9.78290849E-01 -8.40574119E-03  4.17682221E-02 -5.47383980E-03
 -3.04443559E-03 -1.13782747E-03 -3.01882542E-03  0.00000000E+00 -4.60649371E-05
  2.96837938E-03  0.00000000E+00  4.83977493E-04  3.03312194E-03  0.00000000E+00
 -3.10710505E-05  5.41675071E-04  0.00000000E+00 -4.35896078E-04  0.00000000E+00
  0.00000000E+00  2.45450470E-04  2.30919762E-04  1.03074953E-03  0.00000000E+00
  0.00000000E+00 -1.96315471E-04  2.91227673E-04  3.58309386E-04  0.00000000E+00
  0.00000000E+00  1.04106112E-04  3.96479824E-05  0.00000000E+00  8.76837007E-05
 -6.95127985E-05  0.00000000E+00  0.00000000E+00 -5.76643787E-05 -5.81265287E-06
  0.00000000E+00 -2.25742908E-04 -2.22736711E-04  0.00000000E+00  0.00000000E+00
  4.56991874E-04  2.58130169E-04 -1.88553307E-04  9.26611467E-04  1.55941084E-04
  3.07997361E-03  9.21601025E-04  2.61580697E-04  1.22003729E-04  0.00000000E+00
  8.94454039E-04  2.75818869E-04  0.00000000E+00  1.26668426E-03 -1.32020405E-04
  0.00000000E+00  1.35891208E-05  3.93356579E-05  0.00000000E+00 -4.03624728E-05
  0.00000000E+00  0.00000000E+00  7.29470786E-05  8.38446344E-05  7.05922449E-05
  0.00000000E+00  0.00000000E+00  2.50245249E-06 -2.66283551E-04 -4.04493531E-05
  0.00000000E+00  0.00000000E+00  2.93425312E-04 -1.36052501E-04  0.00000000E+00
  9.25409414E-05  3.57154033E-05  0.00000000E+00  0.00000000E+00 -5.64653032E-05
 -1.10545790E-04  0.00000000E+00  1.58615273E-04  1.23361785E-04  0.00000000E+00
  0.00000000E+00  2.05290491E-05 -3.52980469E-04  2.01751403E-02  1.63552850E-02
 -1.24116137E-03  5.60333475E-04 -3.08561852E-03 -8.37703823E-04  0.00000000E+00
 -2.31551627E-03 -1.07219356E-03  0.00000000E+00  2.24709292E-03  1.63013715E-04
  0.00000000E+00 -2.29689523E-04  0.00000000E+00  0.00000000E+00  3.68309817E-04
  2.76380932E-04  2.97368067E-04  0.00000000E+00  0.00000000E+00  2.73041218E-04
  5.45684793E-04 -6.34634700E-02  1.53730314E-01  4.09359742E-02  8.99800520E-02
  8.52130637E-03 -1.44256178E-02  2.24567162E-02  0.00000000E+00 -1.94676574E-02
  3.25031661E-02  0.00000000E+00 -1.21124927E-02  1.10710277E-02  0.00000000E+00
 -2.23367129E-03 -1.58293113E-03  0.00000000E+00 -1.74600601E-03  0.00000000E+00
  0.00000000E+00  6.97549834E-05 -1.73663120E-03 -3.99478801E-03  0.00000000E+00
  0.00000000E+00  7.27304700E-04 -4.18555585E-03  8.69237276E-04  0.00000000E+00
  0.00000000E+00  3.57423319E-05 -1.73970996E-03  0.00000000E+00  4.26615951E-04
 -8.43501362E-04  0.00000000E+00  0.00000000E+00  6.89130477E-04  1.23618107E-03
  0.00000000E+00 -2.32833745E-04  5.28726599E-04  0.00000000E+00  0.00000000E+00
 -3.07684214E-04  2.23774107E-04 -1.29800016E-01  3.06707374E-01  8.08967747E-02
  6.21458589E-02 -4.61971809E-04 -7.55142855E-02 -4.60059554E-02  0.00000000E+00
 -7.94605670E-02 -6.33392118E-02  0.00000000E+00 -3.61843804E-03  9.28843530E-03
  0.00000000E+00 -1.76869798E-04  3.31865376E-03  0.00000000E+00 -9.24007280E-03
  0.00000000E+00  0.00000000E+00  8.75604329E-03  6.50113792E-03 -1.12883189E-02
  0.00000000E+00  0.00000000E+00  9.54892452E-03  6.41488191E-03  6.30089467E-03
  0.00000000E+00  0.00000000E+00 -3.50540568E-04  6.53475949E-04  0.00000000E+00
  2.56677639E-03  2.37192039E-03  0.00000000E+00  0.00000000E+00 -4.85888812E-03
 -5.39701433E-03  0.00000000E+00 -1.37128857E-03 -4.48426210E-04  0.00000000E+00
  0.00000000E+00  9.85619125E-04 -7.92021679E-05 -1.51723140E-01  3.63008638E-01
  9.73458819E-02  1.81728284E-01 -1.49134336E-02  8.03521416E-02  2.19136880E-02
  0.00000000E+00  1.01937089E-01  2.75462771E-02  0.00000000E+00  1.78408457E-02
  3.54142000E-03  0.00000000E+00 -8.59372559E-03 -2.37652117E-03  0.00000000E+00
 -5.19737964E-03  0.00000000E+00  0.00000000E+00  7.36811804E-03  4.46057946E-03
 -9.57102513E-03  0.00000000E+00  0.00000000E+00  1.52088963E-02  9.43321738E-03
  2.49201600E-03  0.00000000E+00  0.00000000E+00 -3.72208590E-03 -2.55508895E-03
  0.00000000E+00 -3.17272775E-03 -8.67986381E-04  0.00000000E+00  0.00000000E+00
  3.38256509E-03  3.61955880E-03  0.00000000E+00 -1.24124434E-04 -2.75223803E-04
  0.00000000E+00  0.00000000E+00  1.05548885E-03  1.90655042E-03  8.09443500E-02
  7.91415742E-02 -2.08354480E-02 -2.92182339E-03 -1.18436765E-02 -4.77767840E-03
  0.00000000E+00 -1.47369445E-02 -1.43647052E-03  0.00000000E+00  7.78172224E-03
  2.21614161E-03  0.00000000E+00 -1.35087950E-03  0.00000000E+00  0.00000000E+00
  2.24643464E-03  1.21488483E-03  3.91371335E-04  0.00000000E+00  0.00000000E+00
  2.19355345E-03 -1.31995140E-03 -1.82798662E-01  4.45369589E-01  1.21636760E-01
  2.59992095E-01  1.14010648E-02  1.64489958E-02  3.76336043E-02  0.00000000E+00