title                                                                   
SP        RMP2-FC                                                     Aug-CC-pVTZ         
Number of atoms                            I                4
Info1-9                                    I   N=           9
          29          20           0           0           0         110
           1           2           1
Full Title                                 C   N=           1
title       
Route                                      C   N=           4
#p SP mp2/aug-cc-pvtz density=current           
Charge                                     I                0
Multiplicity                               I                1
Number of electrons                        I               24
Number of alpha electrons                  I               12
Number of beta electrons                   I               12
Number of basis functions                  I              161
Number of independent functions            I              161
Number of point charges in /Mol/           I                0
Number of translation vectors              I                0
Atomic numbers                             I   N=           4
           1           8           7           8
Nuclear charges                            R   N=           4
  1.00000000E+00  8.00000000E+00  7.00000000E+00  8.00000000E+00
Current cartesian coordinates              R   N=          12
  3.22838602E+00  8.41900888E-01  1.18031538E-02  1.96931948E+00 -4.90921291E-01
 -1.30623007E-03 -3.25200630E-01  9.28526630E-01 -1.64904499E-03 -2.08831719E+00
 -4.26777121E-01  1.27375021E-03
Number of symbols in /Mol/                 I                0
Force Field                                I                0
Atom Types                                 C   N=           4
                                                
Int Atom Types                             I   N=           4
           0           0           0           0
MM charges                                 R   N=           4
  0.00000000E+00  0.00000000E+00  0.00000000E+00  0.00000000E+00
Integer atomic weights                     I   N=           4
           1          16          14          16
Real atomic weights                        R   N=           4
  1.00782504E+00  1.59949146E+01  1.40030740E+01  1.59949146E+01
Atom fragment info                         I   N=           4
           0           0           0           0
Atom residue num                           I   N=           4
           0           0           0           0
Nuclear spins                              I   N=           4
           1           0           2           0
Nuclear ZEff                               R   N=           4
 -1.00000000E+00 -5.60000000E+00 -4.55000000E+00 -5.60000000E+00
Nuclear ZNuc                               R   N=           4
  1.00000000E+00  8.00000000E+00  7.00000000E+00  8.00000000E+00
Nuclear QMom                               R   N=           4
  0.00000000E+00  0.00000000E+00  2.04400000E+00  0.00000000E+00
Nuclear GFac                               R   N=           4
  2.79284600E+00  0.00000000E+00  4.03761000E-01  0.00000000E+00
MicOpt                                     I   N=           4
          -1          -1          -1          -1
Number of residues                         I                0
Number of secondary structures             I                0
SymInf integers                            I   N=          26
           1           1           1           1           1           0
           0           0           0           0           0           0
           0           0           0           0           0           0
           0           0           0           0           0           0
           0           0
RotTr to input orientation                 R   N=          12
 -7.26940115E-01  3.93458243E-03 -6.86689587E-01  6.86699548E-01  6.11869765E-03
 -7.26915602E-01  1.34153661E-03 -9.99973540E-01 -7.14980275E-03  1.76869451E+00
 -6.05084638E-03  2.82897434E+00
Number of contracted shells                I               51
Number of primitive shells                 I               92
Pure/Cartesian d shells                    I                0
Pure/Cartesian f shells                    I                0
Highest angular momentum                   I                3
Largest degree of contraction              I                7
Shell types                                I   N=          51
           0           0           0           0           1           1
           1          -2          -2           0           0           0
           0           0           1           1           1           1
          -2          -2          -2          -3          -3           0
           0           0           0           0           1           1
           1           1          -2          -2          -2          -3
          -3           0           0           0           0           0
           1           1           1           1          -2          -2
          -2          -3          -3
Number of primitives per shell             I   N=          51
           3           1           1           1           1           1
           1           1           1           7           6           1
           1           1           3           1           1           1
           1           1           1           1           1           7
           6           1           1           1           3           1
           1           1           1           1           1           1
           1           7           6           1           1           1
           3           1           1           1           1           1
           1           1           1
Shell to atom map                          I   N=          51
           1           1           1           1           1           1
           1           1           1           2           2           2
           2           2           2           2           2           2
           2           2           2           2           2           3
           3           3           3           3           3           3
           3           3           3           3           3           3
           3           4           4           4           4           4
           4           4           4           4           4           4
           4           4           4
Primitive exponents                        R   N=          92
  3.38700000E+01  5.09500000E+00  1.15900000E+00  3.25800000E-01  1.02700000E-01
  2.52600000E-02  1.40700000E+00  3.88000000E-01  1.02000000E-01  1.05700000E+00
  2.47000000E-01  1.53300000E+04  2.29900000E+03  5.22400000E+02  1.47300000E+02
  4.75500000E+01  1.67600000E+01  6.20700000E+00  5.22400000E+02  1.47300000E+02
  4.75500000E+01  1.67600000E+01  6.20700000E+00  6.88200000E-01  1.75200000E+00
  2.38400000E-01  7.37600000E-02  3.44600000E+01  7.74900000E+00  2.28000000E+00
  7.15600000E-01  2.14000000E-01  5.97400000E-02  2.31400000E+00  6.45000000E-01
  2.14000000E-01  1.42800000E+00  5.00000000E-01  1.14200000E+04  1.71200000E+03
  3.89300000E+02  1.10000000E+02  3.55700000E+01  1.25400000E+01  4.64400000E+00
  3.89300000E+02  1.10000000E+02  3.55700000E+01  1.25400000E+01  4.64400000E+00
  5.11800000E-01  1.29300000E+00  1.78700000E-01  5.76000000E-02  2.66300000E+01
  5.94800000E+00  1.74200000E+00  5.55000000E-01  1.72500000E-01  4.91000000E-02
  1.65400000E+00  4.69000000E-01  1.51000000E-01  1.09300000E+00  3.64000000E-01
  1.53300000E+04  2.29900000E+03  5.22400000E+02  1.47300000E+02  4.75500000E+01
  1.67600000E+01  6.20700000E+00  5.22400000E+02  1.47300000E+02  4.75500000E+01
  1.67600000E+01  6.20700000E+00  6.88200000E-01  1.75200000E+00  2.38400000E-01
  7.37600000E-02  3.44600000E+01  7.74900000E+00  2.28000000E+00  7.15600000E-01
  2.14000000E-01  5.97400000E-02  2.31400000E+00  6.45000000E-01  2.14000000E-01
  1.42800000E+00  5.00000000E-01
Contraction coefficients                   R   N=          92
  2.54948632E-02  1.90362766E-01  8.52162022E-01  1.00000000E+00  1.00000000E+00
  1.00000000E+00  1.00000000E+00  1.00000000E+00  1.00000000E+00  1.00000000E+00
  1.00000000E+00  5.19808943E-04  4.02025621E-03  2.07128267E-02  8.10105536E-02
  2.35962985E-01  4.42653446E-01  3.57064423E-01 -4.42115008E-05 -1.22591041E-03
 -1.05517725E-02 -6.74452633E-02 -1.71198607E-01  1.07329856E+00  1.00000000E+00
  1.00000000E+00  1.00000000E+00  4.11634896E-02  2.57762836E-01  8.02419274E-01
  1.00000000E+00  1.00000000E+00  1.00000000E+00  1.00000000E+00  1.00000000E+00
  1.00000000E+00  1.00000000E+00  1.00000000E+00  5.34563860E-04  4.13435660E-03
  2.12335358E-02  8.25006224E-02  2.38138871E-01  4.42551547E-01  3.53757422E-01
 -4.89867350E-05 -1.19527323E-03 -1.03490714E-02 -6.48680190E-02 -1.71552477E-01
  1.07289568E+00  1.00000000E+00  1.00000000E+00  1.00000000E+00  3.98072123E-02
  2.49002660E-01  8.10479727E-01  1.00000000E+00  1.00000000E+00  1.00000000E+00
  1.00000000E+00  1.00000000E+00  1.00000000E+00  1.00000000E+00  1.00000000E+00
  5.19808943E-04  4.02025621E-03  2.07128267E-02  8.10105536E-02  2.35962985E-01
  4.42653446E-01  3.57064423E-01 -4.42115008E-05 -1.22591041E-03 -1.05517725E-02
 -6.74452633E-02 -1.71198607E-01  1.07329856E+00  1.00000000E+00  1.00000000E+00
  1.00000000E+00  4.11634896E-02  2.57762836E-01  8.02419274E-01  1.00000000E+00
  1.00000000E+00  1.00000000E+00  1.00000000E+00  1.00000000E+00  1.00000000E+00
  1.00000000E+00  1.00000000E+00
Coordinates of each shell                  R   N=         153
  3.22838602E+00  8.41900888E-01  1.18031538E-02  3.22838602E+00  8.41900888E-01
  1.18031538E-02  3.22838602E+00  8.41900888E-01  1.18031538E-02  3.22838602E+00
  8.41900888E-01  1.18031538E-02  3.22838602E+00  8.41900888E-01  1.18031538E-02
  3.22838602E+00  8.41900888E-01  1.18031538E-02  3.22838602E+00  8.41900888E-01
  1.18031538E-02  3.22838602E+00  8.41900888E-01  1.18031538E-02  3.22838602E+00
  8.41900888E-01  1.18031538E-02  1.96931948E+00 -4.90921291E-01 -1.30623007E-03
  1.96931948E+00 -4.90921291E-01 -1.30623007E-03  1.96931948E+00 -4.90921291E-01
 -1.30623007E-03  1.96931948E+00 -4.90921291E-01 -1.30623007E-03  1.96931948E+00
 -4.90921291E-01 -1.30623007E-03  1.96931948E+00 -4.90921291E-01 -1.30623007E-03
  1.96931948E+00 -4.90921291E-01 -1.30623007E-03  1.96931948E+00 -4.90921291E-01
 -1.30623007E-03  1.96931948E+00 -4.90921291E-01 -1.30623007E-03  1.96931948E+00
 -4.90921291E-01 -1.30623007E-03  1.96931948E+00 -4.90921291E-01 -1.30623007E-03
  1.96931948E+00 -4.90921291E-01 -1.30623007E-03  1.96931948E+00 -4.90921291E-01
 -1.30623007E-03  1.96931948E+00 -4.90921291E-01 -1.30623007E-03 -3.25200630E-01
  9.28526630E-01 -1.64904499E-03 -3.25200630E-01  9.28526630E-01 -1.64904499E-03
 -3.25200630E-01  9.28526630E-01 -1.64904499E-03 -3.25200630E-01  9.28526630E-01
 -1.64904499E-03 -3.25200630E-01  9.28526630E-01 -1.64904499E-03 -3.25200630E-01
  9.28526630E-01 -1.64904499E-03 -3.25200630E-01  9.28526630E-01 -1.64904499E-03
 -3.25200630E-01  9.28526630E-01 -1.64904499E-03 -3.25200630E-01  9.28526630E-01
 -1.64904499E-03 -3.25200630E-01  9.28526630E-01 -1.64904499E-03 -3.25200630E-01
  9.28526630E-01 -1.64904499E-03 -3.25200630E-01  9.28526630E-01 -1.64904499E-03
 -3.25200630E-01  9.28526630E-01 -1.64904499E-03 -3.25200630E-01  9.28526630E-01
 -1.64904499E-03 -2.08831719E+00 -4.26777121E-01  1.27375021E-03 -2.08831719E+00
 -4.26777121E-01  1.27375021E-03 -2.08831719E+00 -4.26777121E-01  1.27375021E-03
 -2.08831719E+00 -4.26777121E-01  1.27375021E-03 -2.08831719E+00 -4.26777121E-01
  1.27375021E-03 -2.08831719E+00 -4.26777121E-01  1.27375021E-03 -2.08831719E+00
 -4.26777121E-01  1.27375021E-03 -2.08831719E+00 -4.26777121E-01  1.27375021E-03
 -2.08831719E+00 -4.26777121E-01  1.27375021E-03 -2.08831719E+00 -4.26777121E-01
  1.27375021E-03 -2.08831719E+00 -4.26777121E-01  1.27375021E-03 -2.08831719E+00
 -4.26777121E-01  1.27375021E-03 -2.08831719E+00 -4.26777121E-01  1.27375021E-03
 -2.08831719E+00 -4.26777121E-01  1.27375021E-03
Num ILSW                                   I              100
ILSW                                       I   N=         100
           0           0           0           0           2           0
           0           0           0           0           0          -1
           5           0           0           0           0           0
           0           0           0           0           0           0
           1           0           0           0           0           0
           0           0      100000           0          -1           0
           0           0           0           0           0           0
           0           0           0           1           0           0
           0 -2000000000           1           0           0           0
           0           0           4          52           0           0
           0           0           0           0           0           0
           0           0           0           4           0           1
           0           0           0           0           0           0
           0           0           0           0           0           0
           0           0           0           0           0           0
           0           0           0           0           0           0
           0           0           0           0
Num RLSW                                   I               52
RLSW                                       R   N=          52
  1.00000000E+00  1.00000000E+00  1.00000000E+00  1.00000000E+00  1.00000000E+00
  0.00000000E+00  0.00000000E+00  1.00000000E+00  0.00000000E+00  0.00000000E+00
  0.00000000E+00  0.00000000E+00  1.00000000E+00  0.00000000E+00  0.00000000E+00
  0.00000000E+00  0.00000000E+00  1.00000000E+00  0.00000000E+00  0.00000000E+00
  0.00000000E+00  0.00000000E+00  1.00000000E+00  0.00000000E+00  0.00000000E+00
  0.00000000E+00  0.00000000E+00  1.00000000E+00  0.00000000E+00  0.00000000E+00
  0.00000000E+00  0.00000000E+00  1.00000000E+00  0.00000000E+00  0.00000000E+00
  0.00000000E+00  0.00000000E+00  0.00000000E+00  1.00000000E+00  1.00000000E+00
  0.00000000E+00  1.00000000E+00  0.00000000E+00  0.00000000E+00  0.00000000E+00
  0.00000000E+00  0.00000000E+00  0.00000000E+00  0.00000000E+00  0.00000000E+00
  0.00000000E+00  0.00000000E+00
MxBond                                     I                2
NBond                                      I   N=           4
           1           2           2           1
IBond                                      I   N=           8
           2           0           1           3           2           4
           3           0
RBond                                      R   N=           8
  1.00000000E+00  0.00000000E+00  1.00000000E+00  1.00000000E+00  1.00000000E+00
  2.00000000E+00  2.00000000E+00  0.00000000E+00
Virial Ratio                               R      2.002366571724616E+00
SCF Energy                                 R     -2.047233969561071E+02
MP2 Energy                                 R     -2.054213532479074E+02
Total Energy                               R     -2.054213532479074E+02
Post-SCF wavefunction norm                 R      1.090008503129342E+00
RMS Density                                R      5.477957208493446E-09
Job Status                                 I                1
Nuclear derivative order                   I                0
External E-field                           R   N=          35
  0.00000000E+00  0.00000000E+00  0.00000000E+00  0.00000000E+00  0.00000000E+00
  0.00000000E+00  0.00000000E+00  0.00000000E+00  0.00000000E+00  0.00000000E+00
  0.00000000E+00  0.00000000E+00  0.00000000E+00  0.00000000E+00  0.00000000E+00
  0.00000000E+00  0.00000000E+00  0.00000000E+00  0.00000000E+00  0.00000000E+00
  0.00000000E+00  0.00000000E+00  0.00000000E+00  0.00000000E+00  0.00000000E+00
  0.00000000E+00  0.00000000E+00  0.00000000E+00  0.00000000E+00  0.00000000E+00
  0.00000000E+00  0.00000000E+00  0.00000000E+00  0.00000000E+00  0.00000000E+00
IOpCl                                      I                0
IROHF                                      I                0
Alpha Orbital Energies                     R   N=         161
 -2.06653101E+01 -2.06423798E+01 -1.57987561E+01 -1.60279175E+00 -1.40263772E+00
 -9.48532729E-01 -7.84138621E-01 -7.29804860E-01 -6.81552339E-01 -6.25437347E-01
 -5.28566332E-01 -4.61754765E-01  2.79904903E-02  8.04471402E-02  9.39598632E-02
  9.75589278E-02  1.28891717E-01  1.43648094E-01  1.56893491E-01  1.72128752E-01
  1.87229098E-01  1.96600343E-01  2.05580457E-01  2.33468959E-01  2.57908961E-01
  2.96336275E-01  3.07842207E-01  3.29791107E-01  3.65756574E-01  3.82470708E-01
  4.23908112E-01  5.25227978E-01  5.26377337E-01  5.48051393E-01  5.73308211E-01
  6.12998431E-01  6.31293570E-01  6.48062180E-01  6.80213406E-01  7.14257666E-01
  7.17942040E-01  7.47976498E-01  7.74847609E-01  7.81594220E-01  8.11460441E-01
  8.11910143E-01  8.61147029E-01  8.78792570E-01  9.25719337E-01  9.39006708E-01
  9.45087552E-01  9.95188447E-01  1.04957055E+00  1.06297814E+00  1.08123632E+00
  1.10585374E+00  1.16087105E+00  1.19628658E+00  1.25220176E+00  1.26864366E+00
  1.36163524E+00  1.43368035E+00  1.48879966E+00  1.52303880E+00  1.52437320E+00
  1.54418833E+00  1.55421126E+00  1.60953317E+00  1.65819376E+00  1.72877071E+00
  1.75464349E+00  1.82252370E+00  1.85592309E+00  1.96095325E+00  1.97634148E+00
  1.99782637E+00  2.07453305E+00  2.13204015E+00  2.13395145E+00  2.18850547E+00
  2.27082718E+00  2.30835850E+00  2.32917725E+00  2.38093139E+00  2.45128029E+00
  2.47005769E+00  2.49868634E+00  2.50267709E+00  2.52137401E+00  2.54425191E+00
  2.56925176E+00  2.60689667E+00  2.60839375E+00  2.66208182E+00  2.77178918E+00
  2.77802724E+00  2.83926031E+00  2.93804328E+00  2.95228310E+00  3.11532218E+00
  3.14675268E+00  3.18280462E+00  3.24711505E+00  3.46108427E+00  3.83151304E+00
  3.85451196E+00  4.02882016E+00  4.17018400E+00  4.18282540E+00  4.21335956E+00
  4.36344132E+00  4.37242486E+00  4.58151858E+00  4.63351487E+00  4.74696983E+00
  4.81790210E+00  4.87192460E+00  4.88741042E+00  4.98006394E+00  5.00191962E+00
  5.07376725E+00  5.08667406E+00  5.17091825E+00  5.24634011E+00  5.25777559E+00
  5.33345691E+00  5.36899127E+00  5.37448689E+00  5.57965672E+00  5.66780482E+00
  5.79365277E+00  5.98812056E+00  6.11952500E+00  6.43492628E+00  6.50704106E+00
  6.51006866E+00  6.67436682E+00  6.71556974E+00  6.74547353E+00  6.84759209E+00
  6.91672792E+00  7.06909106E+00  7.11946562E+00  7.17974159E+00  7.23379734E+00
  7.25624849E+00  7.25813585E+00  7.33180889E+00  7.37986142E+00  7.43286618E+00
  7.47875618E+00  7.60795814E+00  7.64779792E+00  7.69929536E+00  7.79101668E+00
  7.98217658E+00  8.07087576E+00  8.42455717E+00  1.42012261E+01  1.51285720E+01
  1.59718309E+01
Alpha MO coefficients                      R   N=       25921
  5.70192785E-05  1.95071109E-04 -3.73496555E-04  4.62585803E-06 -5.51926489E-05
 -8.19651383E-06 -1.77820711E-07  2.36612744E-05  7.05643211E-05 -1.60800534E-06
  2.43325027E-04  1.02727018E-04 -1.09250050E-06  2.08615600E-05  5.98816955E-07
 -1.23328927E-07  5.77455769E-06  1.39732538E-05  5.22622266E-05  9.07339187E-07
 -6.70863444E-07 -3.61974958E-05 -6.05748001E-06 -8.05304376E-04  7.94500900E-05
 -6.05826836E-05 -9.00090943E-05  2.19700853E-04  2.30683336E-05 -1.03148305E-05
 -4.06998232E-10 -9.93177976E-05  1.38055986E-05  9.01635552E-08 -1.52170073E-04
 -1.02452040E-05  1.02243299E-06 -1.28825855E-04  1.02253246E-05  8.98334696E-07
 -8.90917064E-06 -4.89073368E-08 -1.96023391E-08  1.45937270E-05  2.50665569E-05
  2.02349859E-06  2.78743008E-07  9.58622226E-08  4.68926235E-07 -1.55574205E-04
 -1.65009804E-05 -1.70928598E-07  3.14334278E-07  9.11925059E-05 -2.31838086E-04
  9.23459189E-08  3.07680239E-06  3.03111868E-06  6.84314686E-08 -4.53572378E-08
  7.77512120E-06 -1.42258457E-05 -5.27165071E-08 -1.33087823E-05 -2.33081277E-05
 -2.53844072E-07 -1.21570561E-07  1.44836774E-04  1.36627849E-04  2.49351647E-04
  1.41897314E-03 -1.01653776E-04 -1.53270089E-03  3.78905884E-04 -8.53452751E-05
 -9.82893505E-05  2.46651855E-07 -1.74324660E-03 -1.20262103E-03  2.20621915E-06
  1.09685343E-03  3.13650353E-04  1.76104549E-07 -7.72156117E-05 -1.25126556E-04
  4.24098696E-07 -1.25286383E-04 -5.02001068E-07 -3.39166132E-07  7.67056588E-05
  2.46369300E-04 -4.38512332E-04 -1.86970168E-06 -1.53890361E-06 -6.22054269E-05
  9.63186725E-04 -1.43971040E-06  1.63129519E-06  3.76297562E-07 -3.27828945E-05
 -2.20109706E-04  1.01015732E-07  1.62332380E-05 -7.95470039E-06 -1.03087363E-07
 -2.77085804E-08 -4.22131290E-06  2.16399683E-05 -1.01653243E-06  9.34574278E-05
  1.68980456E-04  4.37004565E-07  1.04243452E-06  2.35444870E-04 -1.74635494E-04
  9.76650753E-01 -9.86484123E-03  4.35628599E-02  4.27792876E-03 -5.30162010E-04
  1.80290386E-03  1.23078914E-03 -3.35859781E-06 -2.08254079E-03 -1.34997991E-03
  3.27500718E-06  7.50391945E-04  8.45715311E-04 -1.52163234E-06 -5.86052205E-05
  1.08940440E-05  5.73068918E-09 -2.29159117E-04 -2.55958133E-07 -5.17952105E-07
  2.54311917E-05  9.14608131E-05  3.87422520E-04  2.06415745E-06  7.72308344E-07
 -3.71169566E-04 -8.60518543E-04 -1.59764552E-04 -7.40349786E-07 -5.30736280E-07
 -1.61741785E-05  3.04602588E-04 -2.01809837E-07  4.86140688E-05  2.83551903E-05
  1.66467906E-08  1.99688152E-07  1.14736180E-05 -2.74430931E-05 -3.90439086E-07
  1.01608514E-04  8.50097981E-05  3.70877012E-07  5.57217815E-07  4.44713037E-05
 -2.17205173E-04  4.73933859E-04  2.47306903E-03  3.47047527E-04 -7.39894934E-06
 -1.76232356E-04 -1.74666908E-04 -1.76697267E-06 -6.46159918E-04 -1.15083351E-03
 -1.09949282E-05  5.25336275E-05 -4.31326170E-04 -2.54198338E-06  1.19142161E-05
 -4.37973656E-07 -1.41731209E-07 -2.81035594E-06 -7.27413304E-05 -1.55145972E-04
  3.26054453E-06  4.92196750E-06 -1.29394357E-04  4.28718182E-04  9.76754806E-01
 -9.25282901E-03  4.35551028E-02  8.30786441E-04 -9.04752464E-04 -2.19056404E-04
  1.87476571E-03  9.84575845E-06  4.07914318E-04 -1.80177545E-03 -9.28902090E-06
 -1.53071862E-03 -1.90474813E-04 -6.20648500E-06 -6.57032688E-05  1.01268335E-05
 -6.70088557E-08 -4.22725488E-05  5.05473093E-07  4.74104274E-07 -8.43176902E-07
  5.91096210E-05  6.50685338E-04 -5.55125293E-06 -4.92739499E-06 -3.94748795E-04
  3.14439389E-06 -9.01831700E-05 -1.41071292E-06 -1.04835446E-06  1.42444433E-05
 -4.72744438E-04  8.44419178E-08 -4.41549871E-05  3.28332428E-05  2.29791378E-07
 -2.07957604E-08 -3.99022043E-06 -1.32170112E-05  1.65890904E-06  7.00654879E-05
  8.15100219E-05 -7.53139773E-07 -2.32290740E-06  7.56800815E-05 -3.11155664E-04
  5.96372916E-05  1.62449334E-04 -3.19797056E-04 -3.68376664E-04  8.67619675E-04
 -1.04553808E-04  4.54287878E-05  1.18512053E-07  8.86823869E-04 -3.83022452E-04
 -6.13310488E-07 -5.72025787E-04  3.81507109E-04  1.20817138E-06  2.10161076E-04
 -1.11686927E-04  9.15288424E-07 -3.47004536E-05  5.71731675E-08  2.65985299E-08
  3.88661927E-06 -6.04958239E-05 -3.99890039E-04 -1.86393902E-07 -4.89140882E-08
  4.52289269E-04 -8.29500228E-04 -1.87383465E-04  2.15671828E-06  6.65089571E-07
  4.68129993E-04  2.99693686E-04  1.75879232E-08 -1.14973845E-04  6.44402362E-05
 -2.20253152E-08 -8.35710151E-08 -2.91366406E-05 -1.56012583E-04 -6.47138160E-07
 -8.92296133E-05  9.53683676E-05  4.35203268E-07 -3.32494317E-08 -2.45127574E-04
 -3.50157671E-04  8.39526850E-04  4.70030139E-05  2.09209918E-05 -2.85129381E-04
 -1.89878348E-04 -2.17209706E-05  1.59976584E-05  9.83541154E-08  1.47502990E-04
 -8.30878418E-05 -7.16265636E-07  5.36979769E-04 -2.70341925E-04  1.62375780E-06
 -6.98168507E-06  3.92155531E-07 -1.49135589E-07 -5.30666406E-06 -5.43647585E-10
  2.99330037E-08 -3.54188488E-06 -1.66190065E-05  1.12049121E-06 -2.97941065E-07
 -7.54432832E-08  1.30437918E-04  6.17719736E-05 -6.66628629E-05 -2.87023101E-07
  5.93815823E-07  2.15603641E-04  1.47814903E-04  2.94347647E-08 -5.16403980E-07
  1.04614849E-05 -2.33034116E-08  6.28685676E-08  1.50954742E-06 -1.63739195E-05
 -4.35125199E-08  2.83979203E-05 -4.41775555E-05 -3.41146654E-08 -2.02020837E-07
 -1.32725231E-06  1.38962039E-04 -7.57963309E-05 -5.00268192E-04 -3.34515034E-04
  2.06787564E-04  2.26230505E-05  4.30748794E-05  3.41922064E-07  5.58862708E-04
 -1.58912527E-04  3.01569445E-06  4.01040037E-04 -1.99753094E-04  3.61151552E-07
 -1.34503195E-05 -4.02890935E-07  1.20858833E-07 -4.95595152E-05 -1.01411428E-06
  1.12601956E-04 -1.93198593E-06  1.21451767E-07 -1.35493057E-04  1.17014631E-04
 -1.26164774E-04 -2.10369862E-04 -2.08000607E-04  4.95780786E-03  3.24946154E-03
  2.22543754E-05 -3.55122911E-05 -1.82630731E-07 -7.77604907E-04  6.34830245E-04
  5.59265119E-07 -3.26635998E-03  2.11055887E-03  1.22297425E-07 -9.63620939E-04
  2.59752211E-04 -9.98216294E-07  1.67600991E-07 -7.48345305E-08 -2.28100743E-07
  2.91966003E-06 -5.35666852E-05 -4.46117208E-04  4.37766990E-07  1.23355164E-06
  2.97392933E-04 -4.34497219E-04 -6.06119755E-04 -3.71164896E-07  9.83038205E-07
  3.53088842E-04 -9.16843051E-04  2.65246420E-08  2.49069140E-05 -1.38724800E-05
  1.91093063E-07  1.84761731E-07 -6.79125998E-06  5.02873545E-05 -6.13115984E-07
  1.35914751E-04 -1.05270196E-04 -1.63723841E-06  1.70242000E-07 -1.82907071E-04
  1.42936621E-04  9.78281084E-01 -8.40008919E-03  4.17862256E-02 -5.49037265E-03
 -3.04954411E-03 -3.26193114E-05 -3.23041604E-03  3.35124915E-06 -1.07666449E-03
  2.78134657E-03 -2.33291302E-06 -5.94752583E-04  3.04779782E-03 -8.67360876E-07
 -2.15955379E-04  5.01311599E-04 -9.56321012E-08 -4.39436888E-04 -7.66807393E-07
 -8.84339450E-07  4.43623181E-05  3.28968968E-04  1.03050107E-03  4.87892976E-07
  9.46291744E-07 -3.22769750E-04  1.27532196E-04  3.60424550E-04  2.54833687E-06
  1.58824747E-06  6.60601151E-05  1.11458243E-04  6.70521094E-08  1.07601991E-04
 -3.52037378E-05  3.79607032E-08  1.03149282E-07 -2.32064986E-05 -5.65368803E-05
 -3.73694251E-07 -1.37161338E-04 -2.89993223E-04  7.34442718E-07 -2.46045806E-07
  2.66001353E-05  5.26234226E-04 -1.89131950E-04  9.19990263E-04  1.57507924E-04
  3.02531615E-03  8.88168703E-04  2.06582722E-04  2.03211749E-04 -1.08470870E-07
  7.36584035E-04  5.48910823E-04 -2.47764059E-06  1.21382462E-03  2.75423707E-04
 -1.23909953E-06 -5.41664259E-06  3.76864420E-05  5.03312721E-07 -3.97450584E-05
 -1.18612146E-07 -5.02395441E-08  3.47714860E-06  1.10741169E-04  7.36262052E-05
 -3.96213839E-07 -1.81447625E-07  1.69840338E-04 -2.13735903E-04 -3.63008831E-05
 -3.14946826E-07  8.44509127E-08  3.11397276E-04  7.13914384E-05 -3.28758501E-07
  7.50942160E-05  6.49565232E-05 -2.55828913E-08  4.12187366E-07  6.60176688E-05
 -1.06008829E-04 -5.15072082E-07  1.08333492E-04  1.69638143E-04  1.89985553E-08
  8.53830620E-07  3.13918406E-04 -1.67571326E-04  2.11367982E-02  1.72012255E-02
 -1.61065406E-03  4.60496953E-04 -2.75521365E-03 -1.91579794E-03 -2.23400591E-05
 -2.10727911E-03 -1.83568200E-03 -1.99350233E-05  2.18228714E-03  9.65808945E-04
 -2.57832667E-06 -2.39882372E-04  4.54054191E-06  3.01021740E-06  1.40289795E-04
  4.78142221E-04  2.80918561E-04 -3.21549882E-06 -2.49835457E-06 -5.44733992E-05
  6.51886520E-04 -6.63323239E-02  1.60710383E-01  4.28201148E-02  9.26716453E-02
  7.76863547E-03 -2.19683963E-02  1.71435384E-02  6.12605413E-05 -3.02547719E-02
  2.51357192E-02  9.10552519E-05 -1.46927097E-02  6.07234287E-03  1.24440518E-05
 -1.31383953E-03 -2.39653496E-03  3.84144332E-06 -1.82801014E-03  5.14102454E-06
  8.44930382E-06  1.19689791E-03 -1.36223126E-03 -4.11734149E-03  8.65093839E-06
  2.70009134E-05  3.29213415E-03 -2.88062093E-03  1.03216784E-03 -7.02625871E-06
 -6.88420941E-06  1.11173549E-03 -1.14235467E-03 -6.12252634E-06  7.25751063E-04
 -6.83813046E-04 -2.31132690E-06  6.35641794E-06 -7.31190891E-04  1.29749523E-03
 -3.91413928E-06 -4.21808863E-04  4.24195745E-04 -3.92681488E-06 -3.33199898E-06
 -2.84800659E-04 -1.24557274E-04 -1.30095153E-01  3.07497918E-01  8.09902714E-02
  6.34798905E-02  4.78321336E-04 -5.37856742E-02 -6.87512168E-02  1.27366952E-04
 -5.12521347E-02 -8.67025979E-02  1.48709091E-04 -6.00192703E-03  7.30062248E-03
  2.27585066E-05 -1.09691969E-03  2.97855031E-03 -3.17636070E-06 -9.28944783E-03
 -2.33796374E-05 -2.32024123E-05  2.71465919E-03  1.02546736E-02 -1.14719458E-02
 -2.39806519E-05 -2.61094061E-05  3.48707264E-03  1.04483424E-02  6.17014651E-03
  1.67340100E-05  1.12025143E-05 -4.59200803E-04  3.18976325E-04 -1.18878636E-05
  1.54937410E-03  3.12104083E-03  5.56801981E-06  1.47831801E-05  2.05973817E-03
 -7.01450976E-03  6.05527185E-08 -1.15720329E-03 -8.60818202E-04  4.00587312E-06
 -7.99409697E-08  5.22610470E-04  7.45168448E-04 -1.50175694E-01  3.59177452E-01
  9.62797756E-02  1.79299082E-01 -1.50736314E-02  6.80660385E-02  4.70278004E-02
 -9.77892264E-05  8.64064575E-02  5.93682530E-02 -1.28137271E-04  1.55222528E-02
  8.89516344E-03 -2.82691794E-05 -7.30904017E-03 -5.10941347E-03  1.27472456E-05
 -5.15957900E-03 -1.79140893E-05 -1.28914790E-05  2.90794707E-03  8.04115853E-03
 -9.47391937E-03 -3.88009752E-05 -2.54859464E-05  5.89903918E-03  1.67374927E-02
  2.51003302E-03  4.58066454E-06  6.94199049E-06 -1.21849023E-03 -4.33216446E-03
  1.05466904E-05 -2.68201479E-03 -1.85979966E-03 -6.02012588E-06 -1.35117230E-05
 -1.29513589E-03  4.73523691E-03  2.51175555E-06 -9.01416811E-06 -2.88009444E-04
 -2.36272378E-06 -2.93621109E-06 -1.06699100E-03  1.88610799E-03  8.02792692E-02
  7.88881984E-02 -2.06635332E-02 -2.88320750E-03 -9.52847229E-03 -8.39472249E-03
 -8.93164787E-05 -1.35115982E-02 -6.18253402E-03 -9.89701136E-05  6.47441851E-03
  4.71275071E-03  6.03293517E-05 -1.32794076E-03  2.88367379E-05  1.81519927E-05
  1.00469780E-03  2.33876703E-03  3.90693659E-04  8.02708003E-06 -8.89089869E-06
  2.58057092E-03  3.08114411E-04 -1.81440423E-01  4.42009951E-01  1.20606988E-01
  2.57779561E-01  1.14322469E-02  2.47367268E-03  4.11517778E-02  2.28228726E-04