title                                                                   
SP        RMP2-FC                                                     Aug-CC-pVTZ         
Number of atoms                            I                4
Info1-9                                    I   N=           9
          29          20           0           0           0         110
           1           2           1
Full Title                                 C   N=           1
title       
Route                                      C   N=           4
#p SP mp2/aug-cc-pvtz density=current           
Charge                                     I                0
Multiplicity                               I                1
Number of electrons                        I               24
Number of alpha electrons                  I               12
Number of beta electrons                   I               12
Number of basis functions                  I              161
Number of independent functions            I              161
Number of point charges in /Mol/           I                0
Number of translation vectors              I                0
Atomic numbers                             I   N=           4
           1           8           7           8
Nuclear charges                            R   N=           4
  1.00000000E+00  8.00000000E+00  7.00000000E+00  8.00000000E+00
Current cartesian coordinates              R   N=          12
  3.32832018E+00 -2.84637644E-01  2.71852668E-32  1.69753117E+00 -1.12270839E+00
  1.29952812E-32 -1.96332880E-17  9.86585018E-01 -1.33660846E-32 -2.11357119E+00
  2.95026200E-01 -2.48770626E-32
Number of symbols in /Mol/                 I                0
Force Field                                I                0
Atom Types                                 C   N=           4
                                                
Int Atom Types                             I   N=           4
           0           0           0           0
MM charges                                 R   N=           4
  0.00000000E+00  0.00000000E+00  0.00000000E+00  0.00000000E+00
Integer atomic weights                     I   N=           4
           1          16          14          16
Real atomic weights                        R   N=           4
  1.00782504E+00  1.59949146E+01  1.40030740E+01  1.59949146E+01
Atom fragment info                         I   N=           4
           0           0           0           0
Atom residue num                           I   N=           4
           0           0           0           0
Nuclear spins                              I   N=           4
           1           0           2           0
Nuclear ZEff                               R   N=           4
 -1.00000000E+00 -5.60000000E+00 -4.55000000E+00 -5.60000000E+00
Nuclear ZNuc                               R   N=           4
  1.00000000E+00  8.00000000E+00  7.00000000E+00  8.00000000E+00
Nuclear QMom                               R   N=           4
  0.00000000E+00  0.00000000E+00  2.04400000E+00  0.00000000E+00
Nuclear GFac                               R   N=           4
  2.79284600E+00  0.00000000E+00  4.03761000E-01  0.00000000E+00
MicOpt                                     I   N=           4
          -1          -1          -1          -1
Number of residues                         I                0
Number of secondary structures             I                0
SymInf integers                            I   N=          26
           1           2           1           1           1           1
           1          -1           0           0           0           0
           0           0           0           0           0           0
           0           0           0           0           0           0
           0           0
RotTr to input orientation                 R   N=          12
 -4.57080251E-01 -1.15416749E-16 -8.89425457E-01  8.89425457E-01  4.09459620E-17
 -4.57080251E-01  8.91730977E-17 -1.00000000E+00  8.39390044E-17  1.77447339E+00
  0.00000000E+00  2.83019045E+00
Number of contracted shells                I               51
Number of primitive shells                 I               92
Pure/Cartesian d shells                    I                0
Pure/Cartesian f shells                    I                0
Highest angular momentum                   I                3
Largest degree of contraction              I                7
Shell types                                I   N=          51
           0           0           0           0           1           1
           1          -2          -2           0           0           0
           0           0           1           1           1           1
          -2          -2          -2          -3          -3           0
           0           0           0           0           1           1
           1           1          -2          -2          -2          -3
          -3           0           0           0           0           0
           1           1           1           1          -2          -2
          -2          -3          -3
Number of primitives per shell             I   N=          51
           3           1           1           1           1           1
           1           1           1           7           6           1
           1           1           3           1           1           1
           1           1           1           1           1           7
           6           1           1           1           3           1
           1           1           1           1           1           1
           1           7           6           1           1           1
           3           1           1           1           1           1
           1           1           1
Shell to atom map                          I   N=          51
           1           1           1           1           1           1
           1           1           1           2           2           2
           2           2           2           2           2           2
           2           2           2           2           2           3
           3           3           3           3           3           3
           3           3           3           3           3           3
           3           4           4           4           4           4
           4           4           4           4           4           4
           4           4           4
Primitive exponents                        R   N=          92
  3.38700000E+01  5.09500000E+00  1.15900000E+00  3.25800000E-01  1.02700000E-01
  2.52600000E-02  1.40700000E+00  3.88000000E-01  1.02000000E-01  1.05700000E+00
  2.47000000E-01  1.53300000E+04  2.29900000E+03  5.22400000E+02  1.47300000E+02
  4.75500000E+01  1.67600000E+01  6.20700000E+00  5.22400000E+02  1.47300000E+02
  4.75500000E+01  1.67600000E+01  6.20700000E+00  6.88200000E-01  1.75200000E+00
  2.38400000E-01  7.37600000E-02  3.44600000E+01  7.74900000E+00  2.28000000E+00
  7.15600000E-01  2.14000000E-01  5.97400000E-02  2.31400000E+00  6.45000000E-01
  2.14000000E-01  1.42800000E+00  5.00000000E-01  1.14200000E+04  1.71200000E+03
  3.89300000E+02  1.10000000E+02  3.55700000E+01  1.25400000E+01  4.64400000E+00
  3.89300000E+02  1.10000000E+02  3.55700000E+01  1.25400000E+01  4.64400000E+00
  5.11800000E-01  1.29300000E+00  1.78700000E-01  5.76000000E-02  2.66300000E+01
  5.94800000E+00  1.74200000E+00  5.55000000E-01  1.72500000E-01  4.91000000E-02
  1.65400000E+00  4.69000000E-01  1.51000000E-01  1.09300000E+00  3.64000000E-01
  1.53300000E+04  2.29900000E+03  5.22400000E+02  1.47300000E+02  4.75500000E+01
  1.67600000E+01  6.20700000E+00  5.22400000E+02  1.47300000E+02  4.75500000E+01
  1.67600000E+01  6.20700000E+00  6.88200000E-01  1.75200000E+00  2.38400000E-01
  7.37600000E-02  3.44600000E+01  7.74900000E+00  2.28000000E+00  7.15600000E-01
  2.14000000E-01  5.97400000E-02  2.31400000E+00  6.45000000E-01  2.14000000E-01
  1.42800000E+00  5.00000000E-01
Contraction coefficients                   R   N=          92
  2.54948632E-02  1.90362766E-01  8.52162022E-01  1.00000000E+00  1.00000000E+00
  1.00000000E+00  1.00000000E+00  1.00000000E+00  1.00000000E+00  1.00000000E+00
  1.00000000E+00  5.19808943E-04  4.02025621E-03  2.07128267E-02  8.10105536E-02
  2.35962985E-01  4.42653446E-01  3.57064423E-01 -4.42115008E-05 -1.22591041E-03
 -1.05517725E-02 -6.74452633E-02 -1.71198607E-01  1.07329856E+00  1.00000000E+00
  1.00000000E+00  1.00000000E+00  4.11634896E-02  2.57762836E-01  8.02419274E-01
  1.00000000E+00  1.00000000E+00  1.00000000E+00  1.00000000E+00  1.00000000E+00
  1.00000000E+00  1.00000000E+00  1.00000000E+00  5.34563860E-04  4.13435660E-03
  2.12335358E-02  8.25006224E-02  2.38138871E-01  4.42551547E-01  3.53757422E-01
 -4.89867350E-05 -1.19527323E-03 -1.03490714E-02 -6.48680190E-02 -1.71552477E-01
  1.07289568E+00  1.00000000E+00  1.00000000E+00  1.00000000E+00  3.98072123E-02
  2.49002660E-01  8.10479727E-01  1.00000000E+00  1.00000000E+00  1.00000000E+00
  1.00000000E+00  1.00000000E+00  1.00000000E+00  1.00000000E+00  1.00000000E+00
  5.19808943E-04  4.02025621E-03  2.07128267E-02  8.10105536E-02  2.35962985E-01
  4.42653446E-01  3.57064423E-01 -4.42115008E-05 -1.22591041E-03 -1.05517725E-02
 -6.74452633E-02 -1.71198607E-01  1.07329856E+00  1.00000000E+00  1.00000000E+00
  1.00000000E+00  4.11634896E-02  2.57762836E-01  8.02419274E-01  1.00000000E+00
  1.00000000E+00  1.00000000E+00  1.00000000E+00  1.00000000E+00  1.00000000E+00
  1.00000000E+00  1.00000000E+00
Coordinates of each shell                  R   N=         153
  3.32832018E+00 -2.84637644E-01 -1.56881804E-32  3.32832018E+00 -2.84637644E-01
 -1.56881804E-32  3.32832018E+00 -2.84637644E-01 -1.56881804E-32  3.32832018E+00
 -2.84637644E-01 -1.56881804E-32  3.32832018E+00 -2.84637644E-01 -1.56881804E-32
  3.32832018E+00 -2.84637644E-01 -1.56881804E-32  3.32832018E+00 -2.84637644E-01
 -1.56881804E-32  3.32832018E+00 -2.84637644E-01 -1.56881804E-32  3.32832018E+00
 -2.84637644E-01 -1.56881804E-32  1.69753117E+00 -1.12270839E+00  7.76835577E-34
  1.69753117E+00 -1.12270839E+00  7.76835577E-34  1.69753117E+00 -1.12270839E+00
  7.76835577E-34  1.69753117E+00 -1.12270839E+00  7.76835577E-34  1.69753117E+00
 -1.12270839E+00  7.76835577E-34  1.69753117E+00 -1.12270839E+00  7.76835577E-34
  1.69753117E+00 -1.12270839E+00  7.76835577E-34  1.69753117E+00 -1.12270839E+00
  7.76835577E-34  1.69753117E+00 -1.12270839E+00  7.76835577E-34  1.69753117E+00
 -1.12270839E+00  7.76835577E-34  1.69753117E+00 -1.12270839E+00  7.76835577E-34
  1.69753117E+00 -1.12270839E+00  7.76835577E-34  1.69753117E+00 -1.12270839E+00
  7.76835577E-34  1.69753117E+00 -1.12270839E+00  7.76835577E-34 -7.19412880E-17
  9.86585018E-01 -8.85948449E-33 -7.19412880E-17  9.86585018E-01 -8.85948449E-33
 -7.19412880E-17  9.86585018E-01 -8.85948449E-33 -7.19412880E-17  9.86585018E-01
 -8.85948449E-33 -7.19412880E-17  9.86585018E-01 -8.85948449E-33 -7.19412880E-17
  9.86585018E-01 -8.85948449E-33 -7.19412880E-17  9.86585018E-01 -8.85948449E-33
 -7.19412880E-17  9.86585018E-01 -8.85948449E-33 -7.19412880E-17  9.86585018E-01
 -8.85948449E-33 -7.19412880E-17  9.86585018E-01 -8.85948449E-33 -7.19412880E-17
  9.86585018E-01 -8.85948449E-33 -7.19412880E-17  9.86585018E-01 -8.85948449E-33
 -7.19412880E-17  9.86585018E-01 -8.85948449E-33 -7.19412880E-17  9.86585018E-01
 -8.85948449E-33 -2.11357119E+00  2.95026200E-01  8.93623590E-33 -2.11357119E+00
  2.95026200E-01  8.93623590E-33 -2.11357119E+00  2.95026200E-01  8.93623590E-33
 -2.11357119E+00  2.95026200E-01  8.93623590E-33 -2.11357119E+00  2.95026200E-01
  8.93623590E-33 -2.11357119E+00  2.95026200E-01  8.93623590E-33 -2.11357119E+00
  2.95026200E-01  8.93623590E-33 -2.11357119E+00  2.95026200E-01  8.93623590E-33
 -2.11357119E+00  2.95026200E-01  8.93623590E-33 -2.11357119E+00  2.95026200E-01
  8.93623590E-33 -2.11357119E+00  2.95026200E-01  8.93623590E-33 -2.11357119E+00
  2.95026200E-01  8.93623590E-33 -2.11357119E+00  2.95026200E-01  8.93623590E-33
 -2.11357119E+00  2.95026200E-01  8.93623590E-33
Num ILSW                                   I              100
ILSW                                       I   N=         100
           0           0           0           0           2           0
           0           0           0           0           0          -1
           5           0           0           0           0           0
           0           0           0           0           0           0
           1           0           0           0           0           0
           0           0      100000           0          -1           0
           0           0           0           0           0           0
           0           0           0           1           0           0
           0 -2000000000           1           0           0           0
           0           0           4          52           0           0
           0           0           0           0           0           0
           0           0           0           4           0           1
           0           0           0           0           0           0
           0           0           0           0           0           0
           0           0           0           0           0           0
           0           0           0           0           0           0
           0           0           0           0
Num RLSW                                   I               52
RLSW                                       R   N=          52
  1.00000000E+00  1.00000000E+00  1.00000000E+00  1.00000000E+00  1.00000000E+00
  0.00000000E+00  0.00000000E+00  1.00000000E+00  0.00000000E+00  0.00000000E+00
  0.00000000E+00  0.00000000E+00  1.00000000E+00  0.00000000E+00  0.00000000E+00
  0.00000000E+00  0.00000000E+00  1.00000000E+00  0.00000000E+00  0.00000000E+00
  0.00000000E+00  0.00000000E+00  1.00000000E+00  0.00000000E+00  0.00000000E+00
  0.00000000E+00  0.00000000E+00  1.00000000E+00  0.00000000E+00  0.00000000E+00
  0.00000000E+00  0.00000000E+00  1.00000000E+00  0.00000000E+00  0.00000000E+00
  0.00000000E+00  0.00000000E+00  0.00000000E+00  1.00000000E+00  1.00000000E+00
  0.00000000E+00  1.00000000E+00  0.00000000E+00  0.00000000E+00  0.00000000E+00
  0.00000000E+00  0.00000000E+00  0.00000000E+00  0.00000000E+00  0.00000000E+00
  0.00000000E+00  0.00000000E+00
MxBond                                     I                2
NBond                                      I   N=           4
           1           2           2           1
IBond                                      I   N=           8
           2           0           1           3           2           4
           3           0
RBond                                      R   N=           8
  1.00000000E+00  0.00000000E+00  1.00000000E+00  1.00000000E+00  1.00000000E+00
  2.00000000E+00  2.00000000E+00  0.00000000E+00
Virial Ratio                               R      2.002408219425544E+00
SCF Energy                                 R     -2.047229306750286E+02
MP2 Energy                                 R     -2.054213471235376E+02
Total Energy                               R     -2.054213471235376E+02
Post-SCF wavefunction norm                 R      1.090216112521870E+00
RMS Density                                R      5.630051354749328E-09
Job Status                                 I                1
Nuclear derivative order                   I                0
External E-field                           R   N=          35
  0.00000000E+00  0.00000000E+00  0.00000000E+00  0.00000000E+00  0.00000000E+00
  0.00000000E+00  0.00000000E+00  0.00000000E+00  0.00000000E+00  0.00000000E+00
  0.00000000E+00  0.00000000E+00  0.00000000E+00  0.00000000E+00  0.00000000E+00
  0.00000000E+00  0.00000000E+00  0.00000000E+00  0.00000000E+00  0.00000000E+00
  0.00000000E+00  0.00000000E+00  0.00000000E+00  0.00000000E+00  0.00000000E+00
  0.00000000E+00  0.00000000E+00  0.00000000E+00  0.00000000E+00  0.00000000E+00
  0.00000000E+00  0.00000000E+00  0.00000000E+00  0.00000000E+00  0.00000000E+00
IOpCl                                      I                0
IROHF                                      I                0
Alpha Orbital Energies                     R   N=         161
 -2.06664801E+01 -2.06415755E+01 -1.57994833E+01 -1.60250025E+00 -1.40108613E+00
 -9.48659753E-01 -7.83206999E-01 -7.29515640E-01 -6.80909076E-01 -6.25783401E-01
 -5.28558158E-01 -4.61673820E-01  2.81116993E-02  7.98255464E-02  9.38253697E-02
  9.75400920E-02  1.28940834E-01  1.43838094E-01  1.56832803E-01  1.72217621E-01
  1.87324870E-01  1.96556041E-01  2.05420297E-01  2.33216337E-01  2.57872268E-01
  2.96451746E-01  3.05717906E-01  3.29599546E-01  3.65257196E-01  3.82053786E-01
  4.24043631E-01  5.24991629E-01  5.26104960E-01  5.47532045E-01  5.73185969E-01
  6.12729754E-01  6.31003763E-01  6.48055871E-01  6.80182364E-01  7.14428593E-01
  7.17733224E-01  7.48095468E-01  7.74594070E-01  7.82271186E-01  8.11353879E-01
  8.11457334E-01  8.60558018E-01  8.78632276E-01  9.25696774E-01  9.39081424E-01
  9.45525837E-01  9.95455588E-01  1.04922176E+00  1.06245417E+00  1.08074921E+00
  1.10521451E+00  1.16064944E+00  1.19561770E+00  1.25210700E+00  1.26800652E+00
  1.36223266E+00  1.43334410E+00  1.48901868E+00  1.52289437E+00  1.52384607E+00
  1.54366741E+00  1.55377073E+00  1.60902328E+00  1.65776701E+00  1.72816764E+00
  1.75395858E+00  1.82141481E+00  1.85474026E+00  1.96125939E+00  1.97537540E+00
  1.99721704E+00  2.07329894E+00  2.13260303E+00  2.13268266E+00  2.18725338E+00
  2.27007141E+00  2.30802285E+00  2.32777768E+00  2.38149713E+00  2.45010807E+00
  2.46950116E+00  2.49856099E+00  2.50221600E+00  2.52033656E+00  2.54349930E+00
  2.56863281E+00  2.60697222E+00  2.60744017E+00  2.66102550E+00  2.77081458E+00
  2.77729433E+00  2.83706383E+00  2.93628729E+00  2.94583537E+00  3.11347013E+00
  3.14450657E+00  3.18327233E+00  3.24503816E+00  3.45854321E+00  3.83038265E+00
  3.85217861E+00  4.02832363E+00  4.17021589E+00  4.18184365E+00  4.21157252E+00
  4.36285029E+00  4.37171415E+00  4.57976878E+00  4.63199158E+00  4.74763152E+00
  4.81338788E+00  4.87162986E+00  4.88725957E+00  4.98021115E+00  5.00080922E+00
  5.07290657E+00  5.08689929E+00  5.16880246E+00  5.24610787E+00  5.25681424E+00
  5.33230426E+00  5.36637286E+00  5.37012093E+00  5.57718770E+00  5.66705180E+00
  5.79411187E+00  5.98976687E+00  6.11415327E+00  6.43124287E+00  6.50574671E+00
  6.50909675E+00  6.67361336E+00  6.71452060E+00  6.74531641E+00  6.84513755E+00
  6.91409597E+00  7.06655252E+00  7.11836475E+00  7.18023025E+00  7.23079118E+00
  7.25557976E+00  7.25840031E+00  7.33041147E+00  7.38011271E+00  7.43013522E+00
  7.47763777E+00  7.60417953E+00  7.64629448E+00  7.69556358E+00  7.78535648E+00
  7.97322654E+00  8.06520587E+00  8.42263309E+00  1.41826376E+01  1.51039095E+01
  1.59603072E+01
Alpha MO coefficients                      R   N=       25921
  5.63551049E-05  1.91276499E-04 -3.79717122E-04  3.67741694E-06 -5.44651295E-05
  1.07945980E-05  0.00000000E+00  4.39159442E-05  6.22187951E-05  0.00000000E+00
  2.64021118E-04  1.74013277E-05  0.00000000E+00  2.07913594E-05  0.00000000E+00
  0.00000000E+00  1.37036711E-05  6.75071711E-06  5.21337715E-05  0.00000000E+00
  0.00000000E+00 -3.06181567E-05  1.75121155E-05 -7.34988612E-04  7.89222254E-05
 -5.76324566E-05 -9.71499180E-05  2.14242211E-04  1.85848360E-05 -1.69713519E-05
  0.00000000E+00 -8.83771535E-05  4.36927014E-05  0.00000000E+00 -1.35756446E-04
  2.73571304E-05  0.00000000E+00 -1.14381859E-04  5.08523337E-05  0.00000000E+00
 -8.79281653E-06  0.00000000E+00  0.00000000E+00  2.65928417E-05  1.03272405E-05
  1.94899416E-06  0.00000000E+00  0.00000000E+00 -9.31251259E-05 -1.20015962E-04
 -1.48955640E-05  0.00000000E+00  0.00000000E+00 -6.96754111E-05 -2.33350776E-04
  0.00000000E+00  4.39369069E-06  1.81301163E-06  0.00000000E+00  0.00000000E+00
 -8.69672818E-06 -1.34193835E-05  0.00000000E+00 -2.11110090E-05 -1.69526108E-05
  0.00000000E+00  0.00000000E+00  1.91921137E-04 -5.10119686E-05  2.49771306E-04
  1.42044549E-03 -1.02438312E-04 -1.51338691E-03  3.87958102E-04 -1.13525666E-04
 -6.42641755E-05  0.00000000E+00 -2.03882500E-03 -5.55964432E-04  0.00000000E+00
  1.13750480E-03 -7.10764562E-05  0.00000000E+00 -1.14737242E-04 -9.29645193E-05
  0.00000000E+00 -1.25387026E-04  0.00000000E+00  0.00000000E+00  2.13915688E-04
  1.43524733E-04 -4.39485225E-04  0.00000000E+00  0.00000000E+00  5.59104008E-04
  7.85299036E-04 -3.14653290E-06  0.00000000E+00  0.00000000E+00 -1.58913878E-04
 -1.52516417E-04  0.00000000E+00  1.23804492E-05 -1.28385546E-05  0.00000000E+00
  0.00000000E+00  1.60396858E-05  1.44285653E-05  0.00000000E+00  1.45099604E-04
  1.27794275E-04  0.00000000E+00  0.00000000E+00 -2.69550336E-05 -2.93166378E-04
  9.76651943E-01 -9.86585935E-03  4.35603002E-02  4.27195148E-03 -5.32058274E-04
  2.10909657E-03  5.61065087E-04  0.00000000E+00 -2.41279438E-03 -5.81260031E-04
  0.00000000E+00  9.91655092E-04  5.43700836E-04  0.00000000E+00 -5.13515931E-05
  2.87304495E-05  0.00000000E+00 -2.29159955E-04  0.00000000E+00  0.00000000E+00
  7.70509207E-05  5.57499991E-05  3.86654349E-04  0.00000000E+00  0.00000000E+00
 -8.27561931E-04 -4.37544818E-04 -1.60440697E-04  0.00000000E+00  0.00000000E+00
  1.80868908E-04  2.46659119E-04  0.00000000E+00  5.52179338E-05  1.05877267E-05
  0.00000000E+00  0.00000000E+00 -1.74159015E-05 -2.43073744E-05  0.00000000E+00
  1.23669374E-04  4.61990500E-05  0.00000000E+00  0.00000000E+00 -1.60578479E-04
 -1.51967761E-04  4.74409027E-04  2.47565975E-03  3.46237922E-04 -6.49644572E-06
 -2.25508974E-04 -1.06506678E-04  0.00000000E+00 -9.96646212E-04 -8.70616493E-04
  0.00000000E+00 -9.50944186E-05 -4.23554688E-04  0.00000000E+00  1.16585097E-05
  0.00000000E+00  0.00000000E+00 -4.69094200E-05 -5.39319852E-05 -1.56162827E-04
  0.00000000E+00  0.00000000E+00  1.70000433E-04  4.15695769E-04  9.76758585E-01
 -9.24918962E-03  4.35477939E-02  8.56541448E-04 -8.86435770E-04  4.24340974E-04
  1.83401778E-03  0.00000000E+00 -2.29071305E-04 -1.82477953E-03  0.00000000E+00
 -1.51404816E-03  3.44017615E-04  0.00000000E+00 -5.94222864E-05  3.40277669E-05
  0.00000000E+00 -4.08899087E-05  0.00000000E+00  0.00000000E+00  3.70156490E-05
  4.79350489E-05  6.47111628E-04  0.00000000E+00  0.00000000E+00 -3.07886089E-04
  2.40971719E-04 -9.36071881E-05  0.00000000E+00  0.00000000E+00 -2.85953512E-04
 -3.80573928E-04  0.00000000E+00 -2.99792141E-05  4.55512290E-05  0.00000000E+00
  0.00000000E+00 -1.31109316E-05 -3.83526225E-06  0.00000000E+00  9.38530190E-05
  5.13227779E-05  0.00000000E+00  0.00000000E+00 -2.21224653E-04 -2.27173584E-04
  5.73867968E-05  1.47652216E-04 -3.16342752E-04 -3.81659127E-04  8.59216196E-04
 -8.32625060E-05  7.75817549E-05  0.00000000E+00  6.89935849E-04 -6.35412829E-04
  0.00000000E+00 -4.32018633E-04  5.68058541E-04  0.00000000E+00  1.57696882E-04
 -1.73028396E-04  0.00000000E+00 -3.24656103E-05  0.00000000E+00  0.00000000E+00
 -3.37623250E-05 -4.51005297E-05 -3.95533690E-04  0.00000000E+00  0.00000000E+00
 -1.63756133E-04 -9.23622268E-04 -1.85864149E-04  0.00000000E+00  0.00000000E+00
  5.56495153E-04 -6.08499157E-05  0.00000000E+00 -8.65881493E-05  9.88595509E-05
  0.00000000E+00  0.00000000E+00 -1.48661390E-04 -5.63724539E-05  0.00000000E+00
 -5.13906431E-05  1.18734490E-04  0.00000000E+00  0.00000000E+00 -4.28510129E-04
  2.70173275E-05  7.69336974E-04  4.81202460E-05  1.76410339E-05 -2.95131026E-04
 -1.96957831E-04 -1.53866415E-05  2.29612152E-05  0.00000000E+00  1.11186500E-04
 -1.30557824E-04  0.00000000E+00  4.14182977E-04 -4.45598888E-04  0.00000000E+00
 -7.68659014E-06  1.48703349E-06  0.00000000E+00 -5.36348071E-06  0.00000000E+00
  0.00000000E+00 -1.32812503E-05 -1.04367399E-05  1.68072276E-06  0.00000000E+00
  0.00000000E+00  1.41419317E-04 -3.77752107E-05 -6.56947511E-05  0.00000000E+00
  0.00000000E+00  2.62158245E-04 -2.41743968E-05  0.00000000E+00  2.71194489E-06
  1.03888923E-05  0.00000000E+00  0.00000000E+00 -1.27578231E-05 -1.07570482E-05
  0.00000000E+00  1.29577066E-05 -5.11301194E-05  0.00000000E+00  0.00000000E+00
  1.18467963E-04  7.31912486E-05 -7.31148226E-05 -4.96715340E-04 -3.30533731E-04
  2.06208409E-04  3.38281426E-05  3.42393323E-05  0.00000000E+00  4.74614607E-04
 -3.29190099E-04  0.00000000E+00  3.10303370E-04 -3.19456829E-04  0.00000000E+00
 -1.19998092E-05  0.00000000E+00  0.00000000E+00 -3.80462522E-05  2.94395495E-05
  1.13626553E-04  0.00000000E+00  0.00000000E+00 -3.16960291E-05  1.73702768E-04
 -1.26656339E-04 -2.25446452E-04 -2.07629875E-04  4.91787153E-03  3.23058134E-03
  1.00378908E-05 -4.26374919E-05  0.00000000E+00 -5.07683946E-04  8.43998759E-04
  0.00000000E+00 -2.36667872E-03  3.07509143E-03  0.00000000E+00 -8.20337887E-04
  5.65123053E-04  0.00000000E+00  1.66902094E-06  0.00000000E+00  0.00000000E+00
 -3.01254789E-05 -4.02488367E-05 -4.46741040E-04  0.00000000E+00  0.00000000E+00
 -4.48996139E-05 -5.28093523E-04 -6.08381008E-04  0.00000000E+00  0.00000000E+00
 -3.07194852E-04 -9.42131629E-04  0.00000000E+00  1.93599143E-05 -2.21515647E-05
  0.00000000E+00  0.00000000E+00  4.08027263E-05  3.25281989E-05  0.00000000E+00
  9.58479215E-05 -1.48050717E-04  0.00000000E+00  0.00000000E+00  3.49442355E-05
  2.28392228E-04  9.78285986E-01 -8.40301638E-03  4.17771941E-02 -5.48299879E-03
 -3.04739097E-03 -1.11824599E-03 -3.02851007E-03  0.00000000E+00 -7.16321797E-05
  2.97487361E-03  0.00000000E+00  4.64738705E-04  3.05333013E-03  0.00000000E+00
 -3.46365503E-05  5.43161000E-04  0.00000000E+00 -4.37648641E-04  0.00000000E+00
  0.00000000E+00  2.42691580E-04  2.30203993E-04  1.03069618E-03  0.00000000E+00
  0.00000000E+00 -1.84528618E-04  2.96238018E-04  3.59426872E-04  0.00000000E+00
  0.00000000E+00  1.12539263E-04  4.28463174E-05  0.00000000E+00  8.88215326E-05
 -6.91744898E-05  0.00000000E+00  0.00000000E+00 -5.89272481E-05 -8.05528717E-06
  0.00000000E+00 -2.25553415E-04 -2.25536163E-04  0.00000000E+00  0.00000000E+00
  4.58484694E-04  2.57557835E-04 -1.88840603E-04  9.23315755E-04  1.56728655E-04
  3.05265878E-03  9.04970131E-04  2.61866862E-04  1.22750189E-04  0.00000000E+00
  8.85524390E-04  2.75235137E-04  0.00000000E+00  1.25160037E-03 -1.36533017E-04
  0.00000000E+00  1.04807755E-05  3.83741246E-05  0.00000000E+00 -4.00546024E-05
  0.00000000E+00  0.00000000E+00  7.23857101E-05  8.41103527E-05  7.21138608E-05
  0.00000000E+00  0.00000000E+00  8.88321800E-07 -2.69620064E-04 -3.83815137E-05
  0.00000000E+00  0.00000000E+00  2.90611624E-04 -1.37256944E-04  0.00000000E+00
  9.24466864E-05  3.60989976E-05  0.00000000E+00  0.00000000E+00 -5.56048689E-05
 -1.11396118E-04  0.00000000E+00  1.58467239E-04  1.23828138E-04  0.00000000E+00
  0.00000000E+00  2.26478524E-05 -3.54000586E-04  2.06515417E-02  1.67728273E-02
 -1.42446028E-03  5.10808294E-04 -3.15887657E-03 -8.67256661E-04  0.00000000E+00
 -2.45378605E-03 -1.05479105E-03  0.00000000E+00  2.31265402E-03  1.75850299E-04
  0.00000000E+00 -2.34862276E-04  0.00000000E+00  0.00000000E+00  3.87861200E-04
  2.81295750E-04  2.89152943E-04  0.00000000E+00  0.00000000E+00  3.18117334E-04
  5.44927393E-04 -6.48846440E-02  1.57189249E-01  4.18699934E-02  9.13160707E-02
  8.14829687E-03 -1.47419728E-02  2.29435718E-02  0.00000000E+00 -1.98522962E-02
  3.31067948E-02  0.00000000E+00 -1.19861564E-02  1.08307213E-02  0.00000000E+00
 -2.13388678E-03 -1.70472956E-03  0.00000000E+00 -1.78653544E-03  0.00000000E+00
  0.00000000E+00  7.74738769E-05 -1.77351082E-03 -4.05500147E-03  0.00000000E+00
  0.00000000E+00  7.51621494E-04 -4.24356481E-03  9.50035405E-04  0.00000000E+00
  0.00000000E+00  9.60176893E-05 -1.66259151E-03  0.00000000E+00  4.42384548E-04
 -8.63989863E-04  0.00000000E+00  0.00000000E+00  6.99632697E-04  1.27197098E-03
  0.00000000E+00 -2.45558714E-04  5.34453208E-04  0.00000000E+00  0.00000000E+00
 -2.83575534E-04  1.99505264E-04 -1.29948146E-01  3.07104291E-01  8.09439778E-02
  6.28095458E-02  4.18469265E-06 -7.45179037E-02 -4.65536123E-02  0.00000000E+00
 -7.82626861E-02 -6.41104313E-02  0.00000000E+00 -3.43493156E-03  9.08110421E-03
  0.00000000E+00 -1.14012950E-04  3.24631137E-03  0.00000000E+00 -9.26446472E-03
  0.00000000E+00  0.00000000E+00  8.63874327E-03  6.41321266E-03 -1.13797533E-02
  0.00000000E+00  0.00000000E+00  9.39669177E-03  6.20484833E-03  6.23580165E-03
  0.00000000E+00  0.00000000E+00 -2.56489072E-04  5.93789166E-04  0.00000000E+00
  2.53088225E-03  2.40252030E-03  0.00000000E+00  0.00000000E+00 -4.85359458E-03
 -5.43425081E-03  0.00000000E+00 -1.37438248E-03 -4.39057400E-04  0.00000000E+00
  0.00000000E+00  9.47645732E-04 -6.30855511E-05 -1.50963405E-01  3.61127021E-01
  9.68218995E-02  1.80536449E-01 -1.49922458E-02  8.00738371E-02  2.19021862E-02
  0.00000000E+00  1.01562880E-01  2.75118024E-02  0.00000000E+00  1.77183933E-02
  3.40513654E-03  0.00000000E+00 -8.59062001E-03 -2.39129316E-03  0.00000000E+00
 -5.17887583E-03  0.00000000E+00  0.00000000E+00  7.32935796E-03  4.46560401E-03
 -9.52351397E-03  0.00000000E+00  0.00000000E+00  1.51321168E-02  9.41770145E-03
  2.50087545E-03  0.00000000E+00  0.00000000E+00 -3.68883251E-03 -2.59000878E-03
  0.00000000E+00 -3.15959545E-03 -8.68472739E-04  0.00000000E+00  0.00000000E+00
  3.35317622E-03  3.61684896E-03  0.00000000E+00 -1.14119972E-04 -2.72134303E-04
  0.00000000E+00  0.00000000E+00  1.04345940E-03  1.90658328E-03  8.06155719E-02
  7.90175486E-02 -2.07518191E-02 -2.90306640E-03 -1.18064170E-02 -4.77576065E-03
  0.00000000E+00 -1.47678134E-02 -1.40256589E-03  0.00000000E+00  7.72574616E-03
  2.26194908E-03  0.00000000E+00 -1.33968047E-03  0.00000000E+00  0.00000000E+00
  2.24564622E-03  1.20787802E-03  3.90863156E-04  0.00000000E+00  0.00000000E+00
  2.20188040E-03 -1.34449148E-03 -1.82131599E-01  4.43719117E-01  1.21130323E-01
  2.58893294E-01  1.14113739E-02  1.61916933E-02  3.78303106E-02  0.00000000E+00