title                                                                   
SP        RMP2-FC                                                     Aug-CC-pVTZ         
Number of atoms                            I                4
Info1-9                                    I   N=           9
          29          20           0           0           0         110
           1           2           1
Full Title                                 C   N=           1
title       
Route                                      C   N=           4
#p SP mp2/aug-cc-pvtz density=current           
Charge                                     I                0
Multiplicity                               I                1
Number of electrons                        I               24
Number of alpha electrons                  I               12
Number of beta electrons                   I               12
Number of basis functions                  I              161
Number of independent functions            I              161
Number of point charges in /Mol/           I                0
Number of translation vectors              I                0
Atomic numbers                             I   N=           4
           1           8           7           8
Nuclear charges                            R   N=           4
  1.00000000E+00  8.00000000E+00  7.00000000E+00  8.00000000E+00
Current cartesian coordinates              R   N=          12
  3.31752514E+00 -2.94720105E-01 -5.93884363E-32  1.68353429E+00 -1.12653095E+00
 -3.09229831E-33  1.04640647E-16  9.81873027E-01 -3.64420511E-33 -2.09822494E+00
  3.04232068E-01  1.60717436E-32
Number of symbols in /Mol/                 I                0
Force Field                                I                0
Atom Types                                 C   N=           4
                                                
Int Atom Types                             I   N=           4
           0           0           0           0
MM charges                                 R   N=           4
  0.00000000E+00  0.00000000E+00  0.00000000E+00  0.00000000E+00
Integer atomic weights                     I   N=           4
           1          16          14          16
Real atomic weights                        R   N=           4
  1.00782504E+00  1.59949146E+01  1.40030740E+01  1.59949146E+01
Atom fragment info                         I   N=           4
           0           0           0           0
Atom residue num                           I   N=           4
           0           0           0           0
Nuclear spins                              I   N=           4
           1           0           2           0
Nuclear ZEff                               R   N=           4
 -1.00000000E+00 -5.60000000E+00 -4.55000000E+00 -5.60000000E+00
Nuclear ZNuc                               R   N=           4
  1.00000000E+00  8.00000000E+00  7.00000000E+00  8.00000000E+00
Nuclear QMom                               R   N=           4
  0.00000000E+00  0.00000000E+00  2.04400000E+00  0.00000000E+00
Nuclear GFac                               R   N=           4
  2.79284600E+00  0.00000000E+00  4.03761000E-01  0.00000000E+00
MicOpt                                     I   N=           4
          -1          -1          -1          -1
Number of residues                         I                0
Number of secondary structures             I                0
SymInf integers                            I   N=          26
           1           2           1           1           1           1
           1          -1           0           0           0           0
           0           0           0           0           0           0
           0           0           0           0           0           0
           0           0
RotTr to input orientation                 R   N=          12
 -4.53666133E-01 -1.15181230E-16 -8.91171723E-01  8.91171723E-01  4.16038704E-17
 -4.53666133E-01  8.93300161E-17 -1.00000000E+00  8.37719885E-17  1.76769502E+00
  0.00000000E+00  2.82278007E+00
Number of contracted shells                I               51
Number of primitive shells                 I               92
Pure/Cartesian d shells                    I                0
Pure/Cartesian f shells                    I                0
Highest angular momentum                   I                3
Largest degree of contraction              I                7
Shell types                                I   N=          51
           0           0           0           0           1           1
           1          -2          -2           0           0           0
           0           0           1           1           1           1
          -2          -2          -2          -3          -3           0
           0           0           0           0           1           1
           1           1          -2          -2          -2          -3
          -3           0           0           0           0           0
           1           1           1           1          -2          -2
          -2          -3          -3
Number of primitives per shell             I   N=          51
           3           1           1           1           1           1
           1           1           1           7           6           1
           1           1           3           1           1           1
           1           1           1           1           1           7
           6           1           1           1           3           1
           1           1           1           1           1           1
           1           7           6           1           1           1
           3           1           1           1           1           1
           1           1           1
Shell to atom map                          I   N=          51
           1           1           1           1           1           1
           1           1           1           2           2           2
           2           2           2           2           2           2
           2           2           2           2           2           3
           3           3           3           3           3           3
           3           3           3           3           3           3
           3           4           4           4           4           4
           4           4           4           4           4           4
           4           4           4
Primitive exponents                        R   N=          92
  3.38700000E+01  5.09500000E+00  1.15900000E+00  3.25800000E-01  1.02700000E-01
  2.52600000E-02  1.40700000E+00  3.88000000E-01  1.02000000E-01  1.05700000E+00
  2.47000000E-01  1.53300000E+04  2.29900000E+03  5.22400000E+02  1.47300000E+02
  4.75500000E+01  1.67600000E+01  6.20700000E+00  5.22400000E+02  1.47300000E+02
  4.75500000E+01  1.67600000E+01  6.20700000E+00  6.88200000E-01  1.75200000E+00
  2.38400000E-01  7.37600000E-02  3.44600000E+01  7.74900000E+00  2.28000000E+00
  7.15600000E-01  2.14000000E-01  5.97400000E-02  2.31400000E+00  6.45000000E-01
  2.14000000E-01  1.42800000E+00  5.00000000E-01  1.14200000E+04  1.71200000E+03
  3.89300000E+02  1.10000000E+02  3.55700000E+01  1.25400000E+01  4.64400000E+00
  3.89300000E+02  1.10000000E+02  3.55700000E+01  1.25400000E+01  4.64400000E+00
  5.11800000E-01  1.29300000E+00  1.78700000E-01  5.76000000E-02  2.66300000E+01
  5.94800000E+00  1.74200000E+00  5.55000000E-01  1.72500000E-01  4.91000000E-02
  1.65400000E+00  4.69000000E-01  1.51000000E-01  1.09300000E+00  3.64000000E-01
  1.53300000E+04  2.29900000E+03  5.22400000E+02  1.47300000E+02  4.75500000E+01
  1.67600000E+01  6.20700000E+00  5.22400000E+02  1.47300000E+02  4.75500000E+01
  1.67600000E+01  6.20700000E+00  6.88200000E-01  1.75200000E+00  2.38400000E-01
  7.37600000E-02  3.44600000E+01  7.74900000E+00  2.28000000E+00  7.15600000E-01
  2.14000000E-01  5.97400000E-02  2.31400000E+00  6.45000000E-01  2.14000000E-01
  1.42800000E+00  5.00000000E-01
Contraction coefficients                   R   N=          92
  2.54948632E-02  1.90362766E-01  8.52162022E-01  1.00000000E+00  1.00000000E+00
  1.00000000E+00  1.00000000E+00  1.00000000E+00  1.00000000E+00  1.00000000E+00
  1.00000000E+00  5.19808943E-04  4.02025621E-03  2.07128267E-02  8.10105536E-02
  2.35962985E-01  4.42653446E-01  3.57064423E-01 -4.42115008E-05 -1.22591041E-03
 -1.05517725E-02 -6.74452633E-02 -1.71198607E-01  1.07329856E+00  1.00000000E+00
  1.00000000E+00  1.00000000E+00  4.11634896E-02  2.57762836E-01  8.02419274E-01
  1.00000000E+00  1.00000000E+00  1.00000000E+00  1.00000000E+00  1.00000000E+00
  1.00000000E+00  1.00000000E+00  1.00000000E+00  5.34563860E-04  4.13435660E-03
  2.12335358E-02  8.25006224E-02  2.38138871E-01  4.42551547E-01  3.53757422E-01
 -4.89867350E-05 -1.19527323E-03 -1.03490714E-02 -6.48680190E-02 -1.71552477E-01
  1.07289568E+00  1.00000000E+00  1.00000000E+00  1.00000000E+00  3.98072123E-02
  2.49002660E-01  8.10479727E-01  1.00000000E+00  1.00000000E+00  1.00000000E+00
  1.00000000E+00  1.00000000E+00  1.00000000E+00  1.00000000E+00  1.00000000E+00
  5.19808943E-04  4.02025621E-03  2.07128267E-02  8.10105536E-02  2.35962985E-01
  4.42653446E-01  3.57064423E-01 -4.42115008E-05 -1.22591041E-03 -1.05517725E-02
 -6.74452633E-02 -1.71198607E-01  1.07329856E+00  1.00000000E+00  1.00000000E+00
  1.00000000E+00  4.11634896E-02  2.57762836E-01  8.02419274E-01  1.00000000E+00
  1.00000000E+00  1.00000000E+00  1.00000000E+00  1.00000000E+00  1.00000000E+00
  1.00000000E+00  1.00000000E+00
Coordinates of each shell                  R   N=         153
  3.31752514E+00 -2.94720105E-01 -1.81635288E-33  3.31752514E+00 -2.94720105E-01
 -1.81635288E-33  3.31752514E+00 -2.94720105E-01 -1.81635288E-33  3.31752514E+00
 -2.94720105E-01 -1.81635288E-33  3.31752514E+00 -2.94720105E-01 -1.81635288E-33
  3.31752514E+00 -2.94720105E-01 -1.81635288E-33  3.31752514E+00 -2.94720105E-01
 -1.81635288E-33  3.31752514E+00 -2.94720105E-01 -1.81635288E-33  3.31752514E+00
 -2.94720105E-01 -1.81635288E-33  1.68353429E+00 -1.12653095E+00 -6.94278303E-33
  1.68353429E+00 -1.12653095E+00 -6.94278303E-33  1.68353429E+00 -1.12653095E+00
 -6.94278303E-33  1.68353429E+00 -1.12653095E+00 -6.94278303E-33  1.68353429E+00
 -1.12653095E+00 -6.94278303E-33  1.68353429E+00 -1.12653095E+00 -6.94278303E-33
  1.68353429E+00 -1.12653095E+00 -6.94278303E-33  1.68353429E+00 -1.12653095E+00
 -6.94278303E-33  1.68353429E+00 -1.12653095E+00 -6.94278303E-33  1.68353429E+00
 -1.12653095E+00 -6.94278303E-33  1.68353429E+00 -1.12653095E+00 -6.94278303E-33
  1.68353429E+00 -1.12653095E+00 -6.94278303E-33  1.68353429E+00 -1.12653095E+00
 -6.94278303E-33  1.68353429E+00 -1.12653095E+00 -6.94278303E-33  2.03570057E-18
  9.81873027E-01  6.05125973E-33  2.03570057E-18  9.81873027E-01  6.05125973E-33
  2.03570057E-18  9.81873027E-01  6.05125973E-33  2.03570057E-18  9.81873027E-01
  6.05125973E-33  2.03570057E-18  9.81873027E-01  6.05125973E-33  2.03570057E-18
  9.81873027E-01  6.05125973E-33  2.03570057E-18  9.81873027E-01  6.05125973E-33
  2.03570057E-18  9.81873027E-01  6.05125973E-33  2.03570057E-18  9.81873027E-01
  6.05125973E-33  2.03570057E-18  9.81873027E-01  6.05125973E-33  2.03570057E-18
  9.81873027E-01  6.05125973E-33  2.03570057E-18  9.81873027E-01  6.05125973E-33
  2.03570057E-18  9.81873027E-01  6.05125973E-33  2.03570057E-18  9.81873027E-01
  6.05125973E-33 -2.09822494E+00  3.04232068E-01  1.87497488E-33 -2.09822494E+00
  3.04232068E-01  1.87497488E-33 -2.09822494E+00  3.04232068E-01  1.87497488E-33
 -2.09822494E+00  3.04232068E-01  1.87497488E-33 -2.09822494E+00  3.04232068E-01
  1.87497488E-33 -2.09822494E+00  3.04232068E-01  1.87497488E-33 -2.09822494E+00
  3.04232068E-01  1.87497488E-33 -2.09822494E+00  3.04232068E-01  1.87497488E-33
 -2.09822494E+00  3.04232068E-01  1.87497488E-33 -2.09822494E+00  3.04232068E-01
  1.87497488E-33 -2.09822494E+00  3.04232068E-01  1.87497488E-33 -2.09822494E+00
  3.04232068E-01  1.87497488E-33 -2.09822494E+00  3.04232068E-01  1.87497488E-33
 -2.09822494E+00  3.04232068E-01  1.87497488E-33
Num ILSW                                   I              100
ILSW                                       I   N=         100
           0           0           0           0           2           0
           0           0           0           0           0          -1
           5           0           0           0           0           0
           0           0           0           0           0           0
           1           0           0           0           0           0
           0           0      100000           0          -1           0
           0           0           0           0           0           0
           0           0           0           1           0           0
           0 -2000000000           1           0           0           0
           0           0           4          52           0           0
           0           0           0           0           0           0
           0           0           0           4           0           1
           0           0           0           0           0           0
           0           0           0           0           0           0
           0           0           0           0           0           0
           0           0           0           0           0           0
           0           0           0           0
Num RLSW                                   I               52
RLSW                                       R   N=          52
  1.00000000E+00  1.00000000E+00  1.00000000E+00  1.00000000E+00  1.00000000E+00
  0.00000000E+00  0.00000000E+00  1.00000000E+00  0.00000000E+00  0.00000000E+00
  0.00000000E+00  0.00000000E+00  1.00000000E+00  0.00000000E+00  0.00000000E+00
  0.00000000E+00  0.00000000E+00  1.00000000E+00  0.00000000E+00  0.00000000E+00
  0.00000000E+00  0.00000000E+00  1.00000000E+00  0.00000000E+00  0.00000000E+00
  0.00000000E+00  0.00000000E+00  1.00000000E+00  0.00000000E+00  0.00000000E+00
  0.00000000E+00  0.00000000E+00  1.00000000E+00  0.00000000E+00  0.00000000E+00
  0.00000000E+00  0.00000000E+00  0.00000000E+00  1.00000000E+00  1.00000000E+00
  0.00000000E+00  1.00000000E+00  0.00000000E+00  0.00000000E+00  0.00000000E+00
  0.00000000E+00  0.00000000E+00  0.00000000E+00  0.00000000E+00  0.00000000E+00
  0.00000000E+00  0.00000000E+00
MxBond                                     I                2
NBond                                      I   N=           4
           1           2           2           1
IBond                                      I   N=           8
           2           0           1           3           2           4
           3           0
RBond                                      R   N=           8
  1.00000000E+00  0.00000000E+00  1.00000000E+00  1.00000000E+00  1.00000000E+00
  2.00000000E+00  2.00000000E+00  0.00000000E+00
Virial Ratio                               R      2.002136036079970E+00
SCF Energy                                 R     -2.047248945682945E+02
MP2 Energy                                 R     -2.054212022765512E+02
Total Energy                               R     -2.054212022765512E+02
Post-SCF wavefunction norm                 R      1.089315177384673E+00
RMS Density                                R      5.339380088795272E-09
Job Status                                 I                1
Nuclear derivative order                   I                0
External E-field                           R   N=          35
  0.00000000E+00  0.00000000E+00  0.00000000E+00  0.00000000E+00  0.00000000E+00
  0.00000000E+00  0.00000000E+00  0.00000000E+00  0.00000000E+00  0.00000000E+00
  0.00000000E+00  0.00000000E+00  0.00000000E+00  0.00000000E+00  0.00000000E+00
  0.00000000E+00  0.00000000E+00  0.00000000E+00  0.00000000E+00  0.00000000E+00
  0.00000000E+00  0.00000000E+00  0.00000000E+00  0.00000000E+00  0.00000000E+00
  0.00000000E+00  0.00000000E+00  0.00000000E+00  0.00000000E+00  0.00000000E+00
  0.00000000E+00  0.00000000E+00  0.00000000E+00  0.00000000E+00  0.00000000E+00
IOpCl                                      I                0
IROHF                                      I                0
Alpha Orbital Energies                     R   N=         161
 -2.06654899E+01 -2.06400180E+01 -1.57971794E+01 -1.61102421E+00 -1.40250835E+00
 -9.46734562E-01 -7.86246511E-01 -7.31873223E-01 -6.85158375E-01 -6.26390572E-01
 -5.29077579E-01 -4.59671992E-01  2.82761631E-02  8.33945518E-02  9.37069034E-02
  9.76274797E-02  1.28892522E-01  1.44059264E-01  1.56874069E-01  1.72281342E-01
  1.87347163E-01  1.96424567E-01  2.05885367E-01  2.33351131E-01  2.58236915E-01
  2.96821667E-01  3.09038326E-01  3.29881396E-01  3.65991242E-01  3.82964072E-01
  4.24576507E-01  5.24980018E-01  5.27527547E-01  5.48538353E-01  5.73591571E-01
  6.13826239E-01  6.36312712E-01  6.48749218E-01  6.77829123E-01  7.13966869E-01
  7.17684604E-01  7.48588962E-01  7.75019596E-01  7.82301000E-01  8.12216328E-01
  8.13303247E-01  8.62586126E-01  8.80484683E-01  9.26531161E-01  9.39562423E-01
  9.46725763E-01  9.96787802E-01  1.05013539E+00  1.06462065E+00  1.08275338E+00
  1.10710589E+00  1.16162569E+00  1.19722601E+00  1.25355692E+00  1.27054723E+00
  1.36240951E+00  1.43516053E+00  1.48897466E+00  1.52273102E+00  1.52480714E+00
  1.54489314E+00  1.55528696E+00  1.61059533E+00  1.65930961E+00  1.72889610E+00
  1.75522666E+00  1.82272440E+00  1.85682240E+00  1.96003944E+00  1.97990685E+00
  1.99317208E+00  2.07465665E+00  2.13274774E+00  2.13410094E+00  2.19298226E+00
  2.27199106E+00  2.30975861E+00  2.33098716E+00  2.38277844E+00  2.45244258E+00
  2.47136471E+00  2.49967830E+00  2.50339248E+00  2.52570578E+00  2.54454116E+00
  2.57440844E+00  2.60958993E+00  2.61125300E+00  2.66857280E+00  2.78089629E+00
  2.78166926E+00  2.83963410E+00  2.94271502E+00  2.95296040E+00  3.11524399E+00
  3.14897582E+00  3.18383878E+00  3.25502451E+00  3.46284242E+00  3.83416349E+00
  3.85600386E+00  4.03112577E+00  4.17161151E+00  4.20247383E+00  4.21514999E+00
  4.36747706E+00  4.37584498E+00  4.58791516E+00  4.64608636E+00  4.74899371E+00
  4.81858480E+00  4.87410606E+00  4.88683105E+00  4.98015553E+00  5.00117893E+00
  5.07445394E+00  5.09108170E+00  5.17480011E+00  5.24884883E+00  5.25816624E+00
  5.34651787E+00  5.37029423E+00  5.38099133E+00  5.56757680E+00  5.68466849E+00
  5.80159760E+00  5.99589624E+00  6.12165774E+00  6.43817890E+00  6.50702379E+00
  6.50962179E+00  6.67761028E+00  6.71900466E+00  6.74762135E+00  6.85590671E+00
  6.92095620E+00  7.07212428E+00  7.12394174E+00  7.18159537E+00  7.24045977E+00
  7.25963287E+00  7.26108829E+00  7.35740270E+00  7.39135862E+00  7.43646938E+00
  7.48163885E+00  7.63116552E+00  7.65239269E+00  7.70772971E+00  7.80852097E+00
  7.99161959E+00  8.07355047E+00  8.42864931E+00  1.42781335E+01  1.51599855E+01
  1.62653585E+01
Alpha MO coefficients                      R   N=       25921
  5.98992589E-05  2.17636684E-04 -3.49126612E-04  5.97517292E-06 -5.47309154E-05
  8.27177840E-06  0.00000000E+00  3.77480174E-05  4.78199164E-05  0.00000000E+00
  2.53944953E-04  1.19546485E-05  0.00000000E+00  2.11188065E-05  0.00000000E+00
  0.00000000E+00  1.25032147E-05  9.33534449E-06  4.83720012E-05  0.00000000E+00
  0.00000000E+00 -3.03601198E-05  1.79681143E-05 -7.33559210E-04  7.58720955E-05
 -5.58544125E-05 -1.09660436E-04  2.15640841E-04  1.78711601E-05 -1.83345944E-05
  0.00000000E+00 -8.85761532E-05  4.81501431E-05  0.00000000E+00 -1.49816233E-04
  6.18443121E-05  0.00000000E+00 -1.18795300E-04  5.42351734E-05  0.00000000E+00
 -8.97882281E-06  0.00000000E+00  0.00000000E+00  2.97081952E-05  9.68688725E-06
  4.05984279E-06  0.00000000E+00  0.00000000E+00 -1.16707633E-04 -1.18809869E-04
 -1.71311700E-05  0.00000000E+00  0.00000000E+00 -9.44469426E-05 -2.33713926E-04
  0.00000000E+00  3.40201862E-06  1.65839078E-06  0.00000000E+00  0.00000000E+00
 -6.53629402E-06 -1.45351171E-05  0.00000000E+00 -1.87893708E-05 -1.96639837E-05
  0.00000000E+00  0.00000000E+00  1.89726059E-04 -6.50446112E-05  2.51692640E-04
  1.43487539E-03 -5.78791592E-05 -1.74472029E-03  3.24113935E-04 -1.37823934E-04
 -7.11537650E-05  0.00000000E+00 -2.01036063E-03 -5.42640756E-04  0.00000000E+00
  1.22737667E-03 -3.50739679E-05  0.00000000E+00 -1.02110486E-04 -8.74241723E-05
  0.00000000E+00 -1.22582663E-04  0.00000000E+00  0.00000000E+00  2.14209023E-04
  1.39415338E-04 -4.09861575E-04  0.00000000E+00  0.00000000E+00  5.03125241E-04
  7.62142769E-04  1.30154974E-05  0.00000000E+00  0.00000000E+00 -1.93584834E-04
 -1.65814359E-04  0.00000000E+00 -3.22314596E-06 -1.75038705E-05  0.00000000E+00
  0.00000000E+00  3.02119050E-05  3.23983016E-05  0.00000000E+00  1.42548532E-04
  1.24980093E-04  0.00000000E+00  0.00000000E+00 -2.92782948E-05 -2.66925774E-04
  9.76633906E-01 -9.85223241E-03  4.35911605E-02  4.46936901E-03 -4.63312890E-04
  2.12197387E-03  5.55306417E-04  0.00000000E+00 -2.37187272E-03 -5.54685182E-04
  0.00000000E+00  1.03657317E-03  5.53256371E-04  0.00000000E+00 -4.57258677E-05
  3.20612136E-05  0.00000000E+00 -2.36432992E-04  0.00000000E+00  0.00000000E+00
  8.79784138E-05  6.18003367E-05  3.80681498E-04  0.00000000E+00  0.00000000E+00
 -8.18799817E-04 -4.18617728E-04 -1.50643070E-04  0.00000000E+00  0.00000000E+00
  1.74199816E-04  2.37302140E-04  0.00000000E+00  4.98495068E-05  8.25668628E-06
  0.00000000E+00  0.00000000E+00 -1.32746478E-05 -1.74276380E-05  0.00000000E+00
  1.30513888E-04  4.80704722E-05  0.00000000E+00  0.00000000E+00 -1.65735690E-04
 -1.51971993E-04  4.74676742E-04  2.46988752E-03  3.45775745E-04 -6.80810477E-06
 -2.24956411E-04 -1.05980472E-04  0.00000000E+00 -9.96517018E-04 -8.67129602E-04
  0.00000000E+00 -9.73701410E-05 -4.22863387E-04  0.00000000E+00  1.19360457E-05
  0.00000000E+00  0.00000000E+00 -4.87942556E-05 -5.38354436E-05 -1.56606388E-04
  0.00000000E+00  0.00000000E+00  1.71767155E-04  4.13567715E-04  9.76752223E-01
 -9.25462107E-03  4.35586590E-02  8.59877887E-04 -8.92086424E-04  4.31623850E-04
  1.82789498E-03  0.00000000E+00 -2.30741674E-04 -1.82325172E-03  0.00000000E+00
 -1.50524766E-03  3.43055189E-04  0.00000000E+00 -5.73156076E-05  3.36797316E-05
  0.00000000E+00 -4.24491768E-05  0.00000000E+00  0.00000000E+00  3.72621934E-05
  4.54957775E-05  6.48762886E-04  0.00000000E+00  0.00000000E+00 -3.06206446E-04
  2.48267591E-04 -8.96930496E-05  0.00000000E+00  0.00000000E+00 -2.88254894E-04
 -3.71466298E-04  0.00000000E+00 -3.00955510E-05  4.53335898E-05  0.00000000E+00
  0.00000000E+00 -1.30080615E-05 -3.38208244E-06  0.00000000E+00  9.33502125E-05
  5.32455647E-05  0.00000000E+00  0.00000000E+00 -2.27625057E-04 -2.25636613E-04
  5.81290833E-05  1.53848431E-04 -3.19178795E-04 -4.08150702E-04  8.50513170E-04
 -8.22797836E-05  7.70760540E-05  0.00000000E+00  7.08457359E-04 -6.51743073E-04
  0.00000000E+00 -4.26631481E-04  5.75962934E-04  0.00000000E+00  1.58572017E-04
 -1.72733194E-04  0.00000000E+00 -3.45201652E-05  0.00000000E+00  0.00000000E+00
 -3.55092498E-05 -4.97993725E-05 -3.97257458E-04  0.00000000E+00  0.00000000E+00
 -1.75835848E-04 -9.25238169E-04 -1.84404925E-04  0.00000000E+00  0.00000000E+00
  5.55412276E-04 -6.11086140E-05  0.00000000E+00 -8.61282304E-05  9.89917783E-05
  0.00000000E+00  0.00000000E+00 -1.47542654E-04 -5.47416813E-05  0.00000000E+00
 -4.99967239E-05  1.18717322E-04  0.00000000E+00  0.00000000E+00 -4.24725624E-04
  3.28362542E-05  7.67307241E-04  4.84596148E-05  1.82155173E-05 -2.70643177E-04
 -1.76730161E-04 -1.55171712E-05  2.19982054E-05  0.00000000E+00  1.15089819E-04
 -1.28183528E-04  0.00000000E+00  4.38310949E-04 -4.38926713E-04  0.00000000E+00
 -2.38382877E-06  2.02816245E-06  0.00000000E+00 -5.29156636E-06  0.00000000E+00
  0.00000000E+00 -1.34148968E-05 -1.12897384E-05  1.23946915E-06  0.00000000E+00
  0.00000000E+00  1.41882223E-04 -3.06639578E-05 -6.93056032E-05  0.00000000E+00
  0.00000000E+00  2.66273455E-04 -2.09890479E-05  0.00000000E+00  3.08062722E-06
  9.46955222E-06  0.00000000E+00  0.00000000E+00 -1.33789486E-05 -8.51039856E-06
  0.00000000E+00  1.19005920E-05 -5.16227416E-05  0.00000000E+00  0.00000000E+00
  1.18313490E-04  7.38459098E-05 -7.64140484E-05 -5.19717356E-04 -3.96460360E-04
  2.03327110E-04  3.58950169E-05  3.42209849E-05  0.00000000E+00  4.82356059E-04
 -3.36058208E-04  0.00000000E+00  3.32718786E-04 -3.23065993E-04  0.00000000E+00
 -1.27555127E-05  0.00000000E+00  0.00000000E+00 -3.93160460E-05  3.06850215E-05
  1.15237746E-04  0.00000000E+00  0.00000000E+00 -3.20071116E-05  1.79859625E-04
 -1.25854975E-04 -2.10338337E-04 -2.07680101E-04  4.93818885E-03  3.28350163E-03
  8.84449306E-06 -4.04382490E-05  0.00000000E+00 -5.15482172E-04  8.55684378E-04
  0.00000000E+00 -2.35072311E-03  3.06315480E-03  0.00000000E+00 -8.20585335E-04
  5.75090420E-04  0.00000000E+00  3.47176430E-07  0.00000000E+00  0.00000000E+00
 -3.24177396E-05 -4.31612119E-05 -4.46204655E-04  0.00000000E+00  0.00000000E+00
 -3.80349919E-05 -5.21520446E-04 -6.07549768E-04  0.00000000E+00  0.00000000E+00
 -2.94997375E-04 -9.30863645E-04  0.00000000E+00  1.87779444E-05 -2.08146003E-05
  0.00000000E+00  0.00000000E+00  3.80717218E-05  3.16360095E-05  0.00000000E+00
  9.16687395E-05 -1.45647619E-04  0.00000000E+00  0.00000000E+00  2.90259161E-05
  2.34672189E-04  9.78269540E-01 -8.31958942E-03  4.18335082E-02 -5.22362676E-03
 -2.94988568E-03 -1.14976168E-03 -3.03243305E-03  0.00000000E+00 -1.69806290E-04
  2.96469796E-03  0.00000000E+00  4.25314025E-04  3.04797078E-03  0.00000000E+00
 -5.11195993E-05  5.37744721E-04  0.00000000E+00 -4.52118874E-04  0.00000000E+00
  0.00000000E+00  2.64248150E-04  2.42122925E-04  1.01503358E-03  0.00000000E+00
  0.00000000E+00 -1.33779970E-04  3.00625919E-04  3.47997627E-04  0.00000000E+00
  0.00000000E+00  1.44779826E-04  2.74635191E-05  0.00000000E+00  9.90432802E-05
 -6.71921129E-05  0.00000000E+00  0.00000000E+00 -7.22802210E-05 -1.79456888E-05
  0.00000000E+00 -2.32587881E-04 -2.26518742E-04  0.00000000E+00  0.00000000E+00
  4.64258684E-04  2.38226977E-04 -2.04134502E-04  9.34475407E-04  1.85643981E-04
  2.81021338E-03  7.32680094E-04  2.81387885E-04  1.29605128E-04  0.00000000E+00
  8.10870871E-04  2.40926936E-04  0.00000000E+00  1.07298919E-03 -2.31453819E-04
  0.00000000E+00 -2.11272417E-05  2.69992195E-05  0.00000000E+00 -3.76789092E-05
  0.00000000E+00  0.00000000E+00  7.13034469E-05  8.27591596E-05  1.06011095E-04
  0.00000000E+00  0.00000000E+00 -4.82388544E-05 -3.22219602E-04 -1.08663625E-05
  0.00000000E+00  0.00000000E+00  2.56779790E-04 -1.75365612E-04  0.00000000E+00
  9.83401035E-05  3.83628571E-05  0.00000000E+00  0.00000000E+00 -6.05143836E-05
 -1.17985342E-04  0.00000000E+00  1.71381206E-04  1.28778148E-04  0.00000000E+00
  0.00000000E+00  1.04326941E-05 -3.78060634E-04  1.97539401E-02  1.60885453E-02
 -7.96502178E-04  5.34706165E-04 -3.01610316E-03 -8.13852517E-04  0.00000000E+00
 -2.40330296E-03 -1.12881376E-03  0.00000000E+00  2.11393981E-03  1.44141261E-04
  0.00000000E+00 -2.24583377E-04  0.00000000E+00  0.00000000E+00  3.58211460E-04
  2.84302862E-04  2.54235872E-04  0.00000000E+00  0.00000000E+00  3.03750248E-04
  5.83212803E-04 -6.29601486E-02  1.52543503E-01  4.06002386E-02  8.80477976E-02
  7.51157643E-03 -1.49774579E-02  2.26968530E-02  0.00000000E+00 -2.01169358E-02
  3.26639644E-02  0.00000000E+00 -1.17798182E-02  1.03542021E-02  0.00000000E+00
 -2.14575268E-03 -1.84983665E-03  0.00000000E+00 -1.77724958E-03  0.00000000E+00
  0.00000000E+00  6.15971255E-05 -1.82381677E-03 -3.91025260E-03  0.00000000E+00
  0.00000000E+00  7.16434244E-04 -4.16148876E-03  1.07729007E-03  0.00000000E+00
  0.00000000E+00  1.19380817E-04 -1.37526590E-03  0.00000000E+00  4.49175060E-04
 -8.54633738E-04  0.00000000E+00  0.00000000E+00  6.88390793E-04  1.26322667E-03
  0.00000000E+00 -2.85104807E-04  6.10334758E-04  0.00000000E+00  0.00000000E+00
 -4.16553858E-04  1.48221906E-04 -1.30642319E-01  3.07824911E-01  8.10182428E-02
  6.26342282E-02  7.32964576E-04 -7.70602765E-02 -4.67132602E-02  0.00000000E+00
 -8.01910600E-02 -6.41586825E-02  0.00000000E+00 -3.55719975E-03  9.34027139E-03
  0.00000000E+00 -1.38459755E-04  3.23446878E-03  0.00000000E+00 -9.47495644E-03
  0.00000000E+00  0.00000000E+00  9.00011324E-03  6.64511162E-03 -1.13362519E-02
  0.00000000E+00  0.00000000E+00  9.44714067E-03  6.26651140E-03  6.50782881E-03
  0.00000000E+00  0.00000000E+00 -5.16137864E-04  6.04826464E-04  0.00000000E+00
  2.64654071E-03  2.44255721E-03  0.00000000E+00  0.00000000E+00 -5.02548808E-03
 -5.51279809E-03  0.00000000E+00 -1.45518224E-03 -5.29926294E-04  0.00000000E+00
  0.00000000E+00  1.14663836E-03  1.42875445E-04 -1.51706196E-01  3.62431844E-01
  9.70314693E-02  1.78484528E-01 -1.64985615E-02  8.22077662E-02  2.21845058E-02
  0.00000000E+00  1.03529682E-01  2.76666038E-02  0.00000000E+00  1.63069369E-02
  2.95873404E-03  0.00000000E+00 -9.01050668E-03 -2.45756237E-03  0.00000000E+00
 -5.34292192E-03  0.00000000E+00  0.00000000E+00  7.61221980E-03  4.56126169E-03
 -9.63982625E-03  0.00000000E+00  0.00000000E+00  1.53913258E-02  9.45205428E-03
  2.82447578E-03  0.00000000E+00  0.00000000E+00 -4.19970138E-03 -2.84831797E-03
  0.00000000E+00 -3.22025254E-03 -8.72590350E-04  0.00000000E+00  0.00000000E+00
  3.45144116E-03  3.63651389E-03  0.00000000E+00 -9.76117487E-05 -2.70440431E-04
  0.00000000E+00  0.00000000E+00  1.04305028E-03  1.91777825E-03  8.05870241E-02
  7.89444190E-02 -2.08436308E-02 -2.90108598E-03 -1.18457058E-02 -4.70019290E-03
  0.00000000E+00 -1.47765605E-02 -1.20418342E-03  0.00000000E+00  7.78063225E-03
  2.23125981E-03  0.00000000E+00 -1.32457688E-03  0.00000000E+00  0.00000000E+00
  2.26955807E-03  1.15820454E-03  4.00470582E-04  0.00000000E+00  0.00000000E+00
  2.20591526E-03 -1.41150415E-03 -1.82636384E-01  4.44824969E-01  1.21315903E-01
  2.59547842E-01  1.15698159E-02  1.56292672E-02  3.84473813E-02  0.00000000E+00