title                                                                   
SP        RMP2-FC                                                     Aug-CC-pVTZ         
Number of atoms                            I                4
Info1-9                                    I   N=           9
          29          20           0           0           0         110
           1           2           1
Full Title                                 C   N=           1
title       
Route                                      C   N=           4
#p SP mp2/aug-cc-pvtz density=current           
Charge                                     I                0
Multiplicity                               I                1
Number of electrons                        I               24
Number of alpha electrons                  I               12
Number of beta electrons                   I               12
Number of basis functions                  I              161
Number of independent functions            I              161
Number of point charges in /Mol/           I                0
Number of translation vectors              I                0
Atomic numbers                             I   N=           4
           1           8           7           8
Nuclear charges                            R   N=           4
  1.00000000E+00  8.00000000E+00  7.00000000E+00  8.00000000E+00
Current cartesian coordinates              R   N=          12
  3.32212853E+00 -2.60394281E-01  2.81174111E-31  1.69515160E+00 -1.10584176E+00
  5.17804655E-31  2.06712672E-16  9.81074387E-01 -4.94263992E-31 -2.11041767E+00
  2.79950958E-01 -4.94742340E-31
Number of symbols in /Mol/                 I                0
Force Field                                I                0
Atom Types                                 C   N=           4
                                                
Int Atom Types                             I   N=           4
           0           0           0           0
MM charges                                 R   N=           4
  0.00000000E+00  0.00000000E+00  0.00000000E+00  0.00000000E+00
Integer atomic weights                     I   N=           4
           1          16          14          16
Real atomic weights                        R   N=           4
  1.00782504E+00  1.59949146E+01  1.40030740E+01  1.59949146E+01
Atom fragment info                         I   N=           4
           0           0           0           0
Atom residue num                           I   N=           4
           0           0           0           0
Nuclear spins                              I   N=           4
           1           0           2           0
Nuclear ZEff                               R   N=           4
 -1.00000000E+00 -5.60000000E+00 -4.55000000E+00 -5.60000000E+00
Nuclear ZNuc                               R   N=           4
  1.00000000E+00  8.00000000E+00  7.00000000E+00  8.00000000E+00
Nuclear QMom                               R   N=           4
  0.00000000E+00  0.00000000E+00  2.04400000E+00  0.00000000E+00
Nuclear GFac                               R   N=           4
  2.79284600E+00  0.00000000E+00  4.03761000E-01  0.00000000E+00
MicOpt                                     I   N=           4
          -1          -1          -1          -1
Number of residues                         I                0
Number of secondary structures             I                0
SymInf integers                            I   N=          26
           1           2           1           1           1           1
           1          -1           0           0           0           0
           0           0           0           0           0           0
           0           0           0           0           0           0
           0           0
RotTr to input orientation                 R   N=          12
 -4.61103494E-01  7.36168049E-17 -8.87346363E-01  8.87346363E-01  9.98949981E-16
 -4.61103494E-01  8.52469666E-16 -1.00000000E+00 -5.25942930E-16  1.76290499E+00
  0.00000000E+00  2.82780995E+00
Number of contracted shells                I               51
Number of primitive shells                 I               92
Pure/Cartesian d shells                    I                0
Pure/Cartesian f shells                    I                0
Highest angular momentum                   I                3
Largest degree of contraction              I                7
Shell types                                I   N=          51
           0           0           0           0           1           1
           1          -2          -2           0           0           0
           0           0           1           1           1           1
          -2          -2          -2          -3          -3           0
           0           0           0           0           1           1
           1           1          -2          -2          -2          -3
          -3           0           0           0           0           0
           1           1           1           1          -2          -2
          -2          -3          -3
Number of primitives per shell             I   N=          51
           3           1           1           1           1           1
           1           1           1           7           6           1
           1           1           3           1           1           1
           1           1           1           1           1           7
           6           1           1           1           3           1
           1           1           1           1           1           1
           1           7           6           1           1           1
           3           1           1           1           1           1
           1           1           1
Shell to atom map                          I   N=          51
           1           1           1           1           1           1
           1           1           1           2           2           2
           2           2           2           2           2           2
           2           2           2           2           2           3
           3           3           3           3           3           3
           3           3           3           3           3           3
           3           4           4           4           4           4
           4           4           4           4           4           4
           4           4           4
Primitive exponents                        R   N=          92
  3.38700000E+01  5.09500000E+00  1.15900000E+00  3.25800000E-01  1.02700000E-01
  2.52600000E-02  1.40700000E+00  3.88000000E-01  1.02000000E-01  1.05700000E+00
  2.47000000E-01  1.53300000E+04  2.29900000E+03  5.22400000E+02  1.47300000E+02
  4.75500000E+01  1.67600000E+01  6.20700000E+00  5.22400000E+02  1.47300000E+02
  4.75500000E+01  1.67600000E+01  6.20700000E+00  6.88200000E-01  1.75200000E+00
  2.38400000E-01  7.37600000E-02  3.44600000E+01  7.74900000E+00  2.28000000E+00
  7.15600000E-01  2.14000000E-01  5.97400000E-02  2.31400000E+00  6.45000000E-01
  2.14000000E-01  1.42800000E+00  5.00000000E-01  1.14200000E+04  1.71200000E+03
  3.89300000E+02  1.10000000E+02  3.55700000E+01  1.25400000E+01  4.64400000E+00
  3.89300000E+02  1.10000000E+02  3.55700000E+01  1.25400000E+01  4.64400000E+00
  5.11800000E-01  1.29300000E+00  1.78700000E-01  5.76000000E-02  2.66300000E+01
  5.94800000E+00  1.74200000E+00  5.55000000E-01  1.72500000E-01  4.91000000E-02
  1.65400000E+00  4.69000000E-01  1.51000000E-01  1.09300000E+00  3.64000000E-01
  1.53300000E+04  2.29900000E+03  5.22400000E+02  1.47300000E+02  4.75500000E+01
  1.67600000E+01  6.20700000E+00  5.22400000E+02  1.47300000E+02  4.75500000E+01
  1.67600000E+01  6.20700000E+00  6.88200000E-01  1.75200000E+00  2.38400000E-01
  7.37600000E-02  3.44600000E+01  7.74900000E+00  2.28000000E+00  7.15600000E-01
  2.14000000E-01  5.97400000E-02  2.31400000E+00  6.45000000E-01  2.14000000E-01
  1.42800000E+00  5.00000000E-01
Contraction coefficients                   R   N=          92
  2.54948632E-02  1.90362766E-01  8.52162022E-01  1.00000000E+00  1.00000000E+00
  1.00000000E+00  1.00000000E+00  1.00000000E+00  1.00000000E+00  1.00000000E+00
  1.00000000E+00  5.19808943E-04  4.02025621E-03  2.07128267E-02  8.10105536E-02
  2.35962985E-01  4.42653446E-01  3.57064423E-01 -4.42115008E-05 -1.22591041E-03
 -1.05517725E-02 -6.74452633E-02 -1.71198607E-01  1.07329856E+00  1.00000000E+00
  1.00000000E+00  1.00000000E+00  4.11634896E-02  2.57762836E-01  8.02419274E-01
  1.00000000E+00  1.00000000E+00  1.00000000E+00  1.00000000E+00  1.00000000E+00
  1.00000000E+00  1.00000000E+00  1.00000000E+00  5.34563860E-04  4.13435660E-03
  2.12335358E-02  8.25006224E-02  2.38138871E-01  4.42551547E-01  3.53757422E-01
 -4.89867350E-05 -1.19527323E-03 -1.03490714E-02 -6.48680190E-02 -1.71552477E-01
  1.07289568E+00  1.00000000E+00  1.00000000E+00  1.00000000E+00  3.98072123E-02
  2.49002660E-01  8.10479727E-01  1.00000000E+00  1.00000000E+00  1.00000000E+00
  1.00000000E+00  1.00000000E+00  1.00000000E+00  1.00000000E+00  1.00000000E+00
  5.19808943E-04  4.02025621E-03  2.07128267E-02  8.10105536E-02  2.35962985E-01
  4.42653446E-01  3.57064423E-01 -4.42115008E-05 -1.22591041E-03 -1.05517725E-02
 -6.74452633E-02 -1.71198607E-01  1.07329856E+00  1.00000000E+00  1.00000000E+00
  1.00000000E+00  4.11634896E-02  2.57762836E-01  8.02419274E-01  1.00000000E+00
  1.00000000E+00  1.00000000E+00  1.00000000E+00  1.00000000E+00  1.00000000E+00
  1.00000000E+00  1.00000000E+00
Coordinates of each shell                  R   N=         153
  3.32212853E+00 -2.60394281E-01  2.39519087E-31  3.32212853E+00 -2.60394281E-01
  2.39519087E-31  3.32212853E+00 -2.60394281E-01  2.39519087E-31  3.32212853E+00
 -2.60394281E-01  2.39519087E-31  3.32212853E+00 -2.60394281E-01  2.39519087E-31
  3.32212853E+00 -2.60394281E-01  2.39519087E-31  3.32212853E+00 -2.60394281E-01
  2.39519087E-31  3.32212853E+00 -2.60394281E-01  2.39519087E-31  3.32212853E+00
 -2.60394281E-01  2.39519087E-31  1.69515160E+00 -1.10584176E+00  3.36221942E-31
  1.69515160E+00 -1.10584176E+00  3.36221942E-31  1.69515160E+00 -1.10584176E+00
  3.36221942E-31  1.69515160E+00 -1.10584176E+00  3.36221942E-31  1.69515160E+00
 -1.10584176E+00  3.36221942E-31  1.69515160E+00 -1.10584176E+00  3.36221942E-31
  1.69515160E+00 -1.10584176E+00  3.36221942E-31  1.69515160E+00 -1.10584176E+00
  3.36221942E-31  1.69515160E+00 -1.10584176E+00  3.36221942E-31  1.69515160E+00
 -1.10584176E+00  3.36221942E-31  1.69515160E+00 -1.10584176E+00  3.36221942E-31
  1.69515160E+00 -1.10584176E+00  3.36221942E-31  1.69515160E+00 -1.10584176E+00
  3.36221942E-31  1.69515160E+00 -1.10584176E+00  3.36221942E-31  7.00403440E-17
  9.81074387E-01 -2.15786707E-31  7.00403440E-17  9.81074387E-01 -2.15786707E-31
  7.00403440E-17  9.81074387E-01 -2.15786707E-31  7.00403440E-17  9.81074387E-01
 -2.15786707E-31  7.00403440E-17  9.81074387E-01 -2.15786707E-31  7.00403440E-17
  9.81074387E-01 -2.15786707E-31  7.00403440E-17  9.81074387E-01 -2.15786707E-31
  7.00403440E-17  9.81074387E-01 -2.15786707E-31  7.00403440E-17  9.81074387E-01
 -2.15786707E-31  7.00403440E-17  9.81074387E-01 -2.15786707E-31  7.00403440E-17
  9.81074387E-01 -2.15786707E-31  7.00403440E-17  9.81074387E-01 -2.15786707E-31
  7.00403440E-17  9.81074387E-01 -2.15786707E-31  7.00403440E-17  9.81074387E-01
 -2.15786707E-31 -2.11041767E+00  2.79950958E-01 -1.77348459E-31 -2.11041767E+00
  2.79950958E-01 -1.77348459E-31 -2.11041767E+00  2.79950958E-01 -1.77348459E-31
 -2.11041767E+00  2.79950958E-01 -1.77348459E-31 -2.11041767E+00  2.79950958E-01
 -1.77348459E-31 -2.11041767E+00  2.79950958E-01 -1.77348459E-31 -2.11041767E+00
  2.79950958E-01 -1.77348459E-31 -2.11041767E+00  2.79950958E-01 -1.77348459E-31
 -2.11041767E+00  2.79950958E-01 -1.77348459E-31 -2.11041767E+00  2.79950958E-01
 -1.77348459E-31 -2.11041767E+00  2.79950958E-01 -1.77348459E-31 -2.11041767E+00
  2.79950958E-01 -1.77348459E-31 -2.11041767E+00  2.79950958E-01 -1.77348459E-31
 -2.11041767E+00  2.79950958E-01 -1.77348459E-31
Num ILSW                                   I              100
ILSW                                       I   N=         100
           0           0           0           0           2           0
           0           0           0           0           0          -1
           5           0           0           0           0           0
           0           0           0           0           0           0
           1           0           0           0           0           0
           0           0      100000           0          -1           0
           0           0           0           0           0           0
           0           0           0           1           0           0
           0 -2000000000           1           0           0           0
           0           0           4          52           0           0
           0           0           0           0           0           0
           0           0           0           4           0           1
           0           0           0           0           0           0
           0           0           0           0           0           0
           0           0           0           0           0           0
           0           0           0           0           0           0
           0           0           0           0
Num RLSW                                   I               52
RLSW                                       R   N=          52
  1.00000000E+00  1.00000000E+00  1.00000000E+00  1.00000000E+00  1.00000000E+00
  0.00000000E+00  0.00000000E+00  1.00000000E+00  0.00000000E+00  0.00000000E+00
  0.00000000E+00  0.00000000E+00  1.00000000E+00  0.00000000E+00  0.00000000E+00
  0.00000000E+00  0.00000000E+00  1.00000000E+00  0.00000000E+00  0.00000000E+00
  0.00000000E+00  0.00000000E+00  1.00000000E+00  0.00000000E+00  0.00000000E+00
  0.00000000E+00  0.00000000E+00  1.00000000E+00  0.00000000E+00  0.00000000E+00
  0.00000000E+00  0.00000000E+00  1.00000000E+00  0.00000000E+00  0.00000000E+00
  0.00000000E+00  0.00000000E+00  0.00000000E+00  1.00000000E+00  1.00000000E+00
  0.00000000E+00  1.00000000E+00  0.00000000E+00  0.00000000E+00  0.00000000E+00
  0.00000000E+00  0.00000000E+00  0.00000000E+00  0.00000000E+00  0.00000000E+00
  0.00000000E+00  0.00000000E+00
MxBond                                     I                2
NBond                                      I   N=           4
           1           2           2           1
IBond                                      I   N=           8
           2           0           1           3           2           4
           3           0
RBond                                      R   N=           8
  1.00000000E+00  0.00000000E+00  1.00000000E+00  1.00000000E+00  1.00000000E+00
  2.00000000E+00  2.00000000E+00  0.00000000E+00
Virial Ratio                               R      2.002324121901184E+00
SCF Energy                                 R     -2.047238475233297E+02
MP2 Energy                                 R     -2.054213467287640E+02
Total Energy                               R     -2.054213467287640E+02
Post-SCF wavefunction norm                 R      1.089802238544527E+00
RMS Density                                R      5.335890690773279E-09
Job Status                                 I                1
Nuclear derivative order                   I                0
External E-field                           R   N=          35
  0.00000000E+00  0.00000000E+00  0.00000000E+00  0.00000000E+00  0.00000000E+00
  0.00000000E+00  0.00000000E+00  0.00000000E+00  0.00000000E+00  0.00000000E+00
  0.00000000E+00  0.00000000E+00  0.00000000E+00  0.00000000E+00  0.00000000E+00
  0.00000000E+00  0.00000000E+00  0.00000000E+00  0.00000000E+00  0.00000000E+00
  0.00000000E+00  0.00000000E+00  0.00000000E+00  0.00000000E+00  0.00000000E+00
  0.00000000E+00  0.00000000E+00  0.00000000E+00  0.00000000E+00  0.00000000E+00
  0.00000000E+00  0.00000000E+00  0.00000000E+00  0.00000000E+00  0.00000000E+00
IOpCl                                      I                0
IROHF                                      I                0
Alpha Orbital Energies                     R   N=         161
 -2.06641339E+01 -2.06431866E+01 -1.57980307E+01 -1.60312167E+00 -1.40418101E+00
 -9.48419594E-01 -7.85080778E-01 -7.30106409E-01 -6.82219672E-01 -6.25080390E-01
 -5.28555506E-01 -4.61823524E-01  2.78685820E-02  8.10713545E-02  9.40925800E-02
  9.75761177E-02  1.28845150E-01  1.43453597E-01  1.56951046E-01  1.72039104E-01
  1.87135165E-01  1.96644279E-01  2.05742662E-01  2.33712536E-01  2.57939400E-01
  2.96226007E-01  3.09894588E-01  3.29983366E-01  3.66270411E-01  3.82950312E-01
  4.23805055E-01  5.25597999E-01  5.26523660E-01  5.48573537E-01  5.73435441E-01
  6.13258495E-01  6.31581419E-01  6.48093558E-01  6.80220690E-01  7.14069584E-01
  7.18149641E-01  7.47861482E-01  7.75115742E-01  7.80903354E-01  8.11652931E-01
  8.12289922E-01  8.61740368E-01  8.78957863E-01  9.25741189E-01  9.38940175E-01
  9.44637267E-01  9.94908063E-01  1.04992379E+00  1.06350897E+00  1.08175682E+00
  1.10650708E+00  1.16109257E+00  1.19695007E+00  1.25233060E+00  1.26923310E+00
  1.36100190E+00  1.43404388E+00  1.48854717E+00  1.52317707E+00  1.52491076E+00
  1.54466832E+00  1.55473468E+00  1.61006243E+00  1.65859771E+00  1.72935705E+00
  1.75531447E+00  1.82365210E+00  1.85708601E+00  1.96062282E+00  1.97736869E+00
  1.99838723E+00  2.07565502E+00  2.13311466E+00  2.13363200E+00  2.18980751E+00
  2.27152426E+00  2.30873567E+00  2.33054937E+00  2.38040419E+00  2.45244953E+00
  2.47061822E+00  2.49871813E+00  2.50313396E+00  2.52241515E+00  2.54516534E+00
  2.56984616E+00  2.60724289E+00  2.60888240E+00  2.66315047E+00  2.77279152E+00
  2.77882262E+00  2.84138010E+00  2.93986689E+00  2.95865911E+00  3.11713680E+00
  3.14883854E+00  3.18244869E+00  3.24920540E+00  3.46374707E+00  3.83281578E+00
  3.85669764E+00  4.02940383E+00  4.17014659E+00  4.18389281E+00  4.21513457E+00
  4.36405280E+00  4.37312156E+00  4.58327101E+00  4.63508234E+00  4.74631774E+00
  4.82241735E+00  4.87227652E+00  4.88749141E+00  4.97998293E+00  5.00302799E+00
  5.07463399E+00  5.08639154E+00  5.17299692E+00  5.24653451E+00  5.25872492E+00
  5.33462404E+00  5.37226477E+00  5.37838364E+00  5.58206285E+00  5.66854240E+00
  5.79301315E+00  5.98623292E+00  6.12507792E+00  6.43864788E+00  6.50832596E+00
  6.51105391E+00  6.67502730E+00  6.71680126E+00  6.74568327E+00  6.85002074E+00
  6.91940074E+00  7.07164310E+00  7.12054958E+00  7.17927388E+00  7.23681345E+00
  7.25697649E+00  7.25789696E+00  7.33321936E+00  7.37961511E+00  7.43557996E+00
  7.47988587E+00  7.61159629E+00  7.64941983E+00  7.70304543E+00  7.79638512E+00
  7.99152193E+00  8.07669153E+00  8.42648824E+00  1.42209444E+01  1.51535914E+01
  1.59836642E+01
Alpha MO coefficients                      R   N=       25921
  5.76770269E-05  1.99026529E-04 -3.67072779E-04  5.59431156E-06 -5.51389071E-05
  1.02193842E-05  0.00000000E+00  4.74158510E-05  5.53206306E-05  0.00000000E+00
  2.63191783E-04  1.56234069E-05  0.00000000E+00  2.09214785E-05  0.00000000E+00
  0.00000000E+00  1.27640126E-05  7.87311645E-06  5.23850312E-05  0.00000000E+00
  0.00000000E+00 -3.35599645E-05  1.81581860E-05 -8.89282509E-04  8.01367482E-05
 -6.41332616E-05 -8.25297548E-05  2.25221527E-04  1.81309698E-05 -1.77832817E-05
  0.00000000E+00 -8.99596980E-05  4.81253796E-05  0.00000000E+00 -1.58608329E-04
  5.40935766E-05  0.00000000E+00 -1.22116832E-04  5.35929804E-05  0.00000000E+00
 -9.02280257E-06  0.00000000E+00  0.00000000E+00  2.74882398E-05  1.06470023E-05
  2.07847351E-06  0.00000000E+00  0.00000000E+00 -1.00305694E-04 -1.23794077E-04
 -1.81036158E-05  0.00000000E+00  0.00000000E+00 -7.71151779E-05 -2.42916154E-04
  0.00000000E+00  3.41005020E-06  1.87088962E-06  0.00000000E+00  0.00000000E+00
 -7.11469311E-06 -1.48702338E-05  0.00000000E+00 -1.93973530E-05 -1.82456828E-05
  0.00000000E+00  0.00000000E+00  1.93462211E-04 -4.91897549E-05  2.48923883E-04
  1.41744386E-03 -1.00874152E-04 -1.55240923E-03  3.69698748E-04 -1.12544211E-04
 -6.48397122E-05  0.00000000E+00 -2.04685665E-03 -5.61636278E-04  0.00000000E+00
  1.14009427E-03 -6.18970443E-05  0.00000000E+00 -1.13741005E-04 -9.21551248E-05
  0.00000000E+00 -1.25183445E-04  0.00000000E+00  0.00000000E+00  2.13398297E-04
  1.45837397E-04 -4.37540336E-04  0.00000000E+00  0.00000000E+00  5.45511756E-04
  7.97764409E-04  2.95323053E-07  0.00000000E+00  0.00000000E+00 -1.67061923E-04
 -1.50594299E-04  0.00000000E+00  1.30127689E-05 -1.29061999E-05  0.00000000E+00
  0.00000000E+00  1.61295652E-05  1.57395289E-05  0.00000000E+00  1.43002711E-04
  1.29383294E-04  0.00000000E+00  0.00000000E+00 -1.87265954E-05 -2.91279107E-04
  9.76649544E-01 -9.86378370E-03  4.35654314E-02  4.28384860E-03 -5.28315447E-04
  2.10768414E-03  5.70294051E-04  0.00000000E+00 -2.41062465E-03 -5.90210851E-04
  0.00000000E+00  9.83722794E-04  5.56599995E-04  0.00000000E+00 -5.20923173E-05
  3.05877067E-05  0.00000000E+00 -2.29148190E-04  0.00000000E+00  0.00000000E+00
  7.68392827E-05  5.54676286E-05  3.88218592E-04  0.00000000E+00  0.00000000E+00
 -8.26366894E-04 -4.44265366E-04 -1.59073710E-04  0.00000000E+00  0.00000000E+00
  1.73893120E-04  2.49583191E-04  0.00000000E+00  5.52920433E-05  1.07991896E-05
  0.00000000E+00  0.00000000E+00 -1.68892140E-05 -2.42945458E-05  0.00000000E+00
  1.24330760E-04  4.70953124E-05  0.00000000E+00  0.00000000E+00 -1.60183069E-04
 -1.54201942E-04  4.73471192E-04  2.47052113E-03  3.47792831E-04 -8.29100406E-06
 -2.22636050E-04 -1.06688312E-04  0.00000000E+00 -9.83930935E-04 -8.74452631E-04
  0.00000000E+00 -9.09053224E-05 -4.25305403E-04  0.00000000E+00  1.21714085E-05
  0.00000000E+00  0.00000000E+00 -4.82302050E-05 -5.62770973E-05 -1.54209775E-04
  0.00000000E+00  0.00000000E+00  1.62767345E-04  4.15842139E-04  9.76750935E-01
 -9.25661380E-03  4.35624858E-02  8.05163378E-04 -9.22879816E-04  4.01576796E-04
  1.84957353E-03  0.00000000E+00 -1.92086617E-04 -1.84587991E-03  0.00000000E+00
 -1.50134972E-03  3.08296236E-04  0.00000000E+00 -5.78930749E-05  2.85566375E-05
  0.00000000E+00 -4.36804106E-05  0.00000000E+00  0.00000000E+00  3.54316804E-05
  4.54964355E-05  6.54330038E-04  0.00000000E+00  0.00000000E+00 -3.05229289E-04
  2.56421038E-04 -8.67282986E-05  0.00000000E+00  0.00000000E+00 -2.81606442E-04
 -3.76128313E-04  0.00000000E+00 -3.16520258E-05  4.56020975E-05  0.00000000E+00
  0.00000000E+00 -1.35050290E-05 -3.44101496E-06  0.00000000E+00  9.23185684E-05
  5.62557534E-05  0.00000000E+00  0.00000000E+00 -2.25509585E-04 -2.31747078E-04
  6.19283576E-05  1.77643413E-04 -3.23045514E-04 -3.55696002E-04  8.75752971E-04
 -8.39778620E-05  7.71656024E-05  0.00000000E+00  7.31089704E-04 -6.73901073E-04
  0.00000000E+00 -3.95331124E-04  5.30605893E-04  0.00000000E+00  1.65135560E-04
 -1.76631430E-04  0.00000000E+00 -3.69631914E-05  0.00000000E+00  0.00000000E+00
 -3.56160679E-05 -5.43735815E-05 -4.04095233E-04  0.00000000E+00  0.00000000E+00
 -1.64381438E-04 -9.36961310E-04 -1.88829282E-04  0.00000000E+00  0.00000000E+00
  5.49174377E-04 -5.47935364E-05  0.00000000E+00 -8.77878709E-05  9.87131121E-05
  0.00000000E+00  0.00000000E+00 -1.46477911E-04 -5.99983113E-05  0.00000000E+00
 -5.39923911E-05  1.20231597E-04  0.00000000E+00  0.00000000E+00 -4.25059892E-04
  1.62061761E-05  9.23384598E-04  4.57625951E-05  2.48045407E-05 -2.74765461E-04
 -1.82618646E-04 -1.50047606E-05  2.15851069E-05  0.00000000E+00  1.12282310E-04
 -1.23670488E-04  0.00000000E+00  4.20748048E-04 -4.19447166E-04  0.00000000E+00
 -5.20347092E-06  3.86611760E-06  0.00000000E+00 -5.25156005E-06  0.00000000E+00
  0.00000000E+00 -1.29820697E-05 -1.11135460E-05  5.34393433E-07  0.00000000E+00
  0.00000000E+00  1.39430636E-04 -2.83548824E-05 -6.76425734E-05  0.00000000E+00
  0.00000000E+00  2.59193981E-04 -1.37704987E-05  0.00000000E+00  3.22604817E-06
  9.69804256E-06  0.00000000E+00  0.00000000E+00 -1.34038191E-05 -9.18529191E-06
  0.00000000E+00  1.14364921E-05 -5.10448924E-05  0.00000000E+00  0.00000000E+00
  1.15505652E-04  7.67256024E-05 -7.85064699E-05 -5.04100121E-04 -3.39184778E-04
  2.07282386E-04  3.73782986E-05  3.21221869E-05  0.00000000E+00  4.75306250E-04
 -3.40290331E-04  0.00000000E+00  3.14901672E-04 -3.22773545E-04  0.00000000E+00
 -1.49106033E-05  0.00000000E+00  0.00000000E+00 -4.07137998E-05  3.08085979E-05
  1.11593715E-04  0.00000000E+00  0.00000000E+00 -3.41087243E-05  1.78355380E-04
 -1.25660538E-04 -1.94864711E-04 -2.08161149E-04  4.99633736E-03  3.26766249E-03
  8.39674108E-06 -3.89809695E-05  0.00000000E+00 -5.40450248E-04  8.68079485E-04
  0.00000000E+00 -2.40251275E-03  3.06666177E-03  0.00000000E+00 -8.26711902E-04
  5.62038498E-04  0.00000000E+00 -1.33745277E-06  0.00000000E+00  0.00000000E+00
 -3.21240879E-05 -4.71533881E-05 -4.45253588E-04  0.00000000E+00  0.00000000E+00
 -3.23402128E-05 -5.21584522E-04 -6.03645088E-04  0.00000000E+00  0.00000000E+00
 -2.84807216E-04 -9.30818722E-04  0.00000000E+00  1.84372138E-05 -2.04392320E-05
  0.00000000E+00  0.00000000E+00  3.70913291E-05  3.23591917E-05  0.00000000E+00
  9.10027413E-05 -1.40456340E-04  0.00000000E+00  0.00000000E+00  1.26355569E-05
  2.33231276E-04  9.78276147E-01 -8.39694315E-03  4.17953139E-02 -5.49574318E-03
 -3.05074469E-03 -1.07885999E-03 -3.04743739E-03  0.00000000E+00 -1.21502119E-04
  2.98639388E-03  0.00000000E+00  4.28268269E-04  3.09221872E-03  0.00000000E+00
 -4.14248177E-05  5.45700438E-04  0.00000000E+00 -4.41273753E-04  0.00000000E+00
  0.00000000E+00  2.37150787E-04  2.28516314E-04  1.03017830E-03  0.00000000E+00
  0.00000000E+00 -1.60743918E-04  3.05659352E-04  3.61273544E-04  0.00000000E+00
  0.00000000E+00  1.29989900E-04  4.88004770E-05  0.00000000E+00  9.09827899E-05
 -6.83637620E-05  0.00000000E+00  0.00000000E+00 -6.15747814E-05 -1.27893246E-05
  0.00000000E+00 -2.25069324E-04 -2.31202320E-04  0.00000000E+00  0.00000000E+00
  4.61412492E-04  2.56625497E-04 -1.89416663E-04  9.16693661E-04  1.58280697E-04
  2.99788176E-03  8.71134357E-04  2.62406295E-04  1.24263667E-04  0.00000000E+00
  8.67751617E-04  2.73867871E-04  0.00000000E+00  1.22172123E-03 -1.46196572E-04
  0.00000000E+00  4.15344636E-06  3.63339738E-05  0.00000000E+00 -3.94309739E-05
  0.00000000E+00  0.00000000E+00  7.12295584E-05  8.46284626E-05  7.51165048E-05
  0.00000000E+00  0.00000000E+00 -2.07436744E-06 -2.76416700E-04 -3.42106009E-05
  0.00000000E+00  0.00000000E+00  2.85234446E-04 -1.39751221E-04  0.00000000E+00
  9.22408095E-05  3.68727177E-05  0.00000000E+00  0.00000000E+00 -5.38473944E-05
 -1.13119436E-04  0.00000000E+00  1.58155685E-04  1.24746779E-04  0.00000000E+00
  0.00000000E+00  2.70494485E-05 -3.55907357E-04  2.16309255E-02  1.76413507E-02
 -1.79960284E-03  4.09339855E-04 -3.31003396E-03 -9.28167065E-04  0.00000000E+00
 -2.74028181E-03 -1.01652304E-03  0.00000000E+00  2.44653362E-03  2.05497969E-04
  0.00000000E+00 -2.44744008E-04  0.00000000E+00  0.00000000E+00  4.28535392E-04
  2.91011881E-04  2.73052228E-04  0.00000000E+00  0.00000000E+00  4.10579283E-04
  5.41467200E-04 -6.78069785E-02  1.64294862E-01  4.37866210E-02  9.40480080E-02
  7.38212450E-03 -1.53998096E-02  2.39511445E-02  0.00000000E+00 -2.06468567E-02
  3.43543196E-02  0.00000000E+00 -1.17350596E-02  1.03430255E-02  0.00000000E+00
 -1.92919910E-03 -1.95149330E-03  0.00000000E+00 -1.87066321E-03  0.00000000E+00
  0.00000000E+00  9.35902401E-05 -1.85006566E-03 -4.18240384E-03  0.00000000E+00
  0.00000000E+00  7.98517862E-04 -4.37025078E-03  1.11579029E-03  0.00000000E+00
  0.00000000E+00  2.15239325E-04 -1.51180767E-03  0.00000000E+00  4.76018198E-04
 -9.07533703E-04  0.00000000E+00  0.00000000E+00  7.22371261E-04  1.34686729E-03
  0.00000000E+00 -2.69739365E-04  5.44550955E-04  0.00000000E+00  0.00000000E+00
 -2.27636608E-04  1.50527074E-04 -1.30240890E-01  3.07888010E-01  8.10357128E-02
  6.41546524E-02  9.59849074E-04 -7.24233286E-02 -4.76691137E-02  0.00000000E+00
 -7.57638456E-02 -6.56710490E-02  0.00000000E+00 -3.06566524E-03  8.66815666E-03
  0.00000000E+00  1.34391309E-05  3.10098078E-03  0.00000000E+00 -9.31517192E-03
  0.00000000E+00  0.00000000E+00  8.39891399E-03  6.22147232E-03 -1.15650040E-02
  0.00000000E+00  0.00000000E+00  9.09124170E-03  5.76882371E-03  6.10414946E-03
  0.00000000E+00  0.00000000E+00 -6.08036094E-05  4.79589176E-04  0.00000000E+00
  2.45605471E-03  2.46479999E-03  0.00000000E+00  0.00000000E+00 -4.84264215E-03
 -5.50982199E-03  0.00000000E+00 -1.37861253E-03 -4.21019709E-04  0.00000000E+00
  0.00000000E+00  8.69907223E-04 -3.05453849E-05 -1.49358761E-01  3.57157017E-01
  9.57186907E-02  1.78016133E-01 -1.51571415E-02  7.94849818E-02  2.18629249E-02
  0.00000000E+00  1.00768547E-01  2.74199353E-02  0.00000000E+00  1.74552546E-02
  3.11966922E-03  0.00000000E+00 -8.58327261E-03 -2.42109586E-03  0.00000000E+00
 -5.13952665E-03  0.00000000E+00  0.00000000E+00  7.24899880E-03  4.47259857E-03
 -9.42235824E-03  0.00000000E+00  0.00000000E+00  1.49715035E-02  9.37813945E-03
  2.51960732E-03  0.00000000E+00  0.00000000E+00 -3.62179125E-03 -2.66053804E-03
  0.00000000E+00 -3.13205162E-03 -8.68752296E-04  0.00000000E+00  0.00000000E+00
  3.29346296E-03  3.60825339E-03  0.00000000E+00 -9.29240687E-05 -2.65373648E-04
  0.00000000E+00  0.00000000E+00  1.01782143E-03  1.90488704E-03  7.99352578E-02
  7.87540199E-02 -2.05714440E-02 -2.86226588E-03 -1.17283519E-02 -4.77075177E-03
  0.00000000E+00 -1.48221091E-02 -1.33577198E-03  0.00000000E+00  7.60986744E-03
  2.35383292E-03  0.00000000E+00 -1.31631821E-03  0.00000000E+00  0.00000000E+00
  2.24294116E-03  1.19401408E-03  3.90712520E-04  0.00000000E+00  0.00000000E+00
  2.21496336E-03 -1.39458537E-03 -1.80724203E-01  4.40239979E-01  1.20066311E-01
  2.56649820E-01  1.14652051E-02  1.56882280E-02  3.82066551E-02  0.00000000E+00