title                                                                   
SP        RMP2-FC                                                     Aug-CC-pVTZ         
Number of atoms                            I                4
Info1-9                                    I   N=           9
          29          20           0           0           0         110
           1           2           1
Full Title                                 C   N=           1
title       
Route                                      C   N=           4
#p SP mp2/aug-cc-pvtz density=current           
Charge                                     I                0
Multiplicity                               I                1
Number of electrons                        I               24
Number of alpha electrons                  I               12
Number of beta electrons                   I               12
Number of basis functions                  I              161
Number of independent functions            I              161
Number of point charges in /Mol/           I                0
Number of translation vectors              I                0
Atomic numbers                             I   N=           4
           1           8           7           8
Nuclear charges                            R   N=           4
  1.00000000E+00  8.00000000E+00  7.00000000E+00  8.00000000E+00
Current cartesian coordinates              R   N=          12
  3.33735355E+00 -3.20802534E-01 -1.32830420E-31  1.70098713E+00 -1.14793029E+00
 -3.13250857E-31 -2.56299120E-16  9.94888378E-01  3.42303859E-31 -2.11815632E+00
  3.17503276E-01  3.23641031E-32
Number of symbols in /Mol/                 I                0
Force Field                                I                0
Atom Types                                 C   N=           4
                                                
Int Atom Types                             I   N=           4
           0           0           0           0
MM charges                                 R   N=           4
  0.00000000E+00  0.00000000E+00  0.00000000E+00  0.00000000E+00
Integer atomic weights                     I   N=           4
           1          16          14          16
Real atomic weights                        R   N=           4
  1.00782504E+00  1.59949146E+01  1.40030740E+01  1.59949146E+01
Atom fragment info                         I   N=           4
           0           0           0           0
Atom residue num                           I   N=           4
           0           0           0           0
Nuclear spins                              I   N=           4
           1           0           2           0
Nuclear ZEff                               R   N=           4
 -1.00000000E+00 -5.60000000E+00 -4.55000000E+00 -5.60000000E+00
Nuclear ZNuc                               R   N=           4
  1.00000000E+00  8.00000000E+00  7.00000000E+00  8.00000000E+00
Nuclear QMom                               R   N=           4
  0.00000000E+00  0.00000000E+00  2.04400000E+00  0.00000000E+00
Nuclear GFac                               R   N=           4
  2.79284600E+00  0.00000000E+00  4.03761000E-01  0.00000000E+00
MicOpt                                     I   N=           4
          -1          -1          -1          -1
Number of residues                         I                0
Number of secondary structures             I                0
SymInf integers                            I   N=          26
           1           2           1           1           1           1
           1          -1           0           0           0           0
           0           0           0           0           0           0
           0           0           0           0           0           0
           0           0
RotTr to input orientation                 R   N=          12
 -4.51111993E-01 -3.16863738E-16 -8.92467349E-01  8.92467349E-01 -8.90212946E-16
 -4.51111993E-01 -6.51544956E-16 -1.00000000E+00  6.84376277E-16  1.79182600E+00
  0.00000000E+00  2.83376120E+00
Number of contracted shells                I               51
Number of primitive shells                 I               92
Pure/Cartesian d shells                    I                0
Pure/Cartesian f shells                    I                0
Highest angular momentum                   I                3
Largest degree of contraction              I                7
Shell types                                I   N=          51
           0           0           0           0           1           1
           1          -2          -2           0           0           0
           0           0           1           1           1           1
          -2          -2          -2          -3          -3           0
           0           0           0           0           1           1
           1           1          -2          -2          -2          -3
          -3           0           0           0           0           0
           1           1           1           1          -2          -2
          -2          -3          -3
Number of primitives per shell             I   N=          51
           3           1           1           1           1           1
           1           1           1           7           6           1
           1           1           3           1           1           1
           1           1           1           1           1           7
           6           1           1           1           3           1
           1           1           1           1           1           1
           1           7           6           1           1           1
           3           1           1           1           1           1
           1           1           1
Shell to atom map                          I   N=          51
           1           1           1           1           1           1
           1           1           1           2           2           2
           2           2           2           2           2           2
           2           2           2           2           2           3
           3           3           3           3           3           3
           3           3           3           3           3           3
           3           4           4           4           4           4
           4           4           4           4           4           4
           4           4           4
Primitive exponents                        R   N=          92
  3.38700000E+01  5.09500000E+00  1.15900000E+00  3.25800000E-01  1.02700000E-01
  2.52600000E-02  1.40700000E+00  3.88000000E-01  1.02000000E-01  1.05700000E+00
  2.47000000E-01  1.53300000E+04  2.29900000E+03  5.22400000E+02  1.47300000E+02
  4.75500000E+01  1.67600000E+01  6.20700000E+00  5.22400000E+02  1.47300000E+02
  4.75500000E+01  1.67600000E+01  6.20700000E+00  6.88200000E-01  1.75200000E+00
  2.38400000E-01  7.37600000E-02  3.44600000E+01  7.74900000E+00  2.28000000E+00
  7.15600000E-01  2.14000000E-01  5.97400000E-02  2.31400000E+00  6.45000000E-01
  2.14000000E-01  1.42800000E+00  5.00000000E-01  1.14200000E+04  1.71200000E+03
  3.89300000E+02  1.10000000E+02  3.55700000E+01  1.25400000E+01  4.64400000E+00
  3.89300000E+02  1.10000000E+02  3.55700000E+01  1.25400000E+01  4.64400000E+00
  5.11800000E-01  1.29300000E+00  1.78700000E-01  5.76000000E-02  2.66300000E+01
  5.94800000E+00  1.74200000E+00  5.55000000E-01  1.72500000E-01  4.91000000E-02
  1.65400000E+00  4.69000000E-01  1.51000000E-01  1.09300000E+00  3.64000000E-01
  1.53300000E+04  2.29900000E+03  5.22400000E+02  1.47300000E+02  4.75500000E+01
  1.67600000E+01  6.20700000E+00  5.22400000E+02  1.47300000E+02  4.75500000E+01
  1.67600000E+01  6.20700000E+00  6.88200000E-01  1.75200000E+00  2.38400000E-01
  7.37600000E-02  3.44600000E+01  7.74900000E+00  2.28000000E+00  7.15600000E-01
  2.14000000E-01  5.97400000E-02  2.31400000E+00  6.45000000E-01  2.14000000E-01
  1.42800000E+00  5.00000000E-01
Contraction coefficients                   R   N=          92
  2.54948632E-02  1.90362766E-01  8.52162022E-01  1.00000000E+00  1.00000000E+00
  1.00000000E+00  1.00000000E+00  1.00000000E+00  1.00000000E+00  1.00000000E+00
  1.00000000E+00  5.19808943E-04  4.02025621E-03  2.07128267E-02  8.10105536E-02
  2.35962985E-01  4.42653446E-01  3.57064423E-01 -4.42115008E-05 -1.22591041E-03
 -1.05517725E-02 -6.74452633E-02 -1.71198607E-01  1.07329856E+00  1.00000000E+00
  1.00000000E+00  1.00000000E+00  4.11634896E-02  2.57762836E-01  8.02419274E-01
  1.00000000E+00  1.00000000E+00  1.00000000E+00  1.00000000E+00  1.00000000E+00
  1.00000000E+00  1.00000000E+00  1.00000000E+00  5.34563860E-04  4.13435660E-03
  2.12335358E-02  8.25006224E-02  2.38138871E-01  4.42551547E-01  3.53757422E-01
 -4.89867350E-05 -1.19527323E-03 -1.03490714E-02 -6.48680190E-02 -1.71552477E-01
  1.07289568E+00  1.00000000E+00  1.00000000E+00  1.00000000E+00  3.98072123E-02
  2.49002660E-01  8.10479727E-01  1.00000000E+00  1.00000000E+00  1.00000000E+00
  1.00000000E+00  1.00000000E+00  1.00000000E+00  1.00000000E+00  1.00000000E+00
  5.19808943E-04  4.02025621E-03  2.07128267E-02  8.10105536E-02  2.35962985E-01
  4.42653446E-01  3.57064423E-01 -4.42115008E-05 -1.22591041E-03 -1.05517725E-02
 -6.74452633E-02 -1.71198607E-01  1.07329856E+00  1.00000000E+00  1.00000000E+00
  1.00000000E+00  4.11634896E-02  2.57762836E-01  8.02419274E-01  1.00000000E+00
  1.00000000E+00  1.00000000E+00  1.00000000E+00  1.00000000E+00  1.00000000E+00
  1.00000000E+00  1.00000000E+00
Coordinates of each shell                  R   N=         153
  3.33735355E+00 -3.20802534E-01 -4.74503583E-32  3.33735355E+00 -3.20802534E-01
 -4.74503583E-32  3.33735355E+00 -3.20802534E-01 -4.74503583E-32  3.33735355E+00
 -3.20802534E-01 -4.74503583E-32  3.33735355E+00 -3.20802534E-01 -4.74503583E-32
  3.33735355E+00 -3.20802534E-01 -4.74503583E-32  3.33735355E+00 -3.20802534E-01
 -4.74503583E-32  3.33735355E+00 -3.20802534E-01 -4.74503583E-32  3.33735355E+00
 -3.20802534E-01 -4.74503583E-32  1.70098713E+00 -1.14793029E+00 -1.69791999E-31
  1.70098713E+00 -1.14793029E+00 -1.69791999E-31  1.70098713E+00 -1.14793029E+00
 -1.69791999E-31  1.70098713E+00 -1.14793029E+00 -1.69791999E-31  1.70098713E+00
 -1.14793029E+00 -1.69791999E-31  1.70098713E+00 -1.14793029E+00 -1.69791999E-31
  1.70098713E+00 -1.14793029E+00 -1.69791999E-31  1.70098713E+00 -1.14793029E+00
 -1.69791999E-31  1.70098713E+00 -1.14793029E+00 -1.69791999E-31  1.70098713E+00
 -1.14793029E+00 -1.69791999E-31  1.70098713E+00 -1.14793029E+00 -1.69791999E-31
  1.70098713E+00 -1.14793029E+00 -1.69791999E-31  1.70098713E+00 -1.14793029E+00
 -1.69791999E-31  1.70098713E+00 -1.14793029E+00 -1.69791999E-31  9.65363846E-18
  9.94888378E-01  1.47155352E-31  9.65363846E-18  9.94888378E-01  1.47155352E-31
  9.65363846E-18  9.94888378E-01  1.47155352E-31  9.65363846E-18  9.94888378E-01
  1.47155352E-31  9.65363846E-18  9.94888378E-01  1.47155352E-31  9.65363846E-18
  9.94888378E-01  1.47155352E-31  9.65363846E-18  9.94888378E-01  1.47155352E-31
  9.65363846E-18  9.94888378E-01  1.47155352E-31  9.65363846E-18  9.94888378E-01
  1.47155352E-31  9.65363846E-18  9.94888378E-01  1.47155352E-31  9.65363846E-18
  9.94888378E-01  1.47155352E-31  9.65363846E-18  9.94888378E-01  1.47155352E-31
  9.65363846E-18  9.94888378E-01  1.47155352E-31  9.65363846E-18  9.94888378E-01
  1.47155352E-31 -2.11815632E+00  3.17503276E-01  4.69623603E-32 -2.11815632E+00
  3.17503276E-01  4.69623603E-32 -2.11815632E+00  3.17503276E-01  4.69623603E-32
 -2.11815632E+00  3.17503276E-01  4.69623603E-32 -2.11815632E+00  3.17503276E-01
  4.69623603E-32 -2.11815632E+00  3.17503276E-01  4.69623603E-32 -2.11815632E+00
  3.17503276E-01  4.69623603E-32 -2.11815632E+00  3.17503276E-01  4.69623603E-32
 -2.11815632E+00  3.17503276E-01  4.69623603E-32 -2.11815632E+00  3.17503276E-01
  4.69623603E-32 -2.11815632E+00  3.17503276E-01  4.69623603E-32 -2.11815632E+00
  3.17503276E-01  4.69623603E-32 -2.11815632E+00  3.17503276E-01  4.69623603E-32
 -2.11815632E+00  3.17503276E-01  4.69623603E-32
Num ILSW                                   I              100
ILSW                                       I   N=         100
           0           0           0           0           2           0
           0           0           0           0           0          -1
           5           0           0           0           0           0
           0           0           0           0           0           0
           1           0           0           0           0           0
           0           0      100000           0          -1           0
           0           0           0           0           0           0
           0           0           0           1           0           0
           0 -2000000000           1           0           0           0
           0           0           4          52           0           0
           0           0           0           0           0           0
           0           0           0           4           0           1
           0           0           0           0           0           0
           0           0           0           0           0           0
           0           0           0           0           0           0
           0           0           0           0           0           0
           0           0           0           0
Num RLSW                                   I               52
RLSW                                       R   N=          52
  1.00000000E+00  1.00000000E+00  1.00000000E+00  1.00000000E+00  1.00000000E+00
  0.00000000E+00  0.00000000E+00  1.00000000E+00  0.00000000E+00  0.00000000E+00
  0.00000000E+00  0.00000000E+00  1.00000000E+00  0.00000000E+00  0.00000000E+00
  0.00000000E+00  0.00000000E+00  1.00000000E+00  0.00000000E+00  0.00000000E+00
  0.00000000E+00  0.00000000E+00  1.00000000E+00  0.00000000E+00  0.00000000E+00
  0.00000000E+00  0.00000000E+00  1.00000000E+00  0.00000000E+00  0.00000000E+00
  0.00000000E+00  0.00000000E+00  1.00000000E+00  0.00000000E+00  0.00000000E+00
  0.00000000E+00  0.00000000E+00  0.00000000E+00  1.00000000E+00  1.00000000E+00
  0.00000000E+00  1.00000000E+00  0.00000000E+00  0.00000000E+00  0.00000000E+00
  0.00000000E+00  0.00000000E+00  0.00000000E+00  0.00000000E+00  0.00000000E+00
  0.00000000E+00  0.00000000E+00
MxBond                                     I                2
NBond                                      I   N=           4
           1           2           2           1
IBond                                      I   N=           8
           2           0           1           3           2           4
           3           0
RBond                                      R   N=           8
  1.00000000E+00  0.00000000E+00  1.00000000E+00  1.00000000E+00  1.00000000E+00
  2.00000000E+00  2.00000000E+00  0.00000000E+00
Virial Ratio                               R      2.002528195197336E+00
SCF Energy                                 R     -2.047214288543235E+02
MP2 Energy                                 R     -2.054212382032765E+02
Total Energy                               R     -2.054212382032765E+02
Post-SCF wavefunction norm                 R      1.090845332348348E+00
RMS Density                                R      6.158617660660226E-09
Job Status                                 I                1
Nuclear derivative order                   I                0
External E-field                           R   N=          35
  0.00000000E+00  0.00000000E+00  0.00000000E+00  0.00000000E+00  0.00000000E+00
  0.00000000E+00  0.00000000E+00  0.00000000E+00  0.00000000E+00  0.00000000E+00
  0.00000000E+00  0.00000000E+00  0.00000000E+00  0.00000000E+00  0.00000000E+00
  0.00000000E+00  0.00000000E+00  0.00000000E+00  0.00000000E+00  0.00000000E+00
  0.00000000E+00  0.00000000E+00  0.00000000E+00  0.00000000E+00  0.00000000E+00
  0.00000000E+00  0.00000000E+00  0.00000000E+00  0.00000000E+00  0.00000000E+00
  0.00000000E+00  0.00000000E+00  0.00000000E+00  0.00000000E+00  0.00000000E+00
IOpCl                                      I                0
IROHF                                      I                0
Alpha Orbital Energies                     R   N=         161
 -2.06699657E+01 -2.06391623E+01 -1.58016713E+01 -1.60184695E+00 -1.39638466E+00
 -9.49123355E-01 -7.80468903E-01 -7.28723438E-01 -6.79158017E-01 -6.26715020E-01
 -5.28424816E-01 -4.61359453E-01  2.84721456E-02  7.79680481E-02  9.34121276E-02
  9.74774193E-02  1.29071257E-01  1.44400672E-01  1.56633409E-01  1.72481135E-01
  1.87617204E-01  1.96415733E-01  2.04943289E-01  2.32412513E-01  2.57743004E-01
  2.96791437E-01  2.99056861E-01  3.29025027E-01  3.63859235E-01  3.81074683E-01
  4.24599307E-01  5.24066208E-01  5.25471078E-01  5.46017580E-01  5.72800876E-01
  6.11904294E-01  6.30130029E-01  6.48153385E-01  6.80054176E-01  7.14911997E-01
  7.17110528E-01  7.48443678E-01  7.73845900E-01  7.84298085E-01  8.09969665E-01
  8.11259209E-01  8.58792049E-01  8.78105134E-01  9.25645785E-01  9.39303072E-01
  9.46850715E-01  9.96240907E-01  1.04814992E+00  1.06088889E+00  1.07928585E+00
  1.10329680E+00  1.15999529E+00  1.19353287E+00  1.25194101E+00  1.26617385E+00
  1.36385330E+00  1.43228833E+00  1.48956874E+00  1.52231301E+00  1.52241305E+00
  1.54215175E+00  1.55272671E+00  1.60746175E+00  1.65650364E+00  1.72635576E+00
  1.75193606E+00  1.81807880E+00  1.85123173E+00  1.96195448E+00  1.97242010E+00
  1.99546379E+00  2.06915929E+00  2.13111107E+00  2.13225763E+00  2.18353383E+00
  2.26777793E+00  2.30715860E+00  2.32335405E+00  2.38331166E+00  2.44650786E+00
  2.46787584E+00  2.49755922E+00  2.50083394E+00  2.51712556E+00  2.54222003E+00
  2.56664365E+00  2.60549513E+00  2.60654024E+00  2.65803537E+00  2.76774074E+00
  2.77517637E+00  2.83054657E+00  2.92623604E+00  2.93093982E+00  3.10754446E+00
  3.13729900E+00  3.18502453E+00  3.23901176E+00  3.45170699E+00  3.82693416E+00
  3.84526496E+00  4.02728540E+00  4.17038113E+00  4.17897231E+00  4.20678329E+00
  4.36108751E+00  4.36980096E+00  4.57456010E+00  4.62737323E+00  4.74969574E+00
  4.79990282E+00  4.87044021E+00  4.88675322E+00  4.98081875E+00  4.99753637E+00
  5.07030667E+00  5.08736381E+00  5.16226985E+00  5.24521986E+00  5.25384356E+00
  5.32882184E+00  5.35828740E+00  5.35848477E+00  5.56939395E+00  5.66480200E+00
  5.79444154E+00  5.99271635E+00  6.09966241E+00  6.42034200E+00  6.50185716E+00
  6.50622434E+00  6.67101692E+00  6.71228366E+00  6.74510699E+00  6.83769310E+00
  6.90648098E+00  7.05900121E+00  7.11506475E+00  7.18174923E+00  7.22163835E+00
  7.25359776E+00  7.25948837E+00  7.32634845E+00  7.38084029E+00  7.42196442E+00
  7.47434587E+00  7.59227578E+00  7.64217594E+00  7.68450471E+00  7.76698935E+00
  7.94877155E+00  8.04896630E+00  8.41665857E+00  1.41326299E+01  1.50318210E+01
  1.59275200E+01
Alpha MO coefficients                      R   N=       25921
  5.43117093E-05  1.79463807E-04 -3.97363604E-04  9.32021373E-07 -5.33670117E-05
  1.16222607E-05  0.00000000E+00  3.91462450E-05  7.22332078E-05  0.00000000E+00
  2.65087993E-04  1.99069551E-05  0.00000000E+00  2.05672761E-05  0.00000000E+00
  0.00000000E+00  1.50161002E-05  5.04598230E-06  5.17365514E-05  0.00000000E+00
  0.00000000E+00 -2.64632479E-05  1.64743596E-05 -5.78635956E-04  7.79160119E-05
 -5.11658748E-05 -1.16918540E-04  1.98240405E-04  1.91978165E-05 -1.59582203E-05
  0.00000000E+00 -8.59332572E-05  3.77170191E-05  0.00000000E+00 -1.03091533E-04
 -1.11663098E-05  0.00000000E+00 -1.03254533E-04  4.66407081E-05  0.00000000E+00
 -8.43472276E-06  0.00000000E+00  0.00000000E+00  2.51961072E-05  9.87876478E-06
  1.67681828E-06  0.00000000E+00  0.00000000E+00 -8.26083707E-05 -1.14667910E-04
 -1.02339621E-05  0.00000000E+00  0.00000000E+00 -5.85644449E-05 -2.19431241E-04
  0.00000000E+00  5.80759712E-06  1.68973137E-06  0.00000000E+00  0.00000000E+00
 -1.08507555E-05 -1.12293264E-05  0.00000000E+00 -2.35284922E-05 -1.49987347E-05
  0.00000000E+00  0.00000000E+00  1.89313954E-04 -5.35640923E-05  2.50980656E-04
  1.42451978E-03 -1.04813275E-04 -1.45777461E-03  4.14328702E-04 -1.14964926E-04
 -6.33677633E-05  0.00000000E+00 -2.02749845E-03 -5.47574930E-04  0.00000000E+00
  1.13338910E-03 -8.46752859E-05  0.00000000E+00 -1.16174892E-04 -9.41516167E-05
  0.00000000E+00 -1.25666184E-04  0.00000000E+00  0.00000000E+00  2.14625223E-04
  1.40168131E-04 -4.42380615E-04  0.00000000E+00  0.00000000E+00  5.78674901E-04
  7.66612030E-04 -8.07537063E-06  0.00000000E+00  0.00000000E+00 -1.47494740E-04
 -1.55656187E-04  0.00000000E+00  1.14905307E-05 -1.27161139E-05  0.00000000E+00
  0.00000000E+00  1.58131020E-05  1.26199056E-05  0.00000000E+00  1.48108122E-04
  1.25396906E-04  0.00000000E+00  0.00000000E+00 -3.91683063E-05 -2.95628249E-04
  9.76655451E-01 -9.86875577E-03  4.35526715E-02  4.25460443E-03 -5.37765767E-04
  2.11103572E-03  5.47489326E-04  0.00000000E+00 -2.41583841E-03 -5.68086646E-04
  0.00000000E+00  1.00266082E-03  5.24863460E-04  0.00000000E+00 -5.04051387E-05
  2.60613515E-05  0.00000000E+00 -2.29114716E-04  0.00000000E+00  0.00000000E+00
  7.74549767E-05  5.61847220E-05  3.84443144E-04  0.00000000E+00  0.00000000E+00
 -8.29252592E-04 -4.27644932E-04 -1.62331103E-04  0.00000000E+00  0.00000000E+00
  1.90826783E-04  2.42247245E-04  0.00000000E+00  5.50997372E-05  1.02868259E-05
  0.00000000E+00  0.00000000E+00 -1.81884707E-05 -2.43243473E-05  0.00000000E+00
  1.22737237E-04  4.48795208E-05  0.00000000E+00  0.00000000E+00 -1.61142968E-04
 -1.48677979E-04  4.75897889E-04  2.48262133E-03  3.43240669E-04 -3.74612459E-06
 -2.29892067E-04 -1.06150259E-04  0.00000000E+00 -1.01544576E-03 -8.63942987E-04
  0.00000000E+00 -1.01277678E-04 -4.20514366E-04  0.00000000E+00  1.09268228E-05
  0.00000000E+00  0.00000000E+00 -4.47289899E-05 -5.06234749E-05 -1.59023116E-04
  0.00000000E+00  0.00000000E+00  1.80869818E-04  4.15169423E-04  9.76769380E-01
 -9.23915748E-03  4.35263713E-02  9.35055602E-04 -8.30606615E-04  4.58049157E-04
  1.81045244E-03  0.00000000E+00 -2.83794209E-04 -1.79286467E-03  0.00000000E+00
 -1.53301627E-03  3.97238987E-04  0.00000000E+00 -6.15746504E-05  4.24022751E-05
  0.00000000E+00 -3.68101361E-05  0.00000000E+00  0.00000000E+00  3.93978989E-05
  5.15293720E-05  6.36165647E-04  0.00000000E+00  0.00000000E+00 -3.12029601E-04
  2.17388787E-04 -1.03893287E-04  0.00000000E+00  0.00000000E+00 -2.91725643E-04
 -3.87486031E-04  0.00000000E+00 -2.74207046E-05  4.53677585E-05  0.00000000E+00
  0.00000000E+00 -1.24194667E-05 -4.37864829E-06  0.00000000E+00  9.60220416E-05
  4.41172027E-05  0.00000000E+00  0.00000000E+00 -2.14281606E-04 -2.20527963E-04
  5.08917299E-05  1.05705191E-04 -3.04863380E-04 -4.24571509E-04  8.32604066E-04
 -8.16126586E-05  7.73171012E-05  0.00000000E+00  6.30389654E-04 -5.78219703E-04
  0.00000000E+00 -4.85340738E-04  6.26246298E-04  0.00000000E+00  1.46330562E-04
 -1.67059302E-04  0.00000000E+00 -2.59377801E-05  0.00000000E+00  0.00000000E+00
 -3.07314905E-05 -3.17731817E-05 -3.81671798E-04  0.00000000E+00  0.00000000E+00
 -1.62301801E-04 -9.01528061E-04 -1.80731893E-04  0.00000000E+00  0.00000000E+00
  5.67248543E-04 -6.90511815E-05  0.00000000E+00 -8.44710953E-05  9.85554780E-05
  0.00000000E+00  0.00000000E+00 -1.50759400E-04 -5.06597078E-05  0.00000000E+00
 -4.75370776E-05  1.16262212E-04  0.00000000E+00  0.00000000E+00 -4.32153740E-04
  4.29032319E-05  6.13348120E-04  5.08503994E-05  1.02154958E-05 -3.22802497E-04
 -2.17144898E-04 -1.57740427E-05  2.49331481E-05  0.00000000E+00  1.09346411E-04
 -1.39979781E-04  0.00000000E+00  4.04599143E-04 -4.82678019E-04  0.00000000E+00
 -1.11903462E-05 -2.02670425E-06  0.00000000E+00 -5.53877951E-06  0.00000000E+00
  0.00000000E+00 -1.36492910E-05 -9.38877693E-06  3.23280031E-06  0.00000000E+00
  0.00000000E+00  1.43635445E-04 -5.11955552E-05 -6.29273946E-05  0.00000000E+00
  0.00000000E+00  2.65856130E-04 -3.91840406E-05  0.00000000E+00  1.92789814E-06
  1.14081429E-05  0.00000000E+00  0.00000000E+00 -1.19368488E-05 -1.29922265E-05
  0.00000000E+00  1.51852750E-05 -5.13355867E-05  0.00000000E+00  0.00000000E+00
  1.22354716E-04  6.78906829E-05 -6.52325999E-05 -4.86445904E-04 -3.22350713E-04
  2.04028012E-04  2.86408682E-05  3.74039724E-05  0.00000000E+00  4.73366635E-04
 -3.12750978E-04  0.00000000E+00  3.04994012E-04 -3.14529604E-04  0.00000000E+00
 -7.79611328E-06  0.00000000E+00  0.00000000E+00 -3.42101304E-05  2.72942604E-05
  1.16574707E-04  0.00000000E+00  0.00000000E+00 -2.81993662E-05  1.67180591E-04
 -1.28020152E-04 -2.68001737E-04 -2.05325879E-04  4.78972760E-03  3.17049262E-03
  1.18445875E-05 -4.71773647E-05  0.00000000E+00 -4.59042260E-04  8.05855514E-04
  0.00000000E+00 -2.30604572E-03  3.07640894E-03  0.00000000E+00 -8.09415432E-04
  5.68423835E-04  0.00000000E+00  6.11528496E-06  0.00000000E+00  0.00000000E+00
 -2.69137170E-05 -3.01641277E-05 -4.47129462E-04  0.00000000E+00  0.00000000E+00
 -6.26141930E-05 -5.34300644E-04 -6.13745182E-04  0.00000000E+00  0.00000000E+00
 -3.38743091E-04 -9.54754898E-04  0.00000000E+00  2.04191103E-05 -2.42841763E-05
  0.00000000E+00  0.00000000E+00  4.56502608E-05  3.23609385E-05  0.00000000E+00
  1.02387274E-04 -1.58858192E-04  0.00000000E+00  0.00000000E+00  6.67820234E-05
  2.19879335E-04  9.78300457E-01 -8.41064658E-03  4.17504424E-02 -5.45031419E-03
 -3.03610370E-03 -1.17676064E-03 -2.99901955E-03  0.00000000E+00  6.20033238E-06
  2.95399567E-03  0.00000000E+00  5.24291733E-04  2.99127442E-03  0.00000000E+00
 -2.36301237E-05  5.38288195E-04  0.00000000E+00 -4.32500739E-04  0.00000000E+00
  0.00000000E+00  2.50941069E-04  2.32116635E-04  1.03045867E-03  0.00000000E+00
  0.00000000E+00 -2.19673722E-04  2.80640151E-04  3.55706262E-04  0.00000000E+00
  0.00000000E+00  8.77998231E-05  3.28135942E-05  0.00000000E+00  8.53038211E-05
 -7.00623809E-05  0.00000000E+00  0.00000000E+00 -5.52564917E-05 -1.56358328E-06
  0.00000000E+00 -2.26022404E-04 -2.17208010E-04  0.00000000E+00  0.00000000E+00
  4.53961774E-04  2.59473926E-04 -1.87981016E-04  9.33167835E-04  1.54345156E-04
  3.13440183E-03  9.54268693E-04  2.60978178E-04  1.20531417E-04  0.00000000E+00
  9.12378363E-04  2.76787792E-04  0.00000000E+00  1.29708552E-03 -1.23647568E-04
  0.00000000E+00  1.96921162E-05  4.11396529E-05  0.00000000E+00 -4.09702326E-05
  0.00000000E+00  0.00000000E+00  7.40371099E-05  8.33015107E-05  6.75129029E-05
  0.00000000E+00  0.00000000E+00  5.98061975E-06 -2.59744479E-04 -4.45438641E-05
  0.00000000E+00  0.00000000E+00  2.99285519E-04 -1.33746294E-04  0.00000000E+00
  9.27125155E-05  3.49548097E-05  0.00000000E+00  0.00000000E+00 -5.81511948E-05
 -1.08867220E-04  0.00000000E+00  1.58897016E-04  1.22417603E-04  0.00000000E+00
  0.00000000E+00  1.64550997E-05 -3.50820723E-04  1.92495864E-02  1.55536752E-02
 -8.83662920E-04  6.56849662E-04 -2.94382268E-03 -7.80400003E-04  0.00000000E+00
 -2.04900839E-03 -1.10356190E-03  0.00000000E+00  2.11888529E-03  1.41166068E-04
  0.00000000E+00 -2.18954944E-04  0.00000000E+00  0.00000000E+00  3.30803349E-04
  2.66434949E-04  3.14073868E-04  0.00000000E+00  0.00000000E+00  1.85288439E-04
  5.45346119E-04 -6.07023129E-02  1.47003544E-01  3.91177633E-02  8.73693089E-02
  9.24643379E-03 -1.38169105E-02  2.15162936E-02  0.00000000E+00 -1.87224536E-02
  3.13352261E-02  0.00000000E+00 -1.23653092E-02  1.15437289E-02  0.00000000E+00
 -2.42788276E-03 -1.34271869E-03  0.00000000E+00 -1.66788437E-03  0.00000000E+00
  0.00000000E+00  5.50064560E-05 -1.66544222E-03 -3.88100250E-03  0.00000000E+00
  0.00000000E+00  6.77076171E-04 -4.07943361E-03  7.11794785E-04  0.00000000E+00
  0.00000000E+00 -8.60755609E-05 -1.89689867E-03  0.00000000E+00  3.97074144E-04
 -8.04992830E-04  0.00000000E+00  0.00000000E+00  6.69788159E-04  1.16779291E-03
  0.00000000E+00 -2.06250390E-04  5.15964223E-04  0.00000000E+00  0.00000000E+00
 -3.48424719E-04  2.71594493E-04 -1.29501759E-01  3.05907882E-01  8.08006355E-02
  6.08400506E-02 -1.36987701E-03 -7.74092907E-02 -4.49314174E-02  0.00000000E+00
 -8.17558151E-02 -6.18170725E-02  0.00000000E+00 -3.98195101E-03  9.70310906E-03
  0.00000000E+00 -3.00568408E-04  3.46234751E-03  0.00000000E+00 -9.19321223E-03
  0.00000000E+00  0.00000000E+00  8.98531018E-03  6.66177882E-03 -1.11082264E-02
  0.00000000E+00  0.00000000E+00  9.85194587E-03  6.81880237E-03  6.42926445E-03
  0.00000000E+00  0.00000000E+00 -5.30957158E-04  7.77349231E-04  0.00000000E+00
  2.63562005E-03  2.31185008E-03  0.00000000E+00  0.00000000E+00 -4.86922469E-03
 -5.32362338E-03  0.00000000E+00 -1.36328424E-03 -4.67766356E-04  0.00000000E+00
  0.00000000E+00  1.05967824E-03 -1.11106862E-04 -1.53161266E-01  3.66574195E-01
  9.83409690E-02  1.83980949E-01 -1.47627793E-02  8.08783396E-02  2.19212638E-02
  0.00000000E+00  1.02642216E-01  2.75934995E-02  0.00000000E+00  1.80689155E-02
  3.80154272E-03  0.00000000E+00 -8.59882269E-03 -2.34724479E-03  0.00000000E+00
 -5.23216331E-03  0.00000000E+00  0.00000000E+00  7.44290204E-03  4.44765974E-03
 -9.66026981E-03  0.00000000E+00  0.00000000E+00  1.53558095E-02  9.45623996E-03
  2.47517017E-03  0.00000000E+00  0.00000000E+00 -3.78778949E-03 -2.48586402E-03
  0.00000000E+00 -3.19777093E-03 -8.66362545E-04  0.00000000E+00  0.00000000E+00
  3.44037906E-03  3.62196149E-03  0.00000000E+00 -1.43051072E-04 -2.80867443E-04
  0.00000000E+00  0.00000000E+00  1.07807640E-03  1.90491640E-03  8.15800728E-02
  7.93751541E-02 -2.09900487E-02 -2.95620760E-03 -1.19148567E-02 -4.78035817E-03
  0.00000000E+00 -1.46682998E-02 -1.50492567E-03  0.00000000E+00  7.88981396E-03
  2.12498259E-03  0.00000000E+00 -1.37229628E-03  0.00000000E+00  0.00000000E+00
  2.24700745E-03  1.22898231E-03  3.93238634E-04  0.00000000E+00  0.00000000E+00
  2.17354486E-03 -1.27196288E-03 -1.84063357E-01  4.48501248E-01  1.22600838E-01
  2.62145183E-01  1.14118201E-02  1.69729888E-02  3.72246727E-02  0.00000000E+00