title                                                                   
SP        RMP2-FC                                                     Aug-CC-pVTZ         
Number of atoms                            I                4
Info1-9                                    I   N=           9
          29          20           0           0           0         110
           1           2           1
Full Title                                 C   N=           1
title       
Route                                      C   N=           4
#p SP mp2/aug-cc-pvtz density=current           
Charge                                     I                0
Multiplicity                               I                1
Number of electrons                        I               24
Number of alpha electrons                  I               12
Number of beta electrons                   I               12
Number of basis functions                  I              161
Number of independent functions            I              161
Number of point charges in /Mol/           I                0
Number of translation vectors              I                0
Atomic numbers                             I   N=           4
           1           8           7           8
Nuclear charges                            R   N=           4
  1.00000000E+00  8.00000000E+00  7.00000000E+00  8.00000000E+00
Current cartesian coordinates              R   N=          12
  3.33280438E+00 -2.50336817E-01 -4.46159454E-32  1.70904997E+00 -1.10195701E+00
 -5.23412486E-32  2.34563267E-16  9.85817710E-01  7.24871900E-33 -2.12565051E+00
  2.70658617E-01  2.72447414E-33
Number of symbols in /Mol/                 I                0
Force Field                                I                0
Atom Types                                 C   N=           4
                                                
Int Atom Types                             I   N=           4
           0           0           0           0
MM charges                                 R   N=           4
  0.00000000E+00  0.00000000E+00  0.00000000E+00  0.00000000E+00
Integer atomic weights                     I   N=           4
           1          16          14          16
Real atomic weights                        R   N=           4
  1.00782504E+00  1.59949146E+01  1.40030740E+01  1.59949146E+01
Atom fragment info                         I   N=           4
           0           0           0           0
Atom residue num                           I   N=           4
           0           0           0           0
Nuclear spins                              I   N=           4
           1           0           2           0
Nuclear ZEff                               R   N=           4
 -1.00000000E+00 -5.60000000E+00 -4.55000000E+00 -5.60000000E+00
Nuclear ZNuc                               R   N=           4
  1.00000000E+00  8.00000000E+00  7.00000000E+00  8.00000000E+00
Nuclear QMom                               R   N=           4
  0.00000000E+00  0.00000000E+00  2.04400000E+00  0.00000000E+00
Nuclear GFac                               R   N=           4
  2.79284600E+00  0.00000000E+00  4.03761000E-01  0.00000000E+00
MicOpt                                     I   N=           4
          -1          -1          -1          -1
Number of residues                         I                0
Number of secondary structures             I                0
SymInf integers                            I   N=          26
           1           2           1           1           1           1
           1          -1           0           0           0           0
           0           0           0           0           0           0
           0           0           0           0           0           0
           0           0
RotTr to input orientation                 R   N=          12
 -4.64470066E-01 -1.15968085E-16 -8.85588820E-01  8.85588820E-01  3.93573502E-17
 -4.64470066E-01  8.87181335E-17 -1.00000000E+00  8.44197288E-17  1.76968336E+00
  0.00000000E+00  2.83522034E+00
Number of contracted shells                I               51
Number of primitive shells                 I               92
Pure/Cartesian d shells                    I                0
Pure/Cartesian f shells                    I                0
Highest angular momentum                   I                3
Largest degree of contraction              I                7
Shell types                                I   N=          51
           0           0           0           0           1           1
           1          -2          -2           0           0           0
           0           0           1           1           1           1
          -2          -2          -2          -3          -3           0
           0           0           0           0           1           1
           1           1          -2          -2          -2          -3
          -3           0           0           0           0           0
           1           1           1           1          -2          -2
          -2          -3          -3
Number of primitives per shell             I   N=          51
           3           1           1           1           1           1
           1           1           1           7           6           1
           1           1           3           1           1           1
           1           1           1           1           1           7
           6           1           1           1           3           1
           1           1           1           1           1           1
           1           7           6           1           1           1
           3           1           1           1           1           1
           1           1           1
Shell to atom map                          I   N=          51
           1           1           1           1           1           1
           1           1           1           2           2           2
           2           2           2           2           2           2
           2           2           2           2           2           3
           3           3           3           3           3           3
           3           3           3           3           3           3
           3           4           4           4           4           4
           4           4           4           4           4           4
           4           4           4
Primitive exponents                        R   N=          92
  3.38700000E+01  5.09500000E+00  1.15900000E+00  3.25800000E-01  1.02700000E-01
  2.52600000E-02  1.40700000E+00  3.88000000E-01  1.02000000E-01  1.05700000E+00
  2.47000000E-01  1.53300000E+04  2.29900000E+03  5.22400000E+02  1.47300000E+02
  4.75500000E+01  1.67600000E+01  6.20700000E+00  5.22400000E+02  1.47300000E+02
  4.75500000E+01  1.67600000E+01  6.20700000E+00  6.88200000E-01  1.75200000E+00
  2.38400000E-01  7.37600000E-02  3.44600000E+01  7.74900000E+00  2.28000000E+00
  7.15600000E-01  2.14000000E-01  5.97400000E-02  2.31400000E+00  6.45000000E-01
  2.14000000E-01  1.42800000E+00  5.00000000E-01  1.14200000E+04  1.71200000E+03
  3.89300000E+02  1.10000000E+02  3.55700000E+01  1.25400000E+01  4.64400000E+00
  3.89300000E+02  1.10000000E+02  3.55700000E+01  1.25400000E+01  4.64400000E+00
  5.11800000E-01  1.29300000E+00  1.78700000E-01  5.76000000E-02  2.66300000E+01
  5.94800000E+00  1.74200000E+00  5.55000000E-01  1.72500000E-01  4.91000000E-02
  1.65400000E+00  4.69000000E-01  1.51000000E-01  1.09300000E+00  3.64000000E-01
  1.53300000E+04  2.29900000E+03  5.22400000E+02  1.47300000E+02  4.75500000E+01
  1.67600000E+01  6.20700000E+00  5.22400000E+02  1.47300000E+02  4.75500000E+01
  1.67600000E+01  6.20700000E+00  6.88200000E-01  1.75200000E+00  2.38400000E-01
  7.37600000E-02  3.44600000E+01  7.74900000E+00  2.28000000E+00  7.15600000E-01
  2.14000000E-01  5.97400000E-02  2.31400000E+00  6.45000000E-01  2.14000000E-01
  1.42800000E+00  5.00000000E-01
Contraction coefficients                   R   N=          92
  2.54948632E-02  1.90362766E-01  8.52162022E-01  1.00000000E+00  1.00000000E+00
  1.00000000E+00  1.00000000E+00  1.00000000E+00  1.00000000E+00  1.00000000E+00
  1.00000000E+00  5.19808943E-04  4.02025621E-03  2.07128267E-02  8.10105536E-02
  2.35962985E-01  4.42653446E-01  3.57064423E-01 -4.42115008E-05 -1.22591041E-03
 -1.05517725E-02 -6.74452633E-02 -1.71198607E-01  1.07329856E+00  1.00000000E+00
  1.00000000E+00  1.00000000E+00  4.11634896E-02  2.57762836E-01  8.02419274E-01
  1.00000000E+00  1.00000000E+00  1.00000000E+00  1.00000000E+00  1.00000000E+00
  1.00000000E+00  1.00000000E+00  1.00000000E+00  5.34563860E-04  4.13435660E-03
  2.12335358E-02  8.25006224E-02  2.38138871E-01  4.42551547E-01  3.53757422E-01
 -4.89867350E-05 -1.19527323E-03 -1.03490714E-02 -6.48680190E-02 -1.71552477E-01
  1.07289568E+00  1.00000000E+00  1.00000000E+00  1.00000000E+00  3.98072123E-02
  2.49002660E-01  8.10479727E-01  1.00000000E+00  1.00000000E+00  1.00000000E+00
  1.00000000E+00  1.00000000E+00  1.00000000E+00  1.00000000E+00  1.00000000E+00
  5.19808943E-04  4.02025621E-03  2.07128267E-02  8.10105536E-02  2.35962985E-01
  4.42653446E-01  3.57064423E-01 -4.42115008E-05 -1.22591041E-03 -1.05517725E-02
 -6.74452633E-02 -1.71198607E-01  1.07329856E+00  1.00000000E+00  1.00000000E+00
  1.00000000E+00  4.11634896E-02  2.57762836E-01  8.02419274E-01  1.00000000E+00
  1.00000000E+00  1.00000000E+00  1.00000000E+00  1.00000000E+00  1.00000000E+00
  1.00000000E+00  1.00000000E+00
Coordinates of each shell                  R   N=         153
  3.33280438E+00 -2.50336817E-01 -2.67112719E-32  3.33280438E+00 -2.50336817E-01
 -2.67112719E-32  3.33280438E+00 -2.50336817E-01 -2.67112719E-32  3.33280438E+00
 -2.50336817E-01 -2.67112719E-32  3.33280438E+00 -2.50336817E-01 -2.67112719E-32
  3.33280438E+00 -2.50336817E-01 -2.67112719E-32  3.33280438E+00 -2.50336817E-01
 -2.67112719E-32  3.33280438E+00 -2.50336817E-01 -2.67112719E-32  3.33280438E+00
 -2.50336817E-01 -2.67112719E-32  1.70904997E+00 -1.10195701E+00 -3.76981713E-32
  1.70904997E+00 -1.10195701E+00 -3.76981713E-32  1.70904997E+00 -1.10195701E+00
 -3.76981713E-32  1.70904997E+00 -1.10195701E+00 -3.76981713E-32  1.70904997E+00
 -1.10195701E+00 -3.76981713E-32  1.70904997E+00 -1.10195701E+00 -3.76981713E-32
  1.70904997E+00 -1.10195701E+00 -3.76981713E-32  1.70904997E+00 -1.10195701E+00
 -3.76981713E-32  1.70904997E+00 -1.10195701E+00 -3.76981713E-32  1.70904997E+00
 -1.10195701E+00 -3.76981713E-32  1.70904997E+00 -1.10195701E+00 -3.76981713E-32
  1.70904997E+00 -1.10195701E+00 -3.76981713E-32  1.70904997E+00 -1.10195701E+00
 -3.76981713E-32  1.70904997E+00 -1.10195701E+00 -3.76981713E-32  9.65341038E-17
  9.85817710E-01  2.43022828E-32  9.65341038E-17  9.85817710E-01  2.43022828E-32
  9.65341038E-17  9.85817710E-01  2.43022828E-32  9.65341038E-17  9.85817710E-01
  2.43022828E-32  9.65341038E-17  9.85817710E-01  2.43022828E-32  9.65341038E-17
  9.85817710E-01  2.43022828E-32  9.65341038E-17  9.85817710E-01  2.43022828E-32
  9.65341038E-17  9.85817710E-01  2.43022828E-32  9.65341038E-17  9.85817710E-01
  2.43022828E-32  9.65341038E-17  9.85817710E-01  2.43022828E-32  9.65341038E-17
  9.85817710E-01  2.43022828E-32  9.65341038E-17  9.85817710E-01  2.43022828E-32
  9.65341038E-17  9.85817710E-01  2.43022828E-32  9.65341038E-17  9.85817710E-01
  2.43022828E-32 -2.12565051E+00  2.70658617E-01  1.97725828E-32 -2.12565051E+00
  2.70658617E-01  1.97725828E-32 -2.12565051E+00  2.70658617E-01  1.97725828E-32
 -2.12565051E+00  2.70658617E-01  1.97725828E-32 -2.12565051E+00  2.70658617E-01
  1.97725828E-32 -2.12565051E+00  2.70658617E-01  1.97725828E-32 -2.12565051E+00
  2.70658617E-01  1.97725828E-32 -2.12565051E+00  2.70658617E-01  1.97725828E-32
 -2.12565051E+00  2.70658617E-01  1.97725828E-32 -2.12565051E+00  2.70658617E-01
  1.97725828E-32 -2.12565051E+00  2.70658617E-01  1.97725828E-32 -2.12565051E+00
  2.70658617E-01  1.97725828E-32 -2.12565051E+00  2.70658617E-01  1.97725828E-32
 -2.12565051E+00  2.70658617E-01  1.97725828E-32
Num ILSW                                   I              100
ILSW                                       I   N=         100
           0           0           0           0           2           0
           0           0           0           0           0          -1
           5           0           0           0           0           0
           0           0           0           0           0           0
           1           0           0           0           0           0
           0           0      100000           0          -1           0
           0           0           0           0           0           0
           0           0           0           1           0           0
           0 -2000000000           1           0           0           0
           0           0           4          52           0           0
           0           0           0           0           0           0
           0           0           0           4           0           1
           0           0           0           0           0           0
           0           0           0           0           0           0
           0           0           0           0           0           0
           0           0           0           0           0           0
           0           0           0           0
Num RLSW                                   I               52
RLSW                                       R   N=          52
  1.00000000E+00  1.00000000E+00  1.00000000E+00  1.00000000E+00  1.00000000E+00
  0.00000000E+00  0.00000000E+00  1.00000000E+00  0.00000000E+00  0.00000000E+00
  0.00000000E+00  0.00000000E+00  1.00000000E+00  0.00000000E+00  0.00000000E+00
  0.00000000E+00  0.00000000E+00  1.00000000E+00  0.00000000E+00  0.00000000E+00
  0.00000000E+00  0.00000000E+00  1.00000000E+00  0.00000000E+00  0.00000000E+00
  0.00000000E+00  0.00000000E+00  1.00000000E+00  0.00000000E+00  0.00000000E+00
  0.00000000E+00  0.00000000E+00  1.00000000E+00  0.00000000E+00  0.00000000E+00
  0.00000000E+00  0.00000000E+00  0.00000000E+00  1.00000000E+00  1.00000000E+00
  0.00000000E+00  1.00000000E+00  0.00000000E+00  0.00000000E+00  0.00000000E+00
  0.00000000E+00  0.00000000E+00  0.00000000E+00  0.00000000E+00  0.00000000E+00
  0.00000000E+00  0.00000000E+00
MxBond                                     I                2
NBond                                      I   N=           4
           1           2           2           1
IBond                                      I   N=           8
           2           0           1           3           2           4
           3           0
RBond                                      R   N=           8
  1.00000000E+00  0.00000000E+00  1.00000000E+00  1.00000000E+00  1.00000000E+00
  2.00000000E+00  2.00000000E+00  0.00000000E+00
Virial Ratio                               R      2.002585648315193E+00
SCF Energy                                 R     -2.047215931378928E+02
MP2 Energy                                 R     -2.054212223002043E+02
Total Energy                               R     -2.054212223002043E+02
Post-SCF wavefunction norm                 R      1.090716222037869E+00
RMS Density                                R      5.641169757337100E-09
Job Status                                 I                1
Nuclear derivative order                   I                0
External E-field                           R   N=          35
  0.00000000E+00  0.00000000E+00  0.00000000E+00  0.00000000E+00  0.00000000E+00
  0.00000000E+00  0.00000000E+00  0.00000000E+00  0.00000000E+00  0.00000000E+00
  0.00000000E+00  0.00000000E+00  0.00000000E+00  0.00000000E+00  0.00000000E+00
  0.00000000E+00  0.00000000E+00  0.00000000E+00  0.00000000E+00  0.00000000E+00
  0.00000000E+00  0.00000000E+00  0.00000000E+00  0.00000000E+00  0.00000000E+00
  0.00000000E+00  0.00000000E+00  0.00000000E+00  0.00000000E+00  0.00000000E+00
  0.00000000E+00  0.00000000E+00  0.00000000E+00  0.00000000E+00  0.00000000E+00
IOpCl                                      I                0
IROHF                                      I                0
Alpha Orbital Energies                     R   N=         161
 -2.06651361E+01 -2.06446970E+01 -1.58003247E+01 -1.59485183E+00 -1.40263413E+00
 -9.50345593E-01 -7.82178028E-01 -7.27768696E-01 -6.78162553E-01 -6.24397140E-01
 -5.27929773E-01 -4.63786491E-01  2.77079752E-02  7.74861975E-02  9.41984626E-02
  9.74923029E-02  1.28919173E-01  1.43241176E-01  1.56909308E-01  1.71980127E-01
  1.87109922E-01  1.96774460E-01  2.05317095E-01  2.33580160E-01  2.57581765E-01
  2.95862829E-01  3.06641695E-01  3.29667921E-01  3.65526697E-01  3.82002113E-01
  4.23251599E-01  5.24793725E-01  5.25598526E-01  5.47467631E-01  5.73015629E-01
  6.11518338E-01  6.26959935E-01  6.47387720E-01  6.82485928E-01  7.14637836E-01
  7.18221424E-01  7.47391461E-01  7.74632210E-01  7.80884378E-01  8.10382090E-01
  8.10885330E-01  8.59710717E-01  8.77235137E-01  9.24904553E-01  9.38469418E-01
  9.43540093E-01  9.93716340E-01  1.04905215E+00  1.06138513E+00  1.07992127E+00
  1.10460299E+00  1.16012438E+00  1.19544950E+00  1.25090710E+00  1.26671020E+00
  1.36085188E+00  1.43231038E+00  1.48857472E+00  1.52322583E+00  1.52395332E+00
  1.54332893E+00  1.55330686E+00  1.60844613E+00  1.65702280E+00  1.72859563E+00
  1.75402778E+00  1.82233473E+00  1.85499858E+00  1.96131460E+00  1.97283578E+00
  2.00293809E+00  2.07448312E+00  2.13215554E+00  2.13308832E+00  2.18406579E+00
  2.26963119E+00  2.30698957E+00  2.32737277E+00  2.37914346E+00  2.45019508E+00
  2.46874914E+00  2.49774218E+00  2.50176168E+00  2.51709402E+00  2.54394247E+00
  2.56423803E+00  2.60438858E+00  2.60529453E+00  2.65564232E+00  2.76236435E+00
  2.77522931E+00  2.83884148E+00  2.93343330E+00  2.95165621E+00  3.11537687E+00
  3.14433723E+00  3.18139620E+00  3.23995960E+00  3.45885489E+00  3.82879510E+00
  3.85266363E+00  4.02638277E+00  4.16319019E+00  4.16878464E+00  4.21150613E+00
  4.35981378E+00  4.36888748E+00  4.57522929E+00  4.62129736E+00  4.74496399E+00
  4.81718333E+00  4.86965773E+00  4.88806188E+00  4.97988143E+00  5.00256518E+00
  5.07303130E+00  5.08189378E+00  5.16632094E+00  5.24375712E+00  5.25701919E+00
  5.32031226E+00  5.36815090E+00  5.36857490E+00  5.59234011E+00  5.65139713E+00
  5.78697665E+00  5.98100669E+00  6.11763717E+00  6.43173800E+00  6.50704957E+00
  6.51051061E+00  6.67110859E+00  6.71231943E+00  6.74334034E+00  6.83939267E+00
  6.91243342E+00  7.06611693E+00  7.11524538E+00  7.17794413E+00  7.22707549E+00
  7.25273759E+00  7.25523139E+00  7.30652535E+00  7.36920754E+00  7.42961242E+00
  7.47618031E+00  7.58584779E+00  7.64304438E+00  7.69125370E+00  7.77339810E+00
  7.97332114E+00  8.06830250E+00  8.42053065E+00  1.41166615E+01  1.50939240E+01
  1.57018017E+01
Alpha MO coefficients                      R   N=       25921
  5.39572498E-05  1.73083506E-04 -3.96945947E-04  3.40519716E-06 -5.48257519E-05
  1.26660617E-05  0.00000000E+00  5.26082041E-05  6.97903171E-05  0.00000000E+00
  2.72790773E-04  2.14064598E-05  0.00000000E+00  2.05110615E-05  0.00000000E+00
  0.00000000E+00  1.41144159E-05  5.31065299E-06  5.58205370E-05  0.00000000E+00
  0.00000000E+00 -3.36035093E-05  1.75864811E-05 -8.93064637E-04  8.30235043E-05
 -6.59360117E-05 -7.20648292E-05  2.23375160E-04  1.88185399E-05 -1.63828644E-05
  0.00000000E+00 -8.96758555E-05  4.33521390E-05  0.00000000E+00 -1.43469965E-04
  1.86632510E-05  0.00000000E+00 -1.17512353E-04  4.99799547E-05  0.00000000E+00
 -8.82624034E-06  0.00000000E+00  0.00000000E+00  2.43400882E-05  1.11713444E-05
  1.03608635E-07  0.00000000E+00  0.00000000E+00 -7.67441948E-05 -1.24156175E-04
 -1.57422062E-05  0.00000000E+00  0.00000000E+00 -5.20560475E-05 -2.41444005E-04
  0.00000000E+00  4.42836243E-06  2.04196978E-06  0.00000000E+00  0.00000000E+00
 -9.29323088E-06 -1.38344263E-05  0.00000000E+00 -2.18574217E-05 -1.55380649E-05
  0.00000000E+00  0.00000000E+00  1.94952976E-04 -3.51739484E-05  2.46403512E-04
  1.39731463E-03 -1.42976514E-04 -1.34283189E-03  4.27811037E-04 -8.90407306E-05
 -5.78021651E-05  0.00000000E+00 -2.06450246E-03 -5.72610520E-04  0.00000000E+00
  1.06256624E-03 -9.42294196E-05  0.00000000E+00 -1.25211854E-04 -9.72479553E-05
  0.00000000E+00 -1.26996293E-04  0.00000000E+00  0.00000000E+00  2.11654764E-04
  1.48937498E-04 -4.64600256E-04  0.00000000E+00  0.00000000E+00  5.96736934E-04
  8.18841055E-04 -1.44528714E-05  0.00000000E+00  0.00000000E+00 -1.34355443E-04
 -1.38594544E-04  0.00000000E+00  2.77807836E-05 -8.22336004E-06  0.00000000E+00
  0.00000000E+00  3.25663940E-06 -1.94638247E-06  0.00000000E+00  1.45312448E-04
  1.31954047E-04  0.00000000E+00  0.00000000E+00 -1.55059989E-05 -3.16373187E-04
  9.76667792E-01 -9.87213481E-03  4.35354536E-02  4.11154196E-03 -5.88956980E-04
  2.09480827E-03  5.75822884E-04  0.00000000E+00 -2.44374924E-03 -6.14677802E-04
  0.00000000E+00  9.45977247E-04  5.47639385E-04  0.00000000E+00 -5.70467375E-05
  2.72315877E-05  0.00000000E+00 -2.22334142E-04  0.00000000E+00  0.00000000E+00
  6.67433420E-05  4.96710414E-05  3.93067029E-04  0.00000000E+00  0.00000000E+00
 -8.32878594E-04 -4.61804369E-04 -1.68622810E-04  0.00000000E+00  0.00000000E+00
  1.80598396E-04  2.58838294E-04  0.00000000E+00  6.02243646E-05  1.30442964E-05
  0.00000000E+00  0.00000000E+00 -2.04812398E-05 -3.08144743E-05  0.00000000E+00
  1.17594936E-04  4.51423602E-05  0.00000000E+00  0.00000000E+00 -1.55057508E-04
 -1.53849200E-04  4.73218852E-04  2.47607371E-03  3.48287842E-04 -7.95560437E-06
 -2.23201456E-04 -1.07226742E-04  0.00000000E+00 -9.84043012E-04 -8.77972078E-04
  0.00000000E+00 -8.86647665E-05 -4.25931449E-04  0.00000000E+00  1.18955858E-05
  0.00000000E+00  0.00000000E+00 -4.63593151E-05 -5.62980975E-05 -1.53808333E-04
  0.00000000E+00  0.00000000E+00  1.60986528E-04  4.17932349E-04  9.76757322E-01
 -9.25106651E-03  4.35515853E-02  8.02890706E-04 -9.16954163E-04  3.94534129E-04
  1.85514605E-03  0.00000000E+00 -1.90802516E-04 -1.84684232E-03  0.00000000E+00
 -1.50990893E-03  3.09697497E-04  0.00000000E+00 -5.99485784E-05  2.89116784E-05
  0.00000000E+00 -4.21343363E-05  0.00000000E+00  0.00000000E+00  3.51642422E-05
  4.78965262E-05  6.52577753E-04  0.00000000E+00  0.00000000E+00 -3.06980107E-04
  2.49027262E-04 -9.06687010E-05  0.00000000E+00  0.00000000E+00 -2.79293152E-04
 -3.85055483E-04  0.00000000E+00 -3.15257938E-05  4.58168013E-05  0.00000000E+00
  0.00000000E+00 -1.36119225E-05 -3.91616637E-06  0.00000000E+00  9.28161504E-05
  5.42974821E-05  0.00000000E+00  0.00000000E+00 -2.19074674E-04 -2.33142110E-04
  6.11318943E-05  1.70936195E-04 -3.20426224E-04 -3.30097419E-04  8.84213007E-04
 -8.49781084E-05  7.77777913E-05  0.00000000E+00  7.12137014E-04 -6.57470950E-04
  0.00000000E+00 -4.01005194E-04  5.23115516E-04  0.00000000E+00  1.64166408E-04
 -1.76879679E-04  0.00000000E+00 -3.48848413E-05  0.00000000E+00  0.00000000E+00
 -3.39350910E-05 -4.96016923E-05 -4.02394109E-04  0.00000000E+00  0.00000000E+00
 -1.52400139E-04 -9.35014616E-04 -1.90211087E-04  0.00000000E+00  0.00000000E+00
  5.50213961E-04 -5.45300644E-05  0.00000000E+00 -8.82593152E-05  9.86468144E-05
  0.00000000E+00  0.00000000E+00 -1.47591814E-04 -6.16920794E-05  0.00000000E+00
 -5.53851490E-05  1.20211062E-04  0.00000000E+00  0.00000000E+00 -4.28589229E-04
  1.03762369E-05  9.27766584E-04  4.56003064E-05  2.43505859E-05 -2.98870955E-04
 -2.02871947E-04 -1.48812880E-05  2.25351747E-05  0.00000000E+00  1.08433577E-04
 -1.25987728E-04  0.00000000E+00  3.96757078E-04 -4.26575595E-04  0.00000000E+00
 -1.05286500E-05  3.21100453E-06  0.00000000E+00 -5.33512693E-06  0.00000000E+00
  0.00000000E+00 -1.28567129E-05 -1.02352557E-05  1.02788927E-06  0.00000000E+00
  0.00000000E+00  1.39009496E-04 -3.54110697E-05 -6.39787053E-05  0.00000000E+00
  0.00000000E+00  2.55007859E-04 -1.71794362E-05  0.00000000E+00  2.82709348E-06
  1.05928154E-05  0.00000000E+00  0.00000000E+00 -1.27015783E-05 -1.13818595E-05
  0.00000000E+00  1.25267716E-05 -5.05185129E-05  0.00000000E+00  0.00000000E+00
  1.15598969E-04  7.59728497E-05 -7.50863972E-05 -4.82606978E-04 -2.74465265E-04
  2.10048674E-04  3.52627885E-05  3.21882838E-05  0.00000000E+00  4.68097952E-04
 -3.33282216E-04  0.00000000E+00  2.92691656E-04 -3.19557546E-04  0.00000000E+00
 -1.40701362E-05  0.00000000E+00  0.00000000E+00 -3.93912914E-05  2.95952361E-05
  1.10070242E-04  0.00000000E+00  0.00000000E+00 -3.35862587E-05  1.72268440E-04
 -1.26468302E-04 -2.10463924E-04 -2.08397530E-04  4.97751444E-03  3.21595004E-03
  9.72823666E-06 -4.13374470E-05  0.00000000E+00 -5.32719340E-04  8.56633499E-04
  0.00000000E+00 -2.41787147E-03  3.08020770E-03  0.00000000E+00 -8.26286959E-04
  5.52589281E-04  0.00000000E+00  9.62753688E-09  0.00000000E+00  0.00000000E+00
 -2.98477077E-05 -4.41356080E-05 -4.46189055E-04  0.00000000E+00  0.00000000E+00
 -3.91900972E-05 -5.28979922E-04 -6.04997016E-04  0.00000000E+00  0.00000000E+00
 -2.97296437E-04 -9.42756726E-04  0.00000000E+00  1.90866026E-05 -2.18123733E-05
  0.00000000E+00  0.00000000E+00  3.98619480E-05  3.33622665E-05  0.00000000E+00
  9.52172783E-05 -1.43083901E-04  0.00000000E+00  0.00000000E+00  1.93142602E-05
  2.27061796E-04  9.78292313E-01 -8.47580196E-03  4.17422187E-02 -5.73859237E-03
 -3.14363322E-03 -1.04897652E-03 -3.04331456E-03  0.00000000E+00 -2.98858720E-05
  2.99719093E-03  0.00000000E+00  4.61989718E-04  3.09461948E-03  0.00000000E+00
 -2.57369858E-05  5.50904160E-04  0.00000000E+00 -4.27495892E-04  0.00000000E+00
  0.00000000E+00  2.17226652E-04  2.16843600E-04  1.04525087E-03  0.00000000E+00
  0.00000000E+00 -2.10328119E-04  3.01746682E-04  3.71756258E-04  0.00000000E+00
  0.00000000E+00  9.75986163E-05  6.42509723E-05  0.00000000E+00  8.11786601E-05
 -7.04918905E-05  0.00000000E+00  0.00000000E+00 -4.87678366E-05 -2.66464166E-06
  0.00000000E+00 -2.18070855E-04 -2.29800290E-04  0.00000000E+00  0.00000000E+00
  4.55182653E-04  2.74998579E-04 -1.75821909E-04  9.01427669E-04  1.29910352E-04
  3.22220392E-03  1.03631071E-03  2.43216847E-04  1.17250201E-04  0.00000000E+00
  9.35569655E-04  3.06507595E-04  0.00000000E+00  1.39220734E-03 -5.10338935E-05
  0.00000000E+00  3.50374812E-05  4.79120922E-05  0.00000000E+00 -4.15279223E-05
  0.00000000E+00  0.00000000E+00  7.20033645E-05  8.57044734E-05  4.22186223E-05
  0.00000000E+00  0.00000000E+00  4.41372860E-05 -2.24226813E-04 -6.16298357E-05
  0.00000000E+00  0.00000000E+00  3.17575781E-04 -1.00889032E-04  0.00000000E+00
  8.62643193E-05  3.44802578E-05  0.00000000E+00  0.00000000E+00 -4.91175535E-05
 -1.06149302E-04  0.00000000E+00  1.45155643E-04  1.19583513E-04  0.00000000E+00
  0.00000000E+00  3.82577919E-05 -3.31579184E-04  2.26113157E-02  1.84296681E-02
 -2.43861420E-03  3.83295092E-04 -3.46406700E-03 -9.89729362E-04  0.00000000E+00
 -2.80935958E-03 -9.54573830E-04  0.00000000E+00  2.65445854E-03  2.41104947E-04
  0.00000000E+00 -2.57118205E-04  0.00000000E+00  0.00000000E+00  4.59678877E-04
  2.91836334E-04  3.10329948E-04  0.00000000E+00  0.00000000E+00  4.25352524E-04
  5.06495628E-04 -6.98987090E-02  1.69356563E-01  4.51724963E-02  9.75584887E-02
  8.02966864E-03 -1.51319237E-02  2.42221174E-02  0.00000000E+00 -2.03480548E-02
  3.48374869E-02  0.00000000E+00 -1.19594197E-02  1.08275195E-02  0.00000000E+00
 -1.91999434E-03 -1.80703403E-03  0.00000000E+00 -1.88179706E-03  0.00000000E+00
  0.00000000E+00  1.09743320E-04 -1.79654300E-03 -4.33036576E-03  0.00000000E+00
  0.00000000E+00  8.33789656E-04 -4.44693304E-03  9.91027226E-04  0.00000000E+00
  0.00000000E+00  1.96228513E-04 -1.80742536E-03  0.00000000E+00  4.68463723E-04
 -9.17659093E-04  0.00000000E+00  0.00000000E+00  7.33616031E-04  1.35710584E-03
  0.00000000E+00 -2.29306573E-04  4.70027637E-04  0.00000000E+00  0.00000000E+00
 -9.72412709E-05  2.06223322E-04 -1.29541767E-01  3.07131166E-01  8.09382547E-02
  6.44685671E-02  3.11364165E-04 -6.98334165E-02 -4.74873377E-02  0.00000000E+00
 -7.37277898E-02 -6.56063846E-02  0.00000000E+00 -2.94618392E-03  8.39475262E-03
  0.00000000E+00  3.05708037E-05  3.10701350E-03  0.00000000E+00 -9.11086788E-03
  0.00000000E+00  0.00000000E+00  8.05156690E-03  5.97764432E-03 -1.16074055E-02
  0.00000000E+00  0.00000000E+00  9.03039055E-03  5.67686778E-03  5.83238259E-03
  0.00000000E+00  0.00000000E+00  1.98509602E-04  4.71938648E-04  0.00000000E+00
  2.34239310E-03  2.42443960E-03  0.00000000E+00  0.00000000E+00 -4.67687258E-03
 -5.42840609E-03  0.00000000E+00 -1.30505111E-03 -3.29882411E-04  0.00000000E+00
  0.00000000E+00  6.81907464E-04 -2.36885816E-04 -1.48498318E-01  3.55540790E-01
  9.54278024E-02  1.79680119E-01 -1.37833029E-02  7.73597026E-02  2.15507897E-02
  0.00000000E+00  9.87405899E-02  2.72157283E-02  0.00000000E+00  1.86974622E-02
  3.53174849E-03  0.00000000E+00 -8.18781370E-03 -2.35432514E-03  0.00000000E+00
 -4.97561633E-03  0.00000000E+00  0.00000000E+00  6.97036537E-03  4.37000948E-03
 -9.29167685E-03  0.00000000E+00  0.00000000E+00  1.46954484E-02  9.32408860E-03
  2.21569792E-03  0.00000000E+00  0.00000000E+00 -3.14211737E-03 -2.40588297E-03
  0.00000000E+00 -3.06602212E-03 -8.62110790E-04  0.00000000E+00  0.00000000E+00
  3.19171453E-03  3.57844264E-03  0.00000000E+00 -1.07394393E-04 -2.66730995E-04
  0.00000000E+00  0.00000000E+00  1.01800408E-03  1.89254913E-03  7.99166971E-02
  7.87815141E-02 -2.04560179E-02 -2.86403607E-03 -1.16807325E-02 -4.84329827E-03
  0.00000000E+00 -1.48080361E-02 -1.53353551E-03  0.00000000E+00  7.54071902E-03
  2.38293064E-03  0.00000000E+00 -1.33113093E-03  0.00000000E+00  0.00000000E+00
  2.21727938E-03  1.24267431E-03  3.77560081E-04  0.00000000E+00  0.00000000E+00
  2.21077788E-03 -1.32902135E-03 -1.80094400E-01  4.38829486E-01  1.19799211E-01
  2.55812437E-01  1.12815918E-02  1.62674052E-02  3.75559774E-02  0.00000000E+00