title                                                                   
SP        RMP2-FC                                                     Aug-CC-pVTZ         
Number of atoms                            I                4
Info1-9                                    I   N=           9
          29          20           0           0           0         110
           1           2           1
Full Title                                 C   N=           1
title       
Route                                      C   N=           4
#p SP mp2/aug-cc-pvtz density=current           
Charge                                     I                0
Multiplicity                               I                1
Number of electrons                        I               24
Number of alpha electrons                  I               12
Number of beta electrons                   I               12
Number of basis functions                  I              161
Number of independent functions            I              161
Number of point charges in /Mol/           I                0
Number of translation vectors              I                0
Atomic numbers                             I   N=           4
           1           8           7           8
Nuclear charges                            R   N=           4
  1.00000000E+00  8.00000000E+00  7.00000000E+00  8.00000000E+00
Current cartesian coordinates              R   N=          12
  3.31449475E+00 -2.76149423E-01 -1.84733326E-31  1.67853998E+00 -1.10409105E+00
 -6.56926407E-32  4.89018382E-17  1.00829116E+00  6.60470335E-33 -2.09285182E+00
  2.56354969E-01  9.52093466E-32
Number of symbols in /Mol/                 I                0
Force Field                                I                0
Atom Types                                 C   N=           4
                                                
Int Atom Types                             I   N=           4
           0           0           0           0
MM charges                                 R   N=           4
  0.00000000E+00  0.00000000E+00  0.00000000E+00  0.00000000E+00
Integer atomic weights                     I   N=           4
           1          16          14          16
Real atomic weights                        R   N=           4
  1.00782504E+00  1.59949146E+01  1.40030740E+01  1.59949146E+01
Atom fragment info                         I   N=           4
           0           0           0           0
Atom residue num                           I   N=           4
           0           0           0           0
Nuclear spins                              I   N=           4
           1           0           2           0
Nuclear ZEff                               R   N=           4
 -1.00000000E+00 -5.60000000E+00 -4.55000000E+00 -5.60000000E+00
Nuclear ZNuc                               R   N=           4
  1.00000000E+00  8.00000000E+00  7.00000000E+00  8.00000000E+00
Nuclear QMom                               R   N=           4
  0.00000000E+00  0.00000000E+00  2.04400000E+00  0.00000000E+00
Nuclear GFac                               R   N=           4
  2.79284600E+00  0.00000000E+00  4.03761000E-01  0.00000000E+00
MicOpt                                     I   N=           4
          -1          -1          -1          -1
Number of residues                         I                0
Number of secondary structures             I                0
SymInf integers                            I   N=          26
           1           2           1           1           1           1
           1          -1           0           0           0           0
           0           0           0           0           0           0
           0           0           0           0           0           0
           0           0
RotTr to input orientation                 R   N=          12
 -4.51555878E-01 -1.15757046E-16 -8.92242842E-01  8.92242842E-01  3.99737916E-17
 -4.51555878E-01  8.79371041E-17 -1.00000000E+00  8.52329956E-17  1.74307193E+00
  0.00000000E+00  2.83263732E+00
Number of contracted shells                I               51
Number of primitive shells                 I               92
Pure/Cartesian d shells                    I                0
Pure/Cartesian f shells                    I                0
Highest angular momentum                   I                3
Largest degree of contraction              I                7
Shell types                                I   N=          51
           0           0           0           0           1           1
           1          -2          -2           0           0           0
           0           0           1           1           1           1
          -2          -2          -2          -3          -3           0
           0           0           0           0           1           1
           1           1          -2          -2          -2          -3
          -3           0           0           0           0           0
           1           1           1           1          -2          -2
          -2          -3          -3
Number of primitives per shell             I   N=          51
           3           1           1           1           1           1
           1           1           1           7           6           1
           1           1           3           1           1           1
           1           1           1           1           1           7
           6           1           1           1           3           1
           1           1           1           1           1           1
           1           7           6           1           1           1
           3           1           1           1           1           1
           1           1           1
Shell to atom map                          I   N=          51
           1           1           1           1           1           1
           1           1           1           2           2           2
           2           2           2           2           2           2
           2           2           2           2           2           3
           3           3           3           3           3           3
           3           3           3           3           3           3
           3           4           4           4           4           4
           4           4           4           4           4           4
           4           4           4
Primitive exponents                        R   N=          92
  3.38700000E+01  5.09500000E+00  1.15900000E+00  3.25800000E-01  1.02700000E-01
  2.52600000E-02  1.40700000E+00  3.88000000E-01  1.02000000E-01  1.05700000E+00
  2.47000000E-01  1.53300000E+04  2.29900000E+03  5.22400000E+02  1.47300000E+02
  4.75500000E+01  1.67600000E+01  6.20700000E+00  5.22400000E+02  1.47300000E+02
  4.75500000E+01  1.67600000E+01  6.20700000E+00  6.88200000E-01  1.75200000E+00
  2.38400000E-01  7.37600000E-02  3.44600000E+01  7.74900000E+00  2.28000000E+00
  7.15600000E-01  2.14000000E-01  5.97400000E-02  2.31400000E+00  6.45000000E-01
  2.14000000E-01  1.42800000E+00  5.00000000E-01  1.14200000E+04  1.71200000E+03
  3.89300000E+02  1.10000000E+02  3.55700000E+01  1.25400000E+01  4.64400000E+00
  3.89300000E+02  1.10000000E+02  3.55700000E+01  1.25400000E+01  4.64400000E+00
  5.11800000E-01  1.29300000E+00  1.78700000E-01  5.76000000E-02  2.66300000E+01
  5.94800000E+00  1.74200000E+00  5.55000000E-01  1.72500000E-01  4.91000000E-02
  1.65400000E+00  4.69000000E-01  1.51000000E-01  1.09300000E+00  3.64000000E-01
  1.53300000E+04  2.29900000E+03  5.22400000E+02  1.47300000E+02  4.75500000E+01
  1.67600000E+01  6.20700000E+00  5.22400000E+02  1.47300000E+02  4.75500000E+01
  1.67600000E+01  6.20700000E+00  6.88200000E-01  1.75200000E+00  2.38400000E-01
  7.37600000E-02  3.44600000E+01  7.74900000E+00  2.28000000E+00  7.15600000E-01
  2.14000000E-01  5.97400000E-02  2.31400000E+00  6.45000000E-01  2.14000000E-01
  1.42800000E+00  5.00000000E-01
Contraction coefficients                   R   N=          92
  2.54948632E-02  1.90362766E-01  8.52162022E-01  1.00000000E+00  1.00000000E+00
  1.00000000E+00  1.00000000E+00  1.00000000E+00  1.00000000E+00  1.00000000E+00
  1.00000000E+00  5.19808943E-04  4.02025621E-03  2.07128267E-02  8.10105536E-02
  2.35962985E-01  4.42653446E-01  3.57064423E-01 -4.42115008E-05 -1.22591041E-03
 -1.05517725E-02 -6.74452633E-02 -1.71198607E-01  1.07329856E+00  1.00000000E+00
  1.00000000E+00  1.00000000E+00  4.11634896E-02  2.57762836E-01  8.02419274E-01
  1.00000000E+00  1.00000000E+00  1.00000000E+00  1.00000000E+00  1.00000000E+00
  1.00000000E+00  1.00000000E+00  1.00000000E+00  5.34563860E-04  4.13435660E-03
  2.12335358E-02  8.25006224E-02  2.38138871E-01  4.42551547E-01  3.53757422E-01
 -4.89867350E-05 -1.19527323E-03 -1.03490714E-02 -6.48680190E-02 -1.71552477E-01
  1.07289568E+00  1.00000000E+00  1.00000000E+00  1.00000000E+00  3.98072123E-02
  2.49002660E-01  8.10479727E-01  1.00000000E+00  1.00000000E+00  1.00000000E+00
  1.00000000E+00  1.00000000E+00  1.00000000E+00  1.00000000E+00  1.00000000E+00
  5.19808943E-04  4.02025621E-03  2.07128267E-02  8.10105536E-02  2.35962985E-01
  4.42653446E-01  3.57064423E-01 -4.42115008E-05 -1.22591041E-03 -1.05517725E-02
 -6.74452633E-02 -1.71198607E-01  1.07329856E+00  1.00000000E+00  1.00000000E+00
  1.00000000E+00  4.11634896E-02  2.57762836E-01  8.02419274E-01  1.00000000E+00
  1.00000000E+00  1.00000000E+00  1.00000000E+00  1.00000000E+00  1.00000000E+00
  1.00000000E+00  1.00000000E+00
Coordinates of each shell                  R   N=         153
  3.31449475E+00 -2.76149423E-01 -7.45014793E-32  3.31449475E+00 -2.76149423E-01
 -7.45014793E-32  3.31449475E+00 -2.76149423E-01 -7.45014793E-32  3.31449475E+00
 -2.76149423E-01 -7.45014793E-32  3.31449475E+00 -2.76149423E-01 -7.45014793E-32
  3.31449475E+00 -2.76149423E-01 -7.45014793E-32  3.31449475E+00 -2.76149423E-01
 -7.45014793E-32  3.31449475E+00 -2.76149423E-01 -7.45014793E-32  3.31449475E+00
 -2.76149423E-01 -7.45014793E-32  1.67853998E+00 -1.10409105E+00 -3.56216950E-32
  1.67853998E+00 -1.10409105E+00 -3.56216950E-32  1.67853998E+00 -1.10409105E+00
 -3.56216950E-32  1.67853998E+00 -1.10409105E+00 -3.56216950E-32  1.67853998E+00
 -1.10409105E+00 -3.56216950E-32  1.67853998E+00 -1.10409105E+00 -3.56216950E-32
  1.67853998E+00 -1.10409105E+00 -3.56216950E-32  1.67853998E+00 -1.10409105E+00
 -3.56216950E-32  1.67853998E+00 -1.10409105E+00 -3.56216950E-32  1.67853998E+00
 -1.10409105E+00 -3.56216950E-32  1.67853998E+00 -1.10409105E+00 -3.56216950E-32
  1.67853998E+00 -1.10409105E+00 -3.56216950E-32  1.67853998E+00 -1.10409105E+00
 -3.56216950E-32  1.67853998E+00 -1.10409105E+00 -3.56216950E-32  6.17071256E-17
  1.00829116E+00 -2.20393093E-33  6.17071256E-17  1.00829116E+00 -2.20393093E-33
  6.17071256E-17  1.00829116E+00 -2.20393093E-33  6.17071256E-17  1.00829116E+00
 -2.20393093E-33  6.17071256E-17  1.00829116E+00 -2.20393093E-33  6.17071256E-17
  1.00829116E+00 -2.20393093E-33  6.17071256E-17  1.00829116E+00 -2.20393093E-33
  6.17071256E-17  1.00829116E+00 -2.20393093E-33  6.17071256E-17  1.00829116E+00
 -2.20393093E-33  6.17071256E-17  1.00829116E+00 -2.20393093E-33  6.17071256E-17
  1.00829116E+00 -2.20393093E-33  6.17071256E-17  1.00829116E+00 -2.20393093E-33
  6.17071256E-17  1.00829116E+00 -2.20393093E-33  6.17071256E-17  1.00829116E+00
 -2.20393093E-33 -2.09285182E+00  2.56354969E-01  4.68628194E-32 -2.09285182E+00
  2.56354969E-01  4.68628194E-32 -2.09285182E+00  2.56354969E-01  4.68628194E-32
 -2.09285182E+00  2.56354969E-01  4.68628194E-32 -2.09285182E+00  2.56354969E-01
  4.68628194E-32 -2.09285182E+00  2.56354969E-01  4.68628194E-32 -2.09285182E+00
  2.56354969E-01  4.68628194E-32 -2.09285182E+00  2.56354969E-01  4.68628194E-32
 -2.09285182E+00  2.56354969E-01  4.68628194E-32 -2.09285182E+00  2.56354969E-01
  4.68628194E-32 -2.09285182E+00  2.56354969E-01  4.68628194E-32 -2.09285182E+00
  2.56354969E-01  4.68628194E-32 -2.09285182E+00  2.56354969E-01  4.68628194E-32
 -2.09285182E+00  2.56354969E-01  4.68628194E-32
Num ILSW                                   I              100
ILSW                                       I   N=         100
           0           0           0           0           2           0
           0           0           0           0           0          -1
           5           0           0           0           0           0
           0           0           0           0           0           0
           1           0           0           0           0           0
           0           0      100000           0          -1           0
           0           0           0           0           0           0
           0           0           0           1           0           0
           0 -2000000000           1           0           0           0
           0           0           4          52           0           0
           0           0           0           0           0           0
           0           0           0           4           0           1
           0           0           0           0           0           0
           0           0           0           0           0           0
           0           0           0           0           0           0
           0           0           0           0           0           0
           0           0           0           0
Num RLSW                                   I               52
RLSW                                       R   N=          52
  1.00000000E+00  1.00000000E+00  1.00000000E+00  1.00000000E+00  1.00000000E+00
  0.00000000E+00  0.00000000E+00  1.00000000E+00  0.00000000E+00  0.00000000E+00
  0.00000000E+00  0.00000000E+00  1.00000000E+00  0.00000000E+00  0.00000000E+00
  0.00000000E+00  0.00000000E+00  1.00000000E+00  0.00000000E+00  0.00000000E+00
  0.00000000E+00  0.00000000E+00  1.00000000E+00  0.00000000E+00  0.00000000E+00
  0.00000000E+00  0.00000000E+00  1.00000000E+00  0.00000000E+00  0.00000000E+00
  0.00000000E+00  0.00000000E+00  1.00000000E+00  0.00000000E+00  0.00000000E+00
  0.00000000E+00  0.00000000E+00  0.00000000E+00  1.00000000E+00  1.00000000E+00
  0.00000000E+00  1.00000000E+00  0.00000000E+00  0.00000000E+00  0.00000000E+00
  0.00000000E+00  0.00000000E+00  0.00000000E+00  0.00000000E+00  0.00000000E+00
  0.00000000E+00  0.00000000E+00
MxBond                                     I                2
NBond                                      I   N=           4
           1           2           2           1
IBond                                      I   N=           8
           2           0           1           3           2           4
           3           0
RBond                                      R   N=           8
  1.00000000E+00  0.00000000E+00  1.00000000E+00  1.00000000E+00  1.00000000E+00
  2.00000000E+00  2.00000000E+00  0.00000000E+00
Virial Ratio                               R      2.002294204854987E+00
SCF Energy                                 R     -2.047231494285859E+02
MP2 Energy                                 R     -2.054210246830781E+02
Total Energy                               R     -2.054210246830781E+02
Post-SCF wavefunction norm                 R      1.089948119908129E+00
RMS Density                                R      5.387720040239284E-09
Job Status                                 I                1
Nuclear derivative order                   I                0
External E-field                           R   N=          35
  0.00000000E+00  0.00000000E+00  0.00000000E+00  0.00000000E+00  0.00000000E+00
  0.00000000E+00  0.00000000E+00  0.00000000E+00  0.00000000E+00  0.00000000E+00
  0.00000000E+00  0.00000000E+00  0.00000000E+00  0.00000000E+00  0.00000000E+00
  0.00000000E+00  0.00000000E+00  0.00000000E+00  0.00000000E+00  0.00000000E+00
  0.00000000E+00  0.00000000E+00  0.00000000E+00  0.00000000E+00  0.00000000E+00
  0.00000000E+00  0.00000000E+00  0.00000000E+00  0.00000000E+00  0.00000000E+00
  0.00000000E+00  0.00000000E+00  0.00000000E+00  0.00000000E+00  0.00000000E+00
IOpCl                                      I                0
IROHF                                      I                0
Alpha Orbital Energies                     R   N=         161
 -2.06641961E+01 -2.06410777E+01 -1.57990697E+01 -1.60422811E+00 -1.40016651E+00
 -9.48238342E-01 -7.84927201E-01 -7.28563346E-01 -6.81796305E-01 -6.23084736E-01
 -5.27152015E-01 -4.64087808E-01  2.80884919E-02  7.97145802E-02  9.41264292E-02
  9.73915408E-02  1.28834389E-01  1.43902793E-01  1.56894937E-01  1.71867187E-01
  1.87475039E-01  1.96451275E-01  2.05797205E-01  2.33852341E-01  2.58856570E-01
  2.97096049E-01  3.07624887E-01  3.29630465E-01  3.65661286E-01  3.82832726E-01
  4.24013232E-01  5.24993106E-01  5.25754586E-01  5.47371486E-01  5.71387889E-01
  6.15330085E-01  6.30776850E-01  6.51403215E-01  6.80540593E-01  7.12996915E-01
  7.18030339E-01  7.48297077E-01  7.76483404E-01  7.81861421E-01  8.12492051E-01
  8.13355024E-01  8.61332066E-01  8.76963914E-01  9.28069116E-01  9.40171215E-01
  9.44283990E-01  9.95998257E-01  1.04886532E+00  1.06448579E+00  1.08276520E+00
  1.10994133E+00  1.15780626E+00  1.19368357E+00  1.25216485E+00  1.26519344E+00
  1.36290985E+00  1.44467016E+00  1.49136329E+00  1.52041196E+00  1.52398075E+00
  1.54614845E+00  1.55801208E+00  1.60981263E+00  1.65913822E+00  1.73082130E+00
  1.74557141E+00  1.82523814E+00  1.85442750E+00  1.96414241E+00  1.97235158E+00
  1.99740040E+00  2.06922970E+00  2.12958647E+00  2.13411897E+00  2.18467570E+00
  2.27669312E+00  2.31374959E+00  2.33665203E+00  2.38248559E+00  2.45226930E+00
  2.46362774E+00  2.49995355E+00  2.50119042E+00  2.52544116E+00  2.54407053E+00
  2.57482472E+00  2.60716211E+00  2.61295698E+00  2.67161463E+00  2.76419102E+00
  2.77169815E+00  2.82347921E+00  2.94051714E+00  2.95796165E+00  3.11086393E+00
  3.15272707E+00  3.17872420E+00  3.25818137E+00  3.46139413E+00  3.83076038E+00
  3.85483620E+00  4.03734090E+00  4.16926776E+00  4.18113795E+00  4.21258194E+00
  4.37082870E+00  4.37908768E+00  4.57198308E+00  4.63001006E+00  4.74394177E+00
  4.82364261E+00  4.87212649E+00  4.88736263E+00  4.97747674E+00  5.00285113E+00
  5.07196427E+00  5.08149105E+00  5.16287039E+00  5.25480908E+00  5.26491264E+00
  5.32976607E+00  5.37100281E+00  5.40010804E+00  5.58400105E+00  5.66885438E+00
  5.79675674E+00  5.99072321E+00  6.12365615E+00  6.43454671E+00  6.51228816E+00
  6.51592707E+00  6.67892467E+00  6.72257495E+00  6.74273758E+00  6.85803425E+00
  6.90797492E+00  7.07353775E+00  7.12242925E+00  7.17879127E+00  7.23209725E+00
  7.25273510E+00  7.25484022E+00  7.33124908E+00  7.37388307E+00  7.43469746E+00
  7.47912070E+00  7.60932026E+00  7.64229863E+00  7.72300175E+00  7.78663244E+00
  7.98401898E+00  8.07434588E+00  8.42836368E+00  1.42482393E+01  1.50548869E+01
  1.60265276E+01
Alpha MO coefficients                      R   N=       25921
  5.86355596E-05  1.77435284E-04 -3.47555560E-04  4.46830165E-06 -5.21521309E-05
  9.53775490E-06  0.00000000E+00  6.15694282E-05  2.48431097E-05  0.00000000E+00
  2.62271925E-04  1.03891513E-06  0.00000000E+00  2.08352470E-05  0.00000000E+00
  0.00000000E+00  7.57632939E-06  1.09769438E-05  4.55537629E-05  0.00000000E+00
  0.00000000E+00 -4.14456272E-05  2.13933105E-05 -8.27788699E-04  8.06787451E-05
 -5.31165173E-05 -1.52935368E-04  1.71365886E-04  1.28976424E-05 -1.53543032E-05
  0.00000000E+00 -6.89026994E-05  3.68246008E-05  0.00000000E+00 -9.12160059E-05
  6.90920143E-05  0.00000000E+00 -1.27428285E-04  5.03415535E-05  0.00000000E+00
 -9.46457766E-06  0.00000000E+00  0.00000000E+00  2.98641952E-05  8.06843822E-06
  1.26964744E-05  0.00000000E+00  0.00000000E+00 -1.19823368E-04 -9.62376992E-05
 -9.02832726E-06  0.00000000E+00  0.00000000E+00 -1.16837190E-04 -2.08978881E-04
  0.00000000E+00 -1.03962375E-06  3.95625158E-06  0.00000000E+00  0.00000000E+00
 -6.69570960E-06 -1.81169830E-05  0.00000000E+00 -1.58813080E-05 -2.13869138E-05
  0.00000000E+00  0.00000000E+00  1.77671617E-04 -5.73617096E-05  2.48263976E-04
  1.40740082E-03 -1.07184392E-04 -1.42645907E-03  4.15144628E-04 -1.14851838E-04
 -6.47619070E-05  0.00000000E+00 -2.00274740E-03 -6.08678268E-04  0.00000000E+00
  1.06755770E-03 -8.94790681E-05  0.00000000E+00 -9.84999722E-05 -1.06869548E-04
  0.00000000E+00 -1.23724928E-04  0.00000000E+00  0.00000000E+00  2.07953969E-04
  1.55740706E-04 -4.48676005E-04  0.00000000E+00  0.00000000E+00  5.10366817E-04
  7.89993805E-04 -1.22878614E-05  0.00000000E+00  0.00000000E+00 -1.69415991E-04
 -1.55693573E-04  0.00000000E+00  1.03586045E-05 -1.21626265E-05  0.00000000E+00
  0.00000000E+00  1.24511703E-05  1.62229105E-05  0.00000000E+00  1.46815298E-04
  1.35470900E-04  0.00000000E+00  0.00000000E+00 -2.00772777E-05 -2.83064158E-04
  9.76647721E-01 -9.86525691E-03  4.35676107E-02  4.22731861E-03 -5.45828946E-04
  2.08247079E-03  6.42191859E-04  0.00000000E+00 -2.38255648E-03 -6.67702474E-04
  0.00000000E+00  9.77565266E-04  5.46934553E-04  0.00000000E+00 -5.78218210E-05
  3.32534119E-05  0.00000000E+00 -2.30842905E-04  0.00000000E+00  0.00000000E+00
  7.41319388E-05  5.69694814E-05  3.84948684E-04  0.00000000E+00  0.00000000E+00
 -7.87555317E-04 -4.92402132E-04 -1.67265451E-04  0.00000000E+00  0.00000000E+00
  1.76471375E-04  2.41523868E-04  0.00000000E+00  5.55715661E-05  1.12815988E-05
  0.00000000E+00  0.00000000E+00 -1.42612613E-05 -2.43719626E-05  0.00000000E+00
  1.19068886E-04  5.33633320E-05  0.00000000E+00  0.00000000E+00 -1.42116081E-04
 -1.68259580E-04  4.78393609E-04  2.51363513E-03  3.35726108E-04 -5.13798455E-06
 -2.28889667E-04 -1.07761030E-04  0.00000000E+00 -1.01488125E-03 -8.73162612E-04
  0.00000000E+00 -1.01192764E-04 -4.18289466E-04  0.00000000E+00  1.00328460E-05
  0.00000000E+00  0.00000000E+00 -4.85889560E-05 -5.20552322E-05 -1.54390376E-04
  0.00000000E+00  0.00000000E+00  1.76203552E-04  4.19652490E-04  9.76753985E-01
 -9.25632843E-03  4.35563868E-02  7.65419709E-04 -8.66711881E-04  4.48434590E-04
  1.83594406E-03  0.00000000E+00 -2.52024466E-04 -1.83239608E-03  0.00000000E+00
 -1.52956601E-03  3.13187404E-04  0.00000000E+00 -4.87794282E-05  3.79161229E-05
  0.00000000E+00 -4.18823351E-05  0.00000000E+00  0.00000000E+00  4.05309198E-05
  4.68899277E-05  6.55505443E-04  0.00000000E+00  0.00000000E+00 -3.06119238E-04
  2.42002467E-04 -9.76539189E-05  0.00000000E+00  0.00000000E+00 -2.69114628E-04
 -3.80423674E-04  0.00000000E+00 -3.03172191E-05  4.54906006E-05  0.00000000E+00
  0.00000000E+00 -1.16524192E-05 -4.99912931E-06  0.00000000E+00  9.88981255E-05
  5.39343158E-05  0.00000000E+00  0.00000000E+00 -2.32047970E-04 -2.20606422E-04
  5.97400992E-05  1.63580152E-04 -3.16998508E-04 -4.15707362E-04  8.29347200E-04
 -8.10425148E-05  7.73111691E-05  0.00000000E+00  6.97772822E-04 -6.47019628E-04
  0.00000000E+00 -3.16749185E-04  5.23187145E-04  0.00000000E+00  1.45467588E-04
 -1.66495536E-04  0.00000000E+00 -3.48742836E-05  0.00000000E+00  0.00000000E+00
 -3.38299907E-05 -5.06101829E-05 -3.96542348E-04  0.00000000E+00  0.00000000E+00
 -1.77053517E-04 -9.15155754E-04 -1.83592442E-04  0.00000000E+00  0.00000000E+00
  5.31678961E-04 -6.54843481E-05  0.00000000E+00 -8.49720198E-05  9.86312355E-05
  0.00000000E+00  0.00000000E+00 -1.48016363E-04 -5.51602383E-05  0.00000000E+00
 -5.51494481E-05  1.24097088E-04  0.00000000E+00  0.00000000E+00 -4.13976043E-04
  2.17508016E-05  8.63804045E-04  6.29440420E-05  2.77289961E-05 -2.08843806E-04
 -1.75413180E-04 -1.30149566E-05  1.95837209E-05  0.00000000E+00  1.13092987E-04
 -1.09489197E-04  0.00000000E+00  4.18866942E-04 -3.84210927E-04  0.00000000E+00
  2.04590548E-06 -5.97951064E-06  0.00000000E+00 -6.44337057E-06  0.00000000E+00
  0.00000000E+00 -1.23871934E-05 -1.25969052E-05  1.03562170E-05  0.00000000E+00
  0.00000000E+00  1.36094889E-04 -1.05166726E-05 -5.34041304E-05  0.00000000E+00
  0.00000000E+00  2.61023082E-04  1.08492974E-05  0.00000000E+00  5.26956079E-06
  8.86332207E-06  0.00000000E+00  0.00000000E+00 -1.33268592E-05 -7.73390409E-06
  0.00000000E+00  1.50439419E-05 -4.71453278E-05  0.00000000E+00  0.00000000E+00
  1.17023883E-04  8.74539489E-05 -7.93694559E-05 -6.85333881E-04 -4.08048347E-04
  2.06605716E-04  3.98659847E-05  3.40055009E-05  0.00000000E+00  4.82752130E-04
 -3.02282346E-04  0.00000000E+00  3.09087815E-04 -3.09615467E-04  0.00000000E+00
 -1.31567259E-05  0.00000000E+00  0.00000000E+00 -3.48362439E-05  2.68352046E-05
  9.75318653E-05  0.00000000E+00  0.00000000E+00 -1.93562243E-05  1.68313513E-04
 -1.26319769E-04 -2.12675302E-04 -2.11353759E-04  5.00142805E-03  3.29638669E-03
  9.78921675E-06 -3.93871475E-05  0.00000000E+00 -5.17607665E-04  8.53994105E-04
  0.00000000E+00 -2.10301485E-03  3.10040728E-03  0.00000000E+00 -7.96550856E-04
  5.80842349E-04  0.00000000E+00  8.83712154E-07  0.00000000E+00  0.00000000E+00
 -3.44497183E-05 -4.35015796E-05 -4.52967240E-04  0.00000000E+00  0.00000000E+00
 -2.85526640E-05 -5.18960097E-04 -6.11782272E-04  0.00000000E+00  0.00000000E+00
 -3.10309764E-04 -8.47596320E-04  0.00000000E+00  2.14036153E-05 -2.08707552E-05
  0.00000000E+00  0.00000000E+00  3.90783167E-05  3.30095162E-05  0.00000000E+00
  8.04114208E-05 -1.49210541E-04  0.00000000E+00  0.00000000E+00  3.61576085E-05
  2.37619608E-04  9.78281191E-01 -8.42357027E-03  4.17708129E-02 -5.09545704E-03
 -2.97988144E-03 -1.05750223E-03 -3.03411674E-03  0.00000000E+00 -1.23095386E-04
  2.97724387E-03  0.00000000E+00  2.48328280E-04  2.97589222E-03  0.00000000E+00
 -5.75643473E-05  5.31476942E-04  0.00000000E+00 -4.33851977E-04  0.00000000E+00
  0.00000000E+00  2.20274695E-04  2.43619718E-04  1.00847602E-03  0.00000000E+00
  0.00000000E+00 -9.10165612E-05  2.73198517E-04  3.38272320E-04  0.00000000E+00
  0.00000000E+00  1.32561976E-04  7.62065295E-05  0.00000000E+00  8.78721761E-05
 -6.97599463E-05  0.00000000E+00  0.00000000E+00 -5.76918876E-05 -2.37607440E-05
  0.00000000E+00 -2.10042087E-04 -2.29655129E-04  0.00000000E+00  0.00000000E+00
  4.12316000E-04  2.46196161E-04 -1.92872899E-04  8.97472560E-04  1.52937506E-04
  2.76664082E-03  7.75740524E-04  2.59518696E-04  1.32062579E-04  0.00000000E+00
  8.48358171E-04  2.78191494E-04  0.00000000E+00  1.16033422E-03 -1.22497203E-04
  0.00000000E+00 -1.09649012E-05  4.54554614E-05  0.00000000E+00 -3.89694021E-05
  0.00000000E+00  0.00000000E+00  6.57653913E-05  8.82808759E-05  7.01943634E-05
  0.00000000E+00  0.00000000E+00  2.09809575E-05 -2.80370023E-04 -4.93343849E-05
  0.00000000E+00  0.00000000E+00  2.90035572E-04 -1.28492784E-04  0.00000000E+00
  9.17733458E-05  3.89280263E-05  0.00000000E+00  0.00000000E+00 -4.47962524E-05
 -1.15833952E-04  0.00000000E+00  1.45519309E-04  1.26000085E-04  0.00000000E+00
  0.00000000E+00  5.44815464E-05 -3.57553037E-04  2.13138361E-02  1.74535472E-02
 -1.42069406E-03  4.53006523E-04 -3.28293485E-03 -8.85023470E-04  0.00000000E+00
 -2.88941789E-03 -7.94914461E-04  0.00000000E+00  2.14269156E-03  3.93451828E-04
  0.00000000E+00 -2.61690510E-04  0.00000000E+00  0.00000000E+00  4.61337105E-04
  2.41491487E-04  2.10489896E-04  0.00000000E+00  0.00000000E+00  4.98656969E-04
  4.08903541E-04 -6.72814896E-02  1.62966339E-01  4.33927914E-02  9.38610449E-02
  7.89932526E-03 -1.53253073E-02  2.38259338E-02  0.00000000E+00 -2.06005132E-02
  3.43557427E-02  0.00000000E+00 -1.16995144E-02  1.08353215E-02  0.00000000E+00
 -1.82763814E-03 -1.84702751E-03  0.00000000E+00 -1.85610710E-03  0.00000000E+00
  0.00000000E+00  5.82521076E-05 -1.83495190E-03 -4.22976526E-03  0.00000000E+00
  0.00000000E+00  6.73857076E-04 -4.56118562E-03  1.03375518E-03  0.00000000E+00
  0.00000000E+00  7.22252363E-05 -1.62016614E-03  0.00000000E+00  4.85023404E-04
 -9.23101035E-04  0.00000000E+00  0.00000000E+00  7.72562899E-04  1.32976252E-03
  0.00000000E+00 -2.30744931E-04  5.56897647E-04  0.00000000E+00  0.00000000E+00
 -1.59615028E-04  1.44278411E-04 -1.29894434E-01  3.07076185E-01  8.08589552E-02
  6.27141773E-02  3.62811002E-04 -7.22746188E-02 -4.94024151E-02  0.00000000E+00
 -7.55777423E-02 -6.73329967E-02  0.00000000E+00 -3.52345722E-03  8.63468946E-03
  0.00000000E+00 -1.46236763E-04  3.13953400E-03  0.00000000E+00 -9.30033399E-03
  0.00000000E+00  0.00000000E+00  7.98402405E-03  6.70322456E-03 -1.14631456E-02
  0.00000000E+00  0.00000000E+00  8.43408403E-03  6.53464191E-03  6.21622938E-03
  0.00000000E+00  0.00000000E+00 -2.41113296E-04  4.85647557E-04  0.00000000E+00
  2.44709114E-03  2.52778722E-03  0.00000000E+00  0.00000000E+00 -4.44876562E-03
 -5.62696430E-03  0.00000000E+00 -1.28686579E-03 -4.27263135E-04  0.00000000E+00
  0.00000000E+00  8.66831478E-04  7.46180506E-05 -1.49580955E-01  3.57696356E-01
  9.58354189E-02  1.78407083E-01 -1.51129654E-02  7.92507854E-02  2.35851855E-02
  0.00000000E+00  1.00474111E-01  2.96938386E-02  0.00000000E+00  1.73698120E-02
  3.99594219E-03  0.00000000E+00 -8.54330977E-03 -2.53165872E-03  0.00000000E+00
 -5.16560999E-03  0.00000000E+00  0.00000000E+00  7.04717483E-03  4.82877600E-03
 -9.46007695E-03  0.00000000E+00  0.00000000E+00  1.45071776E-02  1.01797424E-02
  2.55613148E-03  0.00000000E+00  0.00000000E+00 -3.56959692E-03 -2.55372109E-03
  0.00000000E+00 -3.12277823E-03 -9.48608758E-04  0.00000000E+00  0.00000000E+00
  3.02854682E-03  3.85354188E-03  0.00000000E+00 -7.32111608E-05 -2.68638771E-04
  0.00000000E+00  0.00000000E+00  8.64997327E-04  2.02895572E-03  8.04113633E-02
  7.87242674E-02 -2.08411422E-02 -2.87830085E-03 -1.18031054E-02 -4.68292942E-03
  0.00000000E+00 -1.45726648E-02 -1.33917001E-03  0.00000000E+00  7.86811217E-03
  2.14681858E-03  0.00000000E+00 -1.31554283E-03  0.00000000E+00  0.00000000E+00
  2.23152463E-03  1.18064024E-03  4.38307614E-04  0.00000000E+00  0.00000000E+00
  2.10010415E-03 -1.33900252E-03 -1.81224268E-01  4.41521435E-01  1.20495988E-01
  2.57539876E-01  1.14395140E-02  1.67573031E-02  3.75451022E-02  0.00000000E+00