title                                                                   
SP        RMP2-FC                                                     Aug-CC-pVTZ         
Number of atoms                            I                4
Info1-9                                    I   N=           9
          29          20           0           0           0         110
           1           2           1
Full Title                                 C   N=           1
title       
Route                                      C   N=           4
#p SP mp2/aug-cc-pvtz density=current           
Charge                                     I                0
Multiplicity                               I                1
Number of electrons                        I               24
Number of alpha electrons                  I               12
Number of beta electrons                   I               12
Number of basis functions                  I              161
Number of independent functions            I              161
Number of point charges in /Mol/           I                0
Number of translation vectors              I                0
Atomic numbers                             I   N=           4
           1           8           7           8
Nuclear charges                            R   N=           4
  1.00000000E+00  8.00000000E+00  7.00000000E+00  8.00000000E+00
Current cartesian coordinates              R   N=          12
  3.31822373E+00 -2.57896126E-01  1.08260264E-31  1.69700760E+00 -1.11433856E+00
  1.06365618E-31  7.93224634E-17  9.83236290E-01  7.32111402E-32 -2.11178557E+00
  2.86243825E-01 -1.78420847E-31
Number of symbols in /Mol/                 I                0
Force Field                                I                0
Atom Types                                 C   N=           4
                                                
Int Atom Types                             I   N=           4
           0           0           0           0
MM charges                                 R   N=           4
  0.00000000E+00  0.00000000E+00  0.00000000E+00  0.00000000E+00
Integer atomic weights                     I   N=           4
           1          16          14          16
Real atomic weights                        R   N=           4
  1.00782504E+00  1.59949146E+01  1.40030740E+01  1.59949146E+01
Atom fragment info                         I   N=           4
           0           0           0           0
Atom residue num                           I   N=           4
           0           0           0           0
Nuclear spins                              I   N=           4
           1           0           2           0
Nuclear ZEff                               R   N=           4
 -1.00000000E+00 -5.60000000E+00 -4.55000000E+00 -5.60000000E+00
Nuclear ZNuc                               R   N=           4
  1.00000000E+00  8.00000000E+00  7.00000000E+00  8.00000000E+00
Nuclear QMom                               R   N=           4
  0.00000000E+00  0.00000000E+00  2.04400000E+00  0.00000000E+00
Nuclear GFac                               R   N=           4
  2.79284600E+00  0.00000000E+00  4.03761000E-01  0.00000000E+00
MicOpt                                     I   N=           4
          -1          -1          -1          -1
Number of residues                         I                0
Number of secondary structures             I                0
SymInf integers                            I   N=          26
           1           2           1           1           1           1
           1          -1           0           0           0           0
           0           0           0           0           0           0
           0           0           0           0           0           0
           0           0
RotTr to input orientation                 R   N=          12
 -4.67100097E-01 -2.22144055E-17 -8.84204444E-01  8.84204444E-01  5.12591530E-16
 -4.67100097E-01  4.63612060E-16 -1.00000000E+00 -2.19789477E-16  1.77797553E+00
  0.00000000E+00  2.81352486E+00
Number of contracted shells                I               51
Number of primitive shells                 I               92
Pure/Cartesian d shells                    I                0
Pure/Cartesian f shells                    I                0
Highest angular momentum                   I                3
Largest degree of contraction              I                7
Shell types                                I   N=          51
           0           0           0           0           1           1
           1          -2          -2           0           0           0
           0           0           1           1           1           1
          -2          -2          -2          -3          -3           0
           0           0           0           0           1           1
           1           1          -2          -2          -2          -3
          -3           0           0           0           0           0
           1           1           1           1          -2          -2
          -2          -3          -3
Number of primitives per shell             I   N=          51
           3           1           1           1           1           1
           1           1           1           7           6           1
           1           1           3           1           1           1
           1           1           1           1           1           7
           6           1           1           1           3           1
           1           1           1           1           1           1
           1           7           6           1           1           1
           3           1           1           1           1           1
           1           1           1
Shell to atom map                          I   N=          51
           1           1           1           1           1           1
           1           1           1           2           2           2
           2           2           2           2           2           2
           2           2           2           2           2           3
           3           3           3           3           3           3
           3           3           3           3           3           3
           3           4           4           4           4           4
           4           4           4           4           4           4
           4           4           4
Primitive exponents                        R   N=          92
  3.38700000E+01  5.09500000E+00  1.15900000E+00  3.25800000E-01  1.02700000E-01
  2.52600000E-02  1.40700000E+00  3.88000000E-01  1.02000000E-01  1.05700000E+00
  2.47000000E-01  1.53300000E+04  2.29900000E+03  5.22400000E+02  1.47300000E+02
  4.75500000E+01  1.67600000E+01  6.20700000E+00  5.22400000E+02  1.47300000E+02
  4.75500000E+01  1.67600000E+01  6.20700000E+00  6.88200000E-01  1.75200000E+00
  2.38400000E-01  7.37600000E-02  3.44600000E+01  7.74900000E+00  2.28000000E+00
  7.15600000E-01  2.14000000E-01  5.97400000E-02  2.31400000E+00  6.45000000E-01
  2.14000000E-01  1.42800000E+00  5.00000000E-01  1.14200000E+04  1.71200000E+03
  3.89300000E+02  1.10000000E+02  3.55700000E+01  1.25400000E+01  4.64400000E+00
  3.89300000E+02  1.10000000E+02  3.55700000E+01  1.25400000E+01  4.64400000E+00
  5.11800000E-01  1.29300000E+00  1.78700000E-01  5.76000000E-02  2.66300000E+01
  5.94800000E+00  1.74200000E+00  5.55000000E-01  1.72500000E-01  4.91000000E-02
  1.65400000E+00  4.69000000E-01  1.51000000E-01  1.09300000E+00  3.64000000E-01
  1.53300000E+04  2.29900000E+03  5.22400000E+02  1.47300000E+02  4.75500000E+01
  1.67600000E+01  6.20700000E+00  5.22400000E+02  1.47300000E+02  4.75500000E+01
  1.67600000E+01  6.20700000E+00  6.88200000E-01  1.75200000E+00  2.38400000E-01
  7.37600000E-02  3.44600000E+01  7.74900000E+00  2.28000000E+00  7.15600000E-01
  2.14000000E-01  5.97400000E-02  2.31400000E+00  6.45000000E-01  2.14000000E-01
  1.42800000E+00  5.00000000E-01
Contraction coefficients                   R   N=          92
  2.54948632E-02  1.90362766E-01  8.52162022E-01  1.00000000E+00  1.00000000E+00
  1.00000000E+00  1.00000000E+00  1.00000000E+00  1.00000000E+00  1.00000000E+00
  1.00000000E+00  5.19808943E-04  4.02025621E-03  2.07128267E-02  8.10105536E-02
  2.35962985E-01  4.42653446E-01  3.57064423E-01 -4.42115008E-05 -1.22591041E-03
 -1.05517725E-02 -6.74452633E-02 -1.71198607E-01  1.07329856E+00  1.00000000E+00
  1.00000000E+00  1.00000000E+00  4.11634896E-02  2.57762836E-01  8.02419274E-01
  1.00000000E+00  1.00000000E+00  1.00000000E+00  1.00000000E+00  1.00000000E+00
  1.00000000E+00  1.00000000E+00  1.00000000E+00  5.34563860E-04  4.13435660E-03
  2.12335358E-02  8.25006224E-02  2.38138871E-01  4.42551547E-01  3.53757422E-01
 -4.89867350E-05 -1.19527323E-03 -1.03490714E-02 -6.48680190E-02 -1.71552477E-01
  1.07289568E+00  1.00000000E+00  1.00000000E+00  1.00000000E+00  3.98072123E-02
  2.49002660E-01  8.10479727E-01  1.00000000E+00  1.00000000E+00  1.00000000E+00
  1.00000000E+00  1.00000000E+00  1.00000000E+00  1.00000000E+00  1.00000000E+00
  5.19808943E-04  4.02025621E-03  2.07128267E-02  8.10105536E-02  2.35962985E-01
  4.42653446E-01  3.57064423E-01 -4.42115008E-05 -1.22591041E-03 -1.05517725E-02
 -6.74452633E-02 -1.71198607E-01  1.07329856E+00  1.00000000E+00  1.00000000E+00
  1.00000000E+00  4.11634896E-02  2.57762836E-01  8.02419274E-01  1.00000000E+00
  1.00000000E+00  1.00000000E+00  1.00000000E+00  1.00000000E+00  1.00000000E+00
  1.00000000E+00  1.00000000E+00
Coordinates of each shell                  R   N=         153
  3.31822373E+00 -2.57896126E-01  9.45157911E-32  3.31822373E+00 -2.57896126E-01
  9.45157911E-32  3.31822373E+00 -2.57896126E-01  9.45157911E-32  3.31822373E+00
 -2.57896126E-01  9.45157911E-32  3.31822373E+00 -2.57896126E-01  9.45157911E-32
  3.31822373E+00 -2.57896126E-01  9.45157911E-32  3.31822373E+00 -2.57896126E-01
  9.45157911E-32  3.31822373E+00 -2.57896126E-01  9.45157911E-32  3.31822373E+00
 -2.57896126E-01  9.45157911E-32  1.69700760E+00 -1.11433856E+00  9.67756003E-32
  1.69700760E+00 -1.11433856E+00  9.67756003E-32  1.69700760E+00 -1.11433856E+00
  9.67756003E-32  1.69700760E+00 -1.11433856E+00  9.67756003E-32  1.69700760E+00
 -1.11433856E+00  9.67756003E-32  1.69700760E+00 -1.11433856E+00  9.67756003E-32
  1.69700760E+00 -1.11433856E+00  9.67756003E-32  1.69700760E+00 -1.11433856E+00
  9.67756003E-32  1.69700760E+00 -1.11433856E+00  9.67756003E-32  1.69700760E+00
 -1.11433856E+00  9.67756003E-32  1.69700760E+00 -1.11433856E+00  9.67756003E-32
  1.69700760E+00 -1.11433856E+00  9.67756003E-32  1.69700760E+00 -1.11433856E+00
  9.67756003E-32  1.69700760E+00 -1.11433856E+00  9.67756003E-32  8.74167204E-17
  9.83236290E-01 -4.84772918E-32  8.74167204E-17  9.83236290E-01 -4.84772918E-32
  8.74167204E-17  9.83236290E-01 -4.84772918E-32  8.74167204E-17  9.83236290E-01
 -4.84772918E-32  8.74167204E-17  9.83236290E-01 -4.84772918E-32  8.74167204E-17
  9.83236290E-01 -4.84772918E-32  8.74167204E-17  9.83236290E-01 -4.84772918E-32
  8.74167204E-17  9.83236290E-01 -4.84772918E-32  8.74167204E-17  9.83236290E-01
 -4.84772918E-32  8.74167204E-17  9.83236290E-01 -4.84772918E-32  8.74167204E-17
  9.83236290E-01 -4.84772918E-32  8.74167204E-17  9.83236290E-01 -4.84772918E-32
  8.74167204E-17  9.83236290E-01 -4.84772918E-32  8.74167204E-17  9.83236290E-01
 -4.84772918E-32 -2.11178557E+00  2.86243825E-01 -6.61724438E-32 -2.11178557E+00
  2.86243825E-01 -6.61724438E-32 -2.11178557E+00  2.86243825E-01 -6.61724438E-32
 -2.11178557E+00  2.86243825E-01 -6.61724438E-32 -2.11178557E+00  2.86243825E-01
 -6.61724438E-32 -2.11178557E+00  2.86243825E-01 -6.61724438E-32 -2.11178557E+00
  2.86243825E-01 -6.61724438E-32 -2.11178557E+00  2.86243825E-01 -6.61724438E-32
 -2.11178557E+00  2.86243825E-01 -6.61724438E-32 -2.11178557E+00  2.86243825E-01
 -6.61724438E-32 -2.11178557E+00  2.86243825E-01 -6.61724438E-32 -2.11178557E+00
  2.86243825E-01 -6.61724438E-32 -2.11178557E+00  2.86243825E-01 -6.61724438E-32
 -2.11178557E+00  2.86243825E-01 -6.61724438E-32
Num ILSW                                   I              100
ILSW                                       I   N=         100
           0           0           0           0           2           0
           0           0           0           0           0          -1
           5           0           0           0           0           0
           0           0           0           0           0           0
           1           0           0           0           0           0
           0           0      100000           0          -1           0
           0           0           0           0           0           0
           0           0           0           1           0           0
           0 -2000000000           1           0           0           0
           0           0           4          52           0           0
           0           0           0           0           0           0
           0           0           0           4           0           1
           0           0           0           0           0           0
           0           0           0           0           0           0
           0           0           0           0           0           0
           0           0           0           0           0           0
           0           0           0           0
Num RLSW                                   I               52
RLSW                                       R   N=          52
  1.00000000E+00  1.00000000E+00  1.00000000E+00  1.00000000E+00  1.00000000E+00
  0.00000000E+00  0.00000000E+00  1.00000000E+00  0.00000000E+00  0.00000000E+00
  0.00000000E+00  0.00000000E+00  1.00000000E+00  0.00000000E+00  0.00000000E+00
  0.00000000E+00  0.00000000E+00  1.00000000E+00  0.00000000E+00  0.00000000E+00
  0.00000000E+00  0.00000000E+00  1.00000000E+00  0.00000000E+00  0.00000000E+00
  0.00000000E+00  0.00000000E+00  1.00000000E+00  0.00000000E+00  0.00000000E+00
  0.00000000E+00  0.00000000E+00  1.00000000E+00  0.00000000E+00  0.00000000E+00
  0.00000000E+00  0.00000000E+00  0.00000000E+00  1.00000000E+00  1.00000000E+00
  0.00000000E+00  1.00000000E+00  0.00000000E+00  0.00000000E+00  0.00000000E+00
  0.00000000E+00  0.00000000E+00  0.00000000E+00  0.00000000E+00  0.00000000E+00
  0.00000000E+00  0.00000000E+00
MxBond                                     I                2
NBond                                      I   N=           4
           1           2           2           1
IBond                                      I   N=           8
           2           0           1           3           2           4
           3           0
RBond                                      R   N=           8
  1.00000000E+00  0.00000000E+00  1.00000000E+00  1.00000000E+00  1.00000000E+00
  2.00000000E+00  2.00000000E+00  0.00000000E+00
Virial Ratio                               R      2.002358775923058E+00
SCF Energy                                 R     -2.047233173990053E+02
MP2 Energy                                 R     -2.054213474324284E+02
Total Energy                               R     -2.054213474324284E+02
Post-SCF wavefunction norm                 R      1.090024051430082E+00
RMS Density                                R      5.459355724024878E-09
Job Status                                 I                1
Nuclear derivative order                   I                0
External E-field                           R   N=          35
  0.00000000E+00  0.00000000E+00  0.00000000E+00  0.00000000E+00  0.00000000E+00
  0.00000000E+00  0.00000000E+00  0.00000000E+00  0.00000000E+00  0.00000000E+00
  0.00000000E+00  0.00000000E+00  0.00000000E+00  0.00000000E+00  0.00000000E+00
  0.00000000E+00  0.00000000E+00  0.00000000E+00  0.00000000E+00  0.00000000E+00
  0.00000000E+00  0.00000000E+00  0.00000000E+00  0.00000000E+00  0.00000000E+00
  0.00000000E+00  0.00000000E+00  0.00000000E+00  0.00000000E+00  0.00000000E+00
  0.00000000E+00  0.00000000E+00  0.00000000E+00  0.00000000E+00  0.00000000E+00
IOpCl                                      I                0
IROHF                                      I                0
Alpha Orbital Energies                     R   N=         161
 -2.06652966E+01 -2.06426063E+01 -1.57987251E+01 -1.60287881E+00 -1.40294611E+00
 -9.48244241E-01 -7.83955662E-01 -7.30028493E-01 -6.81641136E-01 -6.25826023E-01
 -5.28649352E-01 -4.61832834E-01  2.80255712E-02  8.03702246E-02  9.39238512E-02
  9.74894864E-02  1.28824449E-01  1.43654796E-01  1.56921368E-01  1.72204392E-01
  1.87276489E-01  1.96503330E-01  2.05539969E-01  2.33533348E-01  2.57666210E-01
  2.96388450E-01  3.07781262E-01  3.29650881E-01  3.66114261E-01  3.82453406E-01
  4.23768822E-01  5.25174884E-01  5.26367546E-01  5.48637052E-01  5.73584640E-01
  6.12868322E-01  6.31161812E-01  6.47983952E-01  6.80135117E-01  7.14303289E-01
  7.17924694E-01  7.47802036E-01  7.74504789E-01  7.82114697E-01  8.11467039E-01
  8.12147976E-01  8.61160135E-01  8.79784796E-01  9.25698550E-01  9.38924213E-01
  9.44975223E-01  9.95383662E-01  1.05009399E+00  1.06356453E+00  1.08158518E+00
  1.10612933E+00  1.16113509E+00  1.19725983E+00  1.25062128E+00  1.26925564E+00
  1.36088641E+00  1.43327291E+00  1.48762019E+00  1.52286431E+00  1.52371725E+00
  1.54424266E+00  1.55336665E+00  1.61026988E+00  1.65832980E+00  1.72928216E+00
  1.75486323E+00  1.82212067E+00  1.85657418E+00  1.96050610E+00  1.97746732E+00
  1.99830055E+00  2.07492324E+00  2.13257314E+00  2.13269675E+00  2.19135472E+00
  2.27088800E+00  2.30763013E+00  2.32942614E+00  2.38118870E+00  2.45133558E+00
  2.47093390E+00  2.49766211E+00  2.50275675E+00  2.52118475E+00  2.54424699E+00
  2.57105018E+00  2.60692996E+00  2.60836391E+00  2.66201515E+00  2.77250060E+00
  2.77567170E+00  2.83958917E+00  2.93789856E+00  2.95255978E+00  3.11488638E+00
  3.14326221E+00  3.18216524E+00  3.24852735E+00  3.46425257E+00  3.83017859E+00
  3.85525363E+00  4.02795843E+00  4.16896578E+00  4.18472745E+00  4.21302668E+00
  4.36034335E+00  4.37234113E+00  4.58405586E+00  4.63504358E+00  4.74626034E+00
  4.81794507E+00  4.87302697E+00  4.88715833E+00  4.97571804E+00  5.00118730E+00
  5.07301350E+00  5.08620056E+00  5.17169935E+00  5.24649472E+00  5.25916622E+00
  5.33459501E+00  5.36992075E+00  5.37485467E+00  5.57966074E+00  5.66765765E+00
  5.79392782E+00  5.98768917E+00  6.12451061E+00  6.43344314E+00  6.50675995E+00
  6.50983881E+00  6.67498964E+00  6.71501718E+00  6.74675729E+00  6.84832350E+00
  6.91665106E+00  7.06664006E+00  7.11973259E+00  7.17960149E+00  7.23308034E+00
  7.25699788E+00  7.25853132E+00  7.33191732E+00  7.38008835E+00  7.43146642E+00
  7.47905348E+00  7.60873257E+00  7.64849708E+00  7.69754185E+00  7.79436525E+00
  7.98517606E+00  8.06758170E+00  8.42335055E+00  1.42064716E+01  1.51234647E+01
  1.59752700E+01
Alpha MO coefficients                      R   N=       25921
  5.86061458E-05  1.77975934E-04 -3.81656665E-04  4.14251033E-06 -5.35701570E-05
  9.73527942E-06  0.00000000E+00  5.58775300E-05  5.30934730E-05  0.00000000E+00
  2.67100982E-04  1.39568390E-05  0.00000000E+00  2.18880385E-05  0.00000000E+00
  0.00000000E+00  1.08492889E-05  8.41546571E-06  5.20795469E-05  0.00000000E+00
  0.00000000E+00 -3.42697785E-05  1.96968604E-05 -8.15763996E-04  8.04832873E-05
 -6.11998076E-05 -8.15639910E-05  2.22183682E-04  1.81922189E-05 -1.76105669E-05
  0.00000000E+00 -8.66669128E-05  4.78447023E-05  0.00000000E+00 -1.39818983E-04
  4.98752742E-05  0.00000000E+00 -1.18419705E-04  5.34649176E-05  0.00000000E+00
 -8.97169546E-06  0.00000000E+00  0.00000000E+00  2.72385173E-05  1.02937153E-05
  1.41164843E-06  0.00000000E+00  0.00000000E+00 -9.72691477E-05 -1.18617358E-04
 -1.76403031E-05  0.00000000E+00  0.00000000E+00 -7.51468297E-05 -2.32908351E-04
  0.00000000E+00  3.62482688E-06  1.83564093E-06  0.00000000E+00  0.00000000E+00
 -7.88930034E-06 -1.38893168E-05  0.00000000E+00 -1.98980266E-05 -1.82948954E-05
  0.00000000E+00  0.00000000E+00  1.90120258E-04 -4.92295327E-05  2.49412494E-04
  1.41925587E-03 -1.01829771E-04 -1.52384297E-03  3.82007122E-04 -1.13091359E-04
 -6.44637927E-05  0.00000000E+00 -2.04279205E-03 -5.60162469E-04  0.00000000E+00
  1.14369686E-03 -7.10836062E-05  0.00000000E+00 -1.13092665E-04 -9.32453566E-05
  0.00000000E+00 -1.25303116E-04  0.00000000E+00  0.00000000E+00  2.13500540E-04
  1.44853310E-04 -4.38857278E-04  0.00000000E+00  0.00000000E+00  5.52478985E-04
  7.90485622E-04 -1.47329642E-06  0.00000000E+00  0.00000000E+00 -1.64756038E-04
 -1.51418702E-04  0.00000000E+00  1.28430434E-05 -1.28719764E-05  0.00000000E+00
  0.00000000E+00  1.56502051E-05  1.49808762E-05  0.00000000E+00  1.42975541E-04
  1.28515812E-04  0.00000000E+00  0.00000000E+00 -2.23786456E-05 -2.92787404E-04
  9.76650695E-01 -9.86435569E-03  4.35631394E-02  4.27826226E-03 -5.32235320E-04
  2.10774713E-03  5.67098217E-04  0.00000000E+00 -2.41104118E-03 -5.87432704E-04
  0.00000000E+00  9.85055882E-04  5.52537610E-04  0.00000000E+00 -5.27615639E-05
  3.01209493E-05  0.00000000E+00 -2.29213302E-04  0.00000000E+00  0.00000000E+00
  7.69948388E-05  5.54968823E-05  3.87288788E-04  0.00000000E+00  0.00000000E+00
 -8.26735742E-04 -4.41932553E-04 -1.59473550E-04  0.00000000E+00  0.00000000E+00
  1.76008265E-04  2.48722234E-04  0.00000000E+00  5.52695331E-05  1.07934913E-05
  0.00000000E+00  0.00000000E+00 -1.70944686E-05 -2.44007627E-05  0.00000000E+00
  1.23966086E-04  4.64829604E-05  0.00000000E+00  0.00000000E+00 -1.60289747E-04
 -1.53312324E-04  4.72626480E-04  2.43729008E-03  3.42691536E-04 -8.03605336E-06
 -2.23257932E-04 -1.07745513E-04  0.00000000E+00 -9.78357584E-04 -8.76314095E-04
  0.00000000E+00 -8.92453056E-05 -4.27894518E-04  0.00000000E+00  1.14209691E-05
  0.00000000E+00  0.00000000E+00 -4.53458137E-05 -5.68857666E-05 -1.58216659E-04
  0.00000000E+00  0.00000000E+00  1.59769618E-04  4.17036408E-04  9.76755560E-01
 -9.25473981E-03  4.35526397E-02  8.59739454E-04 -9.15549251E-04  4.04855635E-04
  1.84516852E-03  0.00000000E+00 -2.03386299E-04 -1.83990589E-03  0.00000000E+00
 -1.47443585E-03  3.25231442E-04  0.00000000E+00 -5.96708333E-05  2.87552952E-05
  0.00000000E+00 -4.16247938E-05  0.00000000E+00  0.00000000E+00  3.41159997E-05
  4.77667195E-05  6.48252295E-04  0.00000000E+00  0.00000000E+00 -2.98340502E-04
  2.42365856E-04 -9.11399147E-05  0.00000000E+00  0.00000000E+00 -2.80676455E-04
 -3.71115727E-04  0.00000000E+00 -3.05433726E-05  4.56827363E-05  0.00000000E+00
  0.00000000E+00 -1.32607732E-05 -3.52181216E-06  0.00000000E+00  9.07701463E-05
  5.42852162E-05  0.00000000E+00  0.00000000E+00 -2.16504795E-04 -2.30344528E-04
  5.92453702E-05  1.60157510E-04 -3.19261148E-04 -3.62885141E-04  8.76005915E-04
 -8.38340764E-05  7.73992727E-05  0.00000000E+00  7.11147387E-04 -6.52816484E-04
  0.00000000E+00 -4.17311226E-04  5.47081562E-04  0.00000000E+00  1.66644413E-04
 -1.77180951E-04  0.00000000E+00 -3.45021275E-05  0.00000000E+00  0.00000000E+00
 -3.43618088E-05 -4.98038402E-05 -3.99195361E-04  0.00000000E+00  0.00000000E+00
 -1.66047958E-04 -9.29111172E-04 -1.86153558E-04  0.00000000E+00  0.00000000E+00
  5.49788025E-04 -5.53011780E-05  0.00000000E+00 -8.77565698E-05  9.88904168E-05
  0.00000000E+00  0.00000000E+00 -1.46941593E-04 -5.86169899E-05  0.00000000E+00
 -5.13480142E-05  1.19477530E-04  0.00000000E+00  0.00000000E+00 -4.27450146E-04
  2.41176258E-05  8.50008821E-04  4.62843418E-05  2.14151107E-05 -2.81270785E-04
 -1.88172193E-04 -1.53359722E-05  2.22131451E-05  0.00000000E+00  1.12563469E-04
 -1.26471760E-04  0.00000000E+00  4.22056931E-04 -4.34097561E-04  0.00000000E+00
 -7.81717348E-06  4.35949374E-06  0.00000000E+00 -5.32966535E-06  0.00000000E+00
  0.00000000E+00 -1.32568453E-05 -1.06805065E-05  1.00629253E-06  0.00000000E+00
  0.00000000E+00  1.41424321E-04 -3.25110602E-05 -6.78955934E-05  0.00000000E+00
  0.00000000E+00  2.62590954E-04 -2.07079101E-05  0.00000000E+00  2.97297838E-06
  9.87836102E-06  0.00000000E+00  0.00000000E+00 -1.31608682E-05 -9.57938254E-06
  0.00000000E+00  1.19383332E-05 -5.06879352E-05  0.00000000E+00  0.00000000E+00
  1.17210228E-04  7.45247092E-05 -7.82728255E-05 -5.29097610E-04 -3.53774169E-04
  2.04670567E-04  3.63051103E-05  3.34928469E-05  0.00000000E+00  4.60946258E-04
 -3.20411782E-04  0.00000000E+00  3.08251640E-04 -3.13768627E-04  0.00000000E+00
 -1.54238082E-05  0.00000000E+00  0.00000000E+00 -3.52707693E-05  2.77697080E-05
  1.06012440E-04  0.00000000E+00  0.00000000E+00 -2.29110615E-05  1.73897192E-04
 -1.26729803E-04 -2.13936112E-04 -2.07683545E-04  4.93005142E-03  3.24812332E-03
  9.46488353E-06 -4.05988153E-05  0.00000000E+00 -5.31055085E-04  8.52743572E-04
  0.00000000E+00 -2.33593201E-03  3.04088254E-03  0.00000000E+00 -8.11452838E-04
  5.60461567E-04  0.00000000E+00  2.96976350E-07  0.00000000E+00  0.00000000E+00
 -3.15109968E-05 -4.39834293E-05 -4.45488809E-04  0.00000000E+00  0.00000000E+00
 -3.55850645E-05 -5.27076204E-04 -6.07148668E-04  0.00000000E+00  0.00000000E+00
 -2.78176692E-04 -9.24543721E-04  0.00000000E+00  1.93610453E-05 -2.11586828E-05
  0.00000000E+00  0.00000000E+00  3.89668283E-05  3.18060495E-05  0.00000000E+00
  9.03873655E-05 -1.43201638E-04  0.00000000E+00  0.00000000E+00  2.70598954E-05
  2.31599368E-04  9.78280163E-01 -8.40229552E-03  4.17866968E-02 -5.43972202E-03
 -3.03368696E-03 -1.09882142E-03 -3.03443186E-03  0.00000000E+00 -9.32802060E-05
  2.97511293E-03  0.00000000E+00  4.65986321E-04  3.05446840E-03  0.00000000E+00
 -4.07362574E-05  5.43334908E-04  0.00000000E+00 -4.39282057E-04  0.00000000E+00
  0.00000000E+00  2.40374616E-04  2.29378628E-04  1.02879396E-03  0.00000000E+00
  0.00000000E+00 -1.73906394E-04  2.99160004E-04  3.56042140E-04  0.00000000E+00
  0.00000000E+00  1.23077820E-04  4.06757394E-05  0.00000000E+00  8.96762177E-05
 -6.84684283E-05  0.00000000E+00  0.00000000E+00 -6.01609497E-05 -1.07485181E-05
  0.00000000E+00 -2.25129072E-04 -2.28515591E-04  0.00000000E+00  0.00000000E+00
  4.61245165E-04  2.58887468E-04 -1.89074715E-04  9.20397153E-04  1.57616208E-04
  3.02436527E-03  8.86342244E-04  2.62195252E-04  1.23417117E-04  0.00000000E+00
  8.76386668E-04  2.75842312E-04  0.00000000E+00  1.23724991E-03 -1.40837051E-04
  0.00000000E+00  8.88235972E-06  3.48465523E-05  0.00000000E+00 -3.96587973E-05
  0.00000000E+00  0.00000000E+00  7.17025626E-05  8.44756630E-05  7.33453989E-05
  0.00000000E+00  0.00000000E+00 -3.78612116E-07 -2.72335534E-04 -3.57548556E-05
  0.00000000E+00  0.00000000E+00  2.89946929E-04 -1.38207820E-04  0.00000000E+00
  9.24380943E-05  3.63403587E-05  0.00000000E+00  0.00000000E+00 -5.49059417E-05
 -1.12060259E-04  0.00000000E+00  1.57881722E-04  1.24769815E-04  0.00000000E+00
  0.00000000E+00  2.58779628E-05 -3.54954665E-04  2.12638268E-02  1.73265179E-02
 -1.69850658E-03  4.55053570E-04 -3.24644386E-03 -9.28148771E-04  0.00000000E+00
 -2.61401471E-03 -1.11653662E-03  0.00000000E+00  2.42992356E-03  1.45493021E-04
  0.00000000E+00 -2.44567039E-04  0.00000000E+00  0.00000000E+00  4.11789172E-04
  2.99660943E-04  2.82843869E-04  0.00000000E+00  0.00000000E+00  3.64875225E-04
  5.79258971E-04 -6.64519975E-02  1.60984463E-01  4.28980581E-02  9.26883188E-02
  7.77821629E-03 -1.50891899E-02  2.35221413E-02  0.00000000E+00 -2.03127269E-02
  3.38260826E-02  0.00000000E+00 -1.18897805E-02  1.05804253E-02  0.00000000E+00
 -2.04917893E-03 -1.81449150E-03  0.00000000E+00 -1.83174087E-03  0.00000000E+00
  0.00000000E+00  7.80395543E-05 -1.80456718E-03 -4.12756095E-03  0.00000000E+00
  0.00000000E+00  7.47440163E-04 -4.29658714E-03  1.02755353E-03  0.00000000E+00
  0.00000000E+00  1.75578241E-04 -1.58947685E-03  0.00000000E+00  4.61339157E-04
 -8.88921834E-04  0.00000000E+00  0.00000000E+00  7.00217676E-04  1.30902846E-03
  0.00000000E+00 -2.60332861E-04  5.34060309E-04  0.00000000E+00  0.00000000E+00
 -2.58764269E-04  1.76014112E-04 -1.30104048E-01  3.07514364E-01  8.09894309E-02
  6.35869258E-02  5.22692163E-04 -7.33850825E-02 -4.71341230E-02  0.00000000E+00
 -7.69270626E-02 -6.49221499E-02  0.00000000E+00 -3.07141342E-03  8.84419417E-03
  0.00000000E+00 -2.97868609E-05  3.16634466E-03  0.00000000E+00 -9.28909576E-03
  0.00000000E+00  0.00000000E+00  8.51341946E-03  6.31322632E-03 -1.14776762E-02
  0.00000000E+00  0.00000000E+00  9.23643847E-03  5.97336377E-03  6.15841709E-03
  0.00000000E+00  0.00000000E+00 -1.47029579E-04  5.14290174E-04  0.00000000E+00
  2.49280973E-03  2.43521493E-03  0.00000000E+00  0.00000000E+00 -4.84625782E-03
 -5.47576769E-03  0.00000000E+00 -1.39332806E-03 -4.28571329E-04  0.00000000E+00
  0.00000000E+00  9.28125041E-04 -4.72410557E-05 -1.50104808E-01  3.59010576E-01
  9.62352563E-02  1.79261119E-01 -1.50817635E-02  7.97565340E-02  2.18910601E-02
  0.00000000E+00  1.01130475E-01  2.74873829E-02  0.00000000E+00  1.75707595E-02
  3.28150544E-03  0.00000000E+00 -8.59206214E-03 -2.40210694E-03  0.00000000E+00
 -5.15757391E-03  0.00000000E+00  0.00000000E+00  7.28459335E-03  4.47222491E-03
 -9.46801278E-03  0.00000000E+00  0.00000000E+00  1.50325604E-02  9.40673854E-03
  2.51730452E-03  0.00000000E+00  0.00000000E+00 -3.66505872E-03 -2.62377879E-03
  0.00000000E+00 -3.14347044E-03 -8.69433345E-04  0.00000000E+00  0.00000000E+00
  3.31781264E-03  3.61514854E-03  0.00000000E+00 -1.02379823E-04 -2.68475148E-04
  0.00000000E+00  0.00000000E+00  1.02640438E-03  1.90419462E-03  8.03536029E-02
  7.90680956E-02 -2.07913342E-02 -2.89312694E-03 -1.17424907E-02 -4.88530722E-03
  0.00000000E+00 -1.47192481E-02 -1.57760620E-03  0.00000000E+00  7.73030710E-03
  2.31341900E-03  0.00000000E+00 -1.31704763E-03  0.00000000E+00  0.00000000E+00
  2.19690502E-03  1.25389038E-03  4.11557464E-04  0.00000000E+00  0.00000000E+00
  2.17851141E-03 -1.34484661E-03 -1.81323651E-01  4.41744825E-01  1.20541556E-01
  2.57616899E-01  1.14377121E-02  1.58146036E-02  3.82617777E-02  0.00000000E+00