 Entering Gaussian System, Link 0=g16
 Input=hono_d1_p_5.gjf
 Output=hono_d1_p_5.log
 Initial command:
 /sw/contrib/gaussian/g16/B01/g16/l1.exe "/scr/Gau-26703.inp" -scrdir="/scr/"
 Entering Link 1 = /sw/contrib/gaussian/g16/B01/g16/l1.exe PID=     26704.
  
 Copyright (c) 1988-2017, Gaussian, Inc.  All Rights Reserved.
  
 This is part of the Gaussian(R) 16 program.  It is based on
 the Gaussian(R) 09 system (copyright 2009, Gaussian, Inc.),
 the Gaussian(R) 03 system (copyright 2003, Gaussian, Inc.),
 the Gaussian(R) 98 system (copyright 1998, Gaussian, Inc.),
 the Gaussian(R) 94 system (copyright 1995, Gaussian, Inc.),
 the Gaussian 92(TM) system (copyright 1992, Gaussian, Inc.),
 the Gaussian 90(TM) system (copyright 1990, Gaussian, Inc.),
 the Gaussian 88(TM) system (copyright 1988, Gaussian, Inc.),
 the Gaussian 86(TM) system (copyright 1986, Carnegie Mellon
 University), and the Gaussian 82(TM) system (copyright 1983,
 Carnegie Mellon University). Gaussian is a federally registered
 trademark of Gaussian, Inc.
  
 This software contains proprietary and confidential information,
 including trade secrets, belonging to Gaussian, Inc.
  
 This software is provided under written license and may be
 used, copied, transmitted, or stored only in accord with that
 written license.
  
 The following legend is applicable only to US Government
 contracts under FAR:
  
                    RESTRICTED RIGHTS LEGEND
  
 Use, reproduction and disclosure by the US Government is
 subject to restrictions as set forth in subparagraphs (a)
 and (c) of the Commercial Computer Software - Restricted
 Rights clause in FAR 52.227-19.
  
 Gaussian, Inc.
 340 Quinnipiac St., Bldg. 40, Wallingford CT 06492
  
  
 ---------------------------------------------------------------
 Warning -- This program may not be used in any manner that
 competes with the business of Gaussian, Inc. or will provide
 assistance to any competitor of Gaussian, Inc.  The licensee
 of this program is prohibited from giving any competitor of
 Gaussian, Inc. access to this program.  By using this program,
 the user acknowledges that Gaussian, Inc. is engaged in the
 business of creating and licensing software in the field of
 computational chemistry and represents and warrants to the
 licensee that it is not a competitor of Gaussian, Inc. and that
 it will not use this program in any manner prohibited above.
 ---------------------------------------------------------------
  

 Cite this work as:
 Gaussian 16, Revision B.01,
 M. J. Frisch, G. W. Trucks, H. B. Schlegel, G. E. Scuseria, 
 M. A. Robb, J. R. Cheeseman, G. Scalmani, V. Barone, 
 G. A. Petersson, H. Nakatsuji, X. Li, M. Caricato, A. V. Marenich, 
 J. Bloino, B. G. Janesko, R. Gomperts, B. Mennucci, H. P. Hratchian, 
 J. V. Ortiz, A. F. Izmaylov, J. L. Sonnenberg, D. Williams-Young, 
 F. Ding, F. Lipparini, F. Egidi, J. Goings, B. Peng, A. Petrone, 
 T. Henderson, D. Ranasinghe, V. G. Zakrzewski, J. Gao, N. Rega, 
 G. Zheng, W. Liang, M. Hada, M. Ehara, K. Toyota, R. Fukuda, 
 J. Hasegawa, M. Ishida, T. Nakajima, Y. Honda, O. Kitao, H. Nakai, 
 T. Vreven, K. Throssell, J. A. Montgomery, Jr., J. E. Peralta, 
 F. Ogliaro, M. J. Bearpark, J. J. Heyd, E. N. Brothers, K. N. Kudin, 
 V. N. Staroverov, T. A. Keith, R. Kobayashi, J. Normand, 
 K. Raghavachari, A. P. Rendell, J. C. Burant, S. S. Iyengar, 
 J. Tomasi, M. Cossi, J. M. Millam, M. Klene, C. Adamo, R. Cammi, 
 J. W. Ochterski, R. L. Martin, K. Morokuma, O. Farkas, 
 J. B. Foresman, and D. J. Fox, Gaussian, Inc., Wallingford CT, 2016.
 
 ******************************************
 Gaussian 16:  ES64L-G16RevB.01 20-Dec-2017
                30-Jan-2022 
 ******************************************
 %nproc=28
 Will use up to   28 processors via shared memory.
 %mem=120GB
 %chk=/gscratch/ilahie/mccoygrp/coire_hoono/hono/hono_d1_p_5.chk
 -------------------------------------
 #p SP mp2/aug-cc-pvtz density=current
 -------------------------------------
 1/30=1,38=1,172=1/1;
 2/12=2,17=6,18=5,40=1/2;
 3/5=16,6=1,7=10,11=9,25=1,30=1,71=1/1,2,3;
 4//1;
 5/5=2,38=5/2;
 8/6=4,10=1/1;
 9/15=1,16=-3/6;
 10/5=1,13=10/2;
 6/7=2,8=2,9=2,10=2,22=-1/1;
 99/5=1,9=1/99;
 Leave Link    1 at Sun Jan 30 15:51:52 2022, MaxMem= 16106127360 cpu:               0.9 elap:               0.0
 (Enter /sw/contrib/gaussian/g16/B01/g16/l101.exe)
 -----
 title
 -----
 Symbolic Z-matrix:
 Charge =  0 Multiplicity = 1
 H
 O                    1    r1
 N                    2    r2       1    a1
 O                    3    r3       2    a2       1    d1       0
       Variables:
  r1                    0.97026                  
  r2                    1.42776                  
  r3                    1.1768                   
  a1                  101.62779                  
  a2                  110.70859                  
  d1                  180.5                      
 
 ITRead=  0  0  0  0
 MicOpt= -1 -1 -1 -1
 NAtoms=      4 NQM=        4 NQMF=       0 NMMI=      0 NMMIF=      0
                NMic=       0 NMicF=      0.
                    Isotopes and Nuclear Properties:
 (Nuclear quadrupole moments (NQMom) in fm**2, nuclear magnetic moments (NMagM)
  in nuclear magnetons)

  Atom         1           2           3           4
 IAtWgt=           1          16          14          16
 AtmWgt=   1.0078250  15.9949146  14.0030740  15.9949146
 NucSpn=           1           0           2           0
 AtZEff=  -0.0000000  -0.0000000  -0.0000000  -0.0000000
 NQMom=    0.0000000   0.0000000   2.0440000   0.0000000
 NMagM=    2.7928460   0.0000000   0.4037610   0.0000000
 AtZNuc=   1.0000000   8.0000000   7.0000000   8.0000000
 Leave Link  101 at Sun Jan 30 15:51:52 2022, MaxMem= 16106127360 cpu:               3.3 elap:               0.2
 (Enter /sw/contrib/gaussian/g16/B01/g16/l202.exe)
                          Input orientation:                          
 ---------------------------------------------------------------------
 Center     Atomic      Atomic             Coordinates (Angstroms)
 Number     Number       Type             X           Y           Z
 ---------------------------------------------------------------------
      1          1           0        0.000000    0.000000    0.000000
      2          8           0        0.000000    0.000000    0.970263
      3          7           0        1.398463    0.000000    1.258033
      4          8           0        1.584203   -0.009606    2.420045
 ---------------------------------------------------------------------
                    Distance matrix (angstroms):
                    1          2          3          4
     1  H    0.000000
     2  O    0.970263   0.000000
     3  N    1.881049   1.427764   0.000000
     4  O    2.892474   2.147478   1.176802   0.000000
 Stoichiometry    HNO2
 Framework group  C1[X(HNO2)]
 Deg. of freedom     6
 Full point group                 C1      NOp   1
 Largest Abelian subgroup         C1      NOp   1
 Largest concise Abelian subgroup C1      NOp   1
                         Standard orientation:                         
 ---------------------------------------------------------------------
 Center     Atomic      Atomic             Coordinates (Angstroms)
 Number     Number       Type             X           Y           Z
 ---------------------------------------------------------------------
      1          1           0        1.708388    0.445515    0.006246
      2          8           0        1.042119   -0.259784   -0.000691
      3          7           0       -0.172089    0.491355   -0.000873
      4          8           0       -1.105090   -0.225841    0.000674
 ---------------------------------------------------------------------
 Rotational constants (GHZ):          92.6462855          12.5665554          11.0656428
 Leave Link  202 at Sun Jan 30 15:51:53 2022, MaxMem= 16106127360 cpu:               0.3 elap:               0.0
 (Enter /sw/contrib/gaussian/g16/B01/g16/l301.exe)
 Standard basis: Aug-CC-pVTZ (5D, 7F)
 Ernie: Thresh=  0.10000D-02 Tol=  0.10000D-05 Strict=F.
 Ernie:  9 primitive shells out of 101 were deleted.
 There are   190 symmetry adapted cartesian basis functions of A   symmetry.
 There are   161 symmetry adapted basis functions of A   symmetry.
   161 basis functions,   243 primitive gaussians,   190 cartesian basis functions
    12 alpha electrons       12 beta electrons
       nuclear repulsion energy        69.5039702082 Hartrees.
 IExCor=    0 DFT=F Ex=HF Corr=None ExCW=0 ScaHFX=  1.000000
 ScaDFX=  1.000000  1.000000  1.000000  1.000000 ScalE2=  1.000000  1.000000
 IRadAn=      5 IRanWt=     -1 IRanGd=            0 ICorTp=0 IEmpDi=  4
 NAtoms=    4 NActive=    4 NUniq=    4 SFac= 1.00D+00 NAtFMM=   60 NAOKFM=F Big=F
 Integral buffers will be    131072 words long.
 Raffenetti 1 integral format.
 Two-electron integral symmetry is turned on.
 Leave Link  301 at Sun Jan 30 15:51:53 2022, MaxMem= 16106127360 cpu:               2.2 elap:               0.1
 (Enter /sw/contrib/gaussian/g16/B01/g16/l302.exe)
 NPDir=0 NMtPBC=     1 NCelOv=     1 NCel=       1 NClECP=     1 NCelD=      1
         NCelK=      1 NCelE2=     1 NClLst=     1 CellRange=     0.0.
 One-electron integrals computed using PRISM.
 One-electron integral symmetry used in STVInt
 NBasis=   161 RedAO= T EigKep=  1.97D-04  NBF=   161
 NBsUse=   161 1.00D-06 EigRej= -1.00D+00 NBFU=   161
 Leave Link  302 at Sun Jan 30 15:51:53 2022, MaxMem= 16106127360 cpu:               4.9 elap:               0.2
 (Enter /sw/contrib/gaussian/g16/B01/g16/l303.exe)
 DipDrv:  MaxL=1.
 Leave Link  303 at Sun Jan 30 15:51:53 2022, MaxMem= 16106127360 cpu:               2.3 elap:               0.1
 (Enter /sw/contrib/gaussian/g16/B01/g16/l401.exe)
 ExpMin= 2.53D-02 ExpMax= 1.53D+04 ExpMxC= 5.22D+02 IAcc=3 IRadAn=         5 AccDes= 0.00D+00
 Harris functional with IExCor=  205 and IRadAn=       5 diagonalized for initial guess.
 HarFok:  IExCor=  205 AccDes= 0.00D+00 IRadAn=         5 IDoV= 1 UseB2=F ITyADJ=14
 ICtDFT=  3500011 ScaDFX=  1.000000  1.000000  1.000000  1.000000
 FoFCou: FMM=F IPFlag=           0 FMFlag=      100000 FMFlg1=           0
         NFxFlg=           0 DoJE=T BraDBF=F KetDBF=T FulRan=T
         wScrn=  0.000000 ICntrl=       500 IOpCl=  0 I1Cent=   200000004 NGrid=           0
         NMat0=    1 NMatS0=      1 NMatT0=    0 NMatD0=    1 NMtDS0=    0 NMtDT0=    0
 Petite list used in FoFCou.
 Harris En= -204.818463735292    
 JPrj=0 DoOrth=F DoCkMO=F.
 Leave Link  401 at Sun Jan 30 15:51:53 2022, MaxMem= 16106127360 cpu:               9.1 elap:               0.4
 (Enter /sw/contrib/gaussian/g16/B01/g16/l502.exe)
 Keep R1 ints in memory in canonical form, NReq=98814657.
 FoFCou: FMM=F IPFlag=           0 FMFlag=           0 FMFlg1=           0
         NFxFlg=           0 DoJE=F BraDBF=F KetDBF=F FulRan=T
         wScrn=  0.000000 ICntrl=       600 IOpCl=  0 I1Cent=           0 NGrid=           0
         NMat0=    1 NMatS0=  13041 NMatT0=    0 NMatD0=    1 NMtDS0=    0 NMtDT0=    0
 Symmetry not used in FoFCou.
 Two-electron integral symmetry not used.
 Closed shell SCF:
 Using DIIS extrapolation, IDIIS=  1040.
 NGot= 16106127360 LenX= 16021007853 LenY= 16020971312
 Requested convergence on RMS density matrix=1.00D-08 within 128 cycles.
 Requested convergence on MAX density matrix=1.00D-06.
 Requested convergence on             energy=1.00D-06.
 No special actions if energy rises.

 Cycle   1  Pass 1  IDiag  1:
 E= -204.613650522136    
 DIIS: error= 3.06D-02 at cycle   1 NSaved=   1.
 NSaved= 1 IEnMin= 1 EnMin= -204.613650522136     IErMin= 1 ErrMin= 3.06D-02
 ErrMax= 3.06D-02  0.00D+00 EMaxC= 1.00D-01 BMatC= 3.55D-01 BMatP= 3.55D-01
 IDIUse=3 WtCom= 6.94D-01 WtEn= 3.06D-01
 Coeff-Com:  0.100D+01
 Coeff-En:   0.100D+01
 Coeff:      0.100D+01
 Gap=     0.509 Goal=   None    Shift=    0.000
 GapD=    0.509 DampG=2.000 DampE=0.500 DampFc=1.0000 IDamp=-1.
 RMSDP=2.05D-03 MaxDP=1.22D-01              OVMax= 1.02D-01

 Cycle   2  Pass 1  IDiag  1:
 E= -204.678392661062     Delta-E=       -0.064742138926 Rises=F Damp=F
 DIIS: error= 2.09D-02 at cycle   2 NSaved=   2.
 NSaved= 2 IEnMin= 2 EnMin= -204.678392661062     IErMin= 2 ErrMin= 2.09D-02
 ErrMax= 2.09D-02  0.00D+00 EMaxC= 1.00D-01 BMatC= 6.83D-02 BMatP= 3.55D-01
 IDIUse=3 WtCom= 7.91D-01 WtEn= 2.09D-01
 Coeff-Com:  0.234D+00 0.766D+00
 Coeff-En:   0.111D+00 0.889D+00
 Coeff:      0.208D+00 0.792D+00
 Gap=     0.511 Goal=   None    Shift=    0.000
 RMSDP=9.98D-04 MaxDP=3.62D-02 DE=-6.47D-02 OVMax= 8.82D-02

 Cycle   3  Pass 1  IDiag  1:
 E= -204.712620812506     Delta-E=       -0.034228151443 Rises=F Damp=F
 DIIS: error= 7.29D-03 at cycle   3 NSaved=   3.
 NSaved= 3 IEnMin= 3 EnMin= -204.712620812506     IErMin= 3 ErrMin= 7.29D-03
 ErrMax= 7.29D-03  0.00D+00 EMaxC= 1.00D-01 BMatC= 1.54D-02 BMatP= 6.83D-02
 IDIUse=3 WtCom= 9.27D-01 WtEn= 7.29D-02
 Coeff-Com: -0.362D-01 0.302D+00 0.734D+00
 Coeff-En:   0.000D+00 0.837D-01 0.916D+00
 Coeff:     -0.336D-01 0.286D+00 0.747D+00
 Gap=     0.494 Goal=   None    Shift=    0.000
 RMSDP=4.09D-04 MaxDP=2.24D-02 DE=-3.42D-02 OVMax= 2.65D-02

 Cycle   4  Pass 1  IDiag  1:
 E= -204.722811393359     Delta-E=       -0.010190580853 Rises=F Damp=F
 DIIS: error= 1.53D-03 at cycle   4 NSaved=   4.
 NSaved= 4 IEnMin= 4 EnMin= -204.722811393359     IErMin= 4 ErrMin= 1.53D-03
 ErrMax= 1.53D-03  0.00D+00 EMaxC= 1.00D-01 BMatC= 2.44D-04 BMatP= 1.54D-02
 IDIUse=3 WtCom= 9.85D-01 WtEn= 1.53D-02
 Coeff-Com: -0.745D-02 0.229D-01 0.120D+00 0.865D+00
 Coeff-En:   0.000D+00 0.000D+00 0.000D+00 0.100D+01
 Coeff:     -0.733D-02 0.225D-01 0.118D+00 0.867D+00
 Gap=     0.489 Goal=   None    Shift=    0.000
 RMSDP=8.34D-05 MaxDP=1.55D-03 DE=-1.02D-02 OVMax= 8.18D-03

 Cycle   5  Pass 1  IDiag  1:
 E= -204.723179257081     Delta-E=       -0.000367863722 Rises=F Damp=F
 DIIS: error= 1.04D-03 at cycle   5 NSaved=   5.
 NSaved= 5 IEnMin= 5 EnMin= -204.723179257081     IErMin= 5 ErrMin= 1.04D-03
 ErrMax= 1.04D-03  0.00D+00 EMaxC= 1.00D-01 BMatC= 6.24D-05 BMatP= 2.44D-04
 IDIUse=3 WtCom= 9.90D-01 WtEn= 1.04D-02
 Coeff-Com:  0.703D-02-0.722D-01-0.155D+00 0.219D+00 0.100D+01
 Coeff-En:   0.000D+00 0.000D+00 0.000D+00 0.000D+00 0.100D+01
 Coeff:      0.696D-02-0.714D-01-0.153D+00 0.217D+00 0.100D+01
 Gap=     0.489 Goal=   None    Shift=    0.000
 RMSDP=6.76D-05 MaxDP=1.63D-03 DE=-3.68D-04 OVMax= 8.91D-03

 Cycle   6  Pass 1  IDiag  1:
 E= -204.723352137540     Delta-E=       -0.000172880460 Rises=F Damp=F
 DIIS: error= 2.29D-04 at cycle   6 NSaved=   6.
 NSaved= 6 IEnMin= 6 EnMin= -204.723352137540     IErMin= 6 ErrMin= 2.29D-04
 ErrMax= 2.29D-04  0.00D+00 EMaxC= 1.00D-01 BMatC= 1.13D-05 BMatP= 6.24D-05
 IDIUse=3 WtCom= 9.98D-01 WtEn= 2.29D-03
 Coeff-Com:  0.569D-03 0.960D-03-0.253D-02-0.206D+00-0.289D-02 0.121D+01
 Coeff-En:   0.000D+00 0.000D+00 0.000D+00 0.000D+00 0.000D+00 0.100D+01
 Coeff:      0.568D-03 0.957D-03-0.252D-02-0.205D+00-0.288D-02 0.121D+01
 Gap=     0.490 Goal=   None    Shift=    0.000
 RMSDP=3.81D-05 MaxDP=7.14D-04 DE=-1.73D-04 OVMax= 4.05D-03

 Cycle   7  Pass 1  IDiag  1:
 E= -204.723390868013     Delta-E=       -0.000038730472 Rises=F Damp=F
 DIIS: error= 1.15D-04 at cycle   7 NSaved=   7.
 NSaved= 7 IEnMin= 7 EnMin= -204.723390868013     IErMin= 7 ErrMin= 1.15D-04
 ErrMax= 1.15D-04  0.00D+00 EMaxC= 1.00D-01 BMatC= 1.76D-06 BMatP= 1.13D-05
 IDIUse=3 WtCom= 9.99D-01 WtEn= 1.15D-03
 Coeff-Com: -0.123D-02 0.125D-01 0.315D-01-0.494D-01-0.136D+00-0.762D-01
 Coeff-Com:  0.122D+01
 Coeff-En:   0.000D+00 0.000D+00 0.000D+00 0.000D+00 0.000D+00 0.000D+00
 Coeff-En:   0.100D+01
 Coeff:     -0.123D-02 0.125D-01 0.315D-01-0.494D-01-0.136D+00-0.761D-01
 Coeff:      0.122D+01
 Gap=     0.490 Goal=   None    Shift=    0.000
 RMSDP=1.50D-05 MaxDP=3.26D-04 DE=-3.87D-05 OVMax= 1.78D-03

 Cycle   8  Pass 1  IDiag  1:
 E= -204.723396370130     Delta-E=       -0.000005502117 Rises=F Damp=F
 DIIS: error= 4.41D-05 at cycle   8 NSaved=   8.
 NSaved= 8 IEnMin= 8 EnMin= -204.723396370130     IErMin= 8 ErrMin= 4.41D-05
 ErrMax= 4.41D-05  0.00D+00 EMaxC= 1.00D-01 BMatC= 1.86D-07 BMatP= 1.76D-06
 IDIUse=1 WtCom= 1.00D+00 WtEn= 0.00D+00
 Coeff-Com: -0.371D-04-0.783D-03-0.623D-03 0.202D-01 0.245D-01-0.151D+00
 Coeff-Com: -0.133D+00 0.124D+01
 Coeff:     -0.371D-04-0.783D-03-0.623D-03 0.202D-01 0.245D-01-0.151D+00
 Coeff:     -0.133D+00 0.124D+01
 Gap=     0.490 Goal=   None    Shift=    0.000
 RMSDP=4.91D-06 MaxDP=9.89D-05 DE=-5.50D-06 OVMax= 4.77D-04

 Cycle   9  Pass 1  IDiag  1:
 E= -204.723396910391     Delta-E=       -0.000000540261 Rises=F Damp=F
 DIIS: error= 1.14D-05 at cycle   9 NSaved=   9.
 NSaved= 9 IEnMin= 9 EnMin= -204.723396910391     IErMin= 9 ErrMin= 1.14D-05
 ErrMax= 1.14D-05  0.00D+00 EMaxC= 1.00D-01 BMatC= 1.55D-08 BMatP= 1.86D-07
 IDIUse=1 WtCom= 1.00D+00 WtEn= 0.00D+00
 Coeff-Com:  0.107D-03-0.994D-03-0.242D-02-0.135D-02 0.120D-01 0.384D-01
 Coeff-Com: -0.857D-01-0.282D+00 0.132D+01
 Coeff:      0.107D-03-0.994D-03-0.242D-02-0.135D-02 0.120D-01 0.384D-01
 Coeff:     -0.857D-01-0.282D+00 0.132D+01
 Gap=     0.490 Goal=   None    Shift=    0.000
 RMSDP=1.28D-06 MaxDP=3.46D-05 DE=-5.40D-07 OVMax= 9.76D-05

 Cycle  10  Pass 1  IDiag  1:
 E= -204.723396952237     Delta-E=       -0.000000041846 Rises=F Damp=F
 DIIS: error= 2.76D-06 at cycle  10 NSaved=  10.
 NSaved=10 IEnMin=10 EnMin= -204.723396952237     IErMin=10 ErrMin= 2.76D-06
 ErrMax= 2.76D-06  0.00D+00 EMaxC= 1.00D-01 BMatC= 1.29D-09 BMatP= 1.55D-08
 IDIUse=1 WtCom= 1.00D+00 WtEn= 0.00D+00
 Coeff-Com: -0.262D-04 0.318D-03 0.797D-03-0.204D-02-0.446D-02 0.196D-02
 Coeff-Com:  0.378D-01-0.511D-01-0.282D+00 0.130D+01
 Coeff:     -0.262D-04 0.318D-03 0.797D-03-0.204D-02-0.446D-02 0.196D-02
 Coeff:      0.378D-01-0.511D-01-0.282D+00 0.130D+01
 Gap=     0.490 Goal=   None    Shift=    0.000
 RMSDP=3.36D-07 MaxDP=1.15D-05 DE=-4.18D-08 OVMax= 3.06D-05

 Cycle  11  Pass 1  IDiag  1:
 E= -204.723396955709     Delta-E=       -0.000000003473 Rises=F Damp=F
 DIIS: error= 1.13D-06 at cycle  11 NSaved=  11.
 NSaved=11 IEnMin=11 EnMin= -204.723396955709     IErMin=11 ErrMin= 1.13D-06
 ErrMax= 1.13D-06  0.00D+00 EMaxC= 1.00D-01 BMatC= 1.20D-10 BMatP= 1.29D-09
 IDIUse=1 WtCom= 1.00D+00 WtEn= 0.00D+00
 Coeff-Com: -0.510D-06-0.182D-04-0.444D-04 0.546D-03 0.106D-02-0.462D-02
 Coeff-Com: -0.548D-02 0.450D-01-0.197D-01-0.479D+00 0.146D+01
 Coeff:     -0.510D-06-0.182D-04-0.444D-04 0.546D-03 0.106D-02-0.462D-02
 Coeff:     -0.548D-02 0.450D-01-0.197D-01-0.479D+00 0.146D+01
 Gap=     0.490 Goal=   None    Shift=    0.000
 RMSDP=1.12D-07 MaxDP=4.21D-06 DE=-3.47D-09 OVMax= 1.10D-05

 Cycle  12  Pass 1  IDiag  1:
 E= -204.723396956088     Delta-E=       -0.000000000378 Rises=F Damp=F
 DIIS: error= 1.86D-07 at cycle  12 NSaved=  12.
 NSaved=12 IEnMin=12 EnMin= -204.723396956088     IErMin=12 ErrMin= 1.86D-07
 ErrMax= 1.86D-07  0.00D+00 EMaxC= 1.00D-01 BMatC= 6.85D-12 BMatP= 1.20D-10
 IDIUse=1 WtCom= 1.00D+00 WtEn= 0.00D+00
 Coeff-Com:  0.240D-05-0.231D-04-0.556D-04-0.589D-04 0.150D-03 0.159D-02
 Coeff-Com: -0.203D-02-0.122D-01 0.385D-01 0.387D-01-0.473D+00 0.141D+01
 Coeff:      0.240D-05-0.231D-04-0.556D-04-0.589D-04 0.150D-03 0.159D-02
 Coeff:     -0.203D-02-0.122D-01 0.385D-01 0.387D-01-0.473D+00 0.141D+01
 Gap=     0.490 Goal=   None    Shift=    0.000
 RMSDP=3.15D-08 MaxDP=7.23D-07 DE=-3.78D-10 OVMax= 2.60D-06

 Cycle  13  Pass 1  IDiag  1:
 E= -204.723396956107     Delta-E=       -0.000000000019 Rises=F Damp=F
 DIIS: error= 4.42D-08 at cycle  13 NSaved=  13.
 NSaved=13 IEnMin=13 EnMin= -204.723396956107     IErMin=13 ErrMin= 4.42D-08
 ErrMax= 4.42D-08  0.00D+00 EMaxC= 1.00D-01 BMatC= 2.12D-13 BMatP= 6.85D-12
 IDIUse=1 WtCom= 1.00D+00 WtEn= 0.00D+00
 Coeff-Com: -0.443D-06 0.569D-05 0.137D-04-0.217D-04-0.882D-04-0.559D-04
 Coeff-Com:  0.750D-03-0.264D-03-0.524D-02 0.125D-01 0.253D-01-0.297D+00
 Coeff-Com:  0.126D+01
 Coeff:     -0.443D-06 0.569D-05 0.137D-04-0.217D-04-0.882D-04-0.559D-04
 Coeff:      0.750D-03-0.264D-03-0.524D-02 0.125D-01 0.253D-01-0.297D+00
 Coeff:      0.126D+01
 Gap=     0.490 Goal=   None    Shift=    0.000
 RMSDP=5.48D-09 MaxDP=9.30D-08 DE=-1.95D-11 OVMax= 4.21D-07

 SCF Done:  E(RHF) =  -204.723396956     A.U. after   13 cycles
            NFock= 13  Conv=0.55D-08     -V/T= 2.0024
 KE= 2.042400482329D+02 PE=-6.229514570945D+02 EE= 1.444840416972D+02
 Leave Link  502 at Sun Jan 30 15:51:56 2022, MaxMem= 16106127360 cpu:              27.6 elap:               2.7
 (Enter /sw/contrib/gaussian/g16/B01/g16/l801.exe)
 ExpMin= 2.53D-02 ExpMax= 1.53D+04 ExpMxC= 5.22D+02 IAcc=3 IRadAn=         5 AccDes= 0.00D+00
 HarFok:  IExCor=  205 AccDes= 0.00D+00 IRadAn=         5 IDoV=-2 UseB2=F ITyADJ=14
 ICtDFT= 12500011 ScaDFX=  1.000000  1.000000  1.000000  1.000000
 Largest valence mixing into a core orbital is  2.06D-04
 Largest core mixing into a valence orbital is  3.30D-05
 Range of M.O.s used for correlation:     4   161
 NBasis=   161 NAE=    12 NBE=    12 NFC=     3 NFV=     0
 NROrb=    158 NOA=     9 NOB=     9 NVA=   149 NVB=   149

 **** Warning!!: The largest alpha MO coefficient is  0.19498401D+02

 Leave Link  801 at Sun Jan 30 15:51:56 2022, MaxMem= 16106127360 cpu:               3.3 elap:               0.2
 (Enter /sw/contrib/gaussian/g16/B01/g16/l906.exe)
 Frozen-core derivative calculation, NFC=   3 NFV=   0.
 FulOut=F Deriv=T AODrv=F NAtomX=     4
   MMem=         161  MDisk=           9 MDiskD=           9
  W3Min=      367080 MinDsk=      792425 NBas6D=         190
 NBas2D=       18625    NTT=       18145    LW2=     3500000
    MDV= 16105827750 MDiskM=      423784 NBas2p=       18621
 Fully in-core method, ICMem=   359292905.
 IMap=   1   2   3   4   5   6   7   8   9  10  11  12
 JobTyp=1 Pass  1 fully in-core, NPsUse= 28.
 Compute canonical integrals.
 FoFCou: FMM=F IPFlag=           0 FMFlag=           0 FMFlg1=           0
         NFxFlg=           0 DoJE=F BraDBF=F KetDBF=F FulRan=T
         wScrn=  0.000000 ICntrl=       600 IOpCl=  1 I1Cent=           0 NGrid=           0
         NMat0=    1 NMatS0=  18625 NMatT0=    0 NMatD0=    1 NMtDS0=    0 NMtDT0=    0
 Symmetry not used in FoFCou.
 Spin components of T(2) and E(2):
     alpha-alpha T2 =       0.2531772837D-01 E2=     -0.9065765504D-01
     alpha-beta  T2 =       0.1374830801D+00 E2=     -0.5166409817D+00
     beta-beta   T2 =       0.2531772837D-01 E2=     -0.9065765504D-01
 The integrals were generated   1 times.
 ANorm=    0.1090008503D+01
 E2 =    -0.6979562918D+00 EUMP2 =    -0.20542135324791D+03
 Leave Link  906 at Sun Jan 30 15:51:59 2022, MaxMem= 16106127360 cpu:              86.0 elap:               3.1
 (Enter /sw/contrib/gaussian/g16/B01/g16/l1002.exe)
 Minotr:  Closed shell wavefunction.
          Computing MP2/KS-MP2 derivatives.
          Using Z-Vector for PSCF gradient.
          Skipping F1 and S1 gradient terms here.
          Frozen-core window.
          Direct CPHF calculation.
          Differentiating once with respect to electric field.
                with respect to dipole field.
          Electric field/nuclear overlap derivatives assumed to be zero.
          Requested convergence is 1.0D-10 RMS, and 1.0D-09 maximum.
          NewPWx=F KeepS1=T KeepF1=T KeepIn=T MapXYZ=F SortEE=F KeepMc=T.
 Keep R1 ints in memory in canonical form, NReq=98817301.
 FoFCou: FMM=F IPFlag=           0 FMFlag=           0 FMFlg1=           0
         NFxFlg=           0 DoJE=F BraDBF=F KetDBF=F FulRan=T
         wScrn=  0.000000 ICntrl=       600 IOpCl=  0 I1Cent=           0 NGrid=           0
         NMat0=    1 NMatS0=  13041 NMatT0=    0 NMatD0=    1 NMtDS0=    0 NMtDT0=    0
 Symmetry not used in FoFCou.
 Two-electron integral symmetry not used.
          MDV=   16106127360 using IRadAn=       5.
          Solving linear equations separately, MaxMat=       0.
          There are     1 degrees of freedom in the 1st order CPHF.  IDoFFX=0 NUNeed=     1.
 LinEq1:  Iter=  0 NonCon=     1 RMS=6.63D-03 Max=1.32D-01 NDo=     1
 AX will form     1 AO Fock derivatives at one time.
 LinEq1:  Iter=  1 NonCon=     1 RMS=2.26D-03 Max=4.07D-02 NDo=     1
 LinEq1:  Iter=  2 NonCon=     1 RMS=9.17D-04 Max=1.19D-02 NDo=     1
 LinEq1:  Iter=  3 NonCon=     1 RMS=4.41D-04 Max=8.66D-03 NDo=     1
 LinEq1:  Iter=  4 NonCon=     1 RMS=1.37D-04 Max=1.53D-03 NDo=     1
 LinEq1:  Iter=  5 NonCon=     1 RMS=6.13D-05 Max=9.91D-04 NDo=     1
 LinEq1:  Iter=  6 NonCon=     1 RMS=2.33D-05 Max=2.69D-04 NDo=     1
 LinEq1:  Iter=  7 NonCon=     1 RMS=5.92D-06 Max=6.12D-05 NDo=     1
 LinEq1:  Iter=  8 NonCon=     1 RMS=1.44D-06 Max=1.67D-05 NDo=     1
 LinEq1:  Iter=  9 NonCon=     1 RMS=2.66D-07 Max=1.98D-06 NDo=     1
 LinEq1:  Iter= 10 NonCon=     1 RMS=4.96D-08 Max=3.92D-07 NDo=     1
 LinEq1:  Iter= 11 NonCon=     1 RMS=9.01D-09 Max=1.51D-07 NDo=     1
 LinEq1:  Iter= 12 NonCon=     1 RMS=2.21D-09 Max=6.25D-08 NDo=     1
 LinEq1:  Iter= 13 NonCon=     1 RMS=6.02D-10 Max=8.76D-09 NDo=     1
 LinEq1:  Iter= 14 NonCon=     1 RMS=1.29D-10 Max=1.14D-09 NDo=     1
 LinEq1:  Iter= 15 NonCon=     0 RMS=2.15D-11 Max=2.16D-10 NDo=     1
 Linear equations converged to 1.000D-10 1.000D-09 after    15 iterations.
 End of Minotr F.D. properties file   721 does not exist.
 End of Minotr F.D. properties file   722 does not exist.
 End of Minotr F.D. properties file   788 does not exist.
 Leave Link 1002 at Sun Jan 30 15:52:03 2022, MaxMem= 16106127360 cpu:              32.7 elap:               3.2
 (Enter /sw/contrib/gaussian/g16/B01/g16/l601.exe)
 Copying SCF densities to generalized density rwf, IOpCl= 0 IROHF=0.

 **********************************************************************

            Population analysis using the MP2 Density.

 **********************************************************************

 Orbital symmetries:
       Occupied  (A) (A) (A) (A) (A) (A) (A) (A) (A) (A) (A) (A)
       Virtual   (A) (A) (A) (A) (A) (A) (A) (A) (A) (A) (A) (A)
                 (A) (A) (A) (A) (A) (A) (A) (A) (A) (A) (A) (A)
                 (A) (A) (A) (A) (A) (A) (A) (A) (A) (A) (A) (A)
                 (A) (A) (A) (A) (A) (A) (A) (A) (A) (A) (A) (A)
                 (A) (A) (A) (A) (A) (A) (A) (A) (A) (A) (A) (A)
                 (A) (A) (A) (A) (A) (A) (A) (A) (A) (A) (A) (A)
                 (A) (A) (A) (A) (A) (A) (A) (A) (A) (A) (A) (A)
                 (A) (A) (A) (A) (A) (A) (A) (A) (A) (A) (A) (A)
                 (A) (A) (A) (A) (A) (A) (A) (A) (A) (A) (A) (A)
                 (A) (A) (A) (A) (A) (A) (A) (A) (A) (A) (A) (A)
                 (A) (A) (A) (A) (A) (A) (A) (A) (A) (A) (A) (A)
                 (A) (A) (A) (A) (A) (A) (A) (A) (A) (A) (A) (A)
                 (A) (A) (A) (A) (A)
 The electronic state is 1-A.
 Alpha  occ. eigenvalues --  -20.66531 -20.64238 -15.79876  -1.60279  -1.40264
 Alpha  occ. eigenvalues --   -0.94853  -0.78414  -0.72980  -0.68155  -0.62544
 Alpha  occ. eigenvalues --   -0.52857  -0.46175
 Alpha virt. eigenvalues --    0.02799   0.08045   0.09396   0.09756   0.12889
 Alpha virt. eigenvalues --    0.14365   0.15689   0.17213   0.18723   0.19660
 Alpha virt. eigenvalues --    0.20558   0.23347   0.25791   0.29634   0.30784
 Alpha virt. eigenvalues --    0.32979   0.36576   0.38247   0.42391   0.52523
 Alpha virt. eigenvalues --    0.52638   0.54805   0.57331   0.61300   0.63129
 Alpha virt. eigenvalues --    0.64806   0.68021   0.71426   0.71794   0.74798
 Alpha virt. eigenvalues --    0.77485   0.78159   0.81146   0.81191   0.86115
 Alpha virt. eigenvalues --    0.87879   0.92572   0.93901   0.94509   0.99519
 Alpha virt. eigenvalues --    1.04957   1.06298   1.08124   1.10585   1.16087
 Alpha virt. eigenvalues --    1.19629   1.25220   1.26864   1.36164   1.43368
 Alpha virt. eigenvalues --    1.48880   1.52304   1.52437   1.54419   1.55421
 Alpha virt. eigenvalues --    1.60953   1.65819   1.72877   1.75464   1.82252
 Alpha virt. eigenvalues --    1.85592   1.96095   1.97634   1.99783   2.07453
 Alpha virt. eigenvalues --    2.13204   2.13395   2.18851   2.27083   2.30836
 Alpha virt. eigenvalues --    2.32918   2.38093   2.45128   2.47006   2.49869
 Alpha virt. eigenvalues --    2.50268   2.52137   2.54425   2.56925   2.60690
 Alpha virt. eigenvalues --    2.60839   2.66208   2.77179   2.77803   2.83926
 Alpha virt. eigenvalues --    2.93804   2.95228   3.11532   3.14675   3.18280
 Alpha virt. eigenvalues --    3.24712   3.46108   3.83151   3.85451   4.02882
 Alpha virt. eigenvalues --    4.17018   4.18283   4.21336   4.36344   4.37242
 Alpha virt. eigenvalues --    4.58152   4.63351   4.74697   4.81790   4.87192
 Alpha virt. eigenvalues --    4.88741   4.98006   5.00192   5.07377   5.08667
 Alpha virt. eigenvalues --    5.17092   5.24634   5.25778   5.33346   5.36899
 Alpha virt. eigenvalues --    5.37449   5.57966   5.66780   5.79365   5.98812
 Alpha virt. eigenvalues --    6.11953   6.43493   6.50704   6.51007   6.67437
 Alpha virt. eigenvalues --    6.71557   6.74547   6.84759   6.91673   7.06909
 Alpha virt. eigenvalues --    7.11947   7.17974   7.23380   7.25625   7.25814
 Alpha virt. eigenvalues --    7.33181   7.37986   7.43287   7.47876   7.60796
 Alpha virt. eigenvalues --    7.64780   7.69930   7.79102   7.98218   8.07088
 Alpha virt. eigenvalues --    8.42456  14.20123  15.12857  15.97183
          Condensed to atoms (all electrons):
               1          2          3          4
     1  H    0.586216   0.172994  -0.044081   0.012731
     2  O    0.172994   8.291779  -0.136969  -0.057284
     3  N   -0.044081  -0.136969   7.043482  -0.042116
     4  O    0.012731  -0.057284  -0.042116   8.267973
 Mulliken charges:
               1
     1  H    0.272139
     2  O   -0.270519
     3  N    0.179684
     4  O   -0.181304
 Sum of Mulliken charges =  -0.00000
 Mulliken charges with hydrogens summed into heavy atoms:
               1
     2  O    0.001620
     3  N    0.179684
     4  O   -0.181304
 Electronic spatial extent (au):  <R**2>=            123.4941
 Charge=             -0.0000 electrons
 Dipole moment (field-independent basis, Debye):
    X=              1.4407    Y=              1.1992    Z=              0.0108  Tot=              1.8745
 Quadrupole moment (field-independent basis, Debye-Ang):
   XX=            -14.5652   YY=            -17.7852   ZZ=            -16.4579
   XY=              2.0280   XZ=              0.0247   YZ=              0.0105
 Traceless Quadrupole moment (field-independent basis, Debye-Ang):
   XX=              1.7042   YY=             -1.5158   ZZ=             -0.1884
   XY=              2.0280   XZ=              0.0247   YZ=              0.0105
 Octapole moment (field-independent basis, Debye-Ang**2):
  XXX=              8.5870  YYY=             -1.4579  ZZZ=              0.0049  XYY=              0.5414
  XXY=              3.2021  XXZ=              0.0467  XZZ=             -1.0168  YZZ=             -0.1347
  YYZ=              0.0046  XYZ=              0.0126
 Hexadecapole moment (field-independent basis, Debye-Ang**3):
 XXXX=            -85.2365 YYYY=            -30.3443 ZZZZ=            -13.9268 XXXY=              7.0493
 XXXZ=              0.0862 YYYX=              1.6070 YYYZ=              0.0115 ZZZX=              0.0080
 ZZZY=              0.0065 XXYY=            -19.9422 XXZZ=            -19.1255 YYZZ=             -7.0772
 XXYZ=              0.0238 YYXZ=              0.0077 ZZXY=              0.5477
 N-N= 6.950397020820D+01 E-N=-6.235512806803D+02  KE= 2.052386575406D+02
 No NMR shielding tensors so no spin-rotation constants.
 Leave Link  601 at Sun Jan 30 15:52:03 2022, MaxMem= 16106127360 cpu:               4.8 elap:               0.2
 (Enter /sw/contrib/gaussian/g16/B01/g16/l9999.exe)
 1\1\GINC-N2130\SP\RMP2-FC\Aug-CC-pVTZ\H1N1O2\CGAVINH\30-Jan-2022\0\\#p
  SP mp2/aug-cc-pvtz density=current\\title\\0,1\H\O,1,0.97026274\N,2,1
 .42776435,1,101.62778541\O,3,1.17680217,2,110.70859147,1,180.5,0\\Vers
 ion=ES64L-G16RevB.01\State=1-A\HF=-204.723397\MP2=-205.4213532\RMSD=5.
 478e-09\Dipole=-0.0880476,0.0008862,-0.7322143\Quadrupole=-1.3672182,-
 0.1402746,1.5074928,-0.0028283,1.2808255,0.008186\PG=C01 [X(H1N1O2)]\\
 @


 10 WHATSOEVER THY HAND FINDETH TO DO, DO IT WITH THY  
 MIGHT. FOR THERE IS NO WORK, NOR DEVICE, NOR KNOWLEDGE, NOR  
 WISDOM, IN THE GRAVE, WHITHER THOU GOEST.                    
 11 I RETURNED AND SAW UNDER THE SUN, THAT THE RACE IS NOT TO 
 THE SWIFT, NOR THE BATTLE TO THE STRONG, NEITHER YET BREAD TO
 THE WISE, NOR YET RICHES TO MEN OF UNDERSTANDING, NOR YET    
 FAVOR TO MEN OF SKILL. BUT TIME AND CHANCE HAPPEN TO THEM ALL.
 12 FOR MAN ALSO KNOWETH NOT HIS TIME. AS THE FISHES   
 THAT ARE TAKEN IN AN EVIL NET, AND AS THE BIRDS THAT ARE     
 CAUGHT IN THE SNARE. SO ARE THE SONS OF MEN SNARED IN AN EVIL
 TIME, WHEN IT FALLETH SUDDENLY UPON THEM.
                                         ECCLESIASTES 9
 Job cpu time:       0 days  0 hours  3 minutes  0.1 seconds.
 Elapsed time:       0 days  0 hours  0 minutes 10.6 seconds.
 File lengths (MBytes):  RWF=     15 Int=      0 D2E=      0 Chk=      8 Scr=      1
 Normal termination of Gaussian 16 at Sun Jan 30 15:52:03 2022.
