title                                                                   
SP        RMP2-FC                                                     Aug-CC-pVTZ         
Number of atoms                            I                4
Info1-9                                    I   N=           9
          29          20           0           0           0         110
           1           2           1
Full Title                                 C   N=           1
title       
Route                                      C   N=           4
#p SP mp2/aug-cc-pvtz density=current           
Charge                                     I                0
Multiplicity                               I                1
Number of electrons                        I               24
Number of alpha electrons                  I               12
Number of beta electrons                   I               12
Number of basis functions                  I              161
Number of independent functions            I              161
Number of point charges in /Mol/           I                0
Number of translation vectors              I                0
Atomic numbers                             I   N=           4
           1           8           7           8
Nuclear charges                            R   N=           4
  1.00000000E+00  8.00000000E+00  7.00000000E+00  8.00000000E+00
Current cartesian coordinates              R   N=          12
  3.33031407E+00 -2.71334743E-01  1.60690314E-30  1.70485191E+00 -1.11969089E+00
  8.77659555E-31 -2.83013319E-16  9.71513314E-01  2.47338193E-31 -2.12114117E+00
  3.03533583E-01 -1.17849258E-30
Number of symbols in /Mol/                 I                0
Force Field                                I                0
Atom Types                                 C   N=           4
                                                
Int Atom Types                             I   N=           4
           0           0           0           0
MM charges                                 R   N=           4
  0.00000000E+00  0.00000000E+00  0.00000000E+00  0.00000000E+00
Integer atomic weights                     I   N=           4
           1          16          14          16
Real atomic weights                        R   N=           4
  1.00782504E+00  1.59949146E+01  1.40030740E+01  1.59949146E+01
Atom fragment info                         I   N=           4
           0           0           0           0
Atom residue num                           I   N=           4
           0           0           0           0
Nuclear spins                              I   N=           4
           1           0           2           0
Nuclear ZEff                               R   N=           4
 -1.00000000E+00 -5.60000000E+00 -4.55000000E+00 -5.60000000E+00
Nuclear ZNuc                               R   N=           4
  1.00000000E+00  8.00000000E+00  7.00000000E+00  8.00000000E+00
Nuclear QMom                               R   N=           4
  0.00000000E+00  0.00000000E+00  2.04400000E+00  0.00000000E+00
Nuclear GFac                               R   N=           4
  2.79284600E+00  0.00000000E+00  4.03761000E-01  0.00000000E+00
MicOpt                                     I   N=           4
          -1          -1          -1          -1
Number of residues                         I                0
Number of secondary structures             I                0
SymInf integers                            I   N=          26
           1           2           1           1           1           1
           1          -1           0           0           0           0
           0           0           0           0           0           0
           0           0           0           0           0           0
           0           0
RotTr to input orientation                 R   N=          12
 -4.62689869E-01 -3.14787927E-16 -8.86520211E-01  8.86520211E-01 -9.24924112E-16
 -4.62689869E-01 -6.74314735E-16 -1.00000000E+00  7.07018876E-16  1.78144631E+00
  0.00000000E+00  2.82684689E+00
Number of contracted shells                I               51
Number of primitive shells                 I               92
Pure/Cartesian d shells                    I                0
Pure/Cartesian f shells                    I                0
Highest angular momentum                   I                3
Largest degree of contraction              I                7
Shell types                                I   N=          51
           0           0           0           0           1           1
           1          -2          -2           0           0           0
           0           0           1           1           1           1
          -2          -2          -2          -3          -3           0
           0           0           0           0           1           1
           1           1          -2          -2          -2          -3
          -3           0           0           0           0           0
           1           1           1           1          -2          -2
          -2          -3          -3
Number of primitives per shell             I   N=          51
           3           1           1           1           1           1
           1           1           1           7           6           1
           1           1           3           1           1           1
           1           1           1           1           1           7
           6           1           1           1           3           1
           1           1           1           1           1           1
           1           7           6           1           1           1
           3           1           1           1           1           1
           1           1           1
Shell to atom map                          I   N=          51
           1           1           1           1           1           1
           1           1           1           2           2           2
           2           2           2           2           2           2
           2           2           2           2           2           3
           3           3           3           3           3           3
           3           3           3           3           3           3
           3           4           4           4           4           4
           4           4           4           4           4           4
           4           4           4
Primitive exponents                        R   N=          92
  3.38700000E+01  5.09500000E+00  1.15900000E+00  3.25800000E-01  1.02700000E-01
  2.52600000E-02  1.40700000E+00  3.88000000E-01  1.02000000E-01  1.05700000E+00
  2.47000000E-01  1.53300000E+04  2.29900000E+03  5.22400000E+02  1.47300000E+02
  4.75500000E+01  1.67600000E+01  6.20700000E+00  5.22400000E+02  1.47300000E+02
  4.75500000E+01  1.67600000E+01  6.20700000E+00  6.88200000E-01  1.75200000E+00
  2.38400000E-01  7.37600000E-02  3.44600000E+01  7.74900000E+00  2.28000000E+00
  7.15600000E-01  2.14000000E-01  5.97400000E-02  2.31400000E+00  6.45000000E-01
  2.14000000E-01  1.42800000E+00  5.00000000E-01  1.14200000E+04  1.71200000E+03
  3.89300000E+02  1.10000000E+02  3.55700000E+01  1.25400000E+01  4.64400000E+00
  3.89300000E+02  1.10000000E+02  3.55700000E+01  1.25400000E+01  4.64400000E+00
  5.11800000E-01  1.29300000E+00  1.78700000E-01  5.76000000E-02  2.66300000E+01
  5.94800000E+00  1.74200000E+00  5.55000000E-01  1.72500000E-01  4.91000000E-02
  1.65400000E+00  4.69000000E-01  1.51000000E-01  1.09300000E+00  3.64000000E-01
  1.53300000E+04  2.29900000E+03  5.22400000E+02  1.47300000E+02  4.75500000E+01
  1.67600000E+01  6.20700000E+00  5.22400000E+02  1.47300000E+02  4.75500000E+01
  1.67600000E+01  6.20700000E+00  6.88200000E-01  1.75200000E+00  2.38400000E-01
  7.37600000E-02  3.44600000E+01  7.74900000E+00  2.28000000E+00  7.15600000E-01
  2.14000000E-01  5.97400000E-02  2.31400000E+00  6.45000000E-01  2.14000000E-01
  1.42800000E+00  5.00000000E-01
Contraction coefficients                   R   N=          92
  2.54948632E-02  1.90362766E-01  8.52162022E-01  1.00000000E+00  1.00000000E+00
  1.00000000E+00  1.00000000E+00  1.00000000E+00  1.00000000E+00  1.00000000E+00
  1.00000000E+00  5.19808943E-04  4.02025621E-03  2.07128267E-02  8.10105536E-02
  2.35962985E-01  4.42653446E-01  3.57064423E-01 -4.42115008E-05 -1.22591041E-03
 -1.05517725E-02 -6.74452633E-02 -1.71198607E-01  1.07329856E+00  1.00000000E+00
  1.00000000E+00  1.00000000E+00  4.11634896E-02  2.57762836E-01  8.02419274E-01
  1.00000000E+00  1.00000000E+00  1.00000000E+00  1.00000000E+00  1.00000000E+00
  1.00000000E+00  1.00000000E+00  1.00000000E+00  5.34563860E-04  4.13435660E-03
  2.12335358E-02  8.25006224E-02  2.38138871E-01  4.42551547E-01  3.53757422E-01
 -4.89867350E-05 -1.19527323E-03 -1.03490714E-02 -6.48680190E-02 -1.71552477E-01
  1.07289568E+00  1.00000000E+00  1.00000000E+00  1.00000000E+00  3.98072123E-02
  2.49002660E-01  8.10479727E-01  1.00000000E+00  1.00000000E+00  1.00000000E+00
  1.00000000E+00  1.00000000E+00  1.00000000E+00  1.00000000E+00  1.00000000E+00
  5.19808943E-04  4.02025621E-03  2.07128267E-02  8.10105536E-02  2.35962985E-01
  4.42653446E-01  3.57064423E-01 -4.42115008E-05 -1.22591041E-03 -1.05517725E-02
 -6.74452633E-02 -1.71198607E-01  1.07329856E+00  1.00000000E+00  1.00000000E+00
  1.00000000E+00  4.11634896E-02  2.57762836E-01  8.02419274E-01  1.00000000E+00
  1.00000000E+00  1.00000000E+00  1.00000000E+00  1.00000000E+00  1.00000000E+00
  1.00000000E+00  1.00000000E+00
Coordinates of each shell                  R   N=         153
  3.33031407E+00 -2.71334743E-01  7.86650766E-31  3.33031407E+00 -2.71334743E-01
  7.86650766E-31  3.33031407E+00 -2.71334743E-01  7.86650766E-31  3.33031407E+00
 -2.71334743E-01  7.86650766E-31  3.33031407E+00 -2.71334743E-01  7.86650766E-31
  3.33031407E+00 -2.71334743E-01  7.86650766E-31  3.33031407E+00 -2.71334743E-01
  7.86650766E-31  3.33031407E+00 -2.71334743E-01  7.86650766E-31  3.33031407E+00
 -2.71334743E-01  7.86650766E-31  1.70485191E+00 -1.11969089E+00  4.80649234E-31
  1.70485191E+00 -1.11969089E+00  4.80649234E-31  1.70485191E+00 -1.11969089E+00
  4.80649234E-31  1.70485191E+00 -1.11969089E+00  4.80649234E-31  1.70485191E+00
 -1.11969089E+00  4.80649234E-31  1.70485191E+00 -1.11969089E+00  4.80649234E-31
  1.70485191E+00 -1.11969089E+00  4.80649234E-31  1.70485191E+00 -1.11969089E+00
  4.80649234E-31  1.70485191E+00 -1.11969089E+00  4.80649234E-31  1.70485191E+00
 -1.11969089E+00  4.80649234E-31  1.70485191E+00 -1.11969089E+00  4.80649234E-31
  1.70485191E+00 -1.11969089E+00  4.80649234E-31  1.70485191E+00 -1.11969089E+00
  4.80649234E-31  1.70485191E+00 -1.11969089E+00  4.80649234E-31 -2.05850465E-16
  9.71513314E-01 -7.72103448E-32 -2.05850465E-16  9.71513314E-01 -7.72103448E-32
 -2.05850465E-16  9.71513314E-01 -7.72103448E-32 -2.05850465E-16  9.71513314E-01
 -7.72103448E-32 -2.05850465E-16  9.71513314E-01 -7.72103448E-32 -2.05850465E-16
  9.71513314E-01 -7.72103448E-32 -2.05850465E-16  9.71513314E-01 -7.72103448E-32
 -2.05850465E-16  9.71513314E-01 -7.72103448E-32 -2.05850465E-16  9.71513314E-01
 -7.72103448E-32 -2.05850465E-16  9.71513314E-01 -7.72103448E-32 -2.05850465E-16
  9.71513314E-01 -7.72103448E-32 -2.05850465E-16  9.71513314E-01 -7.72103448E-32
 -2.05850465E-16  9.71513314E-01 -7.72103448E-32 -2.05850465E-16  9.71513314E-01
 -7.72103448E-32 -2.12114117E+00  3.03533583E-01 -5.11421528E-31 -2.12114117E+00
  3.03533583E-01 -5.11421528E-31 -2.12114117E+00  3.03533583E-01 -5.11421528E-31
 -2.12114117E+00  3.03533583E-01 -5.11421528E-31 -2.12114117E+00  3.03533583E-01
 -5.11421528E-31 -2.12114117E+00  3.03533583E-01 -5.11421528E-31 -2.12114117E+00
  3.03533583E-01 -5.11421528E-31 -2.12114117E+00  3.03533583E-01 -5.11421528E-31
 -2.12114117E+00  3.03533583E-01 -5.11421528E-31 -2.12114117E+00  3.03533583E-01
 -5.11421528E-31 -2.12114117E+00  3.03533583E-01 -5.11421528E-31 -2.12114117E+00
  3.03533583E-01 -5.11421528E-31 -2.12114117E+00  3.03533583E-01 -5.11421528E-31
 -2.12114117E+00  3.03533583E-01 -5.11421528E-31
Num ILSW                                   I              100
ILSW                                       I   N=         100
           0           0           0           0           2           0
           0           0           0           0           0          -1
           5           0           0           0           0           0
           0           0           0           0           0           0
           1           0           0           0           0           0
           0           0      100000           0          -1           0
           0           0           0           0           0           0
           0           0           0           1           0           0
           0 -2000000000           1           0           0           0
           0           0           4          52           0           0
           0           0           0           0           0           0
           0           0           0           4           0           1
           0           0           0           0           0           0
           0           0           0           0           0           0
           0           0           0           0           0           0
           0           0           0           0           0           0
           0           0           0           0
Num RLSW                                   I               52
RLSW                                       R   N=          52
  1.00000000E+00  1.00000000E+00  1.00000000E+00  1.00000000E+00  1.00000000E+00
  0.00000000E+00  0.00000000E+00  1.00000000E+00  0.00000000E+00  0.00000000E+00
  0.00000000E+00  0.00000000E+00  1.00000000E+00  0.00000000E+00  0.00000000E+00
  0.00000000E+00  0.00000000E+00  1.00000000E+00  0.00000000E+00  0.00000000E+00
  0.00000000E+00  0.00000000E+00  1.00000000E+00  0.00000000E+00  0.00000000E+00
  0.00000000E+00  0.00000000E+00  1.00000000E+00  0.00000000E+00  0.00000000E+00
  0.00000000E+00  0.00000000E+00  1.00000000E+00  0.00000000E+00  0.00000000E+00
  0.00000000E+00  0.00000000E+00  0.00000000E+00  1.00000000E+00  1.00000000E+00
  0.00000000E+00  1.00000000E+00  0.00000000E+00  0.00000000E+00  0.00000000E+00
  0.00000000E+00  0.00000000E+00  0.00000000E+00  0.00000000E+00  0.00000000E+00
  0.00000000E+00  0.00000000E+00
MxBond                                     I                2
NBond                                      I   N=           4
           1           2           2           1
IBond                                      I   N=           8
           2           0           1           3           2           4
           3           0
RBond                                      R   N=           8
  1.00000000E+00  0.00000000E+00  1.00000000E+00  1.00000000E+00  1.00000000E+00
  2.00000000E+00  2.00000000E+00  0.00000000E+00
Virial Ratio                               R      2.002397946037263E+00
SCF Energy                                 R     -2.047232620016199E+02
MP2 Energy                                 R     -2.054212745937898E+02
Total Energy                               R     -2.054212745937898E+02
Post-SCF wavefunction norm                 R      1.090043074231795E+00
RMS Density                                R      5.536840335942971E-09
Job Status                                 I                1
Nuclear derivative order                   I                0
External E-field                           R   N=          35
  0.00000000E+00  0.00000000E+00  0.00000000E+00  0.00000000E+00  0.00000000E+00
  0.00000000E+00  0.00000000E+00  0.00000000E+00  0.00000000E+00  0.00000000E+00
  0.00000000E+00  0.00000000E+00  0.00000000E+00  0.00000000E+00  0.00000000E+00
  0.00000000E+00  0.00000000E+00  0.00000000E+00  0.00000000E+00  0.00000000E+00
  0.00000000E+00  0.00000000E+00  0.00000000E+00  0.00000000E+00  0.00000000E+00
  0.00000000E+00  0.00000000E+00  0.00000000E+00  0.00000000E+00  0.00000000E+00
  0.00000000E+00  0.00000000E+00  0.00000000E+00  0.00000000E+00  0.00000000E+00
IOpCl                                      I                0
IROHF                                      I                0
Alpha Orbital Energies                     R   N=         161
 -2.06658428E+01 -2.06430155E+01 -1.57985738E+01 -1.60210246E+00 -1.40382437E+00
 -9.48675905E-01 -7.83784423E-01 -7.30374452E-01 -6.81434269E-01 -6.26575862E-01
 -5.29250380E-01 -4.60503640E-01  2.79431284E-02  8.08131879E-02  9.38742488E-02
  9.76388708E-02  1.28924155E-01  1.43517266E-01  1.56874503E-01  1.72266206E-01
  1.87105627E-01  1.96681554E-01  2.05486915E-01  2.33272228E-01  2.57445704E-01
  2.95963842E-01  3.07754077E-01  3.29932886E-01  3.65764584E-01  3.82289805E-01
  4.23862884E-01  5.25027977E-01  5.26990942E-01  5.48413039E-01  5.74305674E-01
  6.11409369E-01  6.31636048E-01  6.46713221E-01  6.80044017E-01  7.15010910E-01
  7.17897514E-01  7.47650894E-01  7.74401374E-01  7.81439096E-01  8.10693123E-01
  8.11596429E-01  8.61071945E-01  8.79557035E-01  9.24514100E-01  9.38458940E-01
  9.45485775E-01  9.94753436E-01  1.04977225E+00  1.06240561E+00  1.08055195E+00
  1.10389811E+00  1.16237338E+00  1.19764705E+00  1.25226290E+00  1.27058213E+00
  1.36098850E+00  1.42830883E+00  1.48755290E+00  1.52431312E+00  1.52457338E+00
  1.54290345E+00  1.55305126E+00  1.60935775E+00  1.65759875E+00  1.72767898E+00
  1.75933390E+00  1.82107054E+00  1.85654723E+00  1.95931430E+00  1.97827490E+00
  1.99814861E+00  2.07709140E+00  2.13243499E+00  2.13483400E+00  2.19004632E+00
  2.26816544E+00  2.30600445E+00  2.32487701E+00  2.38025899E+00  2.45065917E+00
  2.47324078E+00  2.49710694E+00  2.50401358E+00  2.51857547E+00  2.54494814E+00
  2.56658634E+00  2.60572791E+00  2.60733116E+00  2.65648580E+00  2.77604825E+00
  2.78098117E+00  2.84871459E+00  2.93770612E+00  2.94947436E+00  3.11784552E+00
  3.14358591E+00  3.18382164E+00  3.24415791E+00  3.46086045E+00  3.83181336E+00
  3.85438497E+00  4.02529039E+00  4.17084001E+00  4.18383551E+00  4.21378113E+00
  4.36011051E+00  4.36920015E+00  4.58626890E+00  4.63543276E+00  4.74844102E+00
  4.81476892E+00  4.87156140E+00  4.88730230E+00  4.98138353E+00  5.00137612E+00
  5.07469206E+00  5.08902200E+00  5.17501021E+00  5.24217834E+00  5.25378215E+00
  5.33549903E+00  5.36029891E+00  5.36838598E+00  5.57830271E+00  5.66709730E+00
  5.79219312E+00  5.98625385E+00  6.11853909E+00  6.43461708E+00  6.50460808E+00
  6.50737782E+00  6.67205752E+00  6.71270791E+00  6.74641949E+00  6.84103081E+00
  6.92074803E+00  7.06900015E+00  7.11778668E+00  7.18041865E+00  7.23494912E+00
  7.25697502E+00  7.26075003E+00  7.33211097E+00  7.38365625E+00  7.43187002E+00
  7.47896858E+00  7.60639430E+00  7.65004894E+00  7.68761191E+00  7.79481969E+00
  7.98094296E+00  8.07104684E+00  8.42257681E+00  1.41766302E+01  1.51634288E+01
  1.59472816E+01
Alpha MO coefficients                      R   N=       25921
  5.57936189E-05  2.01181375E-04 -3.88849015E-04  4.61132278E-06 -5.57991863E-05
  1.11523553E-05  0.00000000E+00  3.93996771E-05  7.49529811E-05  0.00000000E+00
  2.65188725E-04  2.38662363E-05  0.00000000E+00  2.07835509E-05  0.00000000E+00
  0.00000000E+00  1.58388268E-05  5.32673452E-06  5.58106620E-05  0.00000000E+00
  0.00000000E+00 -2.79611727E-05  1.64968390E-05 -7.95190875E-04  7.78280268E-05
 -6.42489924E-05 -5.74397625E-05  2.46812527E-04  2.09523912E-05 -1.83205376E-05
  0.00000000E+00 -9.75674690E-05  5.00185777E-05  0.00000000E+00 -1.76356519E-04
  2.69362774E-05  0.00000000E+00 -1.14152576E-04  5.35154701E-05  0.00000000E+00
 -8.48525546E-06  0.00000000E+00  0.00000000E+00  2.52895296E-05  1.17452955E-05
 -3.74299500E-06  0.00000000E+00  0.00000000E+00 -8.37027119E-05 -1.33864236E-04
 -2.10335079E-05  0.00000000E+00  0.00000000E+00 -5.02236997E-05 -2.52328272E-04
  0.00000000E+00  6.18643044E-06  8.45016873E-07  0.00000000E+00  0.00000000E+00
 -8.42510399E-06 -1.21787060E-05  0.00000000E+00 -2.16996303E-05 -1.59719631E-05
  0.00000000E+00  0.00000000E+00  1.98739556E-04 -4.48892522E-05  2.49889218E-04
  1.42472423E-03 -9.89982650E-05 -1.58293094E-03  3.60897030E-04 -1.12135219E-04
 -6.44677505E-05  0.00000000E+00 -2.06339699E-03 -5.32912739E-04  0.00000000E+00
  1.17688664E-03 -5.63170966E-05  0.00000000E+00 -1.22114018E-04 -8.51823306E-05
  0.00000000E+00 -1.26059967E-04  0.00000000E+00  0.00000000E+00  2.16248143E-04
  1.39035585E-04 -4.33713914E-04  0.00000000E+00  0.00000000E+00  5.75220417E-04
  7.91313510E-04  3.70398541E-06  0.00000000E+00  0.00000000E+00 -1.58826252E-04
 -1.49819490E-04  0.00000000E+00  1.39332969E-05 -1.32544783E-05  0.00000000E+00
  0.00000000E+00  1.77710297E-05  1.42689051E-05  0.00000000E+00  1.42156965E-04
  1.25127726E-04  0.00000000E+00  0.00000000E+00 -2.45618098E-05 -2.97810614E-04
  9.76652173E-01 -9.86476493E-03  4.35607125E-02  4.30231141E-03 -5.23777563E-04
  2.12048407E-03  5.26827287E-04  0.00000000E+00 -2.42575225E-03 -5.44065242E-04
  0.00000000E+00  9.91974707E-04  5.50706977E-04  0.00000000E+00 -4.89632282E-05
  2.78860594E-05  0.00000000E+00 -2.28327650E-04  0.00000000E+00  0.00000000E+00
  7.83955614E-05  5.48198918E-05  3.88716134E-04  0.00000000E+00  0.00000000E+00
 -8.46001470E-04 -4.14097584E-04 -1.55759175E-04  0.00000000E+00  0.00000000E+00
  1.77690593E-04  2.51355501E-04  0.00000000E+00  5.51013019E-05  1.04344121E-05
  0.00000000E+00  0.00000000E+00 -1.86230906E-05 -2.41895922E-05  0.00000000E+00
  1.26472850E-04  4.31223463E-05  0.00000000E+00  0.00000000E+00 -1.69203122E-04
 -1.44737870E-04  4.71850345E-04  2.45378506E-03  3.52631186E-04 -8.70627563E-06
 -2.21710198E-04 -1.05995125E-04  0.00000000E+00 -9.78298367E-04 -8.72244057E-04
  0.00000000E+00 -8.91486584E-05 -4.27507589E-04  0.00000000E+00  1.28601170E-05
  0.00000000E+00  0.00000000E+00 -4.71240752E-05 -5.65792000E-05 -1.55546903E-04
  0.00000000E+00  0.00000000E+00  1.61593560E-04  4.13821357E-04  9.76755198E-01
 -9.25111003E-03  4.35545405E-02  8.61681461E-04 -9.24930467E-04  3.95736566E-04
  1.84447351E-03  0.00000000E+00 -1.90337072E-04 -1.83652610E-03  0.00000000E+00
 -1.49841334E-03  3.31271232E-04  0.00000000E+00 -6.29381042E-05  2.78210059E-05
  0.00000000E+00 -4.24780295E-05  0.00000000E+00  0.00000000E+00  3.41184752E-05
  4.66044569E-05  6.48515966E-04  0.00000000E+00  0.00000000E+00 -3.06712617E-04
  2.52183301E-04 -8.64832234E-05  0.00000000E+00  0.00000000E+00 -2.90471934E-04
 -3.77209947E-04  0.00000000E+00 -3.10937947E-05  4.56008238E-05  0.00000000E+00
  0.00000000E+00 -1.41283569E-05 -2.96081245E-06  0.00000000E+00  9.03900155E-05
  5.38103619E-05  0.00000000E+00  0.00000000E+00 -2.19407974E-04 -2.33721679E-04
  5.95239863E-05  1.61488124E-04 -3.21216505E-04 -3.43789894E-04  8.87351002E-04
 -8.49121564E-05  7.74680579E-05  0.00000000E+00  7.16648467E-04 -6.57979989E-04
  0.00000000E+00 -4.60648794E-04  5.62580535E-04  0.00000000E+00  1.69598048E-04
 -1.79090712E-04  0.00000000E+00 -3.45725230E-05  0.00000000E+00  0.00000000E+00
 -3.52639098E-05 -4.92948839E-05 -4.01520959E-04  0.00000000E+00  0.00000000E+00
 -1.57164431E-04 -9.38526750E-04 -1.89342617E-04  0.00000000E+00  0.00000000E+00
  5.63700468E-04 -5.50636067E-05  0.00000000E+00 -8.83249524E-05  9.88954668E-05
  0.00000000E+00  0.00000000E+00 -1.47502618E-04 -5.95188706E-05  0.00000000E+00
 -5.17530253E-05  1.17193735E-04  0.00000000E+00  0.00000000E+00 -4.33327427E-04
  2.12820360E-05  8.28126532E-04  3.77653587E-05  1.75997720E-05 -3.23188577E-04
 -1.96054727E-04 -1.62807667E-05  2.36083410E-05  0.00000000E+00  1.10015217E-04
 -1.35342015E-04  0.00000000E+00  4.16382987E-04 -4.55639857E-04  0.00000000E+00
 -1.04810797E-05  6.83372891E-06  0.00000000E+00 -4.59032057E-06  0.00000000E+00
  0.00000000E+00 -1.35775652E-05 -9.63816999E-06 -3.98093367E-06  0.00000000E+00
  0.00000000E+00  1.42125963E-04 -4.46895133E-05 -7.36718959E-05  0.00000000E+00
  0.00000000E+00  2.60017749E-04 -3.41695921E-05  0.00000000E+00  1.84854402E-06
  1.05942762E-05  0.00000000E+00  0.00000000E+00 -1.30208251E-05 -1.08533994E-05
  0.00000000E+00  1.00932768E-05 -5.27222640E-05  0.00000000E+00  0.00000000E+00
  1.16706592E-04  6.78038077E-05 -7.40479637E-05 -4.04989854E-04 -2.99891138E-04
  2.06761441E-04  3.31939985E-05  3.26287257E-05  0.00000000E+00  4.68843868E-04
 -3.50267038E-04  0.00000000E+00  3.13992688E-04 -3.26049030E-04  0.00000000E+00
 -1.37405815E-05  0.00000000E+00  0.00000000E+00 -4.13062489E-05  3.18136071E-05
  1.19916001E-04  0.00000000E+00  0.00000000E+00 -3.89954679E-05  1.79595945E-04
 -1.25953145E-04 -2.08612437E-04 -2.06409350E-04  4.93162646E-03  3.22877903E-03
  9.18928470E-06 -4.16367979E-05  0.00000000E+00 -5.28706808E-04  8.57324518E-04
  0.00000000E+00 -2.52519992E-03  3.05188701E-03  0.00000000E+00 -8.36215508E-04
  5.55231954E-04  0.00000000E+00 -2.47792134E-07  0.00000000E+00  0.00000000E+00
 -2.94855150E-05 -4.36710577E-05 -4.42423617E-04  0.00000000E+00  0.00000000E+00
 -4.38955698E-05 -5.29460125E-04 -6.02856406E-04  0.00000000E+00  0.00000000E+00
 -2.86306431E-04 -9.81312205E-04  0.00000000E+00  1.78299798E-05 -2.16060557E-05
  0.00000000E+00  0.00000000E+00  3.89670375E-05  3.21089132E-05  0.00000000E+00
  9.96691567E-05 -1.41543339E-04  0.00000000E+00  0.00000000E+00  1.87388429E-05
  2.27664966E-04  9.78280821E-01 -8.38841643E-03  4.17946095E-02 -5.68480016E-03
 -3.08431368E-03 -1.11961271E-03 -3.03987740E-03  0.00000000E+00 -8.34397591E-05
  2.98350579E-03  0.00000000E+00  5.44502111E-04  3.12568819E-03  0.00000000E+00
 -2.91138028E-05  5.51795023E-04  0.00000000E+00 -4.42277383E-04  0.00000000E+00
  0.00000000E+00  2.49516637E-04  2.21933639E-04  1.04187722E-03  0.00000000E+00
  0.00000000E+00 -2.12175461E-04  3.15389781E-04  3.71307051E-04  0.00000000E+00
  0.00000000E+00  1.18133295E-04  2.93880086E-05  0.00000000E+00  9.09259551E-05
 -6.83533177E-05  0.00000000E+00  0.00000000E+00 -6.13891142E-05 -3.62799490E-06
  0.00000000E+00 -2.32800323E-04 -2.28157156E-04  0.00000000E+00  0.00000000E+00
  4.84100970E-04  2.61919207E-04 -1.87105693E-04  9.32089451E-04  1.59861352E-04
  3.15287752E-03  9.43228577E-04  2.63327527E-04  1.19198922E-04  0.00000000E+00
  8.91568360E-04  2.71809965E-04  0.00000000E+00  1.27700542E-03 -1.61663349E-04
  0.00000000E+00  1.67005961E-05  3.15158927E-05  0.00000000E+00 -4.01612355E-05
  0.00000000E+00  0.00000000E+00  7.46674984E-05  8.23434998E-05  7.55063542E-05
  0.00000000E+00  0.00000000E+00 -1.01507105E-05 -2.69864070E-04 -2.99176552E-05
  0.00000000E+00  0.00000000E+00  2.88309299E-04 -1.47721698E-04  0.00000000E+00
  9.26085618E-05  3.52232741E-05  0.00000000E+00  0.00000000E+00 -5.95137050E-05
 -1.10178554E-04  0.00000000E+00  1.64840498E-04  1.23573133E-04  0.00000000E+00
  0.00000000E+00  1.05358002E-05 -3.53330912E-04  2.10504784E-02  1.71045389E-02
 -1.68938942E-03  4.64103708E-04 -3.20982359E-03 -9.04201710E-04  0.00000000E+00
 -2.44900313E-03 -1.15863819E-03  0.00000000E+00  2.49533994E-03  8.73823045E-05
  0.00000000E+00 -2.28042346E-04  0.00000000E+00  0.00000000E+00  3.79711607E-04
  3.08534400E-04  3.18246252E-04  0.00000000E+00  0.00000000E+00  2.93700528E-04
  6.07547630E-04 -6.58665477E-02  1.59602973E-01  4.25382914E-02  9.20650462E-02
  7.68521275E-03 -1.49395518E-02  2.32520042E-02  0.00000000E+00 -2.00684606E-02
  3.34136583E-02  0.00000000E+00 -1.19706236E-02  1.04606761E-02  0.00000000E+00
 -2.13495777E-03 -1.82051116E-03  0.00000000E+00 -1.81462800E-03  0.00000000E+00
  0.00000000E+00  9.99243829E-05 -1.79976995E-03 -4.06245505E-03  0.00000000E+00
  0.00000000E+00  8.16035468E-04 -4.17932905E-03  1.03253374E-03  0.00000000E+00
  0.00000000E+00  1.92124101E-04 -1.57676110E-03  0.00000000E+00  4.45977577E-04
 -8.67633473E-04  0.00000000E+00  0.00000000E+00  6.81831710E-04  1.29814053E-03
  0.00000000E+00 -2.68427518E-04  5.30695095E-04  0.00000000E+00  0.00000000E+00
 -3.08186223E-04  1.80214542E-04 -1.30186714E-01  3.07684321E-01  8.10494669E-02
  6.38223391E-02  5.35038988E-04 -7.40778585E-02 -4.59361623E-02  0.00000000E+00
 -7.77422931E-02 -6.36387444E-02  0.00000000E+00 -3.09151543E-03  8.99961234E-03
  0.00000000E+00  1.54369604E-06  3.19045521E-03  0.00000000E+00 -9.28388843E-03
  0.00000000E+00  0.00000000E+00  8.78093590E-03  6.11566105E-03 -1.14736079E-02
  0.00000000E+00  0.00000000E+00  9.63193955E-03  5.70414126E-03  6.14814324E-03
  0.00000000E+00  0.00000000E+00 -1.21828020E-04  5.60903842E-04  0.00000000E+00
  2.51722168E-03  2.38553545E-03  0.00000000E+00  0.00000000E+00 -5.04428072E-03
 -5.37888877E-03  0.00000000E+00 -1.42320418E-03 -4.30255988E-04  0.00000000E+00
  0.00000000E+00  9.30764329E-04 -1.05545389E-04 -1.50467579E-01  3.59907521E-01
  9.64978444E-02  1.79754428E-01 -1.50423610E-02  8.00426861E-02  2.10073476E-02
  0.00000000E+00  1.01512374E-01  2.63243230E-02  0.00000000E+00  1.76948314E-02
  2.90106641E-03  0.00000000E+00 -8.60703624E-03 -2.34085465E-03  0.00000000E+00
 -5.15672751E-03  0.00000000E+00  0.00000000E+00  7.40571852E-03  4.28199159E-03
 -9.48176440E-03  0.00000000E+00  0.00000000E+00  1.53132794E-02  8.99261960E-03
  2.48737750E-03  0.00000000E+00  0.00000000E+00 -3.70517042E-03 -2.65483015E-03
  0.00000000E+00 -3.15718955E-03 -8.28034958E-04  0.00000000E+00  0.00000000E+00
  3.46491545E-03  3.48242181E-03  0.00000000E+00 -1.19576209E-04 -2.67726758E-04
  0.00000000E+00  0.00000000E+00  1.11000041E-03  1.83911395E-03  8.02160907E-02
  7.89542264E-02 -2.05852821E-02 -2.88662685E-03 -1.17509630E-02 -4.81650966E-03
  0.00000000E+00 -1.49048139E-02 -1.38177537E-03  0.00000000E+00  7.56803459E-03
  2.39072801E-03  0.00000000E+00 -1.33468300E-03  0.00000000E+00  0.00000000E+00
  2.25155466E-03  1.21086339E-03  3.66463632E-04  0.00000000E+00  0.00000000E+00
  2.26354272E-03 -1.38250917E-03 -1.81547144E-01  4.42254225E-01  1.20663815E-01
  2.57914248E-01  1.14460605E-02  1.55450478E-02  3.82464462E-02  0.00000000E+00