 Entering Gaussian System, Link 0=g16
 Input=hono_a1_p_20.gjf
 Output=hono_a1_p_20.log
 Initial command:
 /sw/contrib/gaussian/g16/B01/g16/l1.exe "/scr/Gau-19338.inp" -scrdir="/scr/"
 Entering Link 1 = /sw/contrib/gaussian/g16/B01/g16/l1.exe PID=     19339.
  
 Copyright (c) 1988-2017, Gaussian, Inc.  All Rights Reserved.
  
 This is part of the Gaussian(R) 16 program.  It is based on
 the Gaussian(R) 09 system (copyright 2009, Gaussian, Inc.),
 the Gaussian(R) 03 system (copyright 2003, Gaussian, Inc.),
 the Gaussian(R) 98 system (copyright 1998, Gaussian, Inc.),
 the Gaussian(R) 94 system (copyright 1995, Gaussian, Inc.),
 the Gaussian 92(TM) system (copyright 1992, Gaussian, Inc.),
 the Gaussian 90(TM) system (copyright 1990, Gaussian, Inc.),
 the Gaussian 88(TM) system (copyright 1988, Gaussian, Inc.),
 the Gaussian 86(TM) system (copyright 1986, Carnegie Mellon
 University), and the Gaussian 82(TM) system (copyright 1983,
 Carnegie Mellon University). Gaussian is a federally registered
 trademark of Gaussian, Inc.
  
 This software contains proprietary and confidential information,
 including trade secrets, belonging to Gaussian, Inc.
  
 This software is provided under written license and may be
 used, copied, transmitted, or stored only in accord with that
 written license.
  
 The following legend is applicable only to US Government
 contracts under FAR:
  
                    RESTRICTED RIGHTS LEGEND
  
 Use, reproduction and disclosure by the US Government is
 subject to restrictions as set forth in subparagraphs (a)
 and (c) of the Commercial Computer Software - Restricted
 Rights clause in FAR 52.227-19.
  
 Gaussian, Inc.
 340 Quinnipiac St., Bldg. 40, Wallingford CT 06492
  
  
 ---------------------------------------------------------------
 Warning -- This program may not be used in any manner that
 competes with the business of Gaussian, Inc. or will provide
 assistance to any competitor of Gaussian, Inc.  The licensee
 of this program is prohibited from giving any competitor of
 Gaussian, Inc. access to this program.  By using this program,
 the user acknowledges that Gaussian, Inc. is engaged in the
 business of creating and licensing software in the field of
 computational chemistry and represents and warrants to the
 licensee that it is not a competitor of Gaussian, Inc. and that
 it will not use this program in any manner prohibited above.
 ---------------------------------------------------------------
  

 Cite this work as:
 Gaussian 16, Revision B.01,
 M. J. Frisch, G. W. Trucks, H. B. Schlegel, G. E. Scuseria, 
 M. A. Robb, J. R. Cheeseman, G. Scalmani, V. Barone, 
 G. A. Petersson, H. Nakatsuji, X. Li, M. Caricato, A. V. Marenich, 
 J. Bloino, B. G. Janesko, R. Gomperts, B. Mennucci, H. P. Hratchian, 
 J. V. Ortiz, A. F. Izmaylov, J. L. Sonnenberg, D. Williams-Young, 
 F. Ding, F. Lipparini, F. Egidi, J. Goings, B. Peng, A. Petrone, 
 T. Henderson, D. Ranasinghe, V. G. Zakrzewski, J. Gao, N. Rega, 
 G. Zheng, W. Liang, M. Hada, M. Ehara, K. Toyota, R. Fukuda, 
 J. Hasegawa, M. Ishida, T. Nakajima, Y. Honda, O. Kitao, H. Nakai, 
 T. Vreven, K. Throssell, J. A. Montgomery, Jr., J. E. Peralta, 
 F. Ogliaro, M. J. Bearpark, J. J. Heyd, E. N. Brothers, K. N. Kudin, 
 V. N. Staroverov, T. A. Keith, R. Kobayashi, J. Normand, 
 K. Raghavachari, A. P. Rendell, J. C. Burant, S. S. Iyengar, 
 J. Tomasi, M. Cossi, J. M. Millam, M. Klene, C. Adamo, R. Cammi, 
 J. W. Ochterski, R. L. Martin, K. Morokuma, O. Farkas, 
 J. B. Foresman, and D. J. Fox, Gaussian, Inc., Wallingford CT, 2016.
 
 ******************************************
 Gaussian 16:  ES64L-G16RevB.01 20-Dec-2017
                31-Jan-2022 
 ******************************************
 %nproc=28
 Will use up to   28 processors via shared memory.
 %mem=120GB
 %chk=/gscratch/ilahie/mccoygrp/coire_hoono/hono/hono_a1_p_20.chk
 -------------------------------------
 #p SP mp2/aug-cc-pvtz density=current
 -------------------------------------
 1/30=1,38=1,172=1/1;
 2/12=2,17=6,18=5,40=1/2;
 3/5=16,6=1,7=10,11=9,25=1,30=1,71=1/1,2,3;
 4//1;
 5/5=2,38=5/2;
 8/6=4,10=1/1;
 9/15=1,16=-3/6;
 10/5=1,13=10/2;
 6/7=2,8=2,9=2,10=2,22=-1/1;
 99/5=1,9=1/99;
 Leave Link    1 at Mon Jan 31 11:56:06 2022, MaxMem= 16106127360 cpu:               2.8 elap:               0.1
 (Enter /sw/contrib/gaussian/g16/B01/g16/l101.exe)
 -----
 title
 -----
 Symbolic Z-matrix:
 Charge =  0 Multiplicity = 1
 H
 O                    1    r1
 N                    2    r2       1    a1
 O                    3    r3       2    a2       1    d1       0
       Variables:
  r1                    0.97026                  
  r2                    1.42776                  
  r3                    1.1768                   
  a1                  103.62779                  
  a2                  110.70859                  
  d1                  180.                       
 
 ITRead=  0  0  0  0
 MicOpt= -1 -1 -1 -1
 NAtoms=      4 NQM=        4 NQMF=       0 NMMI=      0 NMMIF=      0
                NMic=       0 NMicF=      0.
                    Isotopes and Nuclear Properties:
 (Nuclear quadrupole moments (NQMom) in fm**2, nuclear magnetic moments (NMagM)
  in nuclear magnetons)

  Atom         1           2           3           4
 IAtWgt=           1          16          14          16
 AtmWgt=   1.0078250  15.9949146  14.0030740  15.9949146
 NucSpn=           1           0           2           0
 AtZEff=  -0.0000000  -0.0000000  -0.0000000  -0.0000000
 NQMom=    0.0000000   0.0000000   2.0440000   0.0000000
 NMagM=    2.7928460   0.0000000   0.4037610   0.0000000
 AtZNuc=   1.0000000   8.0000000   7.0000000   8.0000000
 Leave Link  101 at Mon Jan 31 11:56:06 2022, MaxMem= 16106127360 cpu:               4.8 elap:               0.2
 (Enter /sw/contrib/gaussian/g16/B01/g16/l202.exe)
                          Input orientation:                          
 ---------------------------------------------------------------------
 Center     Atomic      Atomic             Coordinates (Angstroms)
 Number     Number       Type             X           Y           Z
 ---------------------------------------------------------------------
      1          1           0        0.000000    0.000000    0.000000
      2          8           0        0.000000    0.000000    0.970263
      3          7           0        1.387568    0.000000    1.306663
      4          8           0        1.532632    0.000000    2.474490
 ---------------------------------------------------------------------
                    Distance matrix (angstroms):
                    1          2          3          4
     1  H    0.000000
     2  O    0.970263   0.000000
     3  N    1.905968   1.427764   0.000000
     4  O    2.910681   2.147478   1.176802   0.000000
 Stoichiometry    HNO2
 Framework group  CS[SG(HNO2)]
 Deg. of freedom     5
 Full point group                 CS      NOp   2
 Largest Abelian subgroup         CS      NOp   2
 Largest concise Abelian subgroup C1      NOp   1
                         Standard orientation:                         
 ---------------------------------------------------------------------
 Center     Atomic      Atomic             Coordinates (Angstroms)
 Number     Number       Type             X           Y           Z
 ---------------------------------------------------------------------
      1          1           0        1.773827   -0.175433    0.000000
      2          8           0        0.896337   -0.589462    0.000000
      3          7           0       -0.000000    0.521884    0.000000
      4          8           0       -1.118066    0.154743    0.000000
 ---------------------------------------------------------------------
 Rotational constants (GHZ):          93.0307310          12.5394118          11.0500054
 Leave Link  202 at Mon Jan 31 11:56:06 2022, MaxMem= 16106127360 cpu:               0.7 elap:               0.0
 (Enter /sw/contrib/gaussian/g16/B01/g16/l301.exe)
 Standard basis: Aug-CC-pVTZ (5D, 7F)
 Ernie: Thresh=  0.10000D-02 Tol=  0.10000D-05 Strict=F.
 Ernie:  9 primitive shells out of 101 were deleted.
 There are   129 symmetry adapted cartesian basis functions of A'  symmetry.
 There are    61 symmetry adapted cartesian basis functions of A"  symmetry.
 There are   106 symmetry adapted basis functions of A'  symmetry.
 There are    55 symmetry adapted basis functions of A"  symmetry.
   161 basis functions,   243 primitive gaussians,   190 cartesian basis functions
    12 alpha electrons       12 beta electrons
       nuclear repulsion energy        69.4690693251 Hartrees.
 IExCor=    0 DFT=F Ex=HF Corr=None ExCW=0 ScaHFX=  1.000000
 ScaDFX=  1.000000  1.000000  1.000000  1.000000 ScalE2=  1.000000  1.000000
 IRadAn=      5 IRanWt=     -1 IRanGd=            0 ICorTp=0 IEmpDi=  4
 NAtoms=    4 NActive=    4 NUniq=    4 SFac= 1.00D+00 NAtFMM=   60 NAOKFM=F Big=F
 Integral buffers will be    131072 words long.
 Raffenetti 1 integral format.
 Two-electron integral symmetry is turned on.
 Leave Link  301 at Mon Jan 31 11:56:07 2022, MaxMem= 16106127360 cpu:               1.7 elap:               0.1
 (Enter /sw/contrib/gaussian/g16/B01/g16/l302.exe)
 NPDir=0 NMtPBC=     1 NCelOv=     1 NCel=       1 NClECP=     1 NCelD=      1
         NCelK=      1 NCelE2=     1 NClLst=     1 CellRange=     0.0.
 One-electron integrals computed using PRISM.
 One-electron integral symmetry used in STVInt
 NBasis=   161 RedAO= T EigKep=  1.97D-04  NBF=   106    55
 NBsUse=   161 1.00D-06 EigRej= -1.00D+00 NBFU=   106    55
 Leave Link  302 at Mon Jan 31 11:56:07 2022, MaxMem= 16106127360 cpu:               5.1 elap:               0.2
 (Enter /sw/contrib/gaussian/g16/B01/g16/l303.exe)
 DipDrv:  MaxL=1.
 Leave Link  303 at Mon Jan 31 11:56:07 2022, MaxMem= 16106127360 cpu:               1.1 elap:               0.1
 (Enter /sw/contrib/gaussian/g16/B01/g16/l401.exe)
 ExpMin= 2.53D-02 ExpMax= 1.53D+04 ExpMxC= 5.22D+02 IAcc=3 IRadAn=         5 AccDes= 0.00D+00
 Harris functional with IExCor=  205 and IRadAn=       5 diagonalized for initial guess.
 HarFok:  IExCor=  205 AccDes= 0.00D+00 IRadAn=         5 IDoV= 1 UseB2=F ITyADJ=14
 ICtDFT=  3500011 ScaDFX=  1.000000  1.000000  1.000000  1.000000
 FoFCou: FMM=F IPFlag=           0 FMFlag=      100000 FMFlg1=           0
         NFxFlg=           0 DoJE=T BraDBF=F KetDBF=T FulRan=T
         wScrn=  0.000000 ICntrl=       500 IOpCl=  0 I1Cent=   200000004 NGrid=           0
         NMat0=    1 NMatS0=      1 NMatT0=    0 NMatD0=    1 NMtDS0=    0 NMtDT0=    0
 Petite list used in FoFCou.
 Harris En= -204.818719428169    
 JPrj=0 DoOrth=F DoCkMO=F.
 Initial guess orbital symmetries:
       Occupied  (A') (A') (A') (A') (A') (A') (A') (A') (A") (A')
                 (A") (A')
       Virtual   (A") (A') (A') (A') (A') (A") (A') (A') (A') (A")
                 (A') (A") (A') (A') (A") (A') (A') (A') (A') (A')
                 (A") (A') (A") (A') (A') (A') (A") (A') (A") (A')
                 (A") (A') (A') (A") (A") (A') (A') (A') (A") (A')
                 (A') (A') (A") (A') (A") (A') (A") (A') (A') (A')
                 (A") (A') (A") (A') (A') (A") (A') (A") (A') (A")
                 (A') (A') (A") (A') (A') (A') (A") (A') (A") (A")
                 (A') (A') (A') (A") (A") (A') (A') (A') (A") (A")
                 (A') (A') (A') (A") (A') (A') (A") (A") (A') (A')
                 (A') (A') (A") (A') (A') (A") (A') (A") (A") (A')
                 (A") (A') (A') (A') (A') (A") (A') (A") (A') (A")
                 (A') (A') (A") (A') (A') (A") (A') (A") (A') (A')
                 (A') (A') (A") (A') (A") (A") (A') (A') (A") (A')
                 (A") (A") (A') (A") (A') (A") (A') (A") (A") (A')
                 (A') (A') (A') (A') (A') (A') (A') (A') (A')
 The electronic state of the initial guess is 1-A'.
 Leave Link  401 at Mon Jan 31 11:56:07 2022, MaxMem= 16106127360 cpu:               7.1 elap:               0.3
 (Enter /sw/contrib/gaussian/g16/B01/g16/l502.exe)
 Keep R1 ints in memory in symmetry-blocked form, NReq=128070121.
 FoFCou: FMM=F IPFlag=           0 FMFlag=           0 FMFlg1=           0
         NFxFlg=           0 DoJE=F BraDBF=F KetDBF=F FulRan=T
         wScrn=  0.000000 ICntrl=       600 IOpCl=  0 I1Cent=           0 NGrid=           0
         NMat0=    1 NMatS0=  13041 NMatT0=    0 NMatD0=    1 NMtDS0=    0 NMtDT0=    0
 Petite list used in FoFCou.
 Closed shell SCF:
 Using DIIS extrapolation, IDIIS=  1040.
 NGot= 16106127360 LenX= 16063019402 LenY= 16062982861
 Requested convergence on RMS density matrix=1.00D-08 within 128 cycles.
 Requested convergence on MAX density matrix=1.00D-06.
 Requested convergence on             energy=1.00D-06.
 No special actions if energy rises.

 Cycle   1  Pass 1  IDiag  1:
 E= -204.613853769761    
 DIIS: error= 2.99D-02 at cycle   1 NSaved=   1.
 NSaved= 1 IEnMin= 1 EnMin= -204.613853769761     IErMin= 1 ErrMin= 2.99D-02
 ErrMax= 2.99D-02  0.00D+00 EMaxC= 1.00D-01 BMatC= 3.55D-01 BMatP= 3.55D-01
 IDIUse=3 WtCom= 7.01D-01 WtEn= 2.99D-01
 Coeff-Com:  0.100D+01
 Coeff-En:   0.100D+01
 Coeff:      0.100D+01
 Gap=     0.509 Goal=   None    Shift=    0.000
 GapD=    0.509 DampG=2.000 DampE=0.500 DampFc=1.0000 IDamp=-1.
 RMSDP=2.05D-03 MaxDP=1.22D-01              OVMax= 1.02D-01

 Cycle   2  Pass 1  IDiag  1:
 E= -204.678786889925     Delta-E=       -0.064933120163 Rises=F Damp=F
 DIIS: error= 2.08D-02 at cycle   2 NSaved=   2.
 NSaved= 2 IEnMin= 2 EnMin= -204.678786889925     IErMin= 2 ErrMin= 2.08D-02
 ErrMax= 2.08D-02  0.00D+00 EMaxC= 1.00D-01 BMatC= 6.80D-02 BMatP= 3.55D-01
 IDIUse=3 WtCom= 7.92D-01 WtEn= 2.08D-01
 Coeff-Com:  0.234D+00 0.766D+00
 Coeff-En:   0.108D+00 0.892D+00
 Coeff:      0.207D+00 0.793D+00
 Gap=     0.510 Goal=   None    Shift=    0.000
 RMSDP=9.96D-04 MaxDP=3.59D-02 DE=-6.49D-02 OVMax= 8.80D-02

 Cycle   3  Pass 1  IDiag  1:
 E= -204.712826305114     Delta-E=       -0.034039415189 Rises=F Damp=F
 DIIS: error= 7.33D-03 at cycle   3 NSaved=   3.
 NSaved= 3 IEnMin= 3 EnMin= -204.712826305114     IErMin= 3 ErrMin= 7.33D-03
 ErrMax= 7.33D-03  0.00D+00 EMaxC= 1.00D-01 BMatC= 1.53D-02 BMatP= 6.80D-02
 IDIUse=3 WtCom= 9.27D-01 WtEn= 7.33D-02
 Coeff-Com: -0.361D-01 0.303D+00 0.734D+00
 Coeff-En:   0.000D+00 0.834D-01 0.917D+00
 Coeff:     -0.335D-01 0.286D+00 0.747D+00
 Gap=     0.493 Goal=   None    Shift=    0.000
 RMSDP=4.08D-04 MaxDP=2.24D-02 DE=-3.40D-02 OVMax= 2.65D-02

 Cycle   4  Pass 1  IDiag  1:
 E= -204.722964789750     Delta-E=       -0.010138484636 Rises=F Damp=F
 DIIS: error= 1.54D-03 at cycle   4 NSaved=   4.
 NSaved= 4 IEnMin= 4 EnMin= -204.722964789750     IErMin= 4 ErrMin= 1.54D-03
 ErrMax= 1.54D-03  0.00D+00 EMaxC= 1.00D-01 BMatC= 2.46D-04 BMatP= 1.53D-02
 IDIUse=3 WtCom= 9.85D-01 WtEn= 1.54D-02
 Coeff-Com: -0.772D-02 0.253D-01 0.125D+00 0.857D+00
 Coeff-En:   0.000D+00 0.000D+00 0.000D+00 0.100D+01
 Coeff:     -0.760D-02 0.249D-01 0.123D+00 0.860D+00
 Gap=     0.488 Goal=   None    Shift=    0.000
 RMSDP=8.28D-05 MaxDP=1.84D-03 DE=-1.01D-02 OVMax= 8.13D-03

 Cycle   5  Pass 1  IDiag  1:
 E= -204.723329646085     Delta-E=       -0.000364856335 Rises=F Damp=F
 DIIS: error= 1.04D-03 at cycle   5 NSaved=   5.
 NSaved= 5 IEnMin= 5 EnMin= -204.723329646085     IErMin= 5 ErrMin= 1.04D-03
 ErrMax= 1.04D-03  0.00D+00 EMaxC= 1.00D-01 BMatC= 6.23D-05 BMatP= 2.46D-04
 IDIUse=3 WtCom= 9.90D-01 WtEn= 1.04D-02
 Coeff-Com:  0.700D-02-0.720D-01-0.155D+00 0.215D+00 0.100D+01
 Coeff-En:   0.000D+00 0.000D+00 0.000D+00 0.000D+00 0.100D+01
 Coeff:      0.693D-02-0.713D-01-0.153D+00 0.213D+00 0.100D+01
 Gap=     0.488 Goal=   None    Shift=    0.000
 RMSDP=6.78D-05 MaxDP=1.63D-03 DE=-3.65D-04 OVMax= 8.88D-03

 Cycle   6  Pass 1  IDiag  1:
 E= -204.723502246794     Delta-E=       -0.000172600709 Rises=F Damp=F
 DIIS: error= 2.28D-04 at cycle   6 NSaved=   6.
 NSaved= 6 IEnMin= 6 EnMin= -204.723502246794     IErMin= 6 ErrMin= 2.28D-04
 ErrMax= 2.28D-04  0.00D+00 EMaxC= 1.00D-01 BMatC= 1.11D-05 BMatP= 6.23D-05
 IDIUse=3 WtCom= 9.98D-01 WtEn= 2.28D-03
 Coeff-Com:  0.559D-03 0.102D-02-0.233D-02-0.203D+00-0.102D-01 0.121D+01
 Coeff-En:   0.000D+00 0.000D+00 0.000D+00 0.000D+00 0.000D+00 0.100D+01
 Coeff:      0.557D-03 0.102D-02-0.233D-02-0.203D+00-0.102D-01 0.121D+01
 Gap=     0.490 Goal=   None    Shift=    0.000
 RMSDP=3.80D-05 MaxDP=7.09D-04 DE=-1.73D-04 OVMax= 4.04D-03

 Cycle   7  Pass 1  IDiag  1:
 E= -204.723540672268     Delta-E=       -0.000038425474 Rises=F Damp=F
 DIIS: error= 1.16D-04 at cycle   7 NSaved=   7.
 NSaved= 7 IEnMin= 7 EnMin= -204.723540672268     IErMin= 7 ErrMin= 1.16D-04
 ErrMax= 1.16D-04  0.00D+00 EMaxC= 1.00D-01 BMatC= 1.74D-06 BMatP= 1.11D-05
 IDIUse=3 WtCom= 9.99D-01 WtEn= 1.16D-03
 Coeff-Com: -0.122D-02 0.125D-01 0.314D-01-0.487D-01-0.136D+00-0.756D-01
 Coeff-Com:  0.122D+01
 Coeff-En:   0.000D+00 0.000D+00 0.000D+00 0.000D+00 0.000D+00 0.000D+00
 Coeff-En:   0.100D+01
 Coeff:     -0.122D-02 0.125D-01 0.314D-01-0.486D-01-0.136D+00-0.755D-01
 Coeff:      0.122D+01
 Gap=     0.489 Goal=   None    Shift=    0.000
 RMSDP=1.50D-05 MaxDP=3.27D-04 DE=-3.84D-05 OVMax= 1.76D-03

 Cycle   8  Pass 1  IDiag  1:
 E= -204.723546126515     Delta-E=       -0.000005454247 Rises=F Damp=F
 DIIS: error= 4.34D-05 at cycle   8 NSaved=   8.
 NSaved= 8 IEnMin= 8 EnMin= -204.723546126515     IErMin= 8 ErrMin= 4.34D-05
 ErrMax= 4.34D-05  0.00D+00 EMaxC= 1.00D-01 BMatC= 1.85D-07 BMatP= 1.74D-06
 IDIUse=1 WtCom= 1.00D+00 WtEn= 0.00D+00
 Coeff-Com: -0.386D-04-0.766D-03-0.593D-03 0.199D-01 0.249D-01-0.151D+00
 Coeff-Com: -0.132D+00 0.124D+01
 Coeff:     -0.386D-04-0.766D-03-0.593D-03 0.199D-01 0.249D-01-0.151D+00
 Coeff:     -0.132D+00 0.124D+01
 Gap=     0.489 Goal=   None    Shift=    0.000
 RMSDP=4.90D-06 MaxDP=9.88D-05 DE=-5.45D-06 OVMax= 4.76D-04

 Cycle   9  Pass 1  IDiag  1:
 E= -204.723546663990     Delta-E=       -0.000000537475 Rises=F Damp=F
 DIIS: error= 1.14D-05 at cycle   9 NSaved=   9.
 NSaved= 9 IEnMin= 9 EnMin= -204.723546663990     IErMin= 9 ErrMin= 1.14D-05
 ErrMax= 1.14D-05  0.00D+00 EMaxC= 1.00D-01 BMatC= 1.55D-08 BMatP= 1.85D-07
 IDIUse=1 WtCom= 1.00D+00 WtEn= 0.00D+00
 Coeff-Com:  0.107D-03-0.994D-03-0.242D-02-0.140D-02 0.119D-01 0.389D-01
 Coeff-Com: -0.860D-01-0.284D+00 0.132D+01
 Coeff:      0.107D-03-0.994D-03-0.242D-02-0.140D-02 0.119D-01 0.389D-01
 Coeff:     -0.860D-01-0.284D+00 0.132D+01
 Gap=     0.489 Goal=   None    Shift=    0.000
 RMSDP=1.28D-06 MaxDP=3.49D-05 DE=-5.37D-07 OVMax= 9.73D-05

 Cycle  10  Pass 1  IDiag  1:
 E= -204.723546705785     Delta-E=       -0.000000041795 Rises=F Damp=F
 DIIS: error= 2.84D-06 at cycle  10 NSaved=  10.
 NSaved=10 IEnMin=10 EnMin= -204.723546705785     IErMin=10 ErrMin= 2.84D-06
 ErrMax= 2.84D-06  0.00D+00 EMaxC= 1.00D-01 BMatC= 1.28D-09 BMatP= 1.55D-08
 IDIUse=1 WtCom= 1.00D+00 WtEn= 0.00D+00
 Coeff-Com: -0.259D-04 0.316D-03 0.790D-03-0.201D-02-0.447D-02 0.192D-02
 Coeff-Com:  0.377D-01-0.509D-01-0.282D+00 0.130D+01
 Coeff:     -0.259D-04 0.316D-03 0.790D-03-0.201D-02-0.447D-02 0.192D-02
 Coeff:      0.377D-01-0.509D-01-0.282D+00 0.130D+01
 Gap=     0.489 Goal=   None    Shift=    0.000
 RMSDP=3.37D-07 MaxDP=1.15D-05 DE=-4.18D-08 OVMax= 3.05D-05

 Cycle  11  Pass 1  IDiag  1:
 E= -204.723546709253     Delta-E=       -0.000000003468 Rises=F Damp=F
 DIIS: error= 1.12D-06 at cycle  11 NSaved=  11.
 NSaved=11 IEnMin=11 EnMin= -204.723546709253     IErMin=11 ErrMin= 1.12D-06
 ErrMax= 1.12D-06  0.00D+00 EMaxC= 1.00D-01 BMatC= 1.20D-10 BMatP= 1.28D-09
 IDIUse=1 WtCom= 1.00D+00 WtEn= 0.00D+00
 Coeff-Com: -0.603D-06-0.172D-04-0.422D-04 0.535D-03 0.106D-02-0.465D-02
 Coeff-Com: -0.539D-02 0.450D-01-0.203D-01-0.477D+00 0.146D+01
 Coeff:     -0.603D-06-0.172D-04-0.422D-04 0.535D-03 0.106D-02-0.465D-02
 Coeff:     -0.539D-02 0.450D-01-0.203D-01-0.477D+00 0.146D+01
 Gap=     0.489 Goal=   None    Shift=    0.000
 RMSDP=1.12D-07 MaxDP=4.20D-06 DE=-3.47D-09 OVMax= 1.09D-05

 Cycle  12  Pass 1  IDiag  1:
 E= -204.723546709626     Delta-E=       -0.000000000374 Rises=F Damp=F
 DIIS: error= 1.86D-07 at cycle  12 NSaved=  12.
 NSaved=12 IEnMin=12 EnMin= -204.723546709626     IErMin=12 ErrMin= 1.86D-07
 ErrMax= 1.86D-07  0.00D+00 EMaxC= 1.00D-01 BMatC= 6.86D-12 BMatP= 1.20D-10
 IDIUse=1 WtCom= 1.00D+00 WtEn= 0.00D+00
 Coeff-Com:  0.241D-05-0.233D-04-0.561D-04-0.575D-04 0.149D-03 0.160D-02
 Coeff-Com: -0.206D-02-0.122D-01 0.386D-01 0.377D-01-0.473D+00 0.141D+01
 Coeff:      0.241D-05-0.233D-04-0.561D-04-0.575D-04 0.149D-03 0.160D-02
 Coeff:     -0.206D-02-0.122D-01 0.386D-01 0.377D-01-0.473D+00 0.141D+01
 Gap=     0.489 Goal=   None    Shift=    0.000
 RMSDP=3.16D-08 MaxDP=7.24D-07 DE=-3.74D-10 OVMax= 2.60D-06

 Cycle  13  Pass 1  IDiag  1:
 E= -204.723546709649     Delta-E=       -0.000000000022 Rises=F Damp=F
 DIIS: error= 4.48D-08 at cycle  13 NSaved=  13.
 NSaved=13 IEnMin=13 EnMin= -204.723546709649     IErMin=13 ErrMin= 4.48D-08
 ErrMax= 4.48D-08  0.00D+00 EMaxC= 1.00D-01 BMatC= 2.15D-13 BMatP= 6.86D-12
 IDIUse=1 WtCom= 1.00D+00 WtEn= 0.00D+00
 Coeff-Com: -0.444D-06 0.571D-05 0.138D-04-0.215D-04-0.895D-04-0.559D-04
 Coeff-Com:  0.756D-03-0.279D-03-0.526D-02 0.128D-01 0.253D-01-0.298D+00
 Coeff-Com:  0.127D+01
 Coeff:     -0.444D-06 0.571D-05 0.138D-04-0.215D-04-0.895D-04-0.559D-04
 Coeff:      0.756D-03-0.279D-03-0.526D-02 0.128D-01 0.253D-01-0.298D+00
 Coeff:      0.127D+01
 Gap=     0.489 Goal=   None    Shift=    0.000
 RMSDP=5.56D-09 MaxDP=9.44D-08 DE=-2.24D-11 OVMax= 4.32D-07

 SCF Done:  E(RHF) =  -204.723546710     A.U. after   13 cycles
            NFock= 13  Conv=0.56D-08     -V/T= 2.0024
 KE= 2.042341467404D+02 PE=-6.228837380090D+02 EE= 1.444569752338D+02
 Leave Link  502 at Mon Jan 31 11:56:09 2022, MaxMem= 16106127360 cpu:              33.9 elap:               1.7
 (Enter /sw/contrib/gaussian/g16/B01/g16/l801.exe)
 ExpMin= 2.53D-02 ExpMax= 1.53D+04 ExpMxC= 5.22D+02 IAcc=3 IRadAn=         5 AccDes= 0.00D+00
 HarFok:  IExCor=  205 AccDes= 0.00D+00 IRadAn=         5 IDoV=-2 UseB2=F ITyADJ=14
 ICtDFT= 12500011 ScaDFX=  1.000000  1.000000  1.000000  1.000000
 Largest valence mixing into a core orbital is  2.06D-04
 Largest core mixing into a valence orbital is  3.27D-05
 Range of M.O.s used for correlation:     4   161
 NBasis=   161 NAE=    12 NBE=    12 NFC=     3 NFV=     0
 NROrb=    158 NOA=     9 NOB=     9 NVA=   149 NVB=   149

 **** Warning!!: The largest alpha MO coefficient is  0.19793312D+02

 Leave Link  801 at Mon Jan 31 11:56:09 2022, MaxMem= 16106127360 cpu:               2.0 elap:               0.1
 (Enter /sw/contrib/gaussian/g16/B01/g16/l906.exe)
 Frozen-core derivative calculation, NFC=   3 NFV=   0.
 FulOut=F Deriv=T AODrv=F NAtomX=     4
   MMem=         161  MDisk=           9 MDiskD=           9
  W3Min=      367080 MinDsk=      792425 NBas6D=         190
 NBas2D=       18625    NTT=       18145    LW2=     3500000
    MDV= 16105788771 MDiskM=      423783 NBas2p=       18621
 Fully in-core method, ICMem=   359292905.
 IMap=   1   2   3   4   5   6   7   8   9  10  11  12
 JobTyp=1 Pass  1 fully in-core, NPsUse= 28.
 Compute canonical integrals.
 FoFCou: FMM=F IPFlag=           0 FMFlag=           0 FMFlg1=           0
         NFxFlg=           0 DoJE=F BraDBF=F KetDBF=F FulRan=T
         wScrn=  0.000000 ICntrl=       600 IOpCl=  1 I1Cent=           0 NGrid=           0
         NMat0=    1 NMatS0=  18625 NMatT0=    0 NMatD0=    1 NMtDS0=    0 NMtDT0=    0
 Symmetry not used in FoFCou.
 Spin components of T(2) and E(2):
     alpha-alpha T2 =       0.2530236451D-01 E2=     -0.9061857444D-01
     alpha-beta  T2 =       0.1373984425D+00 E2=     -0.5164602842D+00
     beta-beta   T2 =       0.2530236451D-01 E2=     -0.9061857444D-01
 The integrals were generated   1 times.
 ANorm=    0.1089955582D+01
 E2 =    -0.6976974331D+00 EUMP2 =    -0.20542124414276D+03
 Leave Link  906 at Mon Jan 31 11:56:12 2022, MaxMem= 16106127360 cpu:              90.9 elap:               3.3
 (Enter /sw/contrib/gaussian/g16/B01/g16/l1002.exe)
 Minotr:  Closed shell wavefunction.
          Computing MP2/KS-MP2 derivatives.
          Using Z-Vector for PSCF gradient.
          Skipping F1 and S1 gradient terms here.
          Frozen-core window.
          Direct CPHF calculation.
          Differentiating once with respect to electric field.
                with respect to dipole field.
          Electric field/nuclear overlap derivatives assumed to be zero.
          Using symmetry in CPHF.
          Requested convergence is 1.0D-10 RMS, and 1.0D-09 maximum.
          NewPWx=F KeepS1=T KeepF1=T KeepIn=T MapXYZ=F SortEE=F KeepMc=T.
 Keep R1 ints in memory in symmetry-blocked form, NReq=128071053.
 FoFCou: FMM=F IPFlag=           0 FMFlag=           0 FMFlg1=           0
         NFxFlg=           0 DoJE=F BraDBF=F KetDBF=F FulRan=T
         wScrn=  0.000000 ICntrl=       600 IOpCl=  0 I1Cent=           0 NGrid=           0
         NMat0=    1 NMatS0=  13041 NMatT0=    0 NMatD0=    1 NMtDS0=    0 NMtDT0=    0
 Petite list used in FoFCou.
          MDV=   16106127360 using IRadAn=       5.
          Solving linear equations separately, MaxMat=       0.
          There are     1 degrees of freedom in the 1st order CPHF.  IDoFFX=0 NUNeed=     1.
 LinEq1:  Iter=  0 NonCon=     1 RMS=6.63D-03 Max=1.32D-01 NDo=     1
 AX will form     1 AO Fock derivatives at one time.
 LinEq1:  Iter=  1 NonCon=     1 RMS=2.26D-03 Max=4.07D-02 NDo=     1
 LinEq1:  Iter=  2 NonCon=     1 RMS=9.17D-04 Max=1.20D-02 NDo=     1
 LinEq1:  Iter=  3 NonCon=     1 RMS=4.41D-04 Max=8.71D-03 NDo=     1
 LinEq1:  Iter=  4 NonCon=     1 RMS=1.38D-04 Max=1.57D-03 NDo=     1
 LinEq1:  Iter=  5 NonCon=     1 RMS=6.16D-05 Max=9.88D-04 NDo=     1
 LinEq1:  Iter=  6 NonCon=     1 RMS=2.33D-05 Max=2.68D-04 NDo=     1
 LinEq1:  Iter=  7 NonCon=     1 RMS=5.90D-06 Max=6.08D-05 NDo=     1
 LinEq1:  Iter=  8 NonCon=     1 RMS=1.43D-06 Max=1.67D-05 NDo=     1
 LinEq1:  Iter=  9 NonCon=     1 RMS=2.66D-07 Max=2.03D-06 NDo=     1
 LinEq1:  Iter= 10 NonCon=     1 RMS=4.93D-08 Max=4.10D-07 NDo=     1
 LinEq1:  Iter= 11 NonCon=     1 RMS=8.11D-09 Max=8.29D-08 NDo=     1
 LinEq1:  Iter= 12 NonCon=     1 RMS=1.09D-09 Max=6.93D-09 NDo=     1
 LinEq1:  Iter= 13 NonCon=     1 RMS=2.26D-10 Max=2.29D-09 NDo=     1
 LinEq1:  Iter= 14 NonCon=     0 RMS=4.29D-11 Max=3.80D-10 NDo=     1
 Linear equations converged to 1.000D-10 1.000D-09 after    14 iterations.
 End of Minotr F.D. properties file   721 does not exist.
 End of Minotr F.D. properties file   722 does not exist.
 End of Minotr F.D. properties file   788 does not exist.
 Leave Link 1002 at Mon Jan 31 11:56:14 2022, MaxMem= 16106127360 cpu:              34.5 elap:               1.8
 (Enter /sw/contrib/gaussian/g16/B01/g16/l601.exe)
 Copying SCF densities to generalized density rwf, IOpCl= 0 IROHF=0.

 **********************************************************************

            Population analysis using the MP2 Density.

 **********************************************************************

 Orbital symmetries:
       Occupied  (A') (A') (A') (A') (A') (A') (A') (A') (A") (A')
                 (A") (A')
       Virtual   (A') (A") (A') (A') (A") (A') (A') (A') (A") (A')
                 (A") (A') (A') (A") (A') (A') (A') (A') (A') (A")
                 (A') (A') (A") (A') (A') (A') (A") (A") (A') (A')
                 (A') (A") (A') (A") (A") (A') (A') (A") (A') (A')
                 (A') (A') (A') (A") (A") (A') (A') (A") (A') (A')
                 (A") (A') (A") (A') (A') (A") (A') (A") (A') (A")
                 (A') (A') (A") (A') (A') (A') (A") (A') (A") (A")
                 (A') (A') (A') (A") (A") (A') (A') (A') (A") (A")
                 (A') (A') (A') (A") (A') (A") (A') (A") (A') (A')
                 (A') (A') (A') (A") (A') (A") (A') (A") (A") (A')
                 (A') (A") (A') (A') (A') (A") (A') (A") (A") (A')
                 (A') (A") (A') (A') (A") (A') (A') (A") (A') (A')
                 (A') (A') (A") (A') (A") (A") (A') (A') (A") (A')
                 (A") (A") (A') (A") (A') (A") (A') (A") (A") (A')
                 (A') (A') (A') (A') (A') (A') (A') (A') (A')
 The electronic state is 1-A'.
 Alpha  occ. eigenvalues --  -20.66539 -20.64143 -15.79893  -1.60247  -1.40141
 Alpha  occ. eigenvalues --   -0.94971  -0.78488  -0.72895  -0.68120  -0.62379
 Alpha  occ. eigenvalues --   -0.52821  -0.46147
 Alpha virt. eigenvalues --    0.02786   0.08073   0.09410   0.09784   0.12916
 Alpha virt. eigenvalues --    0.14360   0.15679   0.17184   0.18704   0.19698
 Alpha virt. eigenvalues --    0.20575   0.23321   0.25891   0.29618   0.30796
 Alpha virt. eigenvalues --    0.33033   0.36425   0.38258   0.42461   0.52576
 Alpha virt. eigenvalues --    0.52597   0.54580   0.57221   0.61322   0.63189
 Alpha virt. eigenvalues --    0.64866   0.68052   0.71409   0.71800   0.74867
 Alpha virt. eigenvalues --    0.77624   0.77941   0.81045   0.81197   0.86107
 Alpha virt. eigenvalues --    0.87476   0.92581   0.93941   0.94559   0.99428
 Alpha virt. eigenvalues --    1.04741   1.06035   1.08039   1.10470   1.15990
 Alpha virt. eigenvalues --    1.19276   1.25854   1.26611   1.36491   1.43537
 Alpha virt. eigenvalues --    1.49362   1.52305   1.52710   1.54385   1.55809
 Alpha virt. eigenvalues --    1.60656   1.65785   1.72690   1.75330   1.82427
 Alpha virt. eigenvalues --    1.85372   1.96246   1.97209   1.99557   2.07282
 Alpha virt. eigenvalues --    2.13420   2.13478   2.17755   2.27053   2.31127
 Alpha virt. eigenvalues --    2.32857   2.37972   2.45103   2.46610   2.50254
 Alpha virt. eigenvalues --    2.50280   2.52161   2.54420   2.56187   2.60762
 Alpha virt. eigenvalues --    2.60792   2.66332   2.76887   2.78761   2.83766
 Alpha virt. eigenvalues --    2.93862   2.95112   3.11710   3.15990   3.18578
 Alpha virt. eigenvalues --    3.24083   3.44956   3.83685   3.85112   4.03266
 Alpha virt. eigenvalues --    4.17568   4.17594   4.21448   4.37315   4.37552
 Alpha virt. eigenvalues --    4.57238   4.62755   4.74923   4.81772   4.86765
 Alpha virt. eigenvalues --    4.88829   4.99903   5.00482   5.07673   5.08829
 Alpha virt. eigenvalues --    5.16758   5.24606   5.25207   5.32868   5.36675
 Alpha virt. eigenvalues --    5.37099   5.58184   5.66834   5.79235   5.98803
 Alpha virt. eigenvalues --    6.10058   6.44074   6.50810   6.51104   6.67169
 Alpha virt. eigenvalues --    6.71778   6.74012   6.84471   6.91704   7.07880
 Alpha virt. eigenvalues --    7.11842   7.18025   7.23688   7.25322   7.25656
 Alpha virt. eigenvalues --    7.33126   7.37891   7.43841   7.47770   7.60370
 Alpha virt. eigenvalues --    7.64586   7.70555   7.77794   7.97063   8.08427
 Alpha virt. eigenvalues --    8.42855  14.17969  15.14847  15.95816
          Condensed to atoms (all electrons):
               1          2          3          4
     1  H    0.588028   0.171959  -0.040525   0.012246
     2  O    0.171959   8.291390  -0.137834  -0.055455
     3  N   -0.040525  -0.137834   7.039732  -0.042850
     4  O    0.012246  -0.055455  -0.042850   8.265767
 Mulliken charges:
               1
     1  H    0.268292
     2  O   -0.270060
     3  N    0.181476
     4  O   -0.179708
 Sum of Mulliken charges =  -0.00000
 Mulliken charges with hydrogens summed into heavy atoms:
               1
     2  O   -0.001769
     3  N    0.181476
     4  O   -0.179708
 Electronic spatial extent (au):  <R**2>=            123.6415
 Charge=             -0.0000 electrons
 Dipole moment (field-independent basis, Debye):
    X=              1.7820    Y=              0.6215    Z=             -0.0000  Tot=              1.8873
 Quadrupole moment (field-independent basis, Debye-Ang):
   XX=            -13.5295   YY=            -18.7152   ZZ=            -16.4605
   XY=              0.4733   XZ=             -0.0000   YZ=              0.0000
 Traceless Quadrupole moment (field-independent basis, Debye-Ang):
   XX=              2.7056   YY=             -2.4801   ZZ=             -0.2254
   XY=              0.4733   XZ=             -0.0000   YZ=              0.0000
 Octapole moment (field-independent basis, Debye-Ang**2):
  XXX=             10.4623  YYY=             -0.9989  ZZZ=             -0.0000  XYY=             -0.9496
  XXY=             -0.5691  XXZ=              0.0000  XZZ=             -1.0034  YZZ=              0.2141
  YYZ=             -0.0000  XYZ=              0.0000
 Hexadecapole moment (field-independent basis, Debye-Ang**3):
 XXXX=            -70.8675 YYYY=            -39.6698 ZZZZ=            -13.9352 XXXY=             11.7127
 XXXZ=             -0.0000 YYYX=             11.9614 YYYZ=              0.0000 ZZZX=             -0.0000
 ZZZY=              0.0000 XXYY=            -22.1774 XXZZ=            -17.4792 YYZZ=             -8.7630
 XXYZ=              0.0000 YYXZ=             -0.0000 ZZXY=              4.2257
 N-N= 6.946906932508D+01 E-N=-6.234825543271D+02  KE= 2.052329296006D+02
 Symmetry A'   KE= 1.964073341186D+02
 Symmetry A"   KE= 8.825595482067D+00
 No NMR shielding tensors so no spin-rotation constants.
 Leave Link  601 at Mon Jan 31 11:56:14 2022, MaxMem= 16106127360 cpu:               4.6 elap:               0.2
 (Enter /sw/contrib/gaussian/g16/B01/g16/l9999.exe)
 1\1\GINC-N2206\SP\RMP2-FC\Aug-CC-pVTZ\H1N1O2\CGAVINH\31-Jan-2022\0\\#p
  SP mp2/aug-cc-pvtz density=current\\title\\0,1\H\O,1,0.97026274\N,2,1
 .42776435,1,103.62778541\O,3,1.17680217,2,110.70859147,1,180.,0\\Versi
 on=ES64L-G16RevB.01\State=1-A'\HF=-204.7235467\MP2=-205.4212441\RMSD=5
 .560e-09\Dipole=-0.0780205,0.,-0.7384051\Quadrupole=-1.413494,-0.16759
 33,1.5810873,0.,1.2641347,0.\PG=CS [SG(H1N1O2)]\\@


 HE THAT FOLLOWS NATURE IS NEVER LOST.

                             -- BACON
 Job cpu time:       0 days  0 hours  3 minutes 10.7 seconds.
 Elapsed time:       0 days  0 hours  0 minutes  8.3 seconds.
 File lengths (MBytes):  RWF=     16 Int=      0 D2E=      0 Chk=      8 Scr=      1
 Normal termination of Gaussian 16 at Mon Jan 31 11:56:14 2022.
