title                                                                   
SP        RMP2-FC                                                     Aug-CC-pVTZ         
Number of atoms                            I                4
Info1-9                                    I   N=           9
          29          20           0           0           0         110
           1           2           1
Full Title                                 C   N=           1
title       
Route                                      C   N=           4
#p SP mp2/aug-cc-pvtz density=current           
Charge                                     I                0
Multiplicity                               I                1
Number of electrons                        I               24
Number of alpha electrons                  I               12
Number of beta electrons                   I               12
Number of basis functions                  I              161
Number of independent functions            I              161
Number of point charges in /Mol/           I                0
Number of translation vectors              I                0
Atomic numbers                             I   N=           4
           1           8           7           8
Nuclear charges                            R   N=           4
  1.00000000E+00  8.00000000E+00  7.00000000E+00  8.00000000E+00
Current cartesian coordinates              R   N=          12
  3.32262982E+00 -2.73283507E-01 -7.61813129E-32  1.69199578E+00 -1.11165574E+00
  2.13711421E-31  4.53757056E-17  9.89963963E-01 -4.01761313E-31 -2.10732450E+00
  2.79597706E-01 -9.00347437E-32
Number of symbols in /Mol/                 I                0
Force Field                                I                0
Atom Types                                 C   N=           4
                                                
Int Atom Types                             I   N=           4
           0           0           0           0
MM charges                                 R   N=           4
  0.00000000E+00  0.00000000E+00  0.00000000E+00  0.00000000E+00
Integer atomic weights                     I   N=           4
           1          16          14          16
Real atomic weights                        R   N=           4
  1.00782504E+00  1.59949146E+01  1.40030740E+01  1.59949146E+01
Atom fragment info                         I   N=           4
           0           0           0           0
Atom residue num                           I   N=           4
           0           0           0           0
Nuclear spins                              I   N=           4
           1           0           2           0
Nuclear ZEff                               R   N=           4
 -1.00000000E+00 -5.60000000E+00 -4.55000000E+00 -5.60000000E+00
Nuclear ZNuc                               R   N=           4
  1.00000000E+00  8.00000000E+00  7.00000000E+00  8.00000000E+00
Nuclear QMom                               R   N=           4
  0.00000000E+00  0.00000000E+00  2.04400000E+00  0.00000000E+00
Nuclear GFac                               R   N=           4
  2.79284600E+00  0.00000000E+00  4.03761000E-01  0.00000000E+00
MicOpt                                     I   N=           4
          -1          -1          -1          -1
Number of residues                         I                0
Number of secondary structures             I                0
SymInf integers                            I   N=          26
           1           2           1           1           1           1
           1          -1           0           0           0           0
           0           0           0           0           0           0
           0           0           0           0           0           0
           0           0
RotTr to input orientation                 R   N=          12
 -4.57244682E-01  7.27747087E-17 -8.89340936E-01  8.89340936E-01  9.87950171E-16
 -4.57244682E-01  8.45348682E-16 -1.00000000E+00 -5.16456489E-16  1.76229702E+00
  0.00000000E+00  2.82999328E+00
Number of contracted shells                I               51
Number of primitive shells                 I               92
Pure/Cartesian d shells                    I                0
Pure/Cartesian f shells                    I                0
Highest angular momentum                   I                3
Largest degree of contraction              I                7
Shell types                                I   N=          51
           0           0           0           0           1           1
           1          -2          -2           0           0           0
           0           0           1           1           1           1
          -2          -2          -2          -3          -3           0
           0           0           0           0           1           1
           1           1          -2          -2          -2          -3
          -3           0           0           0           0           0
           1           1           1           1          -2          -2
          -2          -3          -3
Number of primitives per shell             I   N=          51
           3           1           1           1           1           1
           1           1           1           7           6           1
           1           1           3           1           1           1
           1           1           1           1           1           7
           6           1           1           1           3           1
           1           1           1           1           1           1
           1           7           6           1           1           1
           3           1           1           1           1           1
           1           1           1
Shell to atom map                          I   N=          51
           1           1           1           1           1           1
           1           1           1           2           2           2
           2           2           2           2           2           2
           2           2           2           2           2           3
           3           3           3           3           3           3
           3           3           3           3           3           3
           3           4           4           4           4           4
           4           4           4           4           4           4
           4           4           4
Primitive exponents                        R   N=          92
  3.38700000E+01  5.09500000E+00  1.15900000E+00  3.25800000E-01  1.02700000E-01
  2.52600000E-02  1.40700000E+00  3.88000000E-01  1.02000000E-01  1.05700000E+00
  2.47000000E-01  1.53300000E+04  2.29900000E+03  5.22400000E+02  1.47300000E+02
  4.75500000E+01  1.67600000E+01  6.20700000E+00  5.22400000E+02  1.47300000E+02
  4.75500000E+01  1.67600000E+01  6.20700000E+00  6.88200000E-01  1.75200000E+00
  2.38400000E-01  7.37600000E-02  3.44600000E+01  7.74900000E+00  2.28000000E+00
  7.15600000E-01  2.14000000E-01  5.97400000E-02  2.31400000E+00  6.45000000E-01
  2.14000000E-01  1.42800000E+00  5.00000000E-01  1.14200000E+04  1.71200000E+03
  3.89300000E+02  1.10000000E+02  3.55700000E+01  1.25400000E+01  4.64400000E+00
  3.89300000E+02  1.10000000E+02  3.55700000E+01  1.25400000E+01  4.64400000E+00
  5.11800000E-01  1.29300000E+00  1.78700000E-01  5.76000000E-02  2.66300000E+01
  5.94800000E+00  1.74200000E+00  5.55000000E-01  1.72500000E-01  4.91000000E-02
  1.65400000E+00  4.69000000E-01  1.51000000E-01  1.09300000E+00  3.64000000E-01
  1.53300000E+04  2.29900000E+03  5.22400000E+02  1.47300000E+02  4.75500000E+01
  1.67600000E+01  6.20700000E+00  5.22400000E+02  1.47300000E+02  4.75500000E+01
  1.67600000E+01  6.20700000E+00  6.88200000E-01  1.75200000E+00  2.38400000E-01
  7.37600000E-02  3.44600000E+01  7.74900000E+00  2.28000000E+00  7.15600000E-01
  2.14000000E-01  5.97400000E-02  2.31400000E+00  6.45000000E-01  2.14000000E-01
  1.42800000E+00  5.00000000E-01
Contraction coefficients                   R   N=          92
  2.54948632E-02  1.90362766E-01  8.52162022E-01  1.00000000E+00  1.00000000E+00
  1.00000000E+00  1.00000000E+00  1.00000000E+00  1.00000000E+00  1.00000000E+00
  1.00000000E+00  5.19808943E-04  4.02025621E-03  2.07128267E-02  8.10105536E-02
  2.35962985E-01  4.42653446E-01  3.57064423E-01 -4.42115008E-05 -1.22591041E-03
 -1.05517725E-02 -6.74452633E-02 -1.71198607E-01  1.07329856E+00  1.00000000E+00
  1.00000000E+00  1.00000000E+00  4.11634896E-02  2.57762836E-01  8.02419274E-01
  1.00000000E+00  1.00000000E+00  1.00000000E+00  1.00000000E+00  1.00000000E+00
  1.00000000E+00  1.00000000E+00  1.00000000E+00  5.34563860E-04  4.13435660E-03
  2.12335358E-02  8.25006224E-02  2.38138871E-01  4.42551547E-01  3.53757422E-01
 -4.89867350E-05 -1.19527323E-03 -1.03490714E-02 -6.48680190E-02 -1.71552477E-01
  1.07289568E+00  1.00000000E+00  1.00000000E+00  1.00000000E+00  3.98072123E-02
  2.49002660E-01  8.10479727E-01  1.00000000E+00  1.00000000E+00  1.00000000E+00
  1.00000000E+00  1.00000000E+00  1.00000000E+00  1.00000000E+00  1.00000000E+00
  5.19808943E-04  4.02025621E-03  2.07128267E-02  8.10105536E-02  2.35962985E-01
  4.42653446E-01  3.57064423E-01 -4.42115008E-05 -1.22591041E-03 -1.05517725E-02
 -6.74452633E-02 -1.71198607E-01  1.07329856E+00  1.00000000E+00  1.00000000E+00
  1.00000000E+00  4.11634896E-02  2.57762836E-01  8.02419274E-01  1.00000000E+00
  1.00000000E+00  1.00000000E+00  1.00000000E+00  1.00000000E+00  1.00000000E+00
  1.00000000E+00  1.00000000E+00
Coordinates of each shell                  R   N=         153
  3.32262982E+00 -2.73283507E-01  6.47106079E-32  3.32262982E+00 -2.73283507E-01
  6.47106079E-32  3.32262982E+00 -2.73283507E-01  6.47106079E-32  3.32262982E+00
 -2.73283507E-01  6.47106079E-32  3.32262982E+00 -2.73283507E-01  6.47106079E-32
  3.32262982E+00 -2.73283507E-01  6.47106079E-32  3.32262982E+00 -2.73283507E-01
  6.47106079E-32  3.32262982E+00 -2.73283507E-01  6.47106079E-32  3.32262982E+00
 -2.73283507E-01  6.47106079E-32  1.69199578E+00 -1.11165574E+00  1.98719019E-31
  1.69199578E+00 -1.11165574E+00  1.98719019E-31  1.69199578E+00 -1.11165574E+00
  1.98719019E-31  1.69199578E+00 -1.11165574E+00  1.98719019E-31  1.69199578E+00
 -1.11165574E+00  1.98719019E-31  1.69199578E+00 -1.11165574E+00  1.98719019E-31
  1.69199578E+00 -1.11165574E+00  1.98719019E-31  1.69199578E+00 -1.11165574E+00
  1.98719019E-31  1.69199578E+00 -1.11165574E+00  1.98719019E-31  1.69199578E+00
 -1.11165574E+00  1.98719019E-31  1.69199578E+00 -1.11165574E+00  1.98719019E-31
  1.69199578E+00 -1.11165574E+00  1.98719019E-31  1.69199578E+00 -1.11165574E+00
  1.98719019E-31  1.69199578E+00 -1.11165574E+00  1.98719019E-31 -2.46480525E-17
  9.89963963E-01 -1.68744627E-31 -2.46480525E-17  9.89963963E-01 -1.68744627E-31
 -2.46480525E-17  9.89963963E-01 -1.68744627E-31 -2.46480525E-17  9.89963963E-01
 -1.68744627E-31 -2.46480525E-17  9.89963963E-01 -1.68744627E-31 -2.46480525E-17
  9.89963963E-01 -1.68744627E-31 -2.46480525E-17  9.89963963E-01 -1.68744627E-31
 -2.46480525E-17  9.89963963E-01 -1.68744627E-31 -2.46480525E-17  9.89963963E-01
 -1.68744627E-31 -2.46480525E-17  9.89963963E-01 -1.68744627E-31 -2.46480525E-17
  9.89963963E-01 -1.68744627E-31 -2.46480525E-17  9.89963963E-01 -1.68744627E-31
 -2.46480525E-17  9.89963963E-01 -1.68744627E-31 -2.46480525E-17  9.89963963E-01
 -1.68744627E-31 -2.10732450E+00  2.79597706E-01 -5.91562966E-32 -2.10732450E+00
  2.79597706E-01 -5.91562966E-32 -2.10732450E+00  2.79597706E-01 -5.91562966E-32
 -2.10732450E+00  2.79597706E-01 -5.91562966E-32 -2.10732450E+00  2.79597706E-01
 -5.91562966E-32 -2.10732450E+00  2.79597706E-01 -5.91562966E-32 -2.10732450E+00
  2.79597706E-01 -5.91562966E-32 -2.10732450E+00  2.79597706E-01 -5.91562966E-32
 -2.10732450E+00  2.79597706E-01 -5.91562966E-32 -2.10732450E+00  2.79597706E-01
 -5.91562966E-32 -2.10732450E+00  2.79597706E-01 -5.91562966E-32 -2.10732450E+00
  2.79597706E-01 -5.91562966E-32 -2.10732450E+00  2.79597706E-01 -5.91562966E-32
 -2.10732450E+00  2.79597706E-01 -5.91562966E-32
Num ILSW                                   I              100
ILSW                                       I   N=         100
           0           0           0           0           2           0
           0           0           0           0           0          -1
           5           0           0           0           0           0
           0           0           0           0           0           0
           1           0           0           0           0           0
           0           0      100000           0          -1           0
           0           0           0           0           0           0
           0           0           0           1           0           0
           0 -2000000000           1           0           0           0
           0           0           4          52           0           0
           0           0           0           0           0           0
           0           0           0           4           0           1
           0           0           0           0           0           0
           0           0           0           0           0           0
           0           0           0           0           0           0
           0           0           0           0           0           0
           0           0           0           0
Num RLSW                                   I               52
RLSW                                       R   N=          52
  1.00000000E+00  1.00000000E+00  1.00000000E+00  1.00000000E+00  1.00000000E+00
  0.00000000E+00  0.00000000E+00  1.00000000E+00  0.00000000E+00  0.00000000E+00
  0.00000000E+00  0.00000000E+00  1.00000000E+00  0.00000000E+00  0.00000000E+00
  0.00000000E+00  0.00000000E+00  1.00000000E+00  0.00000000E+00  0.00000000E+00
  0.00000000E+00  0.00000000E+00  1.00000000E+00  0.00000000E+00  0.00000000E+00
  0.00000000E+00  0.00000000E+00  1.00000000E+00  0.00000000E+00  0.00000000E+00
  0.00000000E+00  0.00000000E+00  1.00000000E+00  0.00000000E+00  0.00000000E+00
  0.00000000E+00  0.00000000E+00  0.00000000E+00  1.00000000E+00  1.00000000E+00
  0.00000000E+00  1.00000000E+00  0.00000000E+00  0.00000000E+00  0.00000000E+00
  0.00000000E+00  0.00000000E+00  0.00000000E+00  0.00000000E+00  0.00000000E+00
  0.00000000E+00  0.00000000E+00
MxBond                                     I                2
NBond                                      I   N=           4
           1           2           2           1
IBond                                      I   N=           8
           2           0           1           3           2           4
           3           0
RBond                                      R   N=           8
  1.00000000E+00  0.00000000E+00  1.00000000E+00  1.00000000E+00  1.00000000E+00
  2.00000000E+00  2.00000000E+00  0.00000000E+00
Virial Ratio                               R      2.002349733349402E+00
SCF Energy                                 R     -2.047234018581896E+02
MP2 Energy                                 R     -2.054213343256985E+02
Total Energy                               R     -2.054213343256985E+02
Post-SCF wavefunction norm                 R      1.089992429984371E+00
RMS Density                                R      5.451528275851775E-09
Job Status                                 I                1
Nuclear derivative order                   I                0
External E-field                           R   N=          35
  0.00000000E+00  0.00000000E+00  0.00000000E+00  0.00000000E+00  0.00000000E+00
  0.00000000E+00  0.00000000E+00  0.00000000E+00  0.00000000E+00  0.00000000E+00
  0.00000000E+00  0.00000000E+00  0.00000000E+00  0.00000000E+00  0.00000000E+00
  0.00000000E+00  0.00000000E+00  0.00000000E+00  0.00000000E+00  0.00000000E+00
  0.00000000E+00  0.00000000E+00  0.00000000E+00  0.00000000E+00  0.00000000E+00
  0.00000000E+00  0.00000000E+00  0.00000000E+00  0.00000000E+00  0.00000000E+00
  0.00000000E+00  0.00000000E+00  0.00000000E+00  0.00000000E+00  0.00000000E+00
IOpCl                                      I                0
IROHF                                      I                0
Alpha Orbital Energies                     R   N=         161
 -2.06650368E+01 -2.06420593E+01 -1.57988412E+01 -1.60314300E+00 -1.40203277E+00
 -9.48459825E-01 -7.84326162E-01 -7.29507414E-01 -6.81609472E-01 -6.24861610E-01
 -5.28218211E-01 -4.62359557E-01  2.80144964E-02  8.02646904E-02  9.40021218E-02
  9.75176276E-02  1.28878840E-01  1.43711107E-01  1.56898289E-01  1.72061422E-01
  1.87291153E-01  1.96561797E-01  2.05631745E-01  2.33564922E-01  2.58141472E-01
  2.96527169E-01  3.07832886E-01  3.29735188E-01  3.65744429E-01  3.82564717E-01
  4.23932979E-01  5.25420237E-01  5.25978968E-01  5.47874827E-01  5.72822112E-01
  6.13688217E-01  6.31133960E-01  6.48827933E-01  6.80288450E-01  7.13906588E-01
  7.17963930E-01  7.48098184E-01  7.75172340E-01  7.81659022E-01  8.11959748E-01
  8.11989729E-01  8.61191187E-01  8.78378368E-01  9.26315930E-01  9.39293096E-01
  9.44878598E-01  9.95393794E-01  1.04942859E+00  1.06332038E+00  1.08161079E+00
  1.10686057E+00  1.16011142E+00  1.19562473E+00  1.25218884E+00  1.26769962E+00
  1.36194974E+00  1.43642069E+00  1.48942358E+00  1.52239288E+00  1.52426824E+00
  1.54474908E+00  1.55498200E+00  1.60962373E+00  1.65844871E+00  1.72929028E+00
  1.75232706E+00  1.82323731E+00  1.85556310E+00  1.96177468E+00  1.97539000E+00
  1.99766055E+00  2.07320991E+00  2.13224238E+00  2.13315098E+00  2.18765976E+00
  2.27220607E+00  2.30962665E+00  2.33119387E+00  2.38130211E+00  2.45155995E+00
  2.46845351E+00  2.49939920E+00  2.50199813E+00  2.52261371E+00  2.54402645E+00
  2.57061513E+00  2.60705964E+00  2.60935361E+00  2.66472151E+00  2.76977852E+00
  2.77651395E+00  2.83485223E+00  2.93847432E+00  2.95369054E+00  3.11414607E+00
  3.14828070E+00  3.18205448E+00  3.24921159E+00  3.46117687E+00  3.83141864E+00
  3.85451265E+00  4.03077548E+00  4.16989780E+00  4.18239703E+00  4.21311010E+00
  4.36520804E+00  4.37404167E+00  4.57913424E+00  4.63262205E+00  4.74622087E+00
  4.81940262E+00  4.87208797E+00  4.88740316E+00  4.97941861E+00  5.00216675E+00
  5.07331287E+00  5.08542240E+00  5.16888001E+00  5.24843736E+00  5.25966262E+00
  5.33248072E+00  5.36970462E+00  5.38096383E+00  5.58053251E+00  5.66810485E+00
  5.79440563E+00  5.98891551E+00  6.12027190E+00  6.43496469E+00  6.50830325E+00
  6.51147681E+00  6.67552148E+00  6.71715454E+00  6.74489073E+00  6.85055521E+00
  6.91462096E+00  7.06965065E+00  7.12025628E+00  7.17944606E+00  7.23330071E+00
  7.25591513E+00  7.25676795E+00  7.33166178E+00  7.37814845E+00  7.43333212E+00
  7.47875457E+00  7.60851205E+00  7.64649920E+00  7.70533947E+00  7.78944714E+00
  7.98275528E+00  8.07124661E+00  8.42555299E+00  1.42133059E+01  1.51105567E+01
  1.59849049E+01
Alpha MO coefficients                      R   N=       25921
  5.75307872E-05  1.91452581E-04 -3.66383097E-04  4.61055817E-06 -5.42295452E-05
  1.02271803E-05  0.00000000E+00  4.91889027E-05  5.04949356E-05  0.00000000E+00
  2.63055328E-04  1.27488667E-05  0.00000000E+00  2.08744771E-05  0.00000000E+00
  0.00000000E+00  1.18811092E-05  8.26916386E-06  5.05328101E-05  0.00000000E+00
  0.00000000E+00 -3.42757220E-05  1.86191935E-05 -8.10718719E-04  8.00174123E-05
 -5.87316900E-05 -1.06040638E-04  2.06836821E-04  1.70292350E-05 -1.68677844E-05
  0.00000000E+00 -8.45335911E-05  4.36840601E-05  0.00000000E+00 -1.32747133E-04
  4.76114561E-05  0.00000000E+00 -1.20380992E-04  5.16689160E-05  0.00000000E+00
 -9.08515275E-06  0.00000000E+00  0.00000000E+00  2.78386582E-05  9.86588909E-06
  4.80206541E-06  0.00000000E+00  0.00000000E+00 -1.02855698E-04 -1.15668275E-04
 -1.44182944E-05  0.00000000E+00  0.00000000E+00 -8.46439998E-05 -2.30903586E-04
  0.00000000E+00  2.71476217E-06  2.35962967E-06  0.00000000E+00  0.00000000E+00
 -7.64039414E-06 -1.51369830E-05  0.00000000E+00 -1.93564040E-05 -1.84827714E-05
  0.00000000E+00  0.00000000E+00  1.89318747E-04 -5.23351866E-05  2.49081873E-04
  1.41609062E-03 -1.03011756E-04 -1.50683760E-03  3.87940704E-04 -1.13490621E-04
 -6.46000409E-05  0.00000000E+00 -2.03263320E-03 -5.71496713E-04  0.00000000E+00
  1.12039168E-03 -7.19424300E-05  0.00000000E+00 -1.10303078E-04 -9.61973947E-05
  0.00000000E+00 -1.24898253E-04  0.00000000E+00  0.00000000E+00  2.12302565E-04
  1.47465929E-04 -4.40988632E-04  0.00000000E+00  0.00000000E+00  5.41391643E-04
  7.91380535E-04 -4.08589536E-06  0.00000000E+00  0.00000000E+00 -1.64779176E-04
 -1.52487554E-04  0.00000000E+00  1.20901540E-05 -1.26891307E-05  0.00000000E+00
  0.00000000E+00  1.52129489E-05  1.54202756E-05  0.00000000E+00  1.44876947E-04
  1.30319092E-04  0.00000000E+00  0.00000000E+00 -2.20795567E-05 -2.89705441E-04
  9.76650019E-01 -9.86490731E-03  4.35639918E-02  4.26544313E-03 -5.33718906E-04
  2.10213836E-03  5.84935008E-04  0.00000000E+00 -2.40456978E-03 -6.06369920E-04
  0.00000000E+00  9.85427931E-04  5.49564066E-04  0.00000000E+00 -5.31575107E-05
  3.05417637E-05  0.00000000E+00 -2.29576103E-04  0.00000000E+00  0.00000000E+00
  7.62238715E-05  5.59755312E-05  3.86794509E-04  0.00000000E+00  0.00000000E+00
 -8.17282618E-04 -4.54028507E-04 -1.61712185E-04  0.00000000E+00  0.00000000E+00
  1.77228419E-04  2.46482118E-04  0.00000000E+00  5.53341600E-05  1.08297494E-05
  0.00000000E+00  0.00000000E+00 -1.64241772E-05 -2.43368177E-05  0.00000000E+00
  1.22758130E-04  4.83686975E-05  0.00000000E+00  0.00000000E+00 -1.55892646E-04
 -1.57066773E-04  4.75013251E-04  2.48302530E-03  3.44246944E-04 -6.78815738E-06
 -2.25258610E-04 -1.06899773E-04  0.00000000E+00 -9.96371431E-04 -8.72756837E-04
  0.00000000E+00 -9.49936971E-05 -4.22921815E-04  0.00000000E+00  1.14407086E-05
  0.00000000E+00  0.00000000E+00 -4.78258569E-05 -5.43398030E-05 -1.55000738E-04
  0.00000000E+00  0.00000000E+00  1.68804944E-04  4.16765146E-04  9.76754608E-01
 -9.25369945E-03  4.35554000E-02  8.14836480E-04 -8.94928914E-04  4.21732190E-04
  1.84041454E-03  0.00000000E+00 -2.20865686E-04 -1.83469168E-03  0.00000000E+00
 -1.51274236E-03  3.23291505E-04  0.00000000E+00 -5.63623806E-05  3.29759379E-05
  0.00000000E+00 -4.21782969E-05  0.00000000E+00  0.00000000E+00  3.72878670E-05
  4.67712287E-05  6.51880906E-04  0.00000000E+00  0.00000000E+00 -3.06451792E-04
  2.47025500E-04 -9.20317623E-05  0.00000000E+00  0.00000000E+00 -2.80333404E-04
 -3.78874947E-04  0.00000000E+00 -3.06887254E-05  4.55684557E-05  0.00000000E+00
  0.00000000E+00 -1.29038241E-05 -3.98166291E-06  0.00000000E+00  9.44980200E-05
  5.37876586E-05  0.00000000E+00  0.00000000E+00 -2.25485867E-04 -2.27272555E-04
  5.96774895E-05  1.62824714E-04 -3.19092842E-04 -3.80460208E-04  8.57885318E-04
 -8.30205478E-05  7.74129156E-05  0.00000000E+00  7.07234136E-04 -6.52848043E-04
  0.00000000E+00 -3.89917003E-04  5.42565515E-04  0.00000000E+00  1.57391459E-04
 -1.72765802E-04  0.00000000E+00 -3.47545452E-05  0.00000000E+00  0.00000000E+00
 -3.44592817E-05 -4.99154281E-05 -3.99061414E-04  0.00000000E+00  0.00000000E+00
 -1.67470658E-04 -9.26501734E-04 -1.86431363E-04  0.00000000E+00  0.00000000E+00
  5.47477169E-04 -5.95367341E-05  0.00000000E+00 -8.66513092E-05  9.87812481E-05
  0.00000000E+00  0.00000000E+00 -1.47728735E-04 -5.74987703E-05  0.00000000E+00
 -5.32323174E-05  1.20653813E-04  0.00000000E+00  0.00000000E+00 -4.23661788E-04
  2.17371357E-05  8.45490279E-04  5.13218542E-05  2.26076169E-05 -2.66086458E-04
 -1.86524798E-04 -1.46674771E-05  2.16064258E-05  0.00000000E+00  1.12351322E-04
 -1.22907609E-04  0.00000000E+00  4.17884708E-04 -4.20845705E-04  0.00000000E+00
 -4.39028663E-06  5.51205115E-07  0.00000000E+00 -5.62879930E-06  0.00000000E+00
  0.00000000E+00 -1.29302302E-05 -1.12916313E-05  3.55269211E-06  0.00000000E+00
  0.00000000E+00  1.39507062E-04 -2.73768035E-05 -6.32455745E-05  0.00000000E+00
  0.00000000E+00  2.60934346E-04 -1.14805869E-05  0.00000000E+00  3.53971004E-06
  9.75815241E-06  0.00000000E+00  0.00000000E+00 -1.31140884E-05 -9.47654908E-06
  0.00000000E+00  1.30836589E-05 -5.01768479E-05  0.00000000E+00  0.00000000E+00
  1.17092446E-04  7.83165476E-05 -7.66839779E-05 -5.47375160E-04 -3.52412427E-04
  2.06767481E-04  3.67316240E-05  3.34219724E-05  0.00000000E+00  4.77483239E-04
 -3.26779468E-04  0.00000000E+00  3.11691367E-04 -3.18428870E-04  0.00000000E+00
 -1.33347656E-05  0.00000000E+00  0.00000000E+00 -3.83184078E-05  2.92980384E-05
  1.08902830E-04  0.00000000E+00  0.00000000E+00 -2.96743723E-05  1.74138714E-04
 -1.26238511E-04 -2.11104937E-04 -2.08819373E-04  4.96987690E-03  3.26052274E-03
  9.34690965E-06 -4.04964198E-05  0.00000000E+00 -5.22067485E-04  8.55627339E-04
  0.00000000E+00 -2.31474815E-03  3.08019001E-03  0.00000000E+00 -8.17079234E-04
  5.67932122E-04  0.00000000E+00  3.62860427E-07  0.00000000E+00  0.00000000E+00
 -3.19698169E-05 -4.36662199E-05 -4.47908165E-04  0.00000000E+00  0.00000000E+00
 -3.61103990E-05 -5.23218527E-04 -6.07664863E-04  0.00000000E+00  0.00000000E+00
 -3.00344579E-04 -9.14461498E-04  0.00000000E+00  1.95040355E-05 -2.11970662E-05
  0.00000000E+00  0.00000000E+00  3.90124955E-05  3.26312132E-05  0.00000000E+00
  9.02915935E-05 -1.45595248E-04  0.00000000E+00  0.00000000E+00  2.67124352E-05
  2.32560080E-04  9.78281162E-01 -8.40595312E-03  4.17821960E-02 -5.39222193E-03
 -3.03209101E-03 -1.08819963E-03 -3.03709493E-03  0.00000000E+00 -1.03408304E-04
  2.97977632E-03  0.00000000E+00  3.96815749E-04  3.04772265E-03  0.00000000E+00
 -4.27807979E-05  5.41056288E-04  0.00000000E+00 -4.38031779E-04  0.00000000E+00
  0.00000000E+00  2.35067915E-04  2.33049050E-04  1.02489935E-03  0.00000000E+00
  0.00000000E+00 -1.52573372E-04  2.93970213E-04  3.54913262E-04  0.00000000E+00
  0.00000000E+00  1.23350389E-04  5.37937396E-05  0.00000000E+00  8.94146687E-05
 -6.90222367E-05  0.00000000E+00  0.00000000E+00 -5.96235097E-05 -1.37401884E-05
  0.00000000E+00 -2.21546851E-04 -2.28571640E-04  0.00000000E+00  0.00000000E+00
  4.47964641E-04  2.54481738E-04 -1.90102753E-04  9.14167742E-04  1.56348251E-04
  2.96094767E-03  8.60298180E-04  2.61518477E-04  1.25651674E-04  0.00000000E+00
  8.69338388E-04  2.75708793E-04  0.00000000E+00  1.21690604E-03 -1.33847394E-04
  0.00000000E+00  2.70349980E-06  3.98444474E-05  0.00000000E+00 -3.95428286E-05
  0.00000000E+00  0.00000000E+00  7.03418288E-05  8.53683301E-05  7.27248176E-05
  0.00000000E+00  0.00000000E+00  4.44054518E-06 -2.74722138E-04 -3.95307400E-05
  0.00000000E+00  0.00000000E+00  2.88013751E-04 -1.34955974E-04  0.00000000E+00
  9.22097631E-05  3.71059808E-05  0.00000000E+00  0.00000000E+00 -5.22953494E-05
 -1.13221635E-04  0.00000000E+00  1.55081934E-04  1.24681093E-04  0.00000000E+00
  0.00000000E+00  3.21063974E-05 -3.55720948E-04  2.11805906E-02  1.72572842E-02
 -1.56713826E-03  4.58653446E-04 -3.24581915E-03 -8.94165691E-04  0.00000000E+00
 -2.66884164E-03 -9.75400608E-04  0.00000000E+00  2.32043785E-03  2.41138751E-04
  0.00000000E+00 -2.45584334E-04  0.00000000E+00  0.00000000E+00  4.21694419E-04
  2.74986498E-04  2.62896650E-04  0.00000000E+00  0.00000000E+00  3.98436181E-04
  5.10666717E-04 -6.65677114E-02  1.61269968E-01  4.29623604E-02  9.29728298E-02
  7.80593526E-03 -1.51306515E-02  2.35371496E-02  0.00000000E+00 -2.03338662E-02
  3.38803816E-02  0.00000000E+00 -1.18124683E-02  1.06508327E-02  0.00000000E+00
 -1.98111344E-03 -1.83175647E-03  0.00000000E+00 -1.83493977E-03  0.00000000E+00
  0.00000000E+00  7.83840194E-05 -1.81713061E-03 -4.14533581E-03  0.00000000E+00
  0.00000000E+00  7.52521168E-04 -4.36865804E-03  1.03231802E-03  0.00000000E+00
  0.00000000E+00  1.36385159E-04 -1.59328862E-03  0.00000000E+00  4.65346425E-04
 -8.94479844E-04  0.00000000E+00  0.00000000E+00  7.25669151E-04  1.31416596E-03
  0.00000000E+00 -2.51845224E-04  5.44144588E-04  0.00000000E+00  0.00000000E+00
 -2.31831101E-04  1.69981792E-04 -1.30047291E-01  3.07398986E-01  8.09592179E-02
  6.32978943E-02  4.49340476E-04 -7.31886283E-02 -4.76877835E-02  0.00000000E+00
 -7.66710497E-02 -6.55056472E-02  0.00000000E+00 -3.32480076E-03  8.81305419E-03
  0.00000000E+00 -7.56311879E-05  3.16531388E-03  0.00000000E+00 -9.29225504E-03
  0.00000000E+00  0.00000000E+00  8.38737253E-03  6.41900261E-03 -1.14704588E-02
  0.00000000E+00  0.00000000E+00  9.04587806E-03  6.12899986E-03  6.18148689E-03
  0.00000000E+00  0.00000000E+00 -1.79568026E-04  5.23337024E-04  0.00000000E+00
  2.48230758E-03  2.45724655E-03  0.00000000E+00  0.00000000E+00 -4.74916738E-03
 -5.51446502E-03  0.00000000E+00 -1.35396523E-03 -4.29496835E-04  0.00000000E+00
  0.00000000E+00  8.98346090E-04 -1.70248731E-05 -1.50028179E-01  3.58809339E-01
  9.61695787E-02  1.79074025E-01 -1.50861752E-02  7.96535840E-02  2.23172891E-02
  0.00000000E+00  1.01001273E-01  2.80341190E-02  0.00000000E+00  1.75362465E-02
  3.44672610E-03  0.00000000E+00 -8.57665160E-03 -2.43820078E-03  0.00000000E+00
 -5.16106728E-03  0.00000000E+00  0.00000000E+00  7.23029136E-03  4.56142900E-03
 -9.47028275E-03  0.00000000E+00  0.00000000E+00  1.49196615E-02  9.59861513E-03
  2.52147668E-03  0.00000000E+00  0.00000000E+00 -3.63216449E-03 -2.60884955E-03
  0.00000000E+00 -3.14034235E-03 -8.88891057E-04  0.00000000E+00  0.00000000E+00
  3.25120031E-03  3.67583402E-03  0.00000000E+00 -9.59451702E-05 -2.69091745E-04
  0.00000000E+00  0.00000000E+00  9.90361326E-04  1.93812921E-03  8.03115797E-02
  7.88512373E-02 -2.07056990E-02 -2.88175689E-03 -1.17766326E-02 -4.75136194E-03
  0.00000000E+00 -1.47410060E-02 -1.36204862E-03  0.00000000E+00  7.71858759E-03
  2.26699484E-03  0.00000000E+00 -1.32493940E-03  0.00000000E+00  0.00000000E+00
  2.24108737E-03  1.19588734E-03  4.02662447E-04  0.00000000E+00  0.00000000E+00
  2.18172318E-03 -1.36229479E-03 -1.81386662E-01  4.41887681E-01  1.20578911E-01
  2.57715561E-01  1.14301091E-02  1.61386488E-02  3.79056726E-02  0.00000000E+00