title                                                                   
SP        RMP2-FC                                                     Aug-CC-pVTZ         
Number of atoms                            I                4
Info1-9                                    I   N=           9
          29          20           0           0           0         110
           1           2           1
Full Title                                 C   N=           1
title       
Route                                      C   N=           4
#p SP mp2/aug-cc-pvtz density=current           
Charge                                     I                0
Multiplicity                               I                1
Number of electrons                        I               24
Number of alpha electrons                  I               12
Number of beta electrons                   I               12
Number of basis functions                  I              161
Number of independent functions            I              161
Number of point charges in /Mol/           I                0
Number of translation vectors              I                0
Atomic numbers                             I   N=           4
           1           8           7           8
Nuclear charges                            R   N=           4
  1.00000000E+00  8.00000000E+00  7.00000000E+00  8.00000000E+00
Current cartesian coordinates              R   N=          12
 -3.22796686E+00  8.41457561E-01  4.72103461E-02 -1.96935220E+00 -4.90824327E-01
 -5.22516980E-03  3.25227075E-01  9.28527337E-01 -6.59307215E-03  2.08827437E+00
 -4.26819289E-01  5.09281466E-03
Number of symbols in /Mol/                 I                0
Force Field                                I                0
Atom Types                                 C   N=           4
                                                
Int Atom Types                             I   N=           4
           0           0           0           0
MM charges                                 R   N=           4
  0.00000000E+00  0.00000000E+00  0.00000000E+00  0.00000000E+00
Integer atomic weights                     I   N=           4
           1          16          14          16
Real atomic weights                        R   N=           4
  1.00782504E+00  1.59949146E+01  1.40030740E+01  1.59949146E+01
Atom fragment info                         I   N=           4
           0           0           0           0
Atom residue num                           I   N=           4
           0           0           0           0
Nuclear spins                              I   N=           4
           1           0           2           0
Nuclear ZEff                               R   N=           4
 -1.00000000E+00 -5.60000000E+00 -4.55000000E+00 -5.60000000E+00
Nuclear ZNuc                               R   N=           4
  1.00000000E+00  8.00000000E+00  7.00000000E+00  8.00000000E+00
Nuclear QMom                               R   N=           4
  0.00000000E+00  0.00000000E+00  2.04400000E+00  0.00000000E+00
Nuclear GFac                               R   N=           4
  2.79284600E+00  0.00000000E+00  4.03761000E-01  0.00000000E+00
MicOpt                                     I   N=           4
          -1          -1          -1          -1
Number of residues                         I                0
Number of secondary structures             I                0
SymInf integers                            I   N=          26
           1           1           1           1           1           0
           0           0           0           0           0           0
           0           0           0           0           0           0
           0           0           0           0           0           0
           0           0
RotTr to input orientation                 R   N=          12
  7.27013216E-01  1.57356204E-02  6.86443132E-01  6.86602488E-01 -2.44754744E-02
 -7.26620929E-01  5.36719018E-03  9.99576581E-01 -2.85981095E-02  1.76877433E+00
  2.41987778E-02  2.82858648E+00
Number of contracted shells                I               51
Number of primitive shells                 I               92
Pure/Cartesian d shells                    I                0
Pure/Cartesian f shells                    I                0
Highest angular momentum                   I                3
Largest degree of contraction              I                7
Shell types                                I   N=          51
           0           0           0           0           1           1
           1          -2          -2           0           0           0
           0           0           1           1           1           1
          -2          -2          -2          -3          -3           0
           0           0           0           0           1           1
           1           1          -2          -2          -2          -3
          -3           0           0           0           0           0
           1           1           1           1          -2          -2
          -2          -3          -3
Number of primitives per shell             I   N=          51
           3           1           1           1           1           1
           1           1           1           7           6           1
           1           1           3           1           1           1
           1           1           1           1           1           7
           6           1           1           1           3           1
           1           1           1           1           1           1
           1           7           6           1           1           1
           3           1           1           1           1           1
           1           1           1
Shell to atom map                          I   N=          51
           1           1           1           1           1           1
           1           1           1           2           2           2
           2           2           2           2           2           2
           2           2           2           2           2           3
           3           3           3           3           3           3
           3           3           3           3           3           3
           3           4           4           4           4           4
           4           4           4           4           4           4
           4           4           4
Primitive exponents                        R   N=          92
  3.38700000E+01  5.09500000E+00  1.15900000E+00  3.25800000E-01  1.02700000E-01
  2.52600000E-02  1.40700000E+00  3.88000000E-01  1.02000000E-01  1.05700000E+00
  2.47000000E-01  1.53300000E+04  2.29900000E+03  5.22400000E+02  1.47300000E+02
  4.75500000E+01  1.67600000E+01  6.20700000E+00  5.22400000E+02  1.47300000E+02
  4.75500000E+01  1.67600000E+01  6.20700000E+00  6.88200000E-01  1.75200000E+00
  2.38400000E-01  7.37600000E-02  3.44600000E+01  7.74900000E+00  2.28000000E+00
  7.15600000E-01  2.14000000E-01  5.97400000E-02  2.31400000E+00  6.45000000E-01
  2.14000000E-01  1.42800000E+00  5.00000000E-01  1.14200000E+04  1.71200000E+03
  3.89300000E+02  1.10000000E+02  3.55700000E+01  1.25400000E+01  4.64400000E+00
  3.89300000E+02  1.10000000E+02  3.55700000E+01  1.25400000E+01  4.64400000E+00
  5.11800000E-01  1.29300000E+00  1.78700000E-01  5.76000000E-02  2.66300000E+01
  5.94800000E+00  1.74200000E+00  5.55000000E-01  1.72500000E-01  4.91000000E-02
  1.65400000E+00  4.69000000E-01  1.51000000E-01  1.09300000E+00  3.64000000E-01
  1.53300000E+04  2.29900000E+03  5.22400000E+02  1.47300000E+02  4.75500000E+01
  1.67600000E+01  6.20700000E+00  5.22400000E+02  1.47300000E+02  4.75500000E+01
  1.67600000E+01  6.20700000E+00  6.88200000E-01  1.75200000E+00  2.38400000E-01
  7.37600000E-02  3.44600000E+01  7.74900000E+00  2.28000000E+00  7.15600000E-01
  2.14000000E-01  5.97400000E-02  2.31400000E+00  6.45000000E-01  2.14000000E-01
  1.42800000E+00  5.00000000E-01
Contraction coefficients                   R   N=          92
  2.54948632E-02  1.90362766E-01  8.52162022E-01  1.00000000E+00  1.00000000E+00
  1.00000000E+00  1.00000000E+00  1.00000000E+00  1.00000000E+00  1.00000000E+00
  1.00000000E+00  5.19808943E-04  4.02025621E-03  2.07128267E-02  8.10105536E-02
  2.35962985E-01  4.42653446E-01  3.57064423E-01 -4.42115008E-05 -1.22591041E-03
 -1.05517725E-02 -6.74452633E-02 -1.71198607E-01  1.07329856E+00  1.00000000E+00
  1.00000000E+00  1.00000000E+00  4.11634896E-02  2.57762836E-01  8.02419274E-01
  1.00000000E+00  1.00000000E+00  1.00000000E+00  1.00000000E+00  1.00000000E+00
  1.00000000E+00  1.00000000E+00  1.00000000E+00  5.34563860E-04  4.13435660E-03
  2.12335358E-02  8.25006224E-02  2.38138871E-01  4.42551547E-01  3.53757422E-01
 -4.89867350E-05 -1.19527323E-03 -1.03490714E-02 -6.48680190E-02 -1.71552477E-01
  1.07289568E+00  1.00000000E+00  1.00000000E+00  1.00000000E+00  3.98072123E-02
  2.49002660E-01  8.10479727E-01  1.00000000E+00  1.00000000E+00  1.00000000E+00
  1.00000000E+00  1.00000000E+00  1.00000000E+00  1.00000000E+00  1.00000000E+00
  5.19808943E-04  4.02025621E-03  2.07128267E-02  8.10105536E-02  2.35962985E-01
  4.42653446E-01  3.57064423E-01 -4.42115008E-05 -1.22591041E-03 -1.05517725E-02
 -6.74452633E-02 -1.71198607E-01  1.07329856E+00  1.00000000E+00  1.00000000E+00
  1.00000000E+00  4.11634896E-02  2.57762836E-01  8.02419274E-01  1.00000000E+00
  1.00000000E+00  1.00000000E+00  1.00000000E+00  1.00000000E+00  1.00000000E+00
  1.00000000E+00  1.00000000E+00
Coordinates of each shell                  R   N=         153
 -3.22796686E+00  8.41457561E-01  4.72103461E-02 -3.22796686E+00  8.41457561E-01
  4.72103461E-02 -3.22796686E+00  8.41457561E-01  4.72103461E-02 -3.22796686E+00
  8.41457561E-01  4.72103461E-02 -3.22796686E+00  8.41457561E-01  4.72103461E-02
 -3.22796686E+00  8.41457561E-01  4.72103461E-02 -3.22796686E+00  8.41457561E-01
  4.72103461E-02 -3.22796686E+00  8.41457561E-01  4.72103461E-02 -3.22796686E+00
  8.41457561E-01  4.72103461E-02 -1.96935220E+00 -4.90824327E-01 -5.22516980E-03
 -1.96935220E+00 -4.90824327E-01 -5.22516980E-03 -1.96935220E+00 -4.90824327E-01
 -5.22516980E-03 -1.96935220E+00 -4.90824327E-01 -5.22516980E-03 -1.96935220E+00
 -4.90824327E-01 -5.22516980E-03 -1.96935220E+00 -4.90824327E-01 -5.22516980E-03
 -1.96935220E+00 -4.90824327E-01 -5.22516980E-03 -1.96935220E+00 -4.90824327E-01
 -5.22516980E-03 -1.96935220E+00 -4.90824327E-01 -5.22516980E-03 -1.96935220E+00
 -4.90824327E-01 -5.22516980E-03 -1.96935220E+00 -4.90824327E-01 -5.22516980E-03
 -1.96935220E+00 -4.90824327E-01 -5.22516980E-03 -1.96935220E+00 -4.90824327E-01
 -5.22516980E-03 -1.96935220E+00 -4.90824327E-01 -5.22516980E-03  3.25227075E-01
  9.28527337E-01 -6.59307215E-03  3.25227075E-01  9.28527337E-01 -6.59307215E-03
  3.25227075E-01  9.28527337E-01 -6.59307215E-03  3.25227075E-01  9.28527337E-01
 -6.59307215E-03  3.25227075E-01  9.28527337E-01 -6.59307215E-03  3.25227075E-01
  9.28527337E-01 -6.59307215E-03  3.25227075E-01  9.28527337E-01 -6.59307215E-03
  3.25227075E-01  9.28527337E-01 -6.59307215E-03  3.25227075E-01  9.28527337E-01
 -6.59307215E-03  3.25227075E-01  9.28527337E-01 -6.59307215E-03  3.25227075E-01
  9.28527337E-01 -6.59307215E-03  3.25227075E-01  9.28527337E-01 -6.59307215E-03
  3.25227075E-01  9.28527337E-01 -6.59307215E-03  3.25227075E-01  9.28527337E-01
 -6.59307215E-03  2.08827437E+00 -4.26819289E-01  5.09281466E-03  2.08827437E+00
 -4.26819289E-01  5.09281466E-03  2.08827437E+00 -4.26819289E-01  5.09281466E-03
  2.08827437E+00 -4.26819289E-01  5.09281466E-03  2.08827437E+00 -4.26819289E-01
  5.09281466E-03  2.08827437E+00 -4.26819289E-01  5.09281466E-03  2.08827437E+00
 -4.26819289E-01  5.09281466E-03  2.08827437E+00 -4.26819289E-01  5.09281466E-03
  2.08827437E+00 -4.26819289E-01  5.09281466E-03  2.08827437E+00 -4.26819289E-01
  5.09281466E-03  2.08827437E+00 -4.26819289E-01  5.09281466E-03  2.08827437E+00
 -4.26819289E-01  5.09281466E-03  2.08827437E+00 -4.26819289E-01  5.09281466E-03
  2.08827437E+00 -4.26819289E-01  5.09281466E-03
Num ILSW                                   I              100
ILSW                                       I   N=         100
           0           0           0           0           2           0
           0           0           0           0           0          -1
           5           0           0           0           0           0
           0           0           0           0           0           0
           1           0           0           0           0           0
           0           0      100000           0          -1           0
           0           0           0           0           0           0
           0           0           0           1           0           0
           0 -2000000000           1           0           0           0
           0           0           4          52           0           0
           0           0           0           0           0           0
           0           0           0           4           0           1
           0           0           0           0           0           0
           0           0           0           0           0           0
           0           0           0           0           0           0
           0           0           0           0           0           0
           0           0           0           0
Num RLSW                                   I               52
RLSW                                       R   N=          52
  1.00000000E+00  1.00000000E+00  1.00000000E+00  1.00000000E+00  1.00000000E+00
  0.00000000E+00  0.00000000E+00  1.00000000E+00  0.00000000E+00  0.00000000E+00
  0.00000000E+00  0.00000000E+00  1.00000000E+00  0.00000000E+00  0.00000000E+00
  0.00000000E+00  0.00000000E+00  1.00000000E+00  0.00000000E+00  0.00000000E+00
  0.00000000E+00  0.00000000E+00  1.00000000E+00  0.00000000E+00  0.00000000E+00
  0.00000000E+00  0.00000000E+00  1.00000000E+00  0.00000000E+00  0.00000000E+00
  0.00000000E+00  0.00000000E+00  1.00000000E+00  0.00000000E+00  0.00000000E+00
  0.00000000E+00  0.00000000E+00  0.00000000E+00  1.00000000E+00  1.00000000E+00
  0.00000000E+00  1.00000000E+00  0.00000000E+00  0.00000000E+00  0.00000000E+00
  0.00000000E+00  0.00000000E+00  0.00000000E+00  0.00000000E+00  0.00000000E+00
  0.00000000E+00  0.00000000E+00
MxBond                                     I                2
NBond                                      I   N=           4
           1           2           2           1
IBond                                      I   N=           8
           2           0           1           3           2           4
           3           0
RBond                                      R   N=           8
  1.00000000E+00  0.00000000E+00  1.00000000E+00  1.00000000E+00  1.00000000E+00
  2.00000000E+00  2.00000000E+00  0.00000000E+00
Virial Ratio                               R      2.002366206484007E+00
SCF Energy                                 R     -2.047233818174241E+02
MP2 Energy                                 R     -2.054213325182188E+02
Total Energy                               R     -2.054213325182188E+02
Post-SCF wavefunction norm                 R      1.090006879352333E+00
RMS Density                                R      5.487444067998193E-09
Job Status                                 I                1
Nuclear derivative order                   I                0
External E-field                           R   N=          35
  0.00000000E+00  0.00000000E+00  0.00000000E+00  0.00000000E+00  0.00000000E+00
  0.00000000E+00  0.00000000E+00  0.00000000E+00  0.00000000E+00  0.00000000E+00
  0.00000000E+00  0.00000000E+00  0.00000000E+00  0.00000000E+00  0.00000000E+00
  0.00000000E+00  0.00000000E+00  0.00000000E+00  0.00000000E+00  0.00000000E+00
  0.00000000E+00  0.00000000E+00  0.00000000E+00  0.00000000E+00  0.00000000E+00
  0.00000000E+00  0.00000000E+00  0.00000000E+00  0.00000000E+00  0.00000000E+00
  0.00000000E+00  0.00000000E+00  0.00000000E+00  0.00000000E+00  0.00000000E+00
IOpCl                                      I                0
IROHF                                      I                0
Alpha Orbital Energies                     R   N=         161
 -2.06653224E+01 -2.06423639E+01 -1.57987510E+01 -1.60279597E+00 -1.40263095E+00
 -9.48535202E-01 -7.84131147E-01 -7.29803470E-01 -6.81588758E-01 -6.25396208E-01
 -5.28571161E-01 -4.61755858E-01  2.79913783E-02  8.04389918E-02  9.39595122E-02
  9.75643731E-02  1.28859730E-01  1.43667968E-01  1.56896303E-01  1.72130705E-01
  1.87223422E-01  1.96596165E-01  2.05571961E-01  2.33484357E-01  2.57932443E-01
  2.96298487E-01  3.07898737E-01  3.29792267E-01  3.65730957E-01  3.82422097E-01
  4.23900372E-01  5.24587603E-01  5.26940094E-01  5.48080765E-01  5.73260110E-01
  6.13023480E-01  6.31301771E-01  6.48043104E-01  6.80318157E-01  7.14328233E-01
  7.17952926E-01  7.47946253E-01  7.74773049E-01  7.81688547E-01  8.10961331E-01
  8.12416661E-01  8.61121845E-01  8.78713878E-01  9.25739892E-01  9.38956628E-01
  9.45173807E-01  9.95253209E-01  1.04951816E+00  1.06294360E+00  1.08103407E+00
  1.10576812E+00  1.16088399E+00  1.19623606E+00  1.25212634E+00  1.26900492E+00
  1.36169039E+00  1.43347050E+00  1.48890533E+00  1.52295173E+00  1.52444087E+00
  1.54442094E+00  1.55402340E+00  1.60938646E+00  1.65834697E+00  1.72886731E+00
  1.75475796E+00  1.82239850E+00  1.85608030E+00  1.96089018E+00  1.97592686E+00
  1.99818007E+00  2.07469780E+00  2.12917747E+00  2.13676674E+00  2.18824678E+00
  2.27114186E+00  2.30826110E+00  2.32909287E+00  2.38083746E+00  2.45121568E+00
  2.47007999E+00  2.49861757E+00  2.50270652E+00  2.52129261E+00  2.54425938E+00
  2.56928302E+00  2.60566959E+00  2.61012032E+00  2.66217794E+00  2.77147567E+00
  2.77774108E+00  2.83983331E+00  2.93755909E+00  2.95233146E+00  3.11517341E+00
  3.14689430E+00  3.18281006E+00  3.24726851E+00  3.46116043E+00  3.83048348E+00
  3.85542340E+00  4.02878106E+00  4.17028773E+00  4.18239206E+00  4.21399954E+00
  4.36332699E+00  4.37273550E+00  4.58153672E+00  4.63320249E+00  4.74700212E+00
  4.81793843E+00  4.87130782E+00  4.88775802E+00  4.97983714E+00  5.00199158E+00
  5.07371846E+00  5.08683701E+00  5.17094289E+00  5.24639120E+00  5.25777515E+00
  5.33339557E+00  5.36634128E+00  5.37716266E+00  5.57959345E+00  5.66790805E+00
  5.79364678E+00  5.98819621E+00  6.11958948E+00  6.43482095E+00  6.50709229E+00
  6.51003295E+00  6.67446810E+00  6.71550183E+00  6.74543756E+00  6.84764191E+00
  6.91677273E+00  7.06909276E+00  7.11956483E+00  7.17968545E+00  7.23357355E+00
  7.25594219E+00  7.25825969E+00  7.33186604E+00  7.37990044E+00  7.43297604E+00
  7.47875511E+00  7.60802268E+00  7.64778266E+00  7.69926776E+00  7.79123037E+00
  7.98206784E+00  8.07086864E+00  8.42432782E+00  1.42007526E+01  1.51280334E+01
  1.59719380E+01
Alpha MO coefficients                      R   N=       25921
  5.69929977E-05  1.93596385E-04 -3.73685216E-04  4.60599793E-06  5.50614840E-05
 -8.17109781E-06 -7.10515733E-07 -2.40709135E-05  7.04982198E-05 -6.41185987E-06
 -2.43115953E-04  1.02660324E-04 -4.36383627E-06  2.09092463E-05 -2.38820453E-06
 -4.92509777E-07  5.63361804E-06 -1.39282011E-05  5.22869384E-05 -3.62432991E-06
 -2.67935046E-06 -3.62387816E-05  5.89824309E-06 -8.04269872E-04  7.93373529E-05
 -6.05401480E-05 -9.03496756E-05  2.19708946E-04 -2.30578893E-05 -1.03184271E-05
 -1.69218805E-09  9.92926135E-05  1.37958934E-05  3.59503381E-07  1.51173124E-04
 -9.74521690E-06  4.10399107E-06  1.28656010E-04  1.03334752E-05  3.59383043E-06
 -8.91454133E-06  1.95249192E-07 -7.87417493E-08  1.46097173E-05 -2.50478664E-05
  2.07301606E-06 -1.11162671E-06  3.85220061E-07  3.35175247E-07  1.55447537E-04
 -1.66681422E-05  6.75369226E-07  1.26665112E-06  9.09854576E-05  2.31403617E-04
  3.69679840E-07 -3.08073796E-06  3.01917513E-06  2.72419851E-07  1.81421539E-07
 -7.76029856E-06 -1.42216186E-05 -2.11590475E-07  1.33285046E-05 -2.32936980E-05
 -1.01613327E-06  4.86098737E-07 -1.44713840E-04  1.36529369E-04  2.49347207E-04
  1.41895181E-03 -1.01641289E-04 -1.53267814E-03  3.79043203E-04  8.53434653E-05
 -9.82879110E-05  9.86468582E-07  1.74304487E-03 -1.20268169E-03  8.81945109E-06
 -1.09790087E-03  3.13341757E-04  7.03575130E-07  7.70685474E-05 -1.25208189E-04
  1.69477914E-06 -1.25275157E-04  2.00696246E-06 -1.35614034E-06  7.66937371E-05
 -2.46370329E-04 -4.38475041E-04  7.47568919E-06 -6.15233034E-06 -6.23063176E-05
 -9.62967999E-04 -1.41158051E-06 -6.51959278E-06  1.50282333E-06 -3.28175024E-05
  2.20529221E-04  4.04179828E-07 -1.62158274E-05 -7.95550613E-06 -4.12421275E-07
  1.10815388E-07  4.23790810E-06  2.16318921E-05 -4.06420802E-06 -9.34520304E-05
  1.68980243E-04  1.74744122E-06 -4.16764187E-06 -2.35453564E-04 -1.74658732E-04
  9.76650749E-01 -9.86491524E-03  4.35628404E-02  4.27884887E-03 -5.29898628E-04
 -1.80275878E-03  1.23081557E-03 -1.34274837E-05  2.08232285E-03 -1.35000680E-03
  1.30939538E-05 -7.50400742E-04  8.46083852E-04 -6.08939044E-06  5.86071929E-05
  1.09236561E-05  2.25490126E-08 -2.29170730E-04  1.02360741E-06 -2.07087362E-06
  2.54323885E-05 -9.14552620E-05  3.87351187E-04 -8.25194110E-06  3.08822341E-06
 -3.71077665E-04  8.60479312E-04 -1.59710186E-04  2.95913887E-06 -2.12516936E-06
 -1.63091496E-05 -3.04660562E-04 -8.06577068E-07 -4.85960210E-05  2.83464395E-05
  6.61564421E-08 -7.98561128E-07 -1.14798949E-05 -2.74317563E-05 -1.56161548E-06
 -1.01617402E-04  8.50118845E-05  1.48377378E-06 -2.22701805E-06 -4.44671535E-05
 -2.17189839E-04  4.73930142E-04  2.47204895E-03  3.46892739E-04 -7.40690127E-06
  1.76191578E-04 -1.74544516E-04 -7.06664570E-06  6.45449672E-04 -1.15000320E-03
 -4.39555789E-05 -5.26738670E-05 -4.31092080E-04 -1.01632137E-05  1.19413258E-05
  1.75386477E-06 -5.71269692E-07 -2.76683140E-06  7.27398291E-05 -1.54475322E-04
 -1.30306221E-05  1.96726276E-05 -1.29316884E-04 -4.28357826E-04  9.76754777E-01
 -9.25281084E-03  4.35551437E-02  8.31612810E-04 -9.04857759E-04  2.19474216E-04
  1.87431702E-03  3.93853876E-05 -4.08375322E-04 -1.80126469E-03 -3.71538213E-05
  1.53006133E-03 -1.89799921E-04 -2.48165291E-05  6.56416456E-05  1.00800844E-05
 -2.68692106E-07 -4.21951583E-05 -2.02089171E-06  1.89552271E-06 -8.53176523E-07
 -5.90767302E-05  6.50002706E-04  2.21940492E-05 -1.97007223E-05 -3.94729686E-04
 -3.60322843E-06 -9.03808004E-05  5.64191654E-06 -4.18973802E-06  1.42306994E-05
  4.72642656E-04  3.37548325E-07  4.41543592E-05  3.28085678E-05  9.19019175E-07
  8.24217459E-08  4.00387789E-06 -1.32337858E-05  6.62873082E-06 -6.97498493E-05
  8.12762611E-05 -3.01117585E-06  9.28660672E-06 -7.56419872E-05 -3.10937695E-04
  5.96473693E-05  1.62508502E-04 -3.19810076E-04 -3.68234888E-04  8.67719379E-04
  1.04544155E-04  4.54242681E-05  4.73952279E-07 -8.86689187E-04 -3.83007471E-04
 -2.45307868E-06  5.71663604E-04  3.81010848E-04  4.84146238E-06 -2.10170799E-04
 -1.11802312E-04  3.65878526E-06 -3.46927738E-05 -2.28253213E-07  1.06569220E-07
  3.89278928E-06  6.05016843E-05 -3.99950917E-04  7.47433077E-07 -1.95861271E-07
  4.52339591E-04  8.29332303E-04 -1.87216971E-04 -8.62194937E-06  2.65536904E-06
  4.67730186E-04 -2.99533238E-04  7.08542550E-08  1.14974828E-04  6.44333236E-05
 -8.82872419E-08  3.33860164E-07  2.91191138E-05 -1.56028378E-04 -2.58875165E-06
  8.92694383E-05  9.54145329E-05  1.74125699E-06  1.30800268E-07  2.44949044E-04
 -3.50182921E-04  8.38445255E-04  4.68522410E-05  2.08884125E-05 -2.84884703E-04
 -1.89937134E-04  2.17227084E-05  1.59975984E-05  3.93053932E-07 -1.47423731E-04
 -8.31131836E-05 -2.86261837E-06 -5.36674623E-04 -2.70040269E-04  6.48168367E-06
  7.01033788E-06  4.61811341E-07 -5.95287946E-07 -5.30789207E-06  2.07022523E-09
  1.19820892E-07 -3.54050399E-06  1.66160200E-05  1.15883460E-06  1.19107659E-06
 -3.02339248E-07  1.30398199E-04 -6.17442106E-05 -6.67329621E-05  1.14959265E-06
  2.37094384E-06  2.15426620E-04 -1.47768802E-04  1.17312115E-07  5.04214859E-07
  1.04603637E-05 -9.31177864E-08 -2.51276102E-07 -1.51392810E-06 -1.63568720E-05
 -1.73075840E-07 -2.83753031E-05 -4.41681828E-05 -1.35947082E-07  8.07498902E-07
  1.33637222E-06  1.38879223E-04 -7.57797720E-05 -4.99004371E-04 -3.34356093E-04
  2.06821889E-04 -2.25796244E-05  4.29804000E-05  1.36568829E-06 -5.58037681E-04
 -1.58925915E-04  1.20400949E-05 -4.00605626E-04 -1.99489704E-04  1.44624581E-06
 -1.35350366E-05  1.60509499E-06  4.86217460E-07 -4.94635802E-05  9.70635850E-07
  1.12383405E-04  7.71583971E-06  4.81824793E-07 -1.35144398E-04 -1.16998038E-04
 -1.26151165E-04 -2.10313773E-04 -2.07990688E-04  4.95709674E-03  3.24981848E-03
 -2.22760469E-05 -3.54819003E-05 -7.29903791E-07  7.77723562E-04  6.34645535E-04
  2.23476329E-06  3.26671879E-03  2.10960108E-03  4.80516775E-07  9.63303086E-04
  2.59874979E-04 -3.99053592E-06  1.50025311E-07  2.99643648E-07 -9.11690229E-07
  2.89988514E-06  5.35416285E-05 -4.46004814E-04 -1.75025958E-06  4.92918980E-06
  2.97600985E-04  4.34670906E-04 -6.05951726E-04  1.48877222E-06  3.92292609E-06
  3.53557484E-04  9.16952627E-04  1.05860015E-07 -2.49195524E-05 -1.38823987E-05
  7.64330186E-07 -7.38488237E-07  6.77876295E-06  5.02611294E-05 -2.44939296E-06
 -1.35910021E-04 -1.05066275E-04 -6.54165941E-06 -6.79823580E-07  1.82784649E-04
  1.43101009E-04  9.78281068E-01 -8.40008959E-03  4.17862512E-02 -5.49109123E-03
 -3.05015915E-03  3.24919951E-05 -3.23046031E-03  1.33978603E-05  1.07670457E-03
  2.78149852E-03 -9.32585192E-06  5.95590554E-04  3.04812152E-03 -3.47261463E-06
  2.16307351E-04  5.01379194E-04 -3.83697913E-07 -4.39382851E-04  3.06596984E-06
 -3.53569347E-06  4.43330466E-05 -3.28936066E-04  1.03041707E-03 -1.95632489E-06
  3.78416581E-06 -3.22711647E-04 -1.27556115E-04  3.60548567E-04 -1.01888407E-05
  6.34974536E-06  6.61846952E-05 -1.11330585E-04  2.67387845E-07 -1.07538156E-04
 -3.52303619E-05  1.52230642E-07 -4.12157139E-07  2.31866874E-05 -5.64796182E-05
 -1.48983261E-06  1.36867467E-04 -2.89836184E-04  2.93371006E-06  9.89187260E-07
 -2.63975040E-05  5.26103557E-04 -1.89184436E-04  9.19701908E-04  1.57496558E-04
  3.02569151E-03  8.88501963E-04 -2.06565254E-04  2.03220764E-04 -4.35064321E-07
 -7.36570966E-04  5.48873075E-04 -9.89816006E-06 -1.21431013E-03  2.75252027E-04
 -4.95110898E-06  5.20800133E-06  3.75234992E-05  2.01213102E-06 -3.97594695E-05
  4.74662315E-07 -2.01436368E-07  3.45538773E-06 -1.10739406E-04  7.36853786E-05
  1.58080766E-06 -7.21905974E-07  1.69949171E-04  2.13655677E-04 -3.62912952E-05
  1.26219009E-06  3.40675708E-07  3.11634171E-04 -7.14284121E-05 -1.31427012E-06
 -7.50667813E-05  6.49242280E-05 -1.01714337E-07 -1.64773143E-06 -6.60079522E-05
 -1.05988179E-04 -2.05997004E-06 -1.08356708E-04  1.69706463E-04  7.28981988E-08
 -3.41438658E-06 -3.13967857E-04 -1.67479979E-04  2.11358767E-02  1.71966758E-02
 -1.61074093E-03  4.60922237E-04  2.75407354E-03 -1.91506282E-03 -8.93499927E-05
  2.11184241E-03 -1.83273187E-03 -7.97193636E-05 -2.17743594E-03  9.66897630E-04
 -1.02384306E-05 -2.39833482E-04 -1.81764532E-05  1.20282379E-05  1.40968772E-04
 -4.77826383E-04  2.79038236E-04  1.27730558E-05 -1.00092837E-05 -5.12664252E-05
 -6.52465519E-04 -6.63283465E-02  1.60700270E-01  4.28171736E-02  9.26636089E-02
  7.77041828E-03  2.19704185E-02  1.71390238E-02  2.45043433E-04  3.02585436E-02
  2.51282528E-02  3.64188868E-04  1.46824523E-02  6.06984983E-03  4.98266853E-05
  1.31088848E-03 -2.39462968E-03  1.53551675E-05 -1.82697473E-03 -2.05445916E-05
  3.37868655E-05  1.19713650E-03  1.36262894E-03 -4.11468408E-03 -3.45781215E-05
  1.07927903E-04  3.29412065E-03  2.88155095E-03  1.03138876E-03  2.80066586E-05
 -2.75268084E-05  1.11199803E-03  1.13795155E-03 -2.44585682E-05 -7.26602320E-04
 -6.82584879E-04 -9.23576856E-06 -2.53934161E-05  7.30783724E-04  1.29724478E-03
 -1.56376358E-05  4.22238688E-04  4.24800883E-04 -1.56493318E-05  1.33103070E-05
  2.84595514E-04 -1.23499683E-04 -1.30094283E-01  3.07494451E-01  8.09889884E-02
  6.34869988E-02  4.80108394E-04  5.37837342E-02 -6.87524202E-02  5.09236734E-04
  5.12482254E-02 -8.67026056E-02  5.94544095E-04  6.01279875E-03  7.29579336E-03
  9.08350944E-05  1.09909001E-03  2.97744599E-03 -1.27253716E-05 -9.28869386E-03
  9.34760229E-05 -9.27699690E-05  2.71384467E-03 -1.02546866E-02 -1.14709843E-02
  9.58450886E-05 -1.04360093E-04  3.48715410E-03 -1.04485526E-02  6.16942075E-03
 -6.69096859E-05  4.48070601E-05 -4.58473703E-04 -3.19577819E-04 -4.75274746E-05
 -1.54868653E-03  3.12059224E-03  2.22618762E-05 -5.91096358E-05 -2.06057729E-03
 -7.01402818E-03  2.88605464E-07  1.15521630E-03 -8.60272624E-04  1.59875223E-05
  3.58925282E-07 -5.21176085E-04  7.44135979E-04 -1.50178187E-01  3.59183199E-01
  9.62815828E-02  1.79293892E-01 -1.50761754E-02 -6.80644214E-02  4.70303363E-02
 -3.90992024E-04 -8.64039641E-02  5.93708699E-02 -5.12287254E-04 -1.55239216E-02
  8.89238032E-03 -1.12839679E-04  7.30790390E-03 -5.11058362E-03  5.09993520E-05
 -5.15927595E-03  7.16238134E-05 -5.15477685E-05  2.90724038E-03 -8.04117634E-03
 -9.47298019E-03  1.55104174E-04 -1.01874285E-04  5.89838101E-03 -1.67380986E-02
  2.50958915E-03 -1.83697706E-05  2.78092921E-05 -1.21537167E-03  4.33152544E-03
  4.21667161E-05  2.68151327E-03 -1.85969277E-03 -2.40621749E-05  5.40237806E-05
  1.29573688E-03  4.73498495E-03  1.00247774E-05  8.80364377E-06 -2.87725644E-04
 -9.45367101E-06  1.17302255E-05  1.06674393E-03  1.88664187E-03  8.02792912E-02
  7.88847231E-02 -2.06588275E-02 -2.88295669E-03  9.52543384E-03 -8.39078168E-03
 -3.57244657E-04  1.35049926E-02 -6.17791049E-03 -3.95754692E-04 -6.47211088E-03
  4.71042386E-03  2.41269252E-04 -1.32467371E-03 -1.15288029E-04  7.25601445E-05
  1.00410350E-03 -2.33681665E-03  3.91456291E-04 -3.20674808E-05 -3.56032295E-05
  2.57850302E-03 -3.07721061E-04 -1.81441264E-01  4.42011714E-01  1.20606916E-01
  2.57783648E-01  1.14264799E-02 -2.46377572E-03  4.11413131E-02  9.12929118E-04