title                                                                   
SP        RMP2-FC                                                     Aug-CC-pVTZ         
Number of atoms                            I                4
Info1-9                                    I   N=           9
          29          20           0           0           0         110
           1           2           1
Full Title                                 C   N=           1
title       
Route                                      C   N=           4
#p SP mp2/aug-cc-pvtz density=current           
Charge                                     I                0
Multiplicity                               I                1
Number of electrons                        I               24
Number of alpha electrons                  I               12
Number of beta electrons                   I               12
Number of basis functions                  I              161
Number of independent functions            I              161
Number of point charges in /Mol/           I                0
Number of translation vectors              I                0
Atomic numbers                             I   N=           4
           1           8           7           8
Nuclear charges                            R   N=           4
  1.00000000E+00  8.00000000E+00  7.00000000E+00  8.00000000E+00
Current cartesian coordinates              R   N=          12
  3.33889843E+00 -3.01935661E-01  1.92108375E-31  1.69506697E+00 -1.11412620E+00
  1.82771561E-31  1.59673954E-16  9.85017210E-01 -1.72286460E-31 -2.11242927E+00
  2.89978098E-01 -6.63749112E-33
Number of symbols in /Mol/                 I                0
Force Field                                I                0
Atom Types                                 C   N=           4
                                                
Int Atom Types                             I   N=           4
           0           0           0           0
MM charges                                 R   N=           4
  0.00000000E+00  0.00000000E+00  0.00000000E+00  0.00000000E+00
Integer atomic weights                     I   N=           4
           1          16          14          16
Real atomic weights                        R   N=           4
  1.00782504E+00  1.59949146E+01  1.40030740E+01  1.59949146E+01
Atom fragment info                         I   N=           4
           0           0           0           0
Atom residue num                           I   N=           4
           0           0           0           0
Nuclear spins                              I   N=           4
           1           0           2           0
Nuclear ZEff                               R   N=           4
 -1.00000000E+00 -5.60000000E+00 -4.55000000E+00 -5.60000000E+00
Nuclear ZNuc                               R   N=           4
  1.00000000E+00  8.00000000E+00  7.00000000E+00  8.00000000E+00
Nuclear QMom                               R   N=           4
  0.00000000E+00  0.00000000E+00  2.04400000E+00  0.00000000E+00
Nuclear GFac                               R   N=           4
  2.79284600E+00  0.00000000E+00  4.03761000E-01  0.00000000E+00
MicOpt                                     I   N=           4
          -1          -1          -1          -1
Number of residues                         I                0
Number of secondary structures             I                0
SymInf integers                            I   N=          26
           1           2           1           1           1           1
           1          -1           0           0           0           0
           0           0           0           0           0           0
           0           0           0           0           0           0
           0           0
RotTr to input orientation                 R   N=          12
 -4.42965298E-01 -1.43598874E-17 -8.96538758E-01  8.96538758E-01  5.26543809E-16
 -4.42965298E-01  4.78427864E-16 -1.00000000E+00 -2.20366439E-16  1.74971316E+00
  0.00000000E+00  2.85970484E+00
Number of contracted shells                I               51
Number of primitive shells                 I               92
Pure/Cartesian d shells                    I                0
Pure/Cartesian f shells                    I                0
Highest angular momentum                   I                3
Largest degree of contraction              I                7
Shell types                                I   N=          51
           0           0           0           0           1           1
           1          -2          -2           0           0           0
           0           0           1           1           1           1
          -2          -2          -2          -3          -3           0
           0           0           0           0           1           1
           1           1          -2          -2          -2          -3
          -3           0           0           0           0           0
           1           1           1           1          -2          -2
          -2          -3          -3
Number of primitives per shell             I   N=          51
           3           1           1           1           1           1
           1           1           1           7           6           1
           1           1           3           1           1           1
           1           1           1           1           1           7
           6           1           1           1           3           1
           1           1           1           1           1           1
           1           7           6           1           1           1
           3           1           1           1           1           1
           1           1           1
Shell to atom map                          I   N=          51
           1           1           1           1           1           1
           1           1           1           2           2           2
           2           2           2           2           2           2
           2           2           2           2           2           3
           3           3           3           3           3           3
           3           3           3           3           3           3
           3           4           4           4           4           4
           4           4           4           4           4           4
           4           4           4
Primitive exponents                        R   N=          92
  3.38700000E+01  5.09500000E+00  1.15900000E+00  3.25800000E-01  1.02700000E-01
  2.52600000E-02  1.40700000E+00  3.88000000E-01  1.02000000E-01  1.05700000E+00
  2.47000000E-01  1.53300000E+04  2.29900000E+03  5.22400000E+02  1.47300000E+02
  4.75500000E+01  1.67600000E+01  6.20700000E+00  5.22400000E+02  1.47300000E+02
  4.75500000E+01  1.67600000E+01  6.20700000E+00  6.88200000E-01  1.75200000E+00
  2.38400000E-01  7.37600000E-02  3.44600000E+01  7.74900000E+00  2.28000000E+00
  7.15600000E-01  2.14000000E-01  5.97400000E-02  2.31400000E+00  6.45000000E-01
  2.14000000E-01  1.42800000E+00  5.00000000E-01  1.14200000E+04  1.71200000E+03
  3.89300000E+02  1.10000000E+02  3.55700000E+01  1.25400000E+01  4.64400000E+00
  3.89300000E+02  1.10000000E+02  3.55700000E+01  1.25400000E+01  4.64400000E+00
  5.11800000E-01  1.29300000E+00  1.78700000E-01  5.76000000E-02  2.66300000E+01
  5.94800000E+00  1.74200000E+00  5.55000000E-01  1.72500000E-01  4.91000000E-02
  1.65400000E+00  4.69000000E-01  1.51000000E-01  1.09300000E+00  3.64000000E-01
  1.53300000E+04  2.29900000E+03  5.22400000E+02  1.47300000E+02  4.75500000E+01
  1.67600000E+01  6.20700000E+00  5.22400000E+02  1.47300000E+02  4.75500000E+01
  1.67600000E+01  6.20700000E+00  6.88200000E-01  1.75200000E+00  2.38400000E-01
  7.37600000E-02  3.44600000E+01  7.74900000E+00  2.28000000E+00  7.15600000E-01
  2.14000000E-01  5.97400000E-02  2.31400000E+00  6.45000000E-01  2.14000000E-01
  1.42800000E+00  5.00000000E-01
Contraction coefficients                   R   N=          92
  2.54948632E-02  1.90362766E-01  8.52162022E-01  1.00000000E+00  1.00000000E+00
  1.00000000E+00  1.00000000E+00  1.00000000E+00  1.00000000E+00  1.00000000E+00
  1.00000000E+00  5.19808943E-04  4.02025621E-03  2.07128267E-02  8.10105536E-02
  2.35962985E-01  4.42653446E-01  3.57064423E-01 -4.42115008E-05 -1.22591041E-03
 -1.05517725E-02 -6.74452633E-02 -1.71198607E-01  1.07329856E+00  1.00000000E+00
  1.00000000E+00  1.00000000E+00  4.11634896E-02  2.57762836E-01  8.02419274E-01
  1.00000000E+00  1.00000000E+00  1.00000000E+00  1.00000000E+00  1.00000000E+00
  1.00000000E+00  1.00000000E+00  1.00000000E+00  5.34563860E-04  4.13435660E-03
  2.12335358E-02  8.25006224E-02  2.38138871E-01  4.42551547E-01  3.53757422E-01
 -4.89867350E-05 -1.19527323E-03 -1.03490714E-02 -6.48680190E-02 -1.71552477E-01
  1.07289568E+00  1.00000000E+00  1.00000000E+00  1.00000000E+00  3.98072123E-02
  2.49002660E-01  8.10479727E-01  1.00000000E+00  1.00000000E+00  1.00000000E+00
  1.00000000E+00  1.00000000E+00  1.00000000E+00  1.00000000E+00  1.00000000E+00
  5.19808943E-04  4.02025621E-03  2.07128267E-02  8.10105536E-02  2.35962985E-01
  4.42653446E-01  3.57064423E-01 -4.42115008E-05 -1.22591041E-03 -1.05517725E-02
 -6.74452633E-02 -1.71198607E-01  1.07329856E+00  1.00000000E+00  1.00000000E+00
  1.00000000E+00  4.11634896E-02  2.57762836E-01  8.02419274E-01  1.00000000E+00
  1.00000000E+00  1.00000000E+00  1.00000000E+00  1.00000000E+00  1.00000000E+00
  1.00000000E+00  1.00000000E+00
Coordinates of each shell                  R   N=         153
  3.33889843E+00 -3.01935661E-01  1.32445362E-31  3.33889843E+00 -3.01935661E-01
  1.32445362E-31  3.33889843E+00 -3.01935661E-01  1.32445362E-31  3.33889843E+00
 -3.01935661E-01  1.32445362E-31  3.33889843E+00 -3.01935661E-01  1.32445362E-31
  3.33889843E+00 -3.01935661E-01  1.32445362E-31  3.33889843E+00 -3.01935661E-01
  1.32445362E-31  3.33889843E+00 -3.01935661E-01  1.32445362E-31  3.33889843E+00
 -3.01935661E-01  1.32445362E-31  1.69506697E+00 -1.11412620E+00  1.09365860E-31
  1.69506697E+00 -1.11412620E+00  1.09365860E-31  1.69506697E+00 -1.11412620E+00
  1.09365860E-31  1.69506697E+00 -1.11412620E+00  1.09365860E-31  1.69506697E+00
 -1.11412620E+00  1.09365860E-31  1.69506697E+00 -1.11412620E+00  1.09365860E-31
  1.69506697E+00 -1.11412620E+00  1.09365860E-31  1.69506697E+00 -1.11412620E+00
  1.09365860E-31  1.69506697E+00 -1.11412620E+00  1.09365860E-31  1.69506697E+00
 -1.11412620E+00  1.09365860E-31  1.69506697E+00 -1.11412620E+00  1.09365860E-31
  1.69506697E+00 -1.11412620E+00  1.09365860E-31  1.69506697E+00 -1.11412620E+00
  1.09365860E-31  1.69506697E+00 -1.11412620E+00  1.09365860E-31  1.51588483E-16
  9.85017210E-01 -4.31869347E-32  1.51588483E-16  9.85017210E-01 -4.31869347E-32
  1.51588483E-16  9.85017210E-01 -4.31869347E-32  1.51588483E-16  9.85017210E-01
 -4.31869347E-32  1.51588483E-16  9.85017210E-01 -4.31869347E-32  1.51588483E-16
  9.85017210E-01 -4.31869347E-32  1.51588483E-16  9.85017210E-01 -4.31869347E-32
  1.51588483E-16  9.85017210E-01 -4.31869347E-32  1.51588483E-16  9.85017210E-01
 -4.31869347E-32  1.51588483E-16  9.85017210E-01 -4.31869347E-32  1.51588483E-16
  9.85017210E-01 -4.31869347E-32  1.51588483E-16  9.85017210E-01 -4.31869347E-32
  1.51588483E-16  9.85017210E-01 -4.31869347E-32  1.51588483E-16  9.85017210E-01
 -4.31869347E-32 -2.11242927E+00  2.89978098E-01 -8.81329629E-32 -2.11242927E+00
  2.89978098E-01 -8.81329629E-32 -2.11242927E+00  2.89978098E-01 -8.81329629E-32
 -2.11242927E+00  2.89978098E-01 -8.81329629E-32 -2.11242927E+00  2.89978098E-01
 -8.81329629E-32 -2.11242927E+00  2.89978098E-01 -8.81329629E-32 -2.11242927E+00
  2.89978098E-01 -8.81329629E-32 -2.11242927E+00  2.89978098E-01 -8.81329629E-32
 -2.11242927E+00  2.89978098E-01 -8.81329629E-32 -2.11242927E+00  2.89978098E-01
 -8.81329629E-32 -2.11242927E+00  2.89978098E-01 -8.81329629E-32 -2.11242927E+00
  2.89978098E-01 -8.81329629E-32 -2.11242927E+00  2.89978098E-01 -8.81329629E-32
 -2.11242927E+00  2.89978098E-01 -8.81329629E-32
Num ILSW                                   I              100
ILSW                                       I   N=         100
           0           0           0           0           2           0
           0           0           0           0           0          -1
           5           0           0           0           0           0
           0           0           0           0           0           0
           1           0           0           0           0           0
           0           0      100000           0          -1           0
           0           0           0           0           0           0
           0           0           0           1           0           0
           0 -2000000000           1           0           0           0
           0           0           4          52           0           0
           0           0           0           0           0           0
           0           0           0           4           0           1
           0           0           0           0           0           0
           0           0           0           0           0           0
           0           0           0           0           0           0
           0           0           0           0           0           0
           0           0           0           0
Num RLSW                                   I               52
RLSW                                       R   N=          52
  1.00000000E+00  1.00000000E+00  1.00000000E+00  1.00000000E+00  1.00000000E+00
  0.00000000E+00  0.00000000E+00  1.00000000E+00  0.00000000E+00  0.00000000E+00
  0.00000000E+00  0.00000000E+00  1.00000000E+00  0.00000000E+00  0.00000000E+00
  0.00000000E+00  0.00000000E+00  1.00000000E+00  0.00000000E+00  0.00000000E+00
  0.00000000E+00  0.00000000E+00  1.00000000E+00  0.00000000E+00  0.00000000E+00
  0.00000000E+00  0.00000000E+00  1.00000000E+00  0.00000000E+00  0.00000000E+00
  0.00000000E+00  0.00000000E+00  1.00000000E+00  0.00000000E+00  0.00000000E+00
  0.00000000E+00  0.00000000E+00  0.00000000E+00  1.00000000E+00  1.00000000E+00
  0.00000000E+00  1.00000000E+00  0.00000000E+00  0.00000000E+00  0.00000000E+00
  0.00000000E+00  0.00000000E+00  0.00000000E+00  0.00000000E+00  0.00000000E+00
  0.00000000E+00  0.00000000E+00
MxBond                                     I                2
NBond                                      I   N=           4
           1           2           2           1
IBond                                      I   N=           8
           2           0           1           3           2           4
           3           0
RBond                                      R   N=           8
  1.00000000E+00  0.00000000E+00  1.00000000E+00  1.00000000E+00  1.00000000E+00
  2.00000000E+00  2.00000000E+00  0.00000000E+00
Virial Ratio                               R      2.002381750133962E+00
SCF Energy                                 R     -2.047235066846315E+02
MP2 Energy                                 R     -2.054213269413990E+02
Total Energy                               R     -2.054213269413990E+02
Post-SCF wavefunction norm                 R      1.089980362203701E+00
RMS Density                                R      5.516636012718142E-09
Job Status                                 I                1
Nuclear derivative order                   I                0
External E-field                           R   N=          35
  0.00000000E+00  0.00000000E+00  0.00000000E+00  0.00000000E+00  0.00000000E+00
  0.00000000E+00  0.00000000E+00  0.00000000E+00  0.00000000E+00  0.00000000E+00
  0.00000000E+00  0.00000000E+00  0.00000000E+00  0.00000000E+00  0.00000000E+00
  0.00000000E+00  0.00000000E+00  0.00000000E+00  0.00000000E+00  0.00000000E+00
  0.00000000E+00  0.00000000E+00  0.00000000E+00  0.00000000E+00  0.00000000E+00
  0.00000000E+00  0.00000000E+00  0.00000000E+00  0.00000000E+00  0.00000000E+00
  0.00000000E+00  0.00000000E+00  0.00000000E+00  0.00000000E+00  0.00000000E+00
IOpCl                                      I                0
IROHF                                      I                0
Alpha Orbital Energies                     R   N=         161
 -2.06653427E+01 -2.06419141E+01 -1.57988332E+01 -1.60262546E+00 -1.40202294E+00
 -9.49117141E-01 -7.84507864E-01 -7.29368910E-01 -6.81372366E-01 -6.24634669E-01
 -5.28392364E-01 -4.61605468E-01  2.79218821E-02  8.05944394E-02  9.40312673E-02
  9.76975396E-02  1.29028978E-01  1.43625356E-01  1.56840017E-01  1.71980744E-01
  1.87134436E-01  1.96793674E-01  2.05665137E-01  2.33339171E-01  2.58402082E-01
  2.96250143E-01  3.07922856E-01  3.30063788E-01  3.65020375E-01  3.82522658E-01
  4.24231536E-01  5.25530667E-01  5.26169417E-01  5.46903745E-01  5.72761947E-01
  6.13164338E-01  6.31577697E-01  6.48309148E-01  6.80357600E-01  7.14163143E-01
  7.17972618E-01  7.48327159E-01  7.75547527E-01  7.80513602E-01  8.11147773E-01
  8.11741531E-01  8.61115495E-01  8.76794305E-01  9.25761617E-01  9.39198100E-01
  9.45321767E-01  9.94752100E-01  1.04850578E+00  1.06172000E+00  1.08072567E+00
  1.10529609E+00  1.16036597E+00  1.19445530E+00  1.25537663E+00  1.26735600E+00
  1.36320996E+00  1.43453269E+00  1.49118093E+00  1.52317843E+00  1.52570984E+00
  1.54401961E+00  1.55608504E+00  1.60806593E+00  1.65796907E+00  1.72778973E+00
  1.75405807E+00  1.82338259E+00  1.85472409E+00  1.96177539E+00  1.97420891E+00
  1.99672705E+00  2.07369168E+00  2.13352731E+00  2.13394805E+00  2.18295080E+00
  2.27065645E+00  2.30982706E+00  2.32880595E+00  2.38037306E+00  2.45116647E+00
  2.46816268E+00  2.50074742E+00  2.50257482E+00  2.52160314E+00  2.54423825E+00
  2.56558436E+00  2.60750793E+00  2.60782780E+00  2.66249226E+00  2.77036851E+00
  2.78281679E+00  2.83845960E+00  2.93838058E+00  2.95171062E+00  3.11622285E+00
  3.15351728E+00  3.18418003E+00  3.24408856E+00  3.45505203E+00  3.83428449E+00
  3.85280616E+00  4.03066273E+00  4.17280858E+00  4.17927634E+00  4.21389311E+00
  4.36959044E+00  4.37267501E+00  4.57673032E+00  4.63053288E+00  4.74821704E+00
  4.81781240E+00  4.86982198E+00  4.88784104E+00  4.98926556E+00  5.00336596E+00
  5.07526890E+00  5.08752933E+00  5.16928293E+00  5.24612378E+00  5.25490846E+00
  5.33109122E+00  5.36798360E+00  5.37279076E+00  5.58031054E+00  5.66807444E+00
  5.79304906E+00  5.98844612E+00  6.10980545E+00  6.43786883E+00  6.50757824E+00
  6.51054821E+00  6.67305612E+00  6.71668376E+00  6.74283915E+00  6.84613601E+00
  6.91687999E+00  7.07398024E+00  7.11892812E+00  7.18001429E+00  7.23531898E+00
  7.25477220E+00  7.25733960E+00  7.33154767E+00  7.37939983E+00  7.43564146E+00
  7.47820013E+00  7.60602527E+00  7.64667291E+00  7.70262557E+00  7.78433078E+00
  7.97631672E+00  8.07753182E+00  8.42674393E+00  1.41905994E+01  1.51387000E+01
  1.59649644E+01
Alpha MO coefficients                      R   N=       25921
  5.36579888E-05  2.28217918E-04 -3.57033958E-04  5.56942040E-06 -5.71193156E-05
  1.20955502E-05  0.00000000E+00  2.54215598E-05  7.04433494E-05  0.00000000E+00
  2.56596521E-04  2.16737954E-05  0.00000000E+00  1.87302353E-05  0.00000000E+00
  0.00000000E+00  1.79112849E-05  4.91369253E-06  5.24659758E-05  0.00000000E+00
  0.00000000E+00 -2.77385653E-05  1.40776281E-05 -7.84473985E-04  7.72235357E-05
 -5.93660816E-05 -1.07197023E-04  2.14322136E-04  1.87205518E-05 -1.68794026E-05
  0.00000000E+00 -9.44521456E-05  4.20035623E-05  0.00000000E+00 -1.60814684E-04
  2.26502293E-05  0.00000000E+00 -1.17765119E-04  4.97007380E-05  0.00000000E+00
 -8.77307657E-06  0.00000000E+00  0.00000000E+00  2.66659274E-05  1.08669203E-05
  3.19886017E-06  0.00000000E+00  0.00000000E+00 -9.58473810E-05 -1.28407046E-04
 -1.43791482E-05  0.00000000E+00  0.00000000E+00 -7.03135689E-05 -2.48286728E-04
  0.00000000E+00  4.48136961E-06  1.85283356E-06  0.00000000E+00  0.00000000E+00
 -8.04975556E-06 -1.46665332E-05  0.00000000E+00 -2.10825170E-05 -1.62437321E-05
  0.00000000E+00  0.00000000E+00  1.97855046E-04 -5.21569020E-05  2.49233307E-04
  1.41841570E-03 -1.01317341E-04 -1.54932687E-03  3.72979148E-04 -1.12915552E-04
 -6.47175289E-05  0.00000000E+00 -2.04302417E-03 -5.56245464E-04  0.00000000E+00
  1.12995653E-03 -5.82372239E-05  0.00000000E+00 -1.16463321E-04 -9.12492134E-05
  0.00000000E+00 -1.25241346E-04  0.00000000E+00  0.00000000E+00  2.13971351E-04
  1.44319254E-04 -4.37933700E-04  0.00000000E+00  0.00000000E+00  5.51999576E-04
  7.93733616E-04 -1.41509072E-06  0.00000000E+00  0.00000000E+00 -1.59725215E-04
 -1.51853570E-04  0.00000000E+00  1.24248280E-05 -1.28727484E-05  0.00000000E+00
  0.00000000E+00  1.69387560E-05  1.52699750E-05  0.00000000E+00  1.46050503E-04
  1.28786212E-04  0.00000000E+00  0.00000000E+00 -2.35360424E-05 -2.91146197E-04
  9.76650887E-01 -9.86571402E-03  4.35623221E-02  4.27724862E-03 -5.26059858E-04
  2.10969732E-03  5.62828692E-04  0.00000000E+00 -2.41313829E-03 -5.82261491E-04
  0.00000000E+00  9.92730833E-04  5.45639986E-04  0.00000000E+00 -4.96290896E-05
  2.87276479E-05  0.00000000E+00 -2.29043547E-04  0.00000000E+00  0.00000000E+00
  7.68359886E-05  5.58309961E-05  3.87728233E-04  0.00000000E+00  0.00000000E+00
 -8.27524535E-04 -4.38811835E-04 -1.60284900E-04  0.00000000E+00  0.00000000E+00
  1.80027689E-04  2.46965527E-04  0.00000000E+00  5.52365631E-05  1.04909054E-05
  0.00000000E+00  0.00000000E+00 -1.72738266E-05 -2.41012240E-05  0.00000000E+00
  1.24053609E-04  4.69765380E-05  0.00000000E+00  0.00000000E+00 -1.60587313E-04
 -1.52642842E-04  4.76662615E-04  2.54477112E-03  3.56558938E-04 -6.11610506E-06
 -2.25734069E-04 -1.04309139E-04  0.00000000E+00 -1.01435436E-03 -8.63718061E-04
  0.00000000E+00 -1.00910667E-04 -4.17051668E-04  0.00000000E+00  1.29511463E-05
  0.00000000E+00  0.00000000E+00 -5.18299679E-05 -5.14563672E-05 -1.49171562E-04
  0.00000000E+00  0.00000000E+00  1.79513670E-04  4.12562738E-04  9.76753256E-01
 -9.24903077E-03  4.35601216E-02  7.73770934E-04 -8.83451045E-04  4.29069609E-04
  1.83490742E-03  0.00000000E+00 -2.24612868E-04 -1.82613256E-03  0.00000000E+00
 -1.57454744E-03  3.29409014E-04  0.00000000E+00 -5.62602133E-05  3.61490715E-05
  0.00000000E+00 -4.36084851E-05  0.00000000E+00  0.00000000E+00  4.03565697E-05
  4.45277876E-05  6.55688995E-04  0.00000000E+00  0.00000000E+00 -3.22430226E-04
  2.61993301E-04 -8.82300476E-05  0.00000000E+00  0.00000000E+00 -2.90821753E-04
 -3.92555276E-04  0.00000000E+00 -3.13938503E-05  4.54022745E-05  0.00000000E+00
  0.00000000E+00 -1.33837057E-05 -3.84514823E-06  0.00000000E+00  9.78031897E-05
  5.27275554E-05  0.00000000E+00  0.00000000E+00 -2.37204139E-04 -2.27106895E-04
  6.04221018E-05  1.67025160E-04 -3.20880326E-04 -3.80664265E-04  8.50485329E-04
 -8.33487885E-05  7.74692715E-05  0.00000000E+00  7.09072325E-04 -6.57959114E-04
  0.00000000E+00 -4.08080498E-04  5.53785266E-04  0.00000000E+00  1.50764493E-04
 -1.70142858E-04  0.00000000E+00 -3.51025923E-05  0.00000000E+00  0.00000000E+00
 -3.53797662E-05 -4.95051432E-05 -4.01234354E-04  0.00000000E+00  0.00000000E+00
 -1.60070321E-04 -9.33269014E-04 -1.89652767E-04  0.00000000E+00  0.00000000E+00
  5.58577372E-04 -6.29463870E-05  0.00000000E+00 -8.61730584E-05  9.86708050E-05
  0.00000000E+00  0.00000000E+00 -1.49029299E-04 -5.74550243E-05  0.00000000E+00
 -5.52761108E-05  1.19576290E-04  0.00000000E+00  0.00000000E+00 -4.26046435E-04
  1.65888605E-05  8.18613662E-04  4.83554943E-05  1.99062604E-05 -2.92751955E-04
 -1.92972516E-04 -1.49868442E-05  2.24088644E-05  0.00000000E+00  1.10234893E-04
 -1.28615785E-04  0.00000000E+00  4.08471425E-04 -4.30074629E-04  0.00000000E+00
 -3.61830012E-06 -8.40431728E-07  0.00000000E+00 -5.26167703E-06  0.00000000E+00
  0.00000000E+00 -1.29039174E-05 -1.09718816E-05  1.30801918E-06  0.00000000E+00
  0.00000000E+00  1.38684447E-04 -3.43125184E-05 -6.42664989E-05  0.00000000E+00
  0.00000000E+00  2.57091883E-04 -1.58119550E-05  0.00000000E+00  2.95539872E-06
  1.03713134E-05  0.00000000E+00  0.00000000E+00 -1.28813996E-05 -1.07677780E-05
  0.00000000E+00  1.27171936E-05 -5.18676349E-05  0.00000000E+00  0.00000000E+00
  1.16643878E-04  7.57918382E-05 -7.09033466E-05 -4.39296451E-04 -2.96686275E-04
  2.11002577E-04  3.39794901E-05  3.25638314E-05  0.00000000E+00  5.00642946E-04
 -3.62148825E-04  0.00000000E+00  3.20426740E-04 -3.34759944E-04  0.00000000E+00
 -9.63132650E-06  0.00000000E+00  0.00000000E+00 -4.70041250E-05  3.47437009E-05
  1.25945441E-04  0.00000000E+00  0.00000000E+00 -5.21573553E-05  1.80382062E-04
 -1.24997912E-04 -2.03013611E-04 -2.08606415E-04  5.01363030E-03  3.25287102E-03
  8.85209808E-06 -4.13206531E-05  0.00000000E+00 -5.09700808E-04  8.62454880E-04
  0.00000000E+00 -2.48525524E-03  3.13219465E-03  0.00000000E+00 -8.47415544E-04
  5.70318956E-04  0.00000000E+00 -1.05170925E-07  0.00000000E+00  0.00000000E+00
 -3.04540621E-05 -4.30598287E-05 -4.47296241E-04  0.00000000E+00  0.00000000E+00
 -4.40523668E-05 -5.21388696E-04 -6.03418208E-04  0.00000000E+00  0.00000000E+00
 -3.31845282E-04 -9.61107337E-04  0.00000000E+00  1.80199297E-05 -2.16467090E-05
  0.00000000E+00  0.00000000E+00  3.92586205E-05  3.38050242E-05  0.00000000E+00
  9.98047679E-05 -1.46312383E-04  0.00000000E+00  0.00000000E+00  1.76972640E-05
  2.30171642E-04  9.78282914E-01 -8.39584700E-03  4.17852906E-02 -5.59380264E-03
 -3.08142100E-03 -1.09807530E-03 -3.04538479E-03  0.00000000E+00 -1.03166807E-04
  2.99293365E-03  0.00000000E+00  4.04314564E-04  3.11337447E-03  0.00000000E+00
 -3.34406776E-05  5.47075424E-04  0.00000000E+00 -4.39772415E-04  0.00000000E+00
  0.00000000E+00  2.39047444E-04  2.29461921E-04  1.03414754E-03  0.00000000E+00
  0.00000000E+00 -1.69830439E-04  3.04466723E-04  3.69188221E-04  0.00000000E+00
  0.00000000E+00  1.18824807E-04  5.63790235E-05  0.00000000E+00  9.03052036E-05
 -6.94459289E-05  0.00000000E+00  0.00000000E+00 -6.02430674E-05 -9.72539084E-06
  0.00000000E+00 -2.25329802E-04 -2.28217509E-04  0.00000000E+00  0.00000000E+00
  4.56840904E-04  2.53656448E-04 -1.89259589E-04  9.19084012E-04  1.57225476E-04
  3.02705340E-03  8.91839740E-04  2.61989889E-04  1.23690291E-04  0.00000000E+00
  8.77324860E-04  2.71987639E-04  0.00000000E+00  1.23687720E-03 -1.43908408E-04
  0.00000000E+00  4.57496947E-06  4.20332146E-05  0.00000000E+00 -3.99219954E-05
  0.00000000E+00  0.00000000E+00  7.19967176E-05  8.41873408E-05  7.41040516E-05
  0.00000000E+00  0.00000000E+00 -7.98782412E-07 -2.74420646E-04 -3.76180198E-05
  0.00000000E+00  0.00000000E+00  2.84530786E-04 -1.39621081E-04  0.00000000E+00
  9.21312454E-05  3.67616631E-05  0.00000000E+00  0.00000000E+00 -5.43872524E-05
 -1.12623595E-04  0.00000000E+00  1.59170527E-04  1.23368641E-04  0.00000000E+00
  0.00000000E+00  2.28884802E-05 -3.55042084E-04  2.08857278E-02  1.69618271E-02
 -1.44552512E-03  4.70083008E-04 -3.20850268E-03 -8.37527740E-04  0.00000000E+00
 -2.56207876E-03 -8.75159393E-04  0.00000000E+00  2.27982211E-03  2.83290983E-04
  0.00000000E+00 -2.31275190E-04  0.00000000E+00  0.00000000E+00  4.00824475E-04
  2.60203042E-04  2.77470658E-04  0.00000000E+00  0.00000000E+00  3.63345449E-04
  4.71184353E-04 -6.60928112E-02  1.60160289E-01  4.26640151E-02  9.26219211E-02
  7.74705257E-03 -1.50233324E-02  2.32815969E-02  0.00000000E+00 -2.01163050E-02
  3.35171525E-02  0.00000000E+00 -1.18020297E-02  1.05861304E-02  0.00000000E+00
 -1.99531932E-03 -1.85616019E-03  0.00000000E+00 -1.82074515E-03  0.00000000E+00
  0.00000000E+00  9.94904310E-05 -1.82502858E-03 -4.09681763E-03  0.00000000E+00
  0.00000000E+00  8.30393265E-04 -4.32613862E-03  1.04219095E-03  0.00000000E+00
  0.00000000E+00  1.22730273E-04 -1.58382360E-03  0.00000000E+00  4.54168645E-04
 -8.78051600E-04  0.00000000E+00  0.00000000E+00  7.31628451E-04  1.30731658E-03
  0.00000000E+00 -2.53087882E-04  5.51329322E-04  0.00000000E+00  0.00000000E+00
 -2.51747692E-04  1.72967773E-04 -1.30078536E-01  3.07467795E-01  8.09929550E-02
  6.32773054E-02  3.96284382E-04 -7.36912398E-02 -4.70566037E-02  0.00000000E+00
 -7.72355863E-02 -6.48200068E-02  0.00000000E+00 -3.59155229E-03  8.93258494E-03
  0.00000000E+00 -9.23006425E-05  3.18837820E-03  0.00000000E+00 -9.29018098E-03
  0.00000000E+00  0.00000000E+00  8.53200546E-03  6.33392355E-03 -1.14613204E-02
  0.00000000E+00  0.00000000E+00  9.26105172E-03  6.02255444E-03  6.19337734E-03
  0.00000000E+00  0.00000000E+00 -1.84688633E-04  5.76836456E-04  0.00000000E+00
  2.49624388E-03  2.43011454E-03  0.00000000E+00  0.00000000E+00 -4.85147799E-03
 -5.46455959E-03  0.00000000E+00 -1.34476395E-03 -4.32735409E-04  0.00000000E+00
  0.00000000E+00  8.73182033E-04 -4.59144473E-05 -1.50315975E-01  3.59508076E-01
  9.63681125E-02  1.79378758E-01 -1.50572184E-02  7.98410448E-02  2.18751316E-02
  0.00000000E+00  1.01258166E-01  2.74368697E-02  0.00000000E+00  1.76265047E-02
  3.23325061E-03  0.00000000E+00 -8.57678287E-03 -2.41519602E-03  0.00000000E+00
 -5.16361824E-03  0.00000000E+00  0.00000000E+00  7.29961172E-03  4.46462893E-03
 -9.48576733E-03  0.00000000E+00  0.00000000E+00  1.50929170E-02  9.38544207E-03
  2.49643709E-03  0.00000000E+00  0.00000000E+00 -3.63704720E-03 -2.62744908E-03
  0.00000000E+00 -3.15114219E-03 -8.67419280E-04  0.00000000E+00  0.00000000E+00
  3.33448654E-03  3.60916122E-03  0.00000000E+00 -1.06447573E-04 -2.69559268E-04
  0.00000000E+00  0.00000000E+00  1.03984857E-03  1.90970876E-03  8.01323931E-02
  7.84995896E-02 -2.04107291E-02 -2.86389454E-03 -1.18138481E-02 -4.54938877E-03
  0.00000000E+00 -1.49254755E-02 -9.60664594E-04  0.00000000E+00  7.54948521E-03
  2.29147780E-03  0.00000000E+00 -1.34978681E-03  0.00000000E+00  0.00000000E+00
  2.33171501E-03  1.09378292E-03  3.49012073E-04  0.00000000E+00  0.00000000E+00
  2.26238503E-03 -1.41833388E-03 -1.81670097E-01  4.42529576E-01  1.20734013E-01
  2.58115701E-01  1.14163723E-02  1.61765937E-02  3.75384751E-02  0.00000000E+00