 Entering Gaussian System, Link 0=g16
 Input=hono_d1_p_20.gjf
 Output=hono_d1_p_20.log
 Initial command:
 /sw/contrib/gaussian/g16/B01/g16/l1.exe "/scr/Gau-20866.inp" -scrdir="/scr/"
 Entering Link 1 = /sw/contrib/gaussian/g16/B01/g16/l1.exe PID=     20867.
  
 Copyright (c) 1988-2017, Gaussian, Inc.  All Rights Reserved.
  
 This is part of the Gaussian(R) 16 program.  It is based on
 the Gaussian(R) 09 system (copyright 2009, Gaussian, Inc.),
 the Gaussian(R) 03 system (copyright 2003, Gaussian, Inc.),
 the Gaussian(R) 98 system (copyright 1998, Gaussian, Inc.),
 the Gaussian(R) 94 system (copyright 1995, Gaussian, Inc.),
 the Gaussian 92(TM) system (copyright 1992, Gaussian, Inc.),
 the Gaussian 90(TM) system (copyright 1990, Gaussian, Inc.),
 the Gaussian 88(TM) system (copyright 1988, Gaussian, Inc.),
 the Gaussian 86(TM) system (copyright 1986, Carnegie Mellon
 University), and the Gaussian 82(TM) system (copyright 1983,
 Carnegie Mellon University). Gaussian is a federally registered
 trademark of Gaussian, Inc.
  
 This software contains proprietary and confidential information,
 including trade secrets, belonging to Gaussian, Inc.
  
 This software is provided under written license and may be
 used, copied, transmitted, or stored only in accord with that
 written license.
  
 The following legend is applicable only to US Government
 contracts under FAR:
  
                    RESTRICTED RIGHTS LEGEND
  
 Use, reproduction and disclosure by the US Government is
 subject to restrictions as set forth in subparagraphs (a)
 and (c) of the Commercial Computer Software - Restricted
 Rights clause in FAR 52.227-19.
  
 Gaussian, Inc.
 340 Quinnipiac St., Bldg. 40, Wallingford CT 06492
  
  
 ---------------------------------------------------------------
 Warning -- This program may not be used in any manner that
 competes with the business of Gaussian, Inc. or will provide
 assistance to any competitor of Gaussian, Inc.  The licensee
 of this program is prohibited from giving any competitor of
 Gaussian, Inc. access to this program.  By using this program,
 the user acknowledges that Gaussian, Inc. is engaged in the
 business of creating and licensing software in the field of
 computational chemistry and represents and warrants to the
 licensee that it is not a competitor of Gaussian, Inc. and that
 it will not use this program in any manner prohibited above.
 ---------------------------------------------------------------
  

 Cite this work as:
 Gaussian 16, Revision B.01,
 M. J. Frisch, G. W. Trucks, H. B. Schlegel, G. E. Scuseria, 
 M. A. Robb, J. R. Cheeseman, G. Scalmani, V. Barone, 
 G. A. Petersson, H. Nakatsuji, X. Li, M. Caricato, A. V. Marenich, 
 J. Bloino, B. G. Janesko, R. Gomperts, B. Mennucci, H. P. Hratchian, 
 J. V. Ortiz, A. F. Izmaylov, J. L. Sonnenberg, D. Williams-Young, 
 F. Ding, F. Lipparini, F. Egidi, J. Goings, B. Peng, A. Petrone, 
 T. Henderson, D. Ranasinghe, V. G. Zakrzewski, J. Gao, N. Rega, 
 G. Zheng, W. Liang, M. Hada, M. Ehara, K. Toyota, R. Fukuda, 
 J. Hasegawa, M. Ishida, T. Nakajima, Y. Honda, O. Kitao, H. Nakai, 
 T. Vreven, K. Throssell, J. A. Montgomery, Jr., J. E. Peralta, 
 F. Ogliaro, M. J. Bearpark, J. J. Heyd, E. N. Brothers, K. N. Kudin, 
 V. N. Staroverov, T. A. Keith, R. Kobayashi, J. Normand, 
 K. Raghavachari, A. P. Rendell, J. C. Burant, S. S. Iyengar, 
 J. Tomasi, M. Cossi, J. M. Millam, M. Klene, C. Adamo, R. Cammi, 
 J. W. Ochterski, R. L. Martin, K. Morokuma, O. Farkas, 
 J. B. Foresman, and D. J. Fox, Gaussian, Inc., Wallingford CT, 2016.
 
 ******************************************
 Gaussian 16:  ES64L-G16RevB.01 20-Dec-2017
                31-Jan-2022 
 ******************************************
 %nproc=28
 Will use up to   28 processors via shared memory.
 %mem=120GB
 %chk=/gscratch/ilahie/mccoygrp/coire_hoono/hono/hono_d1_p_20.chk
 -------------------------------------
 #p SP mp2/aug-cc-pvtz density=current
 -------------------------------------
 1/30=1,38=1,172=1/1;
 2/12=2,17=6,18=5,40=1/2;
 3/5=16,6=1,7=10,11=9,25=1,30=1,71=1/1,2,3;
 4//1;
 5/5=2,38=5/2;
 8/6=4,10=1/1;
 9/15=1,16=-3/6;
 10/5=1,13=10/2;
 6/7=2,8=2,9=2,10=2,22=-1/1;
 99/5=1,9=1/99;
 Leave Link    1 at Mon Jan 31 11:56:41 2022, MaxMem= 16106127360 cpu:               3.0 elap:               0.1
 (Enter /sw/contrib/gaussian/g16/B01/g16/l101.exe)
 -----
 title
 -----
 Symbolic Z-matrix:
 Charge =  0 Multiplicity = 1
 H
 O                    1    r1
 N                    2    r2       1    a1
 O                    3    r3       2    a2       1    d1       0
       Variables:
  r1                    0.97026                  
  r2                    1.42776                  
  r3                    1.1768                   
  a1                  101.62779                  
  a2                  110.70859                  
  d1                  182.                       
 
 ITRead=  0  0  0  0
 MicOpt= -1 -1 -1 -1
 NAtoms=      4 NQM=        4 NQMF=       0 NMMI=      0 NMMIF=      0
                NMic=       0 NMicF=      0.
                    Isotopes and Nuclear Properties:
 (Nuclear quadrupole moments (NQMom) in fm**2, nuclear magnetic moments (NMagM)
  in nuclear magnetons)

  Atom         1           2           3           4
 IAtWgt=           1          16          14          16
 AtmWgt=   1.0078250  15.9949146  14.0030740  15.9949146
 NucSpn=           1           0           2           0
 AtZEff=  -0.0000000  -0.0000000  -0.0000000  -0.0000000
 NQMom=    0.0000000   0.0000000   2.0440000   0.0000000
 NMagM=    2.7928460   0.0000000   0.4037610   0.0000000
 AtZNuc=   1.0000000   8.0000000   7.0000000   8.0000000
 Leave Link  101 at Mon Jan 31 11:56:41 2022, MaxMem= 16106127360 cpu:               3.2 elap:               0.1
 (Enter /sw/contrib/gaussian/g16/B01/g16/l202.exe)
                          Input orientation:                          
 ---------------------------------------------------------------------
 Center     Atomic      Atomic             Coordinates (Angstroms)
 Number     Number       Type             X           Y           Z
 ---------------------------------------------------------------------
      1          1           0        0.000000    0.000000    0.000000
      2          8           0        0.000000    0.000000    0.970263
      3          7           0        1.398463    0.000000    1.258033
      4          8           0        1.584330   -0.038416    2.419429
 ---------------------------------------------------------------------
                    Distance matrix (angstroms):
                    1          2          3          4
     1  H    0.000000
     2  O    0.970263   0.000000
     3  N    1.881049   1.427764   0.000000
     4  O    2.892268   2.147478   1.176802   0.000000
 Stoichiometry    HNO2
 Framework group  C1[X(HNO2)]
 Deg. of freedom     6
 Full point group                 C1      NOp   1
 Largest Abelian subgroup         C1      NOp   1
 Largest concise Abelian subgroup C1      NOp   1
                         Standard orientation:                         
 ---------------------------------------------------------------------
 Center     Atomic      Atomic             Coordinates (Angstroms)
 Number     Number       Type             X           Y           Z
 ---------------------------------------------------------------------
      1          1           0        1.708166    0.445280    0.024983
      2          8           0        1.042136   -0.259733   -0.002765
      3          7           0       -0.172103    0.491356   -0.003489
      4          8           0       -1.105067   -0.225863    0.002695
 ---------------------------------------------------------------------
 Rotational constants (GHZ):          92.6382408          12.5665527          11.0659582
 Leave Link  202 at Mon Jan 31 11:56:41 2022, MaxMem= 16106127360 cpu:               0.4 elap:               0.0
 (Enter /sw/contrib/gaussian/g16/B01/g16/l301.exe)
 Standard basis: Aug-CC-pVTZ (5D, 7F)
 Ernie: Thresh=  0.10000D-02 Tol=  0.10000D-05 Strict=F.
 Ernie:  9 primitive shells out of 101 were deleted.
 There are   190 symmetry adapted cartesian basis functions of A   symmetry.
 There are   161 symmetry adapted basis functions of A   symmetry.
   161 basis functions,   243 primitive gaussians,   190 cartesian basis functions
    12 alpha electrons       12 beta electrons
       nuclear repulsion energy        69.5040747328 Hartrees.
 IExCor=    0 DFT=F Ex=HF Corr=None ExCW=0 ScaHFX=  1.000000
 ScaDFX=  1.000000  1.000000  1.000000  1.000000 ScalE2=  1.000000  1.000000
 IRadAn=      5 IRanWt=     -1 IRanGd=            0 ICorTp=0 IEmpDi=  4
 NAtoms=    4 NActive=    4 NUniq=    4 SFac= 1.00D+00 NAtFMM=   60 NAOKFM=F Big=F
 Integral buffers will be    131072 words long.
 Raffenetti 1 integral format.
 Two-electron integral symmetry is turned on.
 Leave Link  301 at Mon Jan 31 11:56:41 2022, MaxMem= 16106127360 cpu:               2.0 elap:               0.1
 (Enter /sw/contrib/gaussian/g16/B01/g16/l302.exe)
 NPDir=0 NMtPBC=     1 NCelOv=     1 NCel=       1 NClECP=     1 NCelD=      1
         NCelK=      1 NCelE2=     1 NClLst=     1 CellRange=     0.0.
 One-electron integrals computed using PRISM.
 One-electron integral symmetry used in STVInt
 NBasis=   161 RedAO= T EigKep=  1.97D-04  NBF=   161
 NBsUse=   161 1.00D-06 EigRej= -1.00D+00 NBFU=   161
 Leave Link  302 at Mon Jan 31 11:56:42 2022, MaxMem= 16106127360 cpu:               4.3 elap:               0.2
 (Enter /sw/contrib/gaussian/g16/B01/g16/l303.exe)
 DipDrv:  MaxL=1.
 Leave Link  303 at Mon Jan 31 11:56:42 2022, MaxMem= 16106127360 cpu:               0.9 elap:               0.1
 (Enter /sw/contrib/gaussian/g16/B01/g16/l401.exe)
 ExpMin= 2.53D-02 ExpMax= 1.53D+04 ExpMxC= 5.22D+02 IAcc=3 IRadAn=         5 AccDes= 0.00D+00
 Harris functional with IExCor=  205 and IRadAn=       5 diagonalized for initial guess.
 HarFok:  IExCor=  205 AccDes= 0.00D+00 IRadAn=         5 IDoV= 1 UseB2=F ITyADJ=14
 ICtDFT=  3500011 ScaDFX=  1.000000  1.000000  1.000000  1.000000
 FoFCou: FMM=F IPFlag=           0 FMFlag=      100000 FMFlg1=           0
         NFxFlg=           0 DoJE=T BraDBF=F KetDBF=T FulRan=T
         wScrn=  0.000000 ICntrl=       500 IOpCl=  0 I1Cent=   200000004 NGrid=           0
         NMat0=    1 NMatS0=      1 NMatT0=    0 NMatD0=    1 NMtDS0=    0 NMtDT0=    0
 Petite list used in FoFCou.
 Harris En= -204.818448498090    
 JPrj=0 DoOrth=F DoCkMO=F.
 Leave Link  401 at Mon Jan 31 11:56:42 2022, MaxMem= 16106127360 cpu:               7.0 elap:               0.3
 (Enter /sw/contrib/gaussian/g16/B01/g16/l502.exe)
 Keep R1 ints in memory in canonical form, NReq=98814657.
 FoFCou: FMM=F IPFlag=           0 FMFlag=           0 FMFlg1=           0
         NFxFlg=           0 DoJE=F BraDBF=F KetDBF=F FulRan=T
         wScrn=  0.000000 ICntrl=       600 IOpCl=  0 I1Cent=           0 NGrid=           0
         NMat0=    1 NMatS0=  13041 NMatT0=    0 NMatD0=    1 NMtDS0=    0 NMtDT0=    0
 Symmetry not used in FoFCou.
 Two-electron integral symmetry not used.
 Closed shell SCF:
 Using DIIS extrapolation, IDIIS=  1040.
 NGot= 16106127360 LenX= 16021007853 LenY= 16020971312
 Requested convergence on RMS density matrix=1.00D-08 within 128 cycles.
 Requested convergence on MAX density matrix=1.00D-06.
 Requested convergence on             energy=1.00D-06.
 No special actions if energy rises.

 Cycle   1  Pass 1  IDiag  1:
 E= -204.613629062965    
 DIIS: error= 2.99D-02 at cycle   1 NSaved=   1.
 NSaved= 1 IEnMin= 1 EnMin= -204.613629062965     IErMin= 1 ErrMin= 2.99D-02
 ErrMax= 2.99D-02  0.00D+00 EMaxC= 1.00D-01 BMatC= 3.55D-01 BMatP= 3.55D-01
 IDIUse=3 WtCom= 7.01D-01 WtEn= 2.99D-01
 Coeff-Com:  0.100D+01
 Coeff-En:   0.100D+01
 Coeff:      0.100D+01
 Gap=     0.509 Goal=   None    Shift=    0.000
 GapD=    0.509 DampG=2.000 DampE=0.500 DampFc=1.0000 IDamp=-1.
 RMSDP=2.05D-03 MaxDP=1.22D-01              OVMax= 1.02D-01

 Cycle   2  Pass 1  IDiag  1:
 E= -204.678374920659     Delta-E=       -0.064745857694 Rises=F Damp=F
 DIIS: error= 2.09D-02 at cycle   2 NSaved=   2.
 NSaved= 2 IEnMin= 2 EnMin= -204.678374920659     IErMin= 2 ErrMin= 2.09D-02
 ErrMax= 2.09D-02  0.00D+00 EMaxC= 1.00D-01 BMatC= 6.83D-02 BMatP= 3.55D-01
 IDIUse=3 WtCom= 7.91D-01 WtEn= 2.09D-01
 Coeff-Com:  0.234D+00 0.766D+00
 Coeff-En:   0.111D+00 0.889D+00
 Coeff:      0.208D+00 0.792D+00
 Gap=     0.511 Goal=   None    Shift=    0.000
 RMSDP=9.98D-04 MaxDP=3.62D-02 DE=-6.47D-02 OVMax= 8.82D-02

 Cycle   3  Pass 1  IDiag  1:
 E= -204.712607739246     Delta-E=       -0.034232818586 Rises=F Damp=F
 DIIS: error= 7.15D-03 at cycle   3 NSaved=   3.
 NSaved= 3 IEnMin= 3 EnMin= -204.712607739246     IErMin= 3 ErrMin= 7.15D-03
 ErrMax= 7.15D-03  0.00D+00 EMaxC= 1.00D-01 BMatC= 1.54D-02 BMatP= 6.83D-02
 IDIUse=3 WtCom= 9.28D-01 WtEn= 7.15D-02
 Coeff-Com: -0.362D-01 0.302D+00 0.734D+00
 Coeff-En:   0.000D+00 0.836D-01 0.916D+00
 Coeff:     -0.336D-01 0.287D+00 0.747D+00
 Gap=     0.494 Goal=   None    Shift=    0.000
 RMSDP=4.08D-04 MaxDP=2.24D-02 DE=-3.42D-02 OVMax= 2.65D-02

 Cycle   4  Pass 1  IDiag  1:
 E= -204.722797246510     Delta-E=       -0.010189507265 Rises=F Damp=F
 DIIS: error= 1.40D-03 at cycle   4 NSaved=   4.
 NSaved= 4 IEnMin= 4 EnMin= -204.722797246510     IErMin= 4 ErrMin= 1.40D-03
 ErrMax= 1.40D-03  0.00D+00 EMaxC= 1.00D-01 BMatC= 2.43D-04 BMatP= 1.54D-02
 IDIUse=3 WtCom= 9.86D-01 WtEn= 1.40D-02
 Coeff-Com: -0.745D-02 0.231D-01 0.119D+00 0.865D+00
 Coeff-En:   0.000D+00 0.000D+00 0.000D+00 0.100D+01
 Coeff:     -0.735D-02 0.227D-01 0.118D+00 0.867D+00
 Gap=     0.489 Goal=   None    Shift=    0.000
 RMSDP=8.34D-05 MaxDP=1.55D-03 DE=-1.02D-02 OVMax= 8.18D-03

 Cycle   5  Pass 1  IDiag  1:
 E= -204.723164139210     Delta-E=       -0.000366892700 Rises=F Damp=F
 DIIS: error= 1.04D-03 at cycle   5 NSaved=   5.
 NSaved= 5 IEnMin= 5 EnMin= -204.723164139210     IErMin= 5 ErrMin= 1.04D-03
 ErrMax= 1.04D-03  0.00D+00 EMaxC= 1.00D-01 BMatC= 6.24D-05 BMatP= 2.43D-04
 IDIUse=3 WtCom= 9.90D-01 WtEn= 1.04D-02
 Coeff-Com:  0.703D-02-0.721D-01-0.155D+00 0.219D+00 0.100D+01
 Coeff-En:   0.000D+00 0.000D+00 0.000D+00 0.000D+00 0.100D+01
 Coeff:      0.696D-02-0.714D-01-0.153D+00 0.216D+00 0.100D+01
 Gap=     0.489 Goal=   None    Shift=    0.000
 RMSDP=6.76D-05 MaxDP=1.63D-03 DE=-3.67D-04 OVMax= 8.91D-03

 Cycle   6  Pass 1  IDiag  1:
 E= -204.723337016912     Delta-E=       -0.000172877702 Rises=F Damp=F
 DIIS: error= 2.28D-04 at cycle   6 NSaved=   6.
 NSaved= 6 IEnMin= 6 EnMin= -204.723337016912     IErMin= 6 ErrMin= 2.28D-04
 ErrMax= 2.28D-04  0.00D+00 EMaxC= 1.00D-01 BMatC= 1.13D-05 BMatP= 6.24D-05
 IDIUse=3 WtCom= 9.98D-01 WtEn= 2.28D-03
 Coeff-Com:  0.569D-03 0.928D-03-0.242D-02-0.206D+00-0.300D-02 0.121D+01
 Coeff-En:   0.000D+00 0.000D+00 0.000D+00 0.000D+00 0.000D+00 0.100D+01
 Coeff:      0.567D-03 0.926D-03-0.241D-02-0.205D+00-0.300D-02 0.121D+01
 Gap=     0.490 Goal=   None    Shift=    0.000
 RMSDP=3.81D-05 MaxDP=7.13D-04 DE=-1.73D-04 OVMax= 4.05D-03

 Cycle   7  Pass 1  IDiag  1:
 E= -204.723375731647     Delta-E=       -0.000038714735 Rises=F Damp=F
 DIIS: error= 1.12D-04 at cycle   7 NSaved=   7.
 NSaved= 7 IEnMin= 7 EnMin= -204.723375731647     IErMin= 7 ErrMin= 1.12D-04
 ErrMax= 1.12D-04  0.00D+00 EMaxC= 1.00D-01 BMatC= 1.76D-06 BMatP= 1.13D-05
 IDIUse=3 WtCom= 9.99D-01 WtEn= 1.12D-03
 Coeff-Com: -0.123D-02 0.125D-01 0.316D-01-0.494D-01-0.136D+00-0.762D-01
 Coeff-Com:  0.122D+01
 Coeff-En:   0.000D+00 0.000D+00 0.000D+00 0.000D+00 0.000D+00 0.000D+00
 Coeff-En:   0.100D+01
 Coeff:     -0.123D-02 0.125D-01 0.315D-01-0.493D-01-0.136D+00-0.761D-01
 Coeff:      0.122D+01
 Gap=     0.490 Goal=   None    Shift=    0.000
 RMSDP=1.50D-05 MaxDP=3.26D-04 DE=-3.87D-05 OVMax= 1.78D-03

 Cycle   8  Pass 1  IDiag  1:
 E= -204.723381231575     Delta-E=       -0.000005499928 Rises=F Damp=F
 DIIS: error= 4.39D-05 at cycle   8 NSaved=   8.
 NSaved= 8 IEnMin= 8 EnMin= -204.723381231575     IErMin= 8 ErrMin= 4.39D-05
 ErrMax= 4.39D-05  0.00D+00 EMaxC= 1.00D-01 BMatC= 1.86D-07 BMatP= 1.76D-06
 IDIUse=1 WtCom= 1.00D+00 WtEn= 0.00D+00
 Coeff-Com: -0.371D-04-0.780D-03-0.633D-03 0.202D-01 0.245D-01-0.151D+00
 Coeff-Com: -0.133D+00 0.124D+01
 Coeff:     -0.371D-04-0.780D-03-0.633D-03 0.202D-01 0.245D-01-0.151D+00
 Coeff:     -0.133D+00 0.124D+01
 Gap=     0.490 Goal=   None    Shift=    0.000
 RMSDP=4.91D-06 MaxDP=9.89D-05 DE=-5.50D-06 OVMax= 4.77D-04

 Cycle   9  Pass 1  IDiag  1:
 E= -204.723381771687     Delta-E=       -0.000000540112 Rises=F Damp=F
 DIIS: error= 1.14D-05 at cycle   9 NSaved=   9.
 NSaved= 9 IEnMin= 9 EnMin= -204.723381771687     IErMin= 9 ErrMin= 1.14D-05
 ErrMax= 1.14D-05  0.00D+00 EMaxC= 1.00D-01 BMatC= 1.55D-08 BMatP= 1.86D-07
 IDIUse=1 WtCom= 1.00D+00 WtEn= 0.00D+00
 Coeff-Com:  0.107D-03-0.994D-03-0.242D-02-0.136D-02 0.120D-01 0.384D-01
 Coeff-Com: -0.858D-01-0.282D+00 0.132D+01
 Coeff:      0.107D-03-0.994D-03-0.242D-02-0.136D-02 0.120D-01 0.384D-01
 Coeff:     -0.858D-01-0.282D+00 0.132D+01
 Gap=     0.490 Goal=   None    Shift=    0.000
 RMSDP=1.28D-06 MaxDP=3.46D-05 DE=-5.40D-07 OVMax= 9.76D-05

 Cycle  10  Pass 1  IDiag  1:
 E= -204.723381813548     Delta-E=       -0.000000041861 Rises=F Damp=F
 DIIS: error= 2.74D-06 at cycle  10 NSaved=  10.
 NSaved=10 IEnMin=10 EnMin= -204.723381813548     IErMin=10 ErrMin= 2.74D-06
 ErrMax= 2.74D-06  0.00D+00 EMaxC= 1.00D-01 BMatC= 1.29D-09 BMatP= 1.55D-08
 IDIUse=1 WtCom= 1.00D+00 WtEn= 0.00D+00
 Coeff-Com: -0.262D-04 0.318D-03 0.798D-03-0.204D-02-0.446D-02 0.196D-02
 Coeff-Com:  0.378D-01-0.511D-01-0.282D+00 0.130D+01
 Coeff:     -0.262D-04 0.318D-03 0.798D-03-0.204D-02-0.446D-02 0.196D-02
 Coeff:      0.378D-01-0.511D-01-0.282D+00 0.130D+01
 Gap=     0.490 Goal=   None    Shift=    0.000
 RMSDP=3.37D-07 MaxDP=1.15D-05 DE=-4.19D-08 OVMax= 3.06D-05

 Cycle  11  Pass 1  IDiag  1:
 E= -204.723381817026     Delta-E=       -0.000000003477 Rises=F Damp=F
 DIIS: error= 1.13D-06 at cycle  11 NSaved=  11.
 NSaved=11 IEnMin=11 EnMin= -204.723381817026     IErMin=11 ErrMin= 1.13D-06
 ErrMax= 1.13D-06  0.00D+00 EMaxC= 1.00D-01 BMatC= 1.20D-10 BMatP= 1.29D-09
 IDIUse=1 WtCom= 1.00D+00 WtEn= 0.00D+00
 Coeff-Com: -0.507D-06-0.182D-04-0.448D-04 0.546D-03 0.106D-02-0.462D-02
 Coeff-Com: -0.549D-02 0.450D-01-0.197D-01-0.480D+00 0.146D+01
 Coeff:     -0.507D-06-0.182D-04-0.448D-04 0.546D-03 0.106D-02-0.462D-02
 Coeff:     -0.549D-02 0.450D-01-0.197D-01-0.480D+00 0.146D+01
 Gap=     0.490 Goal=   None    Shift=    0.000
 RMSDP=1.12D-07 MaxDP=4.21D-06 DE=-3.48D-09 OVMax= 1.10D-05

 Cycle  12  Pass 1  IDiag  1:
 E= -204.723381817403     Delta-E=       -0.000000000378 Rises=F Damp=F
 DIIS: error= 1.86D-07 at cycle  12 NSaved=  12.
 NSaved=12 IEnMin=12 EnMin= -204.723381817403     IErMin=12 ErrMin= 1.86D-07
 ErrMax= 1.86D-07  0.00D+00 EMaxC= 1.00D-01 BMatC= 6.86D-12 BMatP= 1.20D-10
 IDIUse=1 WtCom= 1.00D+00 WtEn= 0.00D+00
 Coeff-Com:  0.240D-05-0.232D-04-0.556D-04-0.588D-04 0.149D-03 0.159D-02
 Coeff-Com: -0.203D-02-0.122D-01 0.385D-01 0.387D-01-0.473D+00 0.141D+01
 Coeff:      0.240D-05-0.232D-04-0.556D-04-0.588D-04 0.149D-03 0.159D-02
 Coeff:     -0.203D-02-0.122D-01 0.385D-01 0.387D-01-0.473D+00 0.141D+01
 Gap=     0.490 Goal=   None    Shift=    0.000
 RMSDP=3.15D-08 MaxDP=7.23D-07 DE=-3.78D-10 OVMax= 2.60D-06

 Cycle  13  Pass 1  IDiag  1:
 E= -204.723381817424     Delta-E=       -0.000000000021 Rises=F Damp=F
 DIIS: error= 4.01D-08 at cycle  13 NSaved=  13.
 NSaved=13 IEnMin=13 EnMin= -204.723381817424     IErMin=13 ErrMin= 4.01D-08
 ErrMax= 4.01D-08  0.00D+00 EMaxC= 1.00D-01 BMatC= 2.13D-13 BMatP= 6.86D-12
 IDIUse=1 WtCom= 1.00D+00 WtEn= 0.00D+00
 Coeff-Com: -0.444D-06 0.570D-05 0.138D-04-0.217D-04-0.884D-04-0.562D-04
 Coeff-Com:  0.751D-03-0.263D-03-0.526D-02 0.125D-01 0.254D-01-0.297D+00
 Coeff-Com:  0.126D+01
 Coeff:     -0.444D-06 0.570D-05 0.138D-04-0.217D-04-0.884D-04-0.562D-04
 Coeff:      0.751D-03-0.263D-03-0.526D-02 0.125D-01 0.254D-01-0.297D+00
 Coeff:      0.126D+01
 Gap=     0.490 Goal=   None    Shift=    0.000
 RMSDP=5.49D-09 MaxDP=9.27D-08 DE=-2.09D-11 OVMax= 4.23D-07

 SCF Done:  E(RHF) =  -204.723381817     A.U. after   13 cycles
            NFock= 13  Conv=0.55D-08     -V/T= 2.0024
 KE= 2.042401075506D+02 PE=-6.229517279835D+02 EE= 1.444841638825D+02
 Leave Link  502 at Mon Jan 31 11:56:44 2022, MaxMem= 16106127360 cpu:              28.9 elap:               2.6
 (Enter /sw/contrib/gaussian/g16/B01/g16/l801.exe)
 ExpMin= 2.53D-02 ExpMax= 1.53D+04 ExpMxC= 5.22D+02 IAcc=3 IRadAn=         5 AccDes= 0.00D+00
 HarFok:  IExCor=  205 AccDes= 0.00D+00 IRadAn=         5 IDoV=-2 UseB2=F ITyADJ=14
 ICtDFT= 12500011 ScaDFX=  1.000000  1.000000  1.000000  1.000000
 Largest valence mixing into a core orbital is  2.06D-04
 Largest core mixing into a valence orbital is  3.30D-05
 Range of M.O.s used for correlation:     4   161
 NBasis=   161 NAE=    12 NBE=    12 NFC=     3 NFV=     0
 NROrb=    158 NOA=     9 NOB=     9 NVA=   149 NVB=   149

 **** Warning!!: The largest alpha MO coefficient is  0.19497749D+02

 Leave Link  801 at Mon Jan 31 11:56:45 2022, MaxMem= 16106127360 cpu:               2.9 elap:               0.2
 (Enter /sw/contrib/gaussian/g16/B01/g16/l906.exe)
 Frozen-core derivative calculation, NFC=   3 NFV=   0.
 FulOut=F Deriv=T AODrv=F NAtomX=     4
   MMem=         161  MDisk=           9 MDiskD=           9
  W3Min=      367080 MinDsk=      792425 NBas6D=         190
 NBas2D=       18625    NTT=       18145    LW2=     3500000
    MDV= 16105827750 MDiskM=      423784 NBas2p=       18621
 Fully in-core method, ICMem=   359292905.
 IMap=   1   2   3   4   5   6   7   8   9  10  11  12
 JobTyp=1 Pass  1 fully in-core, NPsUse= 28.
 Compute canonical integrals.
 FoFCou: FMM=F IPFlag=           0 FMFlag=           0 FMFlg1=           0
         NFxFlg=           0 DoJE=F BraDBF=F KetDBF=F FulRan=T
         wScrn=  0.000000 ICntrl=       600 IOpCl=  1 I1Cent=           0 NGrid=           0
         NMat0=    1 NMatS0=  18625 NMatT0=    0 NMatD0=    1 NMtDS0=    0 NMtDT0=    0
 Symmetry not used in FoFCou.
 Spin components of T(2) and E(2):
     alpha-alpha T2 =       0.2531699095D-01 E2=     -0.9065645535D-01
     alpha-beta  T2 =       0.1374810151D+00 E2=     -0.5166377901D+00
     beta-beta   T2 =       0.2531699095D-01 E2=     -0.9065645535D-01
 The integrals were generated   1 times.
 ANorm=    0.1090006879D+01
 E2 =    -0.6979507008D+00 EUMP2 =    -0.20542133251822D+03
 Leave Link  906 at Mon Jan 31 11:56:48 2022, MaxMem= 16106127360 cpu:              86.4 elap:               3.1
 (Enter /sw/contrib/gaussian/g16/B01/g16/l1002.exe)
 Minotr:  Closed shell wavefunction.
          Computing MP2/KS-MP2 derivatives.
          Using Z-Vector for PSCF gradient.
          Skipping F1 and S1 gradient terms here.
          Frozen-core window.
          Direct CPHF calculation.
          Differentiating once with respect to electric field.
                with respect to dipole field.
          Electric field/nuclear overlap derivatives assumed to be zero.
          Requested convergence is 1.0D-10 RMS, and 1.0D-09 maximum.
          NewPWx=F KeepS1=T KeepF1=T KeepIn=T MapXYZ=F SortEE=F KeepMc=T.
 Keep R1 ints in memory in canonical form, NReq=98817301.
 FoFCou: FMM=F IPFlag=           0 FMFlag=           0 FMFlg1=           0
         NFxFlg=           0 DoJE=F BraDBF=F KetDBF=F FulRan=T
         wScrn=  0.000000 ICntrl=       600 IOpCl=  0 I1Cent=           0 NGrid=           0
         NMat0=    1 NMatS0=  13041 NMatT0=    0 NMatD0=    1 NMtDS0=    0 NMtDT0=    0
 Symmetry not used in FoFCou.
 Two-electron integral symmetry not used.
          MDV=   16106127360 using IRadAn=       5.
          Solving linear equations separately, MaxMat=       0.
          There are     1 degrees of freedom in the 1st order CPHF.  IDoFFX=0 NUNeed=     1.
 LinEq1:  Iter=  0 NonCon=     1 RMS=6.63D-03 Max=1.32D-01 NDo=     1
 AX will form     1 AO Fock derivatives at one time.
 LinEq1:  Iter=  1 NonCon=     1 RMS=2.26D-03 Max=4.07D-02 NDo=     1
 LinEq1:  Iter=  2 NonCon=     1 RMS=9.17D-04 Max=1.19D-02 NDo=     1
 LinEq1:  Iter=  3 NonCon=     1 RMS=4.41D-04 Max=8.66D-03 NDo=     1
 LinEq1:  Iter=  4 NonCon=     1 RMS=1.37D-04 Max=1.53D-03 NDo=     1
 LinEq1:  Iter=  5 NonCon=     1 RMS=6.12D-05 Max=9.90D-04 NDo=     1
 LinEq1:  Iter=  6 NonCon=     1 RMS=2.33D-05 Max=2.70D-04 NDo=     1
 LinEq1:  Iter=  7 NonCon=     1 RMS=5.93D-06 Max=6.10D-05 NDo=     1
 LinEq1:  Iter=  8 NonCon=     1 RMS=1.44D-06 Max=1.66D-05 NDo=     1
 LinEq1:  Iter=  9 NonCon=     1 RMS=2.71D-07 Max=1.99D-06 NDo=     1
 LinEq1:  Iter= 10 NonCon=     1 RMS=5.61D-08 Max=9.84D-07 NDo=     1
 LinEq1:  Iter= 11 NonCon=     1 RMS=1.64D-08 Max=4.52D-07 NDo=     1
 LinEq1:  Iter= 12 NonCon=     1 RMS=3.82D-09 Max=5.67D-08 NDo=     1
 LinEq1:  Iter= 13 NonCon=     1 RMS=6.62D-10 Max=4.55D-09 NDo=     1
 LinEq1:  Iter= 14 NonCon=     1 RMS=1.35D-10 Max=1.16D-09 NDo=     1
 LinEq1:  Iter= 15 NonCon=     0 RMS=2.35D-11 Max=2.18D-10 NDo=     1
 Linear equations converged to 1.000D-10 1.000D-09 after    15 iterations.
 End of Minotr F.D. properties file   721 does not exist.
 End of Minotr F.D. properties file   722 does not exist.
 End of Minotr F.D. properties file   788 does not exist.
 Leave Link 1002 at Mon Jan 31 11:56:51 2022, MaxMem= 16106127360 cpu:              30.8 elap:               3.1
 (Enter /sw/contrib/gaussian/g16/B01/g16/l601.exe)
 Copying SCF densities to generalized density rwf, IOpCl= 0 IROHF=0.

 **********************************************************************

            Population analysis using the MP2 Density.

 **********************************************************************

 Orbital symmetries:
       Occupied  (A) (A) (A) (A) (A) (A) (A) (A) (A) (A) (A) (A)
       Virtual   (A) (A) (A) (A) (A) (A) (A) (A) (A) (A) (A) (A)
                 (A) (A) (A) (A) (A) (A) (A) (A) (A) (A) (A) (A)
                 (A) (A) (A) (A) (A) (A) (A) (A) (A) (A) (A) (A)
                 (A) (A) (A) (A) (A) (A) (A) (A) (A) (A) (A) (A)
                 (A) (A) (A) (A) (A) (A) (A) (A) (A) (A) (A) (A)
                 (A) (A) (A) (A) (A) (A) (A) (A) (A) (A) (A) (A)
                 (A) (A) (A) (A) (A) (A) (A) (A) (A) (A) (A) (A)
                 (A) (A) (A) (A) (A) (A) (A) (A) (A) (A) (A) (A)
                 (A) (A) (A) (A) (A) (A) (A) (A) (A) (A) (A) (A)
                 (A) (A) (A) (A) (A) (A) (A) (A) (A) (A) (A) (A)
                 (A) (A) (A) (A) (A) (A) (A) (A) (A) (A) (A) (A)
                 (A) (A) (A) (A) (A) (A) (A) (A) (A) (A) (A) (A)
                 (A) (A) (A) (A) (A)
 The electronic state is 1-A.
 Alpha  occ. eigenvalues --  -20.66532 -20.64236 -15.79875  -1.60280  -1.40263
 Alpha  occ. eigenvalues --   -0.94854  -0.78413  -0.72980  -0.68159  -0.62540
 Alpha  occ. eigenvalues --   -0.52857  -0.46176
 Alpha virt. eigenvalues --    0.02799   0.08044   0.09396   0.09756   0.12886
 Alpha virt. eigenvalues --    0.14367   0.15690   0.17213   0.18722   0.19660
 Alpha virt. eigenvalues --    0.20557   0.23348   0.25793   0.29630   0.30790
 Alpha virt. eigenvalues --    0.32979   0.36573   0.38242   0.42390   0.52459
 Alpha virt. eigenvalues --    0.52694   0.54808   0.57326   0.61302   0.63130
 Alpha virt. eigenvalues --    0.64804   0.68032   0.71433   0.71795   0.74795
 Alpha virt. eigenvalues --    0.77477   0.78169   0.81096   0.81242   0.86112
 Alpha virt. eigenvalues --    0.87871   0.92574   0.93896   0.94517   0.99525
 Alpha virt. eigenvalues --    1.04952   1.06294   1.08103   1.10577   1.16088
 Alpha virt. eigenvalues --    1.19624   1.25213   1.26900   1.36169   1.43347
 Alpha virt. eigenvalues --    1.48891   1.52295   1.52444   1.54442   1.55402
 Alpha virt. eigenvalues --    1.60939   1.65835   1.72887   1.75476   1.82240
 Alpha virt. eigenvalues --    1.85608   1.96089   1.97593   1.99818   2.07470
 Alpha virt. eigenvalues --    2.12918   2.13677   2.18825   2.27114   2.30826
 Alpha virt. eigenvalues --    2.32909   2.38084   2.45122   2.47008   2.49862
 Alpha virt. eigenvalues --    2.50271   2.52129   2.54426   2.56928   2.60567
 Alpha virt. eigenvalues --    2.61012   2.66218   2.77148   2.77774   2.83983
 Alpha virt. eigenvalues --    2.93756   2.95233   3.11517   3.14689   3.18281
 Alpha virt. eigenvalues --    3.24727   3.46116   3.83048   3.85542   4.02878
 Alpha virt. eigenvalues --    4.17029   4.18239   4.21400   4.36333   4.37274
 Alpha virt. eigenvalues --    4.58154   4.63320   4.74700   4.81794   4.87131
 Alpha virt. eigenvalues --    4.88776   4.97984   5.00199   5.07372   5.08684
 Alpha virt. eigenvalues --    5.17094   5.24639   5.25778   5.33340   5.36634
 Alpha virt. eigenvalues --    5.37716   5.57959   5.66791   5.79365   5.98820
 Alpha virt. eigenvalues --    6.11959   6.43482   6.50709   6.51003   6.67447
 Alpha virt. eigenvalues --    6.71550   6.74544   6.84764   6.91677   7.06909
 Alpha virt. eigenvalues --    7.11956   7.17969   7.23357   7.25594   7.25826
 Alpha virt. eigenvalues --    7.33187   7.37990   7.43298   7.47876   7.60802
 Alpha virt. eigenvalues --    7.64778   7.69927   7.79123   7.98207   8.07087
 Alpha virt. eigenvalues --    8.42433  14.20075  15.12803  15.97194
          Condensed to atoms (all electrons):
               1          2          3          4
     1  H    0.586231   0.172967  -0.044035   0.012715
     2  O    0.172967   8.291909  -0.137081  -0.057263
     3  N   -0.044035  -0.137081   7.043562  -0.042124
     4  O    0.012715  -0.057263  -0.042124   8.267940
 Mulliken charges:
               1
     1  H    0.272122
     2  O   -0.270532
     3  N    0.179677
     4  O   -0.181268
 Sum of Mulliken charges =  -0.00000
 Mulliken charges with hydrogens summed into heavy atoms:
               1
     2  O    0.001590
     3  N    0.179677
     4  O   -0.181268
 Electronic spatial extent (au):  <R**2>=            123.4932
 Charge=             -0.0000 electrons
 Dipole moment (field-independent basis, Debye):
    X=              1.4399    Y=              1.1988    Z=              0.0430  Tot=              1.8741
 Quadrupole moment (field-independent basis, Debye-Ang):
   XX=            -14.5670   YY=            -17.7859   ZZ=            -16.4562
   XY=              2.0270   XZ=              0.0986   YZ=              0.0419
 Traceless Quadrupole moment (field-independent basis, Debye-Ang):
   XX=              1.7027   YY=             -1.5162   ZZ=             -0.1865
   XY=              2.0270   XZ=              0.0986   YZ=              0.0419
 Octapole moment (field-independent basis, Debye-Ang**2):
  XXX=              8.5816  YYY=             -1.4581  ZZZ=              0.0195  XYY=              0.5402
  XXY=              3.1994  XXZ=              0.1866  XZZ=             -1.0144  YZZ=             -0.1342
  YYZ=              0.0184  XYZ=              0.0505
 Hexadecapole moment (field-independent basis, Debye-Ang**3):
 XXXX=            -85.2458 YYYY=            -30.3440 ZZZZ=            -13.9283 XXXY=              7.0436
 XXXZ=              0.3447 YYYX=              1.6063 YYYZ=              0.0461 ZZZX=              0.0319
 ZZZY=              0.0259 XXYY=            -19.9438 XXZZ=            -19.1210 YYZZ=             -7.0770
 XXYZ=              0.0950 YYXZ=              0.0308 ZZXY=              0.5487
 N-N= 6.950407473285D+01 E-N=-6.235515205205D+02  KE= 2.052386999684D+02
 No NMR shielding tensors so no spin-rotation constants.
 Leave Link  601 at Mon Jan 31 11:56:51 2022, MaxMem= 16106127360 cpu:               4.1 elap:               0.2
 (Enter /sw/contrib/gaussian/g16/B01/g16/l9999.exe)
 1\1\GINC-N2206\SP\RMP2-FC\Aug-CC-pVTZ\H1N1O2\CGAVINH\31-Jan-2022\0\\#p
  SP mp2/aug-cc-pvtz density=current\\title\\0,1\H\O,1,0.97026274\N,2,1
 .42776435,1,101.62778541\O,3,1.17680217,2,110.70859147,1,182.,0\\Versi
 on=ES64L-G16RevB.01\State=1-A\HF=-204.7233818\MP2=-205.4213325\RMSD=5.
 487e-09\Dipole=-0.0879439,0.0035416,-0.7320728\Quadrupole=-1.3671653,-
 0.1415708,1.5087361,-0.0113067,1.2805279,0.0327157\PG=C01 [X(H1N1O2)]\
 \@


 THE SCIENTIFIC THEORIST IS NOT TO BE ENVIED. FOR NATURE, OR MORE
 PRECISELY EXPERIMENT, IS AN INEXORABLE AND NOT VERY FRIENDLY JUDGE OF HIS
 WORK.  IT NEVER SAYS "YES" TO A THEORY. IN THE MOST FAVORABLE CASES
 IT SAYS "MAYBE", AND IN THE GREAT MAJORITY OF CASES SIMPLY "NO"...
 PROBABLY EVERY THEORY WILL SOME DAY EXPERIENCE ITS "NO" - MOST
 THEORIES, SOON AFTER CONCEPTION.  -- A.EINSTEIN, NOV 11, 1922.
 Job cpu time:       0 days  0 hours  2 minutes 55.0 seconds.
 Elapsed time:       0 days  0 hours  0 minutes 10.2 seconds.
 File lengths (MBytes):  RWF=     15 Int=      0 D2E=      0 Chk=      8 Scr=      1
 Normal termination of Gaussian 16 at Mon Jan 31 11:56:51 2022.
