title                                                                   
SP        RMP2-FC                                                     Aug-CC-pVTZ         
Number of atoms                            I                4
Info1-9                                    I   N=           9
          29          20           0           0           0         110
           1           2           1
Full Title                                 C   N=           1
title       
Route                                      C   N=           4
#p SP mp2/aug-cc-pvtz density=current           
Charge                                     I                0
Multiplicity                               I                1
Number of electrons                        I               24
Number of alpha electrons                  I               12
Number of beta electrons                   I               12
Number of basis functions                  I              161
Number of independent functions            I              161
Number of point charges in /Mol/           I                0
Number of translation vectors              I                0
Atomic numbers                             I   N=           4
           1           8           7           8
Nuclear charges                            R   N=           4
  1.00000000E+00  8.00000000E+00  7.00000000E+00  8.00000000E+00
Current cartesian coordinates              R   N=          12
 -3.29641698E+00 -2.14292141E-01 -2.54727678E-31 -1.69905264E+00 -1.11443799E+00
 -1.38043402E-31  3.46272987E-16  9.81480715E-01 -2.72751499E-32  2.11110476E+00
  2.82428878E-01  2.77852943E-31
Number of symbols in /Mol/                 I                0
Force Field                                I                0
Atom Types                                 C   N=           4
                                                
Int Atom Types                             I   N=           4
           0           0           0           0
MM charges                                 R   N=           4
  0.00000000E+00  0.00000000E+00  0.00000000E+00  0.00000000E+00
Integer atomic weights                     I   N=           4
           1          16          14          16
Real atomic weights                        R   N=           4
  1.00782504E+00  1.59949146E+01  1.40030740E+01  1.59949146E+01
Atom fragment info                         I   N=           4
           0           0           0           0
Atom residue num                           I   N=           4
           0           0           0           0
Nuclear spins                              I   N=           4
           1           0           2           0
Nuclear ZEff                               R   N=           4
 -1.00000000E+00 -5.60000000E+00 -4.55000000E+00 -5.60000000E+00
Nuclear ZNuc                               R   N=           4
  1.00000000E+00  8.00000000E+00  7.00000000E+00  8.00000000E+00
Nuclear QMom                               R   N=           4
  0.00000000E+00  0.00000000E+00  2.04400000E+00  0.00000000E+00
Nuclear GFac                               R   N=           4
  2.79284600E+00  0.00000000E+00  4.03761000E-01  0.00000000E+00
MicOpt                                     I   N=           4
          -1          -1          -1          -1
Number of residues                         I                0
Number of secondary structures             I                0
SymInf integers                            I   N=          26
           1           2           1           1           1           1
           1          -1           0           0           0           0
           0           0           0           0           0           0
           0           0           0           0           0           0
           0           0
RotTr to input orientation                 R   N=          12
  4.90935751E-01  2.38156686E-16  8.71195781E-01  8.71195781E-01  4.01616437E-17
 -4.90935751E-01 -1.51908286E-16  1.00000000E+00 -1.87764313E-16  1.80501935E+00
  0.00000000E+00  2.76662089E+00
Number of contracted shells                I               51
Number of primitive shells                 I               92
Pure/Cartesian d shells                    I                0
Pure/Cartesian f shells                    I                0
Highest angular momentum                   I                3
Largest degree of contraction              I                7
Shell types                                I   N=          51
           0           0           0           0           1           1
           1          -2          -2           0           0           0
           0           0           1           1           1           1
          -2          -2          -2          -3          -3           0
           0           0           0           0           1           1
           1           1          -2          -2          -2          -3
          -3           0           0           0           0           0
           1           1           1           1          -2          -2
          -2          -3          -3
Number of primitives per shell             I   N=          51
           3           1           1           1           1           1
           1           1           1           7           6           1
           1           1           3           1           1           1
           1           1           1           1           1           7
           6           1           1           1           3           1
           1           1           1           1           1           1
           1           7           6           1           1           1
           3           1           1           1           1           1
           1           1           1
Shell to atom map                          I   N=          51
           1           1           1           1           1           1
           1           1           1           2           2           2
           2           2           2           2           2           2
           2           2           2           2           2           3
           3           3           3           3           3           3
           3           3           3           3           3           3
           3           4           4           4           4           4
           4           4           4           4           4           4
           4           4           4
Primitive exponents                        R   N=          92
  3.38700000E+01  5.09500000E+00  1.15900000E+00  3.25800000E-01  1.02700000E-01
  2.52600000E-02  1.40700000E+00  3.88000000E-01  1.02000000E-01  1.05700000E+00
  2.47000000E-01  1.53300000E+04  2.29900000E+03  5.22400000E+02  1.47300000E+02
  4.75500000E+01  1.67600000E+01  6.20700000E+00  5.22400000E+02  1.47300000E+02
  4.75500000E+01  1.67600000E+01  6.20700000E+00  6.88200000E-01  1.75200000E+00
  2.38400000E-01  7.37600000E-02  3.44600000E+01  7.74900000E+00  2.28000000E+00
  7.15600000E-01  2.14000000E-01  5.97400000E-02  2.31400000E+00  6.45000000E-01
  2.14000000E-01  1.42800000E+00  5.00000000E-01  1.14200000E+04  1.71200000E+03
  3.89300000E+02  1.10000000E+02  3.55700000E+01  1.25400000E+01  4.64400000E+00
  3.89300000E+02  1.10000000E+02  3.55700000E+01  1.25400000E+01  4.64400000E+00
  5.11800000E-01  1.29300000E+00  1.78700000E-01  5.76000000E-02  2.66300000E+01
  5.94800000E+00  1.74200000E+00  5.55000000E-01  1.72500000E-01  4.91000000E-02
  1.65400000E+00  4.69000000E-01  1.51000000E-01  1.09300000E+00  3.64000000E-01
  1.53300000E+04  2.29900000E+03  5.22400000E+02  1.47300000E+02  4.75500000E+01
  1.67600000E+01  6.20700000E+00  5.22400000E+02  1.47300000E+02  4.75500000E+01
  1.67600000E+01  6.20700000E+00  6.88200000E-01  1.75200000E+00  2.38400000E-01
  7.37600000E-02  3.44600000E+01  7.74900000E+00  2.28000000E+00  7.15600000E-01
  2.14000000E-01  5.97400000E-02  2.31400000E+00  6.45000000E-01  2.14000000E-01
  1.42800000E+00  5.00000000E-01
Contraction coefficients                   R   N=          92
  2.54948632E-02  1.90362766E-01  8.52162022E-01  1.00000000E+00  1.00000000E+00
  1.00000000E+00  1.00000000E+00  1.00000000E+00  1.00000000E+00  1.00000000E+00
  1.00000000E+00  5.19808943E-04  4.02025621E-03  2.07128267E-02  8.10105536E-02
  2.35962985E-01  4.42653446E-01  3.57064423E-01 -4.42115008E-05 -1.22591041E-03
 -1.05517725E-02 -6.74452633E-02 -1.71198607E-01  1.07329856E+00  1.00000000E+00
  1.00000000E+00  1.00000000E+00  4.11634896E-02  2.57762836E-01  8.02419274E-01
  1.00000000E+00  1.00000000E+00  1.00000000E+00  1.00000000E+00  1.00000000E+00
  1.00000000E+00  1.00000000E+00  1.00000000E+00  5.34563860E-04  4.13435660E-03
  2.12335358E-02  8.25006224E-02  2.38138871E-01  4.42551547E-01  3.53757422E-01
 -4.89867350E-05 -1.19527323E-03 -1.03490714E-02 -6.48680190E-02 -1.71552477E-01
  1.07289568E+00  1.00000000E+00  1.00000000E+00  1.00000000E+00  3.98072123E-02
  2.49002660E-01  8.10479727E-01  1.00000000E+00  1.00000000E+00  1.00000000E+00
  1.00000000E+00  1.00000000E+00  1.00000000E+00  1.00000000E+00  1.00000000E+00
  5.19808943E-04  4.02025621E-03  2.07128267E-02  8.10105536E-02  2.35962985E-01
  4.42653446E-01  3.57064423E-01 -4.42115008E-05 -1.22591041E-03 -1.05517725E-02
 -6.74452633E-02 -1.71198607E-01  1.07329856E+00  1.00000000E+00  1.00000000E+00
  1.00000000E+00  4.11634896E-02  2.57762836E-01  8.02419274E-01  1.00000000E+00
  1.00000000E+00  1.00000000E+00  1.00000000E+00  1.00000000E+00  1.00000000E+00
  1.00000000E+00  1.00000000E+00
Coordinates of each shell                  R   N=         153
 -3.29641698E+00 -2.14292141E-01 -1.11475301E-31 -3.29641698E+00 -2.14292141E-01
 -1.11475301E-31 -3.29641698E+00 -2.14292141E-01 -1.11475301E-31 -3.29641698E+00
 -2.14292141E-01 -1.11475301E-31 -3.29641698E+00 -2.14292141E-01 -1.11475301E-31
 -3.29641698E+00 -2.14292141E-01 -1.11475301E-31 -3.29641698E+00 -2.14292141E-01
 -1.11475301E-31 -3.29641698E+00 -2.14292141E-01 -1.11475301E-31 -3.29641698E+00
 -2.14292141E-01 -1.11475301E-31 -1.69905264E+00 -1.11443799E+00 -5.76813949E-32
 -1.69905264E+00 -1.11443799E+00 -5.76813949E-32 -1.69905264E+00 -1.11443799E+00
 -5.76813949E-32 -1.69905264E+00 -1.11443799E+00 -5.76813949E-32 -1.69905264E+00
 -1.11443799E+00 -5.76813949E-32 -1.69905264E+00 -1.11443799E+00 -5.76813949E-32
 -1.69905264E+00 -1.11443799E+00 -5.76813949E-32 -1.69905264E+00 -1.11443799E+00
 -5.76813949E-32 -1.69905264E+00 -1.11443799E+00 -5.76813949E-32 -1.69905264E+00
 -1.11443799E+00 -5.76813949E-32 -1.69905264E+00 -1.11443799E+00 -5.76813949E-32
 -1.69905264E+00 -1.11443799E+00 -5.76813949E-32 -1.69905264E+00 -1.11443799E+00
 -5.76813949E-32 -1.69905264E+00 -1.11443799E+00 -5.76813949E-32  1.64653152E-16
  9.81480715E-01  2.19312836E-34  1.64653152E-16  9.81480715E-01  2.19312836E-34
  1.64653152E-16  9.81480715E-01  2.19312836E-34  1.64653152E-16  9.81480715E-01
  2.19312836E-34  1.64653152E-16  9.81480715E-01  2.19312836E-34  1.64653152E-16
  9.81480715E-01  2.19312836E-34  1.64653152E-16  9.81480715E-01  2.19312836E-34
  1.64653152E-16  9.81480715E-01  2.19312836E-34  1.64653152E-16  9.81480715E-01
  2.19312836E-34  1.64653152E-16  9.81480715E-01  2.19312836E-34  1.64653152E-16
  9.81480715E-01  2.19312836E-34  1.64653152E-16  9.81480715E-01  2.19312836E-34
  1.64653152E-16  9.81480715E-01  2.19312836E-34  1.64653152E-16  9.81480715E-01
  2.19312836E-34  2.11110476E+00  2.82428878E-01  7.14239088E-32  2.11110476E+00
  2.82428878E-01  7.14239088E-32  2.11110476E+00  2.82428878E-01  7.14239088E-32
  2.11110476E+00  2.82428878E-01  7.14239088E-32  2.11110476E+00  2.82428878E-01
  7.14239088E-32  2.11110476E+00  2.82428878E-01  7.14239088E-32  2.11110476E+00
  2.82428878E-01  7.14239088E-32  2.11110476E+00  2.82428878E-01  7.14239088E-32
  2.11110476E+00  2.82428878E-01  7.14239088E-32  2.11110476E+00  2.82428878E-01
  7.14239088E-32  2.11110476E+00  2.82428878E-01  7.14239088E-32  2.11110476E+00
  2.82428878E-01  7.14239088E-32  2.11110476E+00  2.82428878E-01  7.14239088E-32
  2.11110476E+00  2.82428878E-01  7.14239088E-32
Num ILSW                                   I              100
ILSW                                       I   N=         100
           0           0           0           0           2           0
           0           0           0           0           0          -1
           5           0           0           0           0           0
           0           0           0           0           0           0
           1           0           0           0           0           0
           0           0      100000           0          -1           0
           0           0           0           0           0           0
           0           0           0           1           0           0
           0 -2000000000           1           0           0           0
           0           0           4          52           0           0
           0           0           0           0           0           0
           0           0           0           4           0           1
           0           0           0           0           0           0
           0           0           0           0           0           0
           0           0           0           0           0           0
           0           0           0           0           0           0
           0           0           0           0
Num RLSW                                   I               52
RLSW                                       R   N=          52
  1.00000000E+00  1.00000000E+00  1.00000000E+00  1.00000000E+00  1.00000000E+00
  0.00000000E+00  0.00000000E+00  1.00000000E+00  0.00000000E+00  0.00000000E+00
  0.00000000E+00  0.00000000E+00  1.00000000E+00  0.00000000E+00  0.00000000E+00
  0.00000000E+00  0.00000000E+00  1.00000000E+00  0.00000000E+00  0.00000000E+00
  0.00000000E+00  0.00000000E+00  1.00000000E+00  0.00000000E+00  0.00000000E+00
  0.00000000E+00  0.00000000E+00  1.00000000E+00  0.00000000E+00  0.00000000E+00
  0.00000000E+00  0.00000000E+00  1.00000000E+00  0.00000000E+00  0.00000000E+00
  0.00000000E+00  0.00000000E+00  0.00000000E+00  1.00000000E+00  1.00000000E+00
  0.00000000E+00  1.00000000E+00  0.00000000E+00  0.00000000E+00  0.00000000E+00
  0.00000000E+00  0.00000000E+00  0.00000000E+00  0.00000000E+00  0.00000000E+00
  0.00000000E+00  0.00000000E+00
MxBond                                     I                2
NBond                                      I   N=           4
           1           2           2           1
IBond                                      I   N=           8
           2           0           1           3           2           4
           3           0
RBond                                      R   N=           8
  1.00000000E+00  0.00000000E+00  1.00000000E+00  1.00000000E+00  1.00000000E+00
  2.00000000E+00  2.00000000E+00  0.00000000E+00
Virial Ratio                               R      2.002334319142360E+00
SCF Energy                                 R     -2.047229687291694E+02
MP2 Energy                                 R     -2.054212398691248E+02
Total Energy                               R     -2.054212398691248E+02
Post-SCF wavefunction norm                 R      1.090075702169540E+00
RMS Density                                R      5.410486113860554E-09
Job Status                                 I                1
Nuclear derivative order                   I                0
External E-field                           R   N=          35
  0.00000000E+00  0.00000000E+00  0.00000000E+00  0.00000000E+00  0.00000000E+00
  0.00000000E+00  0.00000000E+00  0.00000000E+00  0.00000000E+00  0.00000000E+00
  0.00000000E+00  0.00000000E+00  0.00000000E+00  0.00000000E+00  0.00000000E+00
  0.00000000E+00  0.00000000E+00  0.00000000E+00  0.00000000E+00  0.00000000E+00
  0.00000000E+00  0.00000000E+00  0.00000000E+00  0.00000000E+00  0.00000000E+00
  0.00000000E+00  0.00000000E+00  0.00000000E+00  0.00000000E+00  0.00000000E+00
  0.00000000E+00  0.00000000E+00  0.00000000E+00  0.00000000E+00  0.00000000E+00
IOpCl                                      I                0
IROHF                                      I                0
Alpha Orbital Energies                     R   N=         161
 -2.06652752E+01 -2.06432511E+01 -1.57986598E+01 -1.60315865E+00 -1.40387189E+00
 -9.47396859E-01 -7.83411245E-01 -7.30720039E-01 -6.81924883E-01 -6.26914726E-01
 -5.28885457E-01 -4.62081579E-01  2.81344345E-02  8.01211664E-02  9.38144593E-02
  9.72841611E-02  1.28608623E-01  1.43669341E-01  1.57010724E-01  1.72439059E-01
  1.87415429E-01  1.96208511E-01  2.05420733E-01  2.33732439E-01  2.56967180E-01
  2.96558629E-01  3.07555298E-01  3.29216595E-01  3.67119346E-01  3.82407960E-01
  4.23441560E-01  5.24797800E-01  5.26454925E-01  5.50449878E-01  5.74396896E-01
  6.12291731E-01  6.30802737E-01  6.47939676E-01  6.79937024E-01  7.14475973E-01
  7.17872814E-01  7.47265617E-01  7.73463226E-01  7.83648685E-01  8.11279917E-01
  8.13090492E-01  8.61173060E-01  8.82673546E-01  9.25649930E-01  9.38698027E-01
  9.44726283E-01  9.95914864E-01  1.05157383E+00  1.06514609E+00  1.08287206E+00
  1.10689100E+00  1.16197708E+00  1.20037263E+00  1.24587369E+00  1.27118158E+00
  1.35881832E+00  1.43199901E+00  1.48419663E+00  1.52180226E+00  1.52184532E+00
  1.54441855E+00  1.55117037E+00  1.61239960E+00  1.65893404E+00  1.73095980E+00
  1.75532653E+00  1.82094197E+00  1.85880929E+00  1.95902103E+00  1.98082977E+00
  1.99961116E+00  2.07607212E+00  2.13144362E+00  2.13172462E+00  2.19996137E+00
  2.27116347E+00  2.30541624E+00  2.33039086E+00  2.38182769E+00  2.45145416E+00
  2.47327133E+00  2.49457516E+00  2.50315180E+00  2.52027132E+00  2.54417699E+00
  2.57623398E+00  2.60653885E+00  2.60931284E+00  2.66238135E+00  2.76859868E+00
  2.77439907E+00  2.84063750E+00  2.93726199E+00  2.95340314E+00  3.11356126E+00
  3.13262100E+00  3.18034329E+00  3.25248252E+00  3.47422571E+00  3.82571594E+00
  3.85761124E+00  4.02557348E+00  4.16580171E+00  4.19062805E+00  4.21213709E+00
  4.35110167E+00  4.37243220E+00  4.59218863E+00  4.63958708E+00  4.74384242E+00
  4.81810458E+00  4.87614582E+00  4.88648045E+00  4.96360716E+00  4.99898437E+00
  5.07074438E+00  5.08473726E+00  5.17388817E+00  5.24714719E+00  5.26290226E+00
  5.33752644E+00  5.37185678E+00  5.37712055E+00  5.58087062E+00  5.66723069E+00
  5.79466957E+00  5.98544782E+00  6.13979001E+00  6.42889426E+00  6.50589762E+00
  6.50916638E+00  6.67678771E+00  6.71334687E+00  6.75042731E+00  6.85054131E+00
  6.91644783E+00  7.05935645E+00  7.12058287E+00  7.17915050E+00  7.23096198E+00
  7.25908891E+00  7.25983687E+00  7.33215666E+00  7.38081588E+00  7.42730747E+00
  7.48001524E+00  7.61018413E+00  7.65118514E+00  7.69210432E+00  7.80430656E+00
  7.99432549E+00  8.05785973E+00  8.41914228E+00  1.42215558E+01  1.51077796E+01
  1.59856538E+01
Alpha MO coefficients                      R   N=       25921
  6.29582629E-05  1.23858870E-04 -4.06034964E-04  2.63348548E-06  4.95365757E-05
  7.51196159E-06  0.00000000E+00 -8.70650690E-05  3.65945021E-05  0.00000000E+00
 -2.77436182E-04  6.31880636E-06  0.00000000E+00  2.48251317E-05  0.00000000E+00
  0.00000000E+00  3.50271512E-06 -1.13075392E-05  5.12293185E-05  0.00000000E+00
  0.00000000E+00 -4.09535371E-05 -2.51636087E-05 -8.46519204E-04  8.31727191E-05
 -6.30525394E-05 -5.71400230E-05  2.28911788E-04 -1.77176382E-05 -1.83988650E-05
  0.00000000E+00  7.97151870E-05  5.39888157E-05  0.00000000E+00  1.16648696E-04
  7.86168208E-05  0.00000000E+00  1.18914712E-04  5.70613676E-05  0.00000000E+00
 -9.13889049E-06  0.00000000E+00  0.00000000E+00  2.78371537E-05 -9.71995537E-06
 -4.88284033E-07  0.00000000E+00  0.00000000E+00 -9.95360992E-05  1.08882006E-04
 -2.14696012E-05  0.00000000E+00  0.00000000E+00 -8.12242420E-05  2.16987682E-04
  0.00000000E+00 -2.81185254E-06  1.79032630E-06  0.00000000E+00  0.00000000E+00
  7.92361639E-06 -1.31466596E-05  0.00000000E+00  1.89663934E-05 -2.04402516E-05
  0.00000000E+00  0.00000000E+00 -1.82326987E-04 -4.71297027E-05  2.49593517E-04
  1.42006569E-03 -1.02392160E-04 -1.49498018E-03  3.91934213E-04  1.13230161E-04
 -6.41600375E-05  0.00000000E+00  2.04328206E-03 -5.64619801E-04  0.00000000E+00
 -1.16018760E-03 -8.65875174E-05  0.00000000E+00  1.09520642E-04 -9.53842853E-05
  0.00000000E+00 -1.25317367E-04  0.00000000E+00  0.00000000E+00  2.12985234E-04
 -1.45406353E-04 -4.40118440E-04  0.00000000E+00  0.00000000E+00  5.52634266E-04
 -7.87599570E-04 -1.66485346E-06  0.00000000E+00  0.00000000E+00 -1.71026960E-04
  1.51262870E-04  0.00000000E+00 -1.33575418E-05 -1.28587725E-05  0.00000000E+00
  0.00000000E+00 -1.42719993E-05  1.47245229E-05  0.00000000E+00 -1.39369574E-04
  1.28391758E-04  0.00000000E+00  0.00000000E+00  2.04382667E-05 -2.94358696E-04
  9.76650559E-01 -9.86276565E-03  4.35640083E-02  4.27972335E-03 -5.38417852E-04
 -2.10575202E-03  5.71484665E-04  0.00000000E+00  2.40911913E-03 -5.92510192E-04
  0.00000000E+00 -9.76147404E-04  5.60461940E-04  0.00000000E+00  5.59431216E-05
  3.15344450E-05  0.00000000E+00 -2.29368408E-04  0.00000000E+00  0.00000000E+00
  7.71757955E-05 -5.51669942E-05  3.86924139E-04  0.00000000E+00  0.00000000E+00
 -8.26194293E-04  4.45050448E-04 -1.58436193E-04  0.00000000E+00  0.00000000E+00
  1.71399139E-04 -2.50571697E-04  0.00000000E+00 -5.53287803E-05  1.10960959E-05
  0.00000000E+00  0.00000000E+00  1.69210705E-05 -2.46951982E-05  0.00000000E+00
 -1.23871755E-04  4.60138317E-05  0.00000000E+00  0.00000000E+00  1.60039197E-04
 -1.54063153E-04  4.68944987E-04  2.32995980E-03  3.31076680E-04 -9.92789691E-06
  2.20941178E-04 -1.11179958E-04  0.00000000E+00  9.42980788E-04 -8.84586157E-04
  0.00000000E+00  7.87296782E-05 -4.37118912E-04  0.00000000E+00  1.00616420E-05
  0.00000000E+00  0.00000000E+00 -3.81764338E-05  6.21368275E-05 -1.67332804E-04
  0.00000000E+00  0.00000000E+00  1.39807648E-04 -4.19303334E-04  9.76757723E-01
 -9.26047786E-03  4.35454717E-02  9.48593908E-04 -9.48359203E-04 -3.80109736E-04
  1.85485985E-03  0.00000000E+00  1.80718648E-04 -1.85331547E-03  0.00000000E+00
  1.37561640E-03  3.24943831E-04  0.00000000E+00  6.18981777E-05  2.08680480E-05
  0.00000000E+00 -3.97216113E-05  0.00000000E+00  0.00000000E+00  2.76419912E-05
 -5.06973723E-05  6.40851984E-04  0.00000000E+00  0.00000000E+00 -2.72720012E-04
 -2.24416231E-04 -9.40414480E-05  0.00000000E+00  0.00000000E+00 -2.72535760E-04
  3.49149534E-04  0.00000000E+00  2.97590642E-05  4.60055843E-05  0.00000000E+00
  0.00000000E+00  1.30232918E-05 -3.07821186E-06  0.00000000E+00 -8.39259960E-05
  5.57615800E-05  0.00000000E+00  0.00000000E+00  1.95892570E-04 -2.31945073E-04
  5.80874886E-05  1.53368057E-04 -3.17682300E-04 -3.49169214E-04  9.00317566E-04
  8.44169832E-05  7.72137049E-05  0.00000000E+00 -7.13932721E-04 -6.46798517E-04
  0.00000000E+00  4.30432816E-04  5.41643248E-04  0.00000000E+00 -1.81752257E-04
 -1.83869547E-04  0.00000000E+00 -3.39228164E-05  0.00000000E+00  0.00000000E+00
 -3.32783805E-05  5.01343691E-05 -3.97044649E-04  0.00000000E+00  0.00000000E+00
 -1.71606961E-04  9.25495466E-04 -1.81980932E-04  0.00000000E+00  0.00000000E+00
  5.39852301E-04  4.74539990E-05  0.00000000E+00  8.94991347E-05  9.90637939E-05
  0.00000000E+00  0.00000000E+00  1.44755804E-04 -5.99787855E-05  0.00000000E+00
  4.71409002E-05  1.19487874E-04  0.00000000E+00  0.00000000E+00  4.29685766E-04
  3.14006839E-05  8.80725097E-04  4.38790108E-05  2.28161791E-05 -2.69191988E-04
 -1.82399357E-04  1.57548437E-05  2.20190385E-05  0.00000000E+00 -1.15214443E-04
 -1.24437396E-04  0.00000000E+00 -4.36377742E-04 -4.38905357E-04  0.00000000E+00
  1.16213092E-05  9.11704942E-06  0.00000000E+00 -5.40203056E-06  0.00000000E+00
  0.00000000E+00 -1.36254623E-05  1.03906312E-05  6.06353825E-07  0.00000000E+00
  0.00000000E+00  1.44442439E-04  3.07189507E-05 -7.17502654E-05  0.00000000E+00
  0.00000000E+00  2.68349025E-04  2.61541355E-05  0.00000000E+00 -2.96455127E-06
  9.37139198E-06  0.00000000E+00  0.00000000E+00  1.34115008E-05 -8.36743568E-06
  0.00000000E+00 -1.11510753E-05 -4.95016922E-05  0.00000000E+00  0.00000000E+00
 -1.17739965E-04  7.31521978E-05 -8.57642388E-05 -6.07781717E-04 -4.12944637E-04
  1.98315635E-04 -3.79976366E-05  3.44486292E-05  0.00000000E+00 -4.14067465E-04
 -2.75301728E-04  0.00000000E+00 -2.94474129E-04 -2.89686749E-04  0.00000000E+00
 -2.16289955E-05  0.00000000E+00  0.00000000E+00 -2.18558965E-05 -2.05368711E-05
  8.65007614E-05  0.00000000E+00  0.00000000E+00  8.37857613E-06 -1.68021530E-04
 -1.28323819E-04 -2.24028737E-04 -2.06659148E-04  4.84715438E-03  3.24589374E-03
 -1.00391207E-05 -3.95650409E-05  0.00000000E+00  5.51278618E-04  8.41220636E-04
  0.00000000E+00  2.19243247E-03  2.94650088E-03  0.00000000E+00  7.73970398E-04
  5.51348357E-04  0.00000000E+00  6.36039831E-07  0.00000000E+00  0.00000000E+00
 -3.27325496E-05  4.48263562E-05 -4.43352536E-04  0.00000000E+00  0.00000000E+00
 -2.45339468E-05  5.33432778E-04 -6.08756149E-04  0.00000000E+00  0.00000000E+00
 -2.23935520E-04  8.87598171E-04  0.00000000E+00 -2.06332485E-05 -2.06444834E-05
  0.00000000E+00  0.00000000E+00 -3.93002642E-05  2.98479550E-05  0.00000000E+00
 -8.14566555E-05 -1.39584981E-04  0.00000000E+00  0.00000000E+00 -3.66531492E-05
  2.35072760E-04  9.78277383E-01 -8.40913426E-03  4.17881791E-02 -5.29327374E-03
 -2.98707139E-03  1.09939837E-03 -3.02380310E-03  0.00000000E+00  8.13459703E-05
  2.95877824E-03  0.00000000E+00 -5.21055240E-04  3.00555835E-03  0.00000000E+00
  4.98914750E-05  5.40300999E-04  0.00000000E+00 -4.38859797E-04  0.00000000E+00
  0.00000000E+00  2.41786533E-04 -2.29306356E-04  1.02417590E-03  0.00000000E+00
  0.00000000E+00 -1.76997097E-04 -2.92652547E-04  3.43044141E-04  0.00000000E+00
  0.00000000E+00  1.31839558E-04 -2.51176957E-05  0.00000000E+00 -8.87131204E-05
 -6.75092058E-05  0.00000000E+00  0.00000000E+00  5.97099706E-05 -1.20142590E-05
  0.00000000E+00  2.23670275E-04 -2.29368623E-04  0.00000000E+00  0.00000000E+00
 -4.63890566E-04  2.64951129E-04 -1.88958137E-04  9.21270791E-04  1.57791474E-04
  3.02182760E-03  8.81330969E-04 -2.62249024E-04  1.23191343E-04  0.00000000E+00
 -8.76251940E-04  2.79420341E-04  0.00000000E+00 -1.24255751E-03 -1.43217711E-04
  0.00000000E+00 -1.42014073E-05  2.65175771E-05  0.00000000E+00 -3.94207239E-05
  0.00000000E+00  0.00000000E+00  7.12938307E-05 -8.48334889E-05  7.23613232E-05
  0.00000000E+00  0.00000000E+00  1.16937581E-06  2.70538884E-04 -3.45859467E-05
  0.00000000E+00  0.00000000E+00  2.97751090E-04  1.38474166E-04  0.00000000E+00
 -9.26417574E-05  3.58865320E-05  0.00000000E+00  0.00000000E+00  5.54237190E-05
 -1.11450402E-04  0.00000000E+00 -1.56585449E-04  1.26278311E-04  0.00000000E+00
  0.00000000E+00 -2.93949597E-05 -3.54905558E-04  2.16506509E-02  1.77227346E-02
 -1.98612154E-03  4.36324803E-04  3.28528804E-03 -1.02362800E-03  0.00000000E+00
  2.67792222E-03 -1.35656381E-03  0.00000000E+00 -2.58725759E-03  2.11202313E-05
  0.00000000E+00 -2.60141842E-04  0.00000000E+00  0.00000000E+00  4.24376523E-04
 -3.42125188E-04  2.88526898E-04  0.00000000E+00  0.00000000E+00  3.70379725E-04
 -6.84814787E-04 -6.68083495E-02  1.61797129E-01  4.31297377E-02  9.27024748E-02
  7.80529206E-03  1.51606209E-02  2.37652431E-02  0.00000000E+00  2.05263429E-02
  3.41287287E-02  0.00000000E+00  1.19798222E-02  1.05226392E-02  0.00000000E+00
  2.09255544E-03 -1.77943108E-03  0.00000000E+00 -1.84271918E-03  0.00000000E+00
  0.00000000E+00  5.45023082E-05  1.78488656E-03 -4.15651286E-03  0.00000000E+00
  0.00000000E+00  6.62751269E-04  4.27943844E-03  1.01515760E-03  0.00000000E+00
  0.00000000E+00  2.48581260E-04  1.60390501E-03  0.00000000E+00 -4.69402713E-04
 -8.99516980E-04  0.00000000E+00  0.00000000E+00 -6.68858444E-04  1.30712940E-03
  0.00000000E+00  2.67886262E-04  5.17639502E-04  0.00000000E+00  0.00000000E+00
  2.61298447E-04  1.78948196E-04 -1.30132659E-01  3.07567397E-01  8.09881377E-02
  6.39358411E-02  6.70208337E-04  7.30723226E-02 -4.72138092E-02  0.00000000E+00
  7.66114608E-02 -6.50262732E-02  0.00000000E+00  2.49973709E-03  8.75249074E-03
  0.00000000E+00 -3.17283829E-05  3.14409738E-03  0.00000000E+00 -9.28766018E-03
  0.00000000E+00  0.00000000E+00  8.49413327E-03 -6.29329875E-03 -1.14959445E-02
  0.00000000E+00  0.00000000E+00  9.21727356E-03 -5.92656815E-03  6.12238813E-03
  0.00000000E+00  0.00000000E+00 -1.05575263E-04 -4.46054465E-04  0.00000000E+00
 -2.48906192E-03  2.44059796E-03  0.00000000E+00  0.00000000E+00  4.83922322E-03
 -5.48868361E-03  0.00000000E+00  1.44452088E-03 -4.24948116E-04  0.00000000E+00
  0.00000000E+00 -9.89533195E-04 -4.78776560E-05 -1.49890541E-01  3.58506768E-01
  9.61012602E-02  1.79150933E-01 -1.51080046E-02 -7.96701310E-02  2.19108341E-02
  0.00000000E+00 -1.00998247E-01  2.75447366E-02  0.00000000E+00 -1.75098824E-02
  3.33644985E-03  0.00000000E+00  8.60582288E-03 -2.39202859E-03  0.00000000E+00
 -5.15142795E-03  0.00000000E+00  0.00000000E+00  7.26903301E-03 -4.48045049E-03
 -9.44984016E-03  0.00000000E+00  0.00000000E+00  1.49693269E-02 -9.43030314E-03
  2.54065390E-03  0.00000000E+00  0.00000000E+00 -3.69575838E-03  2.61896130E-03
  0.00000000E+00  3.13569316E-03 -8.71727624E-04  0.00000000E+00  0.00000000E+00
 -3.30019980E-03  3.62168787E-03  0.00000000E+00  9.84206341E-05 -2.67244552E-04
  0.00000000E+00  0.00000000E+00 -1.01282898E-03  1.89860447E-03  8.05802966E-02
  7.95419955E-02 -2.11773317E-02 -2.92377938E-03  1.16554578E-02 -5.21951731E-03
  0.00000000E+00  1.44366779E-02 -2.21925044E-03  0.00000000E+00 -7.92554926E-03
  2.31946069E-03  0.00000000E+00 -1.28253022E-03  0.00000000E+00  0.00000000E+00
  2.03834808E-03 -1.40925519E-03  4.74442461E-04  0.00000000E+00  0.00000000E+00
  2.07129780E-03  1.27179914E-03 -1.80965868E-01  4.40928152E-01  1.20337164E-01
  2.57154107E-01  1.14414323E-02 -1.54283641E-02  3.89780127E-02  0.00000000E+00