title                                                                   
SP        RMP2-FC                                                     Aug-CC-pVTZ         
Number of atoms                            I                4
Info1-9                                    I   N=           9
          29          20           0           0           0         110
           1           2           1
Full Title                                 C   N=           1
title       
Route                                      C   N=           4
#p SP mp2/aug-cc-pvtz density=current           
Charge                                     I                0
Multiplicity                               I                1
Number of electrons                        I               24
Number of alpha electrons                  I               12
Number of beta electrons                   I               12
Number of basis functions                  I              161
Number of independent functions            I              161
Number of point charges in /Mol/           I                0
Number of translation vectors              I                0
Atomic numbers                             I   N=           4
           1           8           7           8
Nuclear charges                            R   N=           4
  1.00000000E+00  8.00000000E+00  7.00000000E+00  8.00000000E+00
Current cartesian coordinates              R   N=          12
  3.34114143E+00 -2.66591836E-01  1.15866694E-31  1.69485632E+00 -1.11584754E+00
  2.54718424E-31 -2.53409434E-16  9.83465950E-01 -4.26586015E-31 -2.11249900E+00
  2.88638809E-01 -1.54669930E-31
Number of symbols in /Mol/                 I                0
Force Field                                I                0
Atom Types                                 C   N=           4
                                                
Int Atom Types                             I   N=           4
           0           0           0           0
MM charges                                 R   N=           4
  0.00000000E+00  0.00000000E+00  0.00000000E+00  0.00000000E+00
Integer atomic weights                     I   N=           4
           1          16          14          16
Real atomic weights                        R   N=           4
  1.00782504E+00  1.59949146E+01  1.40030740E+01  1.59949146E+01
Atom fragment info                         I   N=           4
           0           0           0           0
Atom residue num                           I   N=           4
           0           0           0           0
Nuclear spins                              I   N=           4
           1           0           2           0
Nuclear ZEff                               R   N=           4
 -1.00000000E+00 -5.60000000E+00 -4.55000000E+00 -5.60000000E+00
Nuclear ZNuc                               R   N=           4
  1.00000000E+00  8.00000000E+00  7.00000000E+00  8.00000000E+00
Nuclear QMom                               R   N=           4
  0.00000000E+00  0.00000000E+00  2.04400000E+00  0.00000000E+00
Nuclear GFac                               R   N=           4
  2.79284600E+00  0.00000000E+00  4.03761000E-01  0.00000000E+00
MicOpt                                     I   N=           4
          -1          -1          -1          -1
Number of residues                         I                0
Number of secondary structures             I                0
SymInf integers                            I   N=          26
           1           2           1           1           1           1
           1          -1           0           0           0           0
           0           0           0           0           0           0
           0           0           0           0           0           0
           0           0
RotTr to input orientation                 R   N=          12
 -4.58455417E-01 -3.07222512E-16 -8.88717408E-01  8.88717408E-01 -9.11756548E-16
 -4.58455417E-01 -6.69446091E-16 -1.00000000E+00  6.91033722E-16  1.76868919E+00
  0.00000000E+00  2.84711008E+00
Number of contracted shells                I               51
Number of primitive shells                 I               92
Pure/Cartesian d shells                    I                0
Pure/Cartesian f shells                    I                0
Highest angular momentum                   I                3
Largest degree of contraction              I                7
Shell types                                I   N=          51
           0           0           0           0           1           1
           1          -2          -2           0           0           0
           0           0           1           1           1           1
          -2          -2          -2          -3          -3           0
           0           0           0           0           1           1
           1           1          -2          -2          -2          -3
          -3           0           0           0           0           0
           1           1           1           1          -2          -2
          -2          -3          -3
Number of primitives per shell             I   N=          51
           3           1           1           1           1           1
           1           1           1           7           6           1
           1           1           3           1           1           1
           1           1           1           1           1           7
           6           1           1           1           3           1
           1           1           1           1           1           1
           1           7           6           1           1           1
           3           1           1           1           1           1
           1           1           1
Shell to atom map                          I   N=          51
           1           1           1           1           1           1
           1           1           1           2           2           2
           2           2           2           2           2           2
           2           2           2           2           2           3
           3           3           3           3           3           3
           3           3           3           3           3           3
           3           4           4           4           4           4
           4           4           4           4           4           4
           4           4           4
Primitive exponents                        R   N=          92
  3.38700000E+01  5.09500000E+00  1.15900000E+00  3.25800000E-01  1.02700000E-01
  2.52600000E-02  1.40700000E+00  3.88000000E-01  1.02000000E-01  1.05700000E+00
  2.47000000E-01  1.53300000E+04  2.29900000E+03  5.22400000E+02  1.47300000E+02
  4.75500000E+01  1.67600000E+01  6.20700000E+00  5.22400000E+02  1.47300000E+02
  4.75500000E+01  1.67600000E+01  6.20700000E+00  6.88200000E-01  1.75200000E+00
  2.38400000E-01  7.37600000E-02  3.44600000E+01  7.74900000E+00  2.28000000E+00
  7.15600000E-01  2.14000000E-01  5.97400000E-02  2.31400000E+00  6.45000000E-01
  2.14000000E-01  1.42800000E+00  5.00000000E-01  1.14200000E+04  1.71200000E+03
  3.89300000E+02  1.10000000E+02  3.55700000E+01  1.25400000E+01  4.64400000E+00
  3.89300000E+02  1.10000000E+02  3.55700000E+01  1.25400000E+01  4.64400000E+00
  5.11800000E-01  1.29300000E+00  1.78700000E-01  5.76000000E-02  2.66300000E+01
  5.94800000E+00  1.74200000E+00  5.55000000E-01  1.72500000E-01  4.91000000E-02
  1.65400000E+00  4.69000000E-01  1.51000000E-01  1.09300000E+00  3.64000000E-01
  1.53300000E+04  2.29900000E+03  5.22400000E+02  1.47300000E+02  4.75500000E+01
  1.67600000E+01  6.20700000E+00  5.22400000E+02  1.47300000E+02  4.75500000E+01
  1.67600000E+01  6.20700000E+00  6.88200000E-01  1.75200000E+00  2.38400000E-01
  7.37600000E-02  3.44600000E+01  7.74900000E+00  2.28000000E+00  7.15600000E-01
  2.14000000E-01  5.97400000E-02  2.31400000E+00  6.45000000E-01  2.14000000E-01
  1.42800000E+00  5.00000000E-01
Contraction coefficients                   R   N=          92
  2.54948632E-02  1.90362766E-01  8.52162022E-01  1.00000000E+00  1.00000000E+00
  1.00000000E+00  1.00000000E+00  1.00000000E+00  1.00000000E+00  1.00000000E+00
  1.00000000E+00  5.19808943E-04  4.02025621E-03  2.07128267E-02  8.10105536E-02
  2.35962985E-01  4.42653446E-01  3.57064423E-01 -4.42115008E-05 -1.22591041E-03
 -1.05517725E-02 -6.74452633E-02 -1.71198607E-01  1.07329856E+00  1.00000000E+00
  1.00000000E+00  1.00000000E+00  4.11634896E-02  2.57762836E-01  8.02419274E-01
  1.00000000E+00  1.00000000E+00  1.00000000E+00  1.00000000E+00  1.00000000E+00
  1.00000000E+00  1.00000000E+00  1.00000000E+00  5.34563860E-04  4.13435660E-03
  2.12335358E-02  8.25006224E-02  2.38138871E-01  4.42551547E-01  3.53757422E-01
 -4.89867350E-05 -1.19527323E-03 -1.03490714E-02 -6.48680190E-02 -1.71552477E-01
  1.07289568E+00  1.00000000E+00  1.00000000E+00  1.00000000E+00  3.98072123E-02
  2.49002660E-01  8.10479727E-01  1.00000000E+00  1.00000000E+00  1.00000000E+00
  1.00000000E+00  1.00000000E+00  1.00000000E+00  1.00000000E+00  1.00000000E+00
  5.19808943E-04  4.02025621E-03  2.07128267E-02  8.10105536E-02  2.35962985E-01
  4.42653446E-01  3.57064423E-01 -4.42115008E-05 -1.22591041E-03 -1.05517725E-02
 -6.74452633E-02 -1.71198607E-01  1.07329856E+00  1.00000000E+00  1.00000000E+00
  1.00000000E+00  4.11634896E-02  2.57762836E-01  8.02419274E-01  1.00000000E+00
  1.00000000E+00  1.00000000E+00  1.00000000E+00  1.00000000E+00  1.00000000E+00
  1.00000000E+00  1.00000000E+00
Coordinates of each shell                  R   N=         153
  3.34114143E+00 -2.66591836E-01  3.68893958E-31  3.34114143E+00 -2.66591836E-01
  3.68893958E-31  3.34114143E+00 -2.66591836E-01  3.68893958E-31  3.34114143E+00
 -2.66591836E-01  3.68893958E-31  3.34114143E+00 -2.66591836E-01  3.68893958E-31
  3.34114143E+00 -2.66591836E-01  3.68893958E-31  3.34114143E+00 -2.66591836E-01
  3.68893958E-31  3.34114143E+00 -2.66591836E-01  3.68893958E-31  3.34114143E+00
 -2.66591836E-01  3.68893958E-31  1.69485632E+00 -1.11584754E+00  3.32172330E-31
  1.69485632E+00 -1.11584754E+00  3.32172330E-31  1.69485632E+00 -1.11584754E+00
  3.32172330E-31  1.69485632E+00 -1.11584754E+00  3.32172330E-31  1.69485632E+00
 -1.11584754E+00  3.32172330E-31  1.69485632E+00 -1.11584754E+00  3.32172330E-31
  1.69485632E+00 -1.11584754E+00  3.32172330E-31  1.69485632E+00 -1.11584754E+00
  3.32172330E-31  1.69485632E+00 -1.11584754E+00  3.32172330E-31  1.69485632E+00
 -1.11584754E+00  3.32172330E-31  1.69485632E+00 -1.11584754E+00  3.32172330E-31
  1.69485632E+00 -1.11584754E+00  3.32172330E-31  1.69485632E+00 -1.11584754E+00
  3.32172330E-31  1.69485632E+00 -1.11584754E+00  3.32172330E-31 -1.02101232E-16
  9.83465950E-01 -1.45465845E-31 -1.02101232E-16  9.83465950E-01 -1.45465845E-31
 -1.02101232E-16  9.83465950E-01 -1.45465845E-31 -1.02101232E-16  9.83465950E-01
 -1.45465845E-31 -1.02101232E-16  9.83465950E-01 -1.45465845E-31 -1.02101232E-16
  9.83465950E-01 -1.45465845E-31 -1.02101232E-16  9.83465950E-01 -1.45465845E-31
 -1.02101232E-16  9.83465950E-01 -1.45465845E-31 -1.02101232E-16  9.83465950E-01
 -1.45465845E-31 -1.02101232E-16  9.83465950E-01 -1.45465845E-31 -1.02101232E-16
  9.83465950E-01 -1.45465845E-31 -1.02101232E-16  9.83465950E-01 -1.45465845E-31
 -1.02101232E-16  9.83465950E-01 -1.45465845E-31 -1.02101232E-16  9.83465950E-01
 -1.45465845E-31 -2.11249900E+00  2.88638809E-01 -2.51001460E-31 -2.11249900E+00
  2.88638809E-01 -2.51001460E-31 -2.11249900E+00  2.88638809E-01 -2.51001460E-31
 -2.11249900E+00  2.88638809E-01 -2.51001460E-31 -2.11249900E+00  2.88638809E-01
 -2.51001460E-31 -2.11249900E+00  2.88638809E-01 -2.51001460E-31 -2.11249900E+00
  2.88638809E-01 -2.51001460E-31 -2.11249900E+00  2.88638809E-01 -2.51001460E-31
 -2.11249900E+00  2.88638809E-01 -2.51001460E-31 -2.11249900E+00  2.88638809E-01
 -2.51001460E-31 -2.11249900E+00  2.88638809E-01 -2.51001460E-31 -2.11249900E+00
  2.88638809E-01 -2.51001460E-31 -2.11249900E+00  2.88638809E-01 -2.51001460E-31
 -2.11249900E+00  2.88638809E-01 -2.51001460E-31
Num ILSW                                   I              100
ILSW                                       I   N=         100
           0           0           0           0           2           0
           0           0           0           0           0          -1
           5           0           0           0           0           0
           0           0           0           0           0           0
           1           0           0           0           0           0
           0           0      100000           0          -1           0
           0           0           0           0           0           0
           0           0           0           1           0           0
           0 -2000000000           1           0           0           0
           0           0           4          52           0           0
           0           0           0           0           0           0
           0           0           0           4           0           1
           0           0           0           0           0           0
           0           0           0           0           0           0
           0           0           0           0           0           0
           0           0           0           0           0           0
           0           0           0           0
Num RLSW                                   I               52
RLSW                                       R   N=          52
  1.00000000E+00  1.00000000E+00  1.00000000E+00  1.00000000E+00  1.00000000E+00
  0.00000000E+00  0.00000000E+00  1.00000000E+00  0.00000000E+00  0.00000000E+00
  0.00000000E+00  0.00000000E+00  1.00000000E+00  0.00000000E+00  0.00000000E+00
  0.00000000E+00  0.00000000E+00  1.00000000E+00  0.00000000E+00  0.00000000E+00
  0.00000000E+00  0.00000000E+00  1.00000000E+00  0.00000000E+00  0.00000000E+00
  0.00000000E+00  0.00000000E+00  1.00000000E+00  0.00000000E+00  0.00000000E+00
  0.00000000E+00  0.00000000E+00  1.00000000E+00  0.00000000E+00  0.00000000E+00
  0.00000000E+00  0.00000000E+00  0.00000000E+00  1.00000000E+00  1.00000000E+00
  0.00000000E+00  1.00000000E+00  0.00000000E+00  0.00000000E+00  0.00000000E+00
  0.00000000E+00  0.00000000E+00  0.00000000E+00  0.00000000E+00  0.00000000E+00
  0.00000000E+00  0.00000000E+00
MxBond                                     I                2
NBond                                      I   N=           4
           1           2           2           1
IBond                                      I   N=           8
           2           0           1           3           2           4
           3           0
RBond                                      R   N=           8
  1.00000000E+00  0.00000000E+00  1.00000000E+00  1.00000000E+00  1.00000000E+00
  2.00000000E+00  2.00000000E+00  0.00000000E+00
Virial Ratio                               R      2.002454737985794E+00
SCF Energy                                 R     -2.047228075675284E+02
MP2 Energy                                 R     -2.054212662920559E+02
Total Energy                               R     -2.054212662920559E+02
Post-SCF wavefunction norm                 R      1.090198101822808E+00
RMS Density                                R      5.550335546401461E-09
Job Status                                 I                1
Nuclear derivative order                   I                0
External E-field                           R   N=          35
  0.00000000E+00  0.00000000E+00  0.00000000E+00  0.00000000E+00  0.00000000E+00
  0.00000000E+00  0.00000000E+00  0.00000000E+00  0.00000000E+00  0.00000000E+00
  0.00000000E+00  0.00000000E+00  0.00000000E+00  0.00000000E+00  0.00000000E+00
  0.00000000E+00  0.00000000E+00  0.00000000E+00  0.00000000E+00  0.00000000E+00
  0.00000000E+00  0.00000000E+00  0.00000000E+00  0.00000000E+00  0.00000000E+00
  0.00000000E+00  0.00000000E+00  0.00000000E+00  0.00000000E+00  0.00000000E+00
  0.00000000E+00  0.00000000E+00  0.00000000E+00  0.00000000E+00  0.00000000E+00
IOpCl                                      I                0
IROHF                                      I                0
Alpha Orbital Energies                     R   N=         161
 -2.06650938E+01 -2.06431756E+01 -1.57985197E+01 -1.60243504E+00 -1.40044329E+00
 -9.47520963E-01 -7.82513456E-01 -7.29514093E-01 -6.81296743E-01 -6.24069135E-01
 -5.28187807E-01 -4.61477655E-01  2.78034428E-02  8.06270835E-02  9.40068139E-02
  9.76142144E-02  1.28969870E-01  1.42996362E-01  1.56964657E-01  1.72106335E-01
  1.87384447E-01  1.96680350E-01  2.05618736E-01  2.33390291E-01  2.57247923E-01
  2.95958408E-01  3.08002470E-01  3.29825446E-01  3.66105991E-01  3.82054208E-01
  4.21302704E-01  5.25432232E-01  5.26340159E-01  5.48041534E-01  5.73335388E-01
  6.13257212E-01  6.31401686E-01  6.47160183E-01  6.80271246E-01  7.14058252E-01
  7.17710110E-01  7.47765995E-01  7.74721460E-01  7.81756309E-01  8.11776230E-01
  8.11950738E-01  8.61061168E-01  8.78405708E-01  9.24255515E-01  9.38616515E-01
  9.44476357E-01  9.94299689E-01  1.04885545E+00  1.06115200E+00  1.08047018E+00
  1.10495180E+00  1.16008831E+00  1.19645061E+00  1.25232876E+00  1.26844498E+00
  1.36028300E+00  1.43271482E+00  1.48560565E+00  1.52341883E+00  1.52454117E+00
  1.54316833E+00  1.55300606E+00  1.60885321E+00  1.65826956E+00  1.72815049E+00
  1.75533021E+00  1.82265729E+00  1.85553773E+00  1.95607714E+00  1.97606924E+00
  1.99683807E+00  2.07340232E+00  2.13249589E+00  2.13341094E+00  2.18672596E+00
  2.26991554E+00  2.30648559E+00  2.32899934E+00  2.38010625E+00  2.45044247E+00
  2.47115904E+00  2.49949990E+00  2.50293180E+00  2.52051459E+00  2.54287705E+00
  2.56773859E+00  2.60794409E+00  2.60814532E+00  2.66098564E+00  2.77378820E+00
  2.77724157E+00  2.84390042E+00  2.93719992E+00  2.95394232E+00  3.11460133E+00
  3.14546425E+00  3.18367756E+00  3.24616743E+00  3.45853001E+00  3.81914352E+00
  3.85355835E+00  4.02593094E+00  4.16139183E+00  4.18095697E+00  4.21058568E+00
  4.35435896E+00  4.36859993E+00  4.57878245E+00  4.63274132E+00  4.73357376E+00
  4.81652138E+00  4.86819530E+00  4.88672517E+00  4.97199596E+00  5.00078695E+00
  5.07154239E+00  5.07389203E+00  5.16591748E+00  5.23695432E+00  5.25562769E+00
  5.32633316E+00  5.35385818E+00  5.36435890E+00  5.57599005E+00  5.66801334E+00
  5.78865538E+00  5.98613494E+00  6.12250056E+00  6.43427820E+00  6.50691268E+00
  6.50960638E+00  6.67426612E+00  6.71415635E+00  6.74513362E+00  6.84598808E+00
  6.91699438E+00  7.06088906E+00  7.11990451E+00  7.15946206E+00  7.23167539E+00
  7.24981934E+00  7.25419162E+00  7.33210590E+00  7.37544445E+00  7.43244627E+00
  7.47886452E+00  7.60576921E+00  7.64336328E+00  7.69462711E+00  7.78730179E+00
  7.97733608E+00  8.06770536E+00  8.40834248E+00  1.41570532E+01  1.50242180E+01
  1.59619926E+01
Alpha MO coefficients                      R   N=       25921
  5.48266750E-05  2.01736639E-04 -3.57955457E-04  5.16308968E-06 -5.48727420E-05
  1.04255777E-05  0.00000000E+00  4.28841575E-05  5.71340463E-05  0.00000000E+00
  2.59746463E-04  1.57442102E-05  0.00000000E+00  1.99238802E-05  0.00000000E+00
  0.00000000E+00  1.45833651E-05  6.69640997E-06  5.22736473E-05  0.00000000E+00
  0.00000000E+00 -3.36733244E-05  1.61188403E-05 -8.41616315E-04  7.99330476E-05
 -6.26542343E-05 -8.69788000E-05  2.07025991E-04  1.80972829E-05 -1.74589959E-05
  0.00000000E+00 -8.79325345E-05  4.59852550E-05  0.00000000E+00 -1.54241593E-04
  4.45711817E-05  0.00000000E+00 -1.18453749E-04  5.05015728E-05  0.00000000E+00
 -8.98092400E-06  0.00000000E+00  0.00000000E+00  2.70285263E-05  1.05789143E-05
  1.77377915E-06  0.00000000E+00  0.00000000E+00 -9.60249939E-05 -1.21506118E-04
 -1.55718955E-05  0.00000000E+00  0.00000000E+00 -7.62376874E-05 -2.39450590E-04
  0.00000000E+00  3.64608123E-06  1.78356377E-06  0.00000000E+00  0.00000000E+00
 -7.72671851E-06 -1.38172384E-05  0.00000000E+00 -1.94726589E-05 -1.74933016E-05
  0.00000000E+00  0.00000000E+00  1.92425065E-04 -4.98958455E-05  2.49402460E-04
  1.41909220E-03 -1.01727830E-04 -1.54256429E-03  3.80542200E-04 -1.13171289E-04
 -6.46396658E-05  0.00000000E+00 -2.04203127E-03 -5.56342406E-04  0.00000000E+00
  1.13037988E-03 -6.30209304E-05  0.00000000E+00 -1.14046133E-04 -9.31086782E-05
  0.00000000E+00 -1.25272426E-04  0.00000000E+00  0.00000000E+00  2.13763707E-04
  1.44262678E-04 -4.38192086E-04  0.00000000E+00  0.00000000E+00  5.54032925E-04
  7.91097146E-04 -6.13374718E-07  0.00000000E+00  0.00000000E+00 -1.63478381E-04
 -1.49181788E-04  0.00000000E+00  1.25493357E-05 -1.29562608E-05  0.00000000E+00
  0.00000000E+00  1.63733583E-05  1.49255233E-05  0.00000000E+00  1.44691935E-04
  1.28462617E-04  0.00000000E+00  0.00000000E+00 -2.41303907E-05 -2.92171751E-04
  9.76650645E-01 -9.86496020E-03  4.35627905E-02  4.27659624E-03 -5.30025154E-04
  2.10849391E-03  5.63678658E-04  0.00000000E+00 -2.41162418E-03 -5.83839325E-04
  0.00000000E+00  9.88832267E-04  5.48750573E-04  0.00000000E+00 -5.16474349E-05
  2.98065705E-05  0.00000000E+00 -2.29057516E-04  0.00000000E+00  0.00000000E+00
  7.70252940E-05  5.55534355E-05  3.87429365E-04  0.00000000E+00  0.00000000E+00
 -8.27172743E-04 -4.39457953E-04 -1.60265474E-04  0.00000000E+00  0.00000000E+00
  1.77997557E-04  2.47678650E-04  0.00000000E+00  5.52089586E-05  1.06482736E-05
  0.00000000E+00  0.00000000E+00 -1.71943658E-05 -2.42373334E-05  0.00000000E+00
  1.23988327E-04  4.64895324E-05  0.00000000E+00  0.00000000E+00 -1.60721827E-04
 -1.52548185E-04  4.50756349E-04  2.68990048E-03  4.83213029E-04 -6.10463809E-07
 -2.48700715E-04 -1.20407171E-04  0.00000000E+00 -1.09673665E-03 -9.20001981E-04
  0.00000000E+00 -1.29229383E-04 -4.43112007E-04  0.00000000E+00 -9.57663725E-06
  0.00000000E+00  0.00000000E+00 -2.68290121E-05 -2.37959055E-05 -1.61619136E-04
  0.00000000E+00  0.00000000E+00  1.71216962E-04  4.24438494E-04  9.76759359E-01
 -9.28022515E-03  4.35460404E-02  6.61274516E-04 -1.01444473E-03  4.12987789E-04
  1.84211378E-03  0.00000000E+00 -2.72162472E-04 -1.86731912E-03  0.00000000E+00
 -1.63386437E-03  2.82448944E-04  0.00000000E+00 -7.47113761E-05  1.85986828E-05
  0.00000000E+00 -3.72623575E-05  0.00000000E+00  0.00000000E+00  3.21975875E-05
  3.99972426E-05  6.67208121E-04  0.00000000E+00  0.00000000E+00 -3.26411359E-04
  2.22925972E-04 -7.74979431E-05  0.00000000E+00  0.00000000E+00 -2.96441214E-04
 -4.02629584E-04  0.00000000E+00 -2.50620832E-05  4.84261612E-05  0.00000000E+00
  0.00000000E+00 -1.43684130E-05 -1.24569813E-05  0.00000000E+00  9.37266807E-05
  5.30945673E-05  0.00000000E+00  0.00000000E+00 -2.23720309E-04 -2.29538701E-04
  5.97591097E-05  1.63462850E-04 -3.18653585E-04 -4.20918892E-04  8.74468750E-04
 -8.35595981E-05  7.70049363E-05  0.00000000E+00  7.14162643E-04 -6.51537216E-04
  0.00000000E+00 -4.27464946E-04  5.77778126E-04  0.00000000E+00  1.71197133E-04
 -1.78756236E-04  0.00000000E+00 -3.48278409E-05  0.00000000E+00  0.00000000E+00
 -3.42516163E-05 -4.96916653E-05 -3.96609731E-04  0.00000000E+00  0.00000000E+00
 -1.68371477E-04 -9.29148237E-04 -1.85568136E-04  0.00000000E+00  0.00000000E+00
  5.59777540E-04 -5.69537471E-05  0.00000000E+00 -8.73003985E-05  9.86556945E-05
  0.00000000E+00  0.00000000E+00 -1.47135798E-04 -5.69908550E-05  0.00000000E+00
 -4.86908364E-05  1.19051165E-04  0.00000000E+00  0.00000000E+00 -4.28907037E-04
  2.59763370E-05  8.75954559E-04  4.70190248E-05  2.22087770E-05 -2.76385565E-04
 -1.77703660E-04 -1.52957365E-05  2.20667431E-05  0.00000000E+00  1.13820617E-04
 -1.26303718E-04  0.00000000E+00  4.28638057E-04 -4.39562031E-04  0.00000000E+00
 -5.01146211E-06  5.42920338E-06  0.00000000E+00 -5.52569469E-06  0.00000000E+00
  0.00000000E+00 -1.33345221E-05 -1.07379044E-05  1.34639933E-06  0.00000000E+00
  0.00000000E+00  1.42682475E-04 -3.24154923E-05 -6.73444767E-05  0.00000000E+00
  0.00000000E+00  2.63521682E-04 -1.99076866E-05  0.00000000E+00  2.93304809E-06
  9.79435739E-06  0.00000000E+00  0.00000000E+00 -1.28402095E-05 -9.86044626E-06
  0.00000000E+00  1.23330924E-05 -5.03324566E-05  0.00000000E+00  0.00000000E+00
  1.17558593E-04  7.55254212E-05 -7.16880548E-05 -5.03070567E-04 -3.31768680E-04
  2.04582911E-04  3.55695029E-05  3.60882776E-05  0.00000000E+00  4.90572015E-04
 -3.40339246E-04  0.00000000E+00  3.18764647E-04 -3.28117461E-04  0.00000000E+00
 -1.08557334E-05  0.00000000E+00  0.00000000E+00 -4.20551094E-05  2.93463001E-05
  1.14093483E-04  0.00000000E+00  0.00000000E+00 -4.64748686E-05  1.79288564E-04
 -1.26135849E-04 -2.10008991E-04 -2.08058385E-04  4.97224087E-03  3.23865442E-03
  9.18853221E-06 -4.06898406E-05  0.00000000E+00 -5.19694043E-04  8.56203487E-04
  0.00000000E+00 -2.39223371E-03  3.09311885E-03  0.00000000E+00 -8.27269721E-04
  5.61990528E-04  0.00000000E+00  1.74195488E-07  0.00000000E+00  0.00000000E+00
 -3.07951554E-05 -4.37917584E-05 -4.47153779E-04  0.00000000E+00  0.00000000E+00
 -3.93680616E-05 -5.23530189E-04 -6.05062212E-04  0.00000000E+00  0.00000000E+00
 -3.07972884E-04 -9.32289946E-04  0.00000000E+00  1.86090539E-05 -2.11741226E-05
  0.00000000E+00  0.00000000E+00  3.96547250E-05  3.23849482E-05  0.00000000E+00
  9.40293402E-05 -1.45463047E-04  0.00000000E+00  0.00000000E+00  2.15395853E-05
  2.30848101E-04  9.78281320E-01 -8.39843659E-03  4.17867381E-02 -5.50098292E-03
 -3.03835719E-03 -1.10101258E-03 -3.03725122E-03  0.00000000E+00 -9.66796520E-05
  2.98042856E-03  0.00000000E+00  4.48991855E-04  3.07121143E-03  0.00000000E+00
 -3.13217022E-05  5.42066003E-04  0.00000000E+00 -4.39682515E-04  0.00000000E+00
  0.00000000E+00  2.40231121E-04  2.29070721E-04  1.03130877E-03  0.00000000E+00
  0.00000000E+00 -1.74116682E-04  3.01945311E-04  3.61768382E-04  0.00000000E+00
  0.00000000E+00  1.17627939E-04  4.83113937E-05  0.00000000E+00  9.02163211E-05
 -6.89226862E-05  0.00000000E+00  0.00000000E+00 -6.06733801E-05 -1.02591533E-05
  0.00000000E+00 -2.27118339E-04 -2.28117884E-04  0.00000000E+00  0.00000000E+00
  4.61558015E-04  2.55493090E-04 -1.88956878E-04  9.21049953E-04  1.57656693E-04
  3.02947711E-03  8.84744747E-04  2.62239350E-04  1.23301352E-04  0.00000000E+00
  8.77344766E-04  2.74268394E-04  0.00000000E+00  1.23379472E-03 -1.38212106E-04
  0.00000000E+00  3.61579648E-06  3.96629451E-05  0.00000000E+00 -3.97569930E-05
  0.00000000E+00  0.00000000E+00  7.20723998E-05  8.42084162E-05  7.36937078E-05
  0.00000000E+00  0.00000000E+00 -1.89122661E-06 -2.72875945E-04 -3.60796329E-05
  0.00000000E+00  0.00000000E+00  2.84736501E-04 -1.37930089E-04  0.00000000E+00
  9.24072836E-05  3.65447938E-05  0.00000000E+00  0.00000000E+00 -5.48475952E-05
 -1.12294799E-04  0.00000000E+00  1.58627371E-04  1.23814464E-04  0.00000000E+00
  0.00000000E+00  2.30362248E-05 -3.55027372E-04  2.03807371E-02  1.65478194E-02
 -1.29641701E-03  4.80293796E-04 -3.11440736E-03 -8.46462948E-04  0.00000000E+00
 -2.49378084E-03 -1.07197263E-03  0.00000000E+00  2.25913800E-03  1.05946946E-04
  0.00000000E+00 -2.15991041E-04  0.00000000E+00  0.00000000E+00  3.79614012E-04
  2.56574542E-04  2.46958406E-04  0.00000000E+00  0.00000000E+00  3.39388770E-04
  5.86578570E-04 -6.58245397E-02  1.59541113E-01  4.25047458E-02  9.24236821E-02
  7.61285316E-03 -1.53670913E-02  2.32550497E-02  0.00000000E+00 -2.04945824E-02
  3.35160385E-02  0.00000000E+00 -1.18142100E-02  1.07825160E-02  0.00000000E+00
 -2.06427905E-03 -1.83070263E-03  0.00000000E+00 -1.80705121E-03  0.00000000E+00
  0.00000000E+00  6.97232342E-05 -1.84255098E-03 -4.11402546E-03  0.00000000E+00
  0.00000000E+00  7.96077458E-04 -4.29437035E-03  9.88145537E-04  0.00000000E+00
  0.00000000E+00  1.40386861E-04 -1.50565098E-03  0.00000000E+00  4.60383556E-04
 -8.79421647E-04  0.00000000E+00  0.00000000E+00  7.13329893E-04  1.30214753E-03
  0.00000000E+00 -2.66748890E-04  5.27627382E-04  0.00000000E+00  0.00000000E+00
 -2.79905032E-04  2.15187572E-04 -1.30128623E-01  3.07575136E-01  8.10145588E-02
  6.33625252E-02  4.29030608E-04 -7.37216102E-02 -4.70349619E-02  0.00000000E+00
 -7.73065289E-02 -6.47846996E-02  0.00000000E+00 -3.38507595E-03  8.92816392E-03
  0.00000000E+00 -3.49776891E-05  3.17775840E-03  0.00000000E+00 -9.29178551E-03
  0.00000000E+00  0.00000000E+00  8.54007743E-03  6.33248214E-03 -1.14618821E-02
  0.00000000E+00  0.00000000E+00  9.28059186E-03  6.02188500E-03  6.18882662E-03
  0.00000000E+00  0.00000000E+00 -1.79917834E-04  5.76379566E-04  0.00000000E+00
  2.50140105E-03  2.43049031E-03  0.00000000E+00  0.00000000E+00 -4.86175953E-03
 -5.46293047E-03  0.00000000E+00 -1.37677100E-03 -4.32750722E-04  0.00000000E+00
  0.00000000E+00  9.08890698E-04 -5.91604792E-05 -1.50378174E-01  3.59659024E-01
  9.64081631E-02  1.79551962E-01 -1.50484969E-02  7.98806391E-02  2.18676364E-02
  0.00000000E+00  1.01298495E-01  2.74406720E-02  0.00000000E+00  1.76207995E-02
  3.27165438E-03  0.00000000E+00 -8.59698301E-03 -2.39491338E-03  0.00000000E+00
 -5.16461409E-03  0.00000000E+00  0.00000000E+00  7.30278735E-03  4.46610007E-03
 -9.48873052E-03  0.00000000E+00  0.00000000E+00  1.50841425E-02  9.38701717E-03
  2.50494793E-03  0.00000000E+00  0.00000000E+00 -3.66548913E-03 -2.62287625E-03
  0.00000000E+00 -3.15095203E-03 -8.67266223E-04  0.00000000E+00  0.00000000E+00
  3.33529143E-03  3.61068586E-03  0.00000000E+00 -1.07268144E-04 -2.70178876E-04
  0.00000000E+00  0.00000000E+00  1.03418347E-03  1.90261981E-03  7.82541568E-02
  7.70504741E-02 -1.98413044E-02 -2.81753695E-03 -1.14194383E-02 -4.61797032E-03
  0.00000000E+00 -1.47470202E-02 -1.45155887E-03  0.00000000E+00  7.35590487E-03
  2.10973676E-03  0.00000000E+00 -1.27988559E-03  0.00000000E+00  0.00000000E+00
  2.18910345E-03  1.10483104E-03  2.49511720E-04  0.00000000E+00  0.00000000E+00
  2.31606115E-03 -1.20130245E-03 -1.81613353E-01  4.42708695E-01  1.20782666E-01
  2.59643896E-01  1.12529768E-02  1.46447091E-02  3.76765843E-02  0.00000000E+00