title                                                                   
SP        RMP2-FC                                                     Aug-CC-pVTZ         
Number of atoms                            I                4
Info1-9                                    I   N=           9
          29          20           0           0           0         110
           1           2           1
Full Title                                 C   N=           1
title       
Route                                      C   N=           4
#p SP mp2/aug-cc-pvtz density=current           
Charge                                     I                0
Multiplicity                               I                1
Number of electrons                        I               24
Number of alpha electrons                  I               12
Number of beta electrons                   I               12
Number of basis functions                  I              161
Number of independent functions            I              161
Number of point charges in /Mol/           I                0
Number of translation vectors              I                0
Atomic numbers                             I   N=           4
           1           8           7           8
Nuclear charges                            R   N=           4
  1.00000000E+00  8.00000000E+00  7.00000000E+00  8.00000000E+00
Current cartesian coordinates              R   N=          12
  3.30965436E+00 -3.16906557E-01  1.37022761E-31  1.67060603E+00 -1.13870698E+00
  7.99457417E-32  6.17264182E-17  9.79955468E-01 -4.29788957E-33 -2.08431282E+00
  3.20859266E-01 -1.04127663E-31
Number of symbols in /Mol/                 I                0
Force Field                                I                0
Atom Types                                 C   N=           4
                                                
Int Atom Types                             I   N=           4
           0           0           0           0
MM charges                                 R   N=           4
  0.00000000E+00  0.00000000E+00  0.00000000E+00  0.00000000E+00
Integer atomic weights                     I   N=           4
           1          16          14          16
Real atomic weights                        R   N=           4
  1.00782504E+00  1.59949146E+01  1.40030740E+01  1.59949146E+01
Atom fragment info                         I   N=           4
           0           0           0           0
Atom residue num                           I   N=           4
           0           0           0           0
Nuclear spins                              I   N=           4
           1           0           2           0
Nuclear ZEff                               R   N=           4
 -1.00000000E+00 -5.60000000E+00 -4.55000000E+00 -5.60000000E+00
Nuclear ZNuc                               R   N=           4
  1.00000000E+00  8.00000000E+00  7.00000000E+00  8.00000000E+00
Nuclear QMom                               R   N=           4
  0.00000000E+00  0.00000000E+00  2.04400000E+00  0.00000000E+00
Nuclear GFac                               R   N=           4
  2.79284600E+00  0.00000000E+00  4.03761000E-01  0.00000000E+00
MicOpt                                     I   N=           4
          -1          -1          -1          -1
Number of residues                         I                0
Number of secondary structures             I                0
SymInf integers                            I   N=          26
           1           2           1           1           1           1
           1          -1           0           0           0           0
           0           0           0           0           0           0
           0           0           0           0           0           0
           0           0
RotTr to input orientation                 R   N=          12
 -4.48206489E-01 -1.14768748E-16 -8.93930055E-01  8.93930055E-01  4.27285899E-17
 -4.48206489E-01  8.96364682E-17 -1.00000000E+00  8.34440016E-17  1.76670086E+00
  0.00000000E+00  2.81655993E+00
Number of contracted shells                I               51
Number of primitive shells                 I               92
Pure/Cartesian d shells                    I                0
Pure/Cartesian f shells                    I                0
Highest angular momentum                   I                3
Largest degree of contraction              I                7
Shell types                                I   N=          51
           0           0           0           0           1           1
           1          -2          -2           0           0           0
           0           0           1           1           1           1
          -2          -2          -2          -3          -3           0
           0           0           0           0           1           1
           1           1          -2          -2          -2          -3
          -3           0           0           0           0           0
           1           1           1           1          -2          -2
          -2          -3          -3
Number of primitives per shell             I   N=          51
           3           1           1           1           1           1
           1           1           1           7           6           1
           1           1           3           1           1           1
           1           1           1           1           1           7
           6           1           1           1           3           1
           1           1           1           1           1           1
           1           7           6           1           1           1
           3           1           1           1           1           1
           1           1           1
Shell to atom map                          I   N=          51
           1           1           1           1           1           1
           1           1           1           2           2           2
           2           2           2           2           2           2
           2           2           2           2           2           3
           3           3           3           3           3           3
           3           3           3           3           3           3
           3           4           4           4           4           4
           4           4           4           4           4           4
           4           4           4
Primitive exponents                        R   N=          92
  3.38700000E+01  5.09500000E+00  1.15900000E+00  3.25800000E-01  1.02700000E-01
  2.52600000E-02  1.40700000E+00  3.88000000E-01  1.02000000E-01  1.05700000E+00
  2.47000000E-01  1.53300000E+04  2.29900000E+03  5.22400000E+02  1.47300000E+02
  4.75500000E+01  1.67600000E+01  6.20700000E+00  5.22400000E+02  1.47300000E+02
  4.75500000E+01  1.67600000E+01  6.20700000E+00  6.88200000E-01  1.75200000E+00
  2.38400000E-01  7.37600000E-02  3.44600000E+01  7.74900000E+00  2.28000000E+00
  7.15600000E-01  2.14000000E-01  5.97400000E-02  2.31400000E+00  6.45000000E-01
  2.14000000E-01  1.42800000E+00  5.00000000E-01  1.14200000E+04  1.71200000E+03
  3.89300000E+02  1.10000000E+02  3.55700000E+01  1.25400000E+01  4.64400000E+00
  3.89300000E+02  1.10000000E+02  3.55700000E+01  1.25400000E+01  4.64400000E+00
  5.11800000E-01  1.29300000E+00  1.78700000E-01  5.76000000E-02  2.66300000E+01
  5.94800000E+00  1.74200000E+00  5.55000000E-01  1.72500000E-01  4.91000000E-02
  1.65400000E+00  4.69000000E-01  1.51000000E-01  1.09300000E+00  3.64000000E-01
  1.53300000E+04  2.29900000E+03  5.22400000E+02  1.47300000E+02  4.75500000E+01
  1.67600000E+01  6.20700000E+00  5.22400000E+02  1.47300000E+02  4.75500000E+01
  1.67600000E+01  6.20700000E+00  6.88200000E-01  1.75200000E+00  2.38400000E-01
  7.37600000E-02  3.44600000E+01  7.74900000E+00  2.28000000E+00  7.15600000E-01
  2.14000000E-01  5.97400000E-02  2.31400000E+00  6.45000000E-01  2.14000000E-01
  1.42800000E+00  5.00000000E-01
Contraction coefficients                   R   N=          92
  2.54948632E-02  1.90362766E-01  8.52162022E-01  1.00000000E+00  1.00000000E+00
  1.00000000E+00  1.00000000E+00  1.00000000E+00  1.00000000E+00  1.00000000E+00
  1.00000000E+00  5.19808943E-04  4.02025621E-03  2.07128267E-02  8.10105536E-02
  2.35962985E-01  4.42653446E-01  3.57064423E-01 -4.42115008E-05 -1.22591041E-03
 -1.05517725E-02 -6.74452633E-02 -1.71198607E-01  1.07329856E+00  1.00000000E+00
  1.00000000E+00  1.00000000E+00  4.11634896E-02  2.57762836E-01  8.02419274E-01
  1.00000000E+00  1.00000000E+00  1.00000000E+00  1.00000000E+00  1.00000000E+00
  1.00000000E+00  1.00000000E+00  1.00000000E+00  5.34563860E-04  4.13435660E-03
  2.12335358E-02  8.25006224E-02  2.38138871E-01  4.42551547E-01  3.53757422E-01
 -4.89867350E-05 -1.19527323E-03 -1.03490714E-02 -6.48680190E-02 -1.71552477E-01
  1.07289568E+00  1.00000000E+00  1.00000000E+00  1.00000000E+00  3.98072123E-02
  2.49002660E-01  8.10479727E-01  1.00000000E+00  1.00000000E+00  1.00000000E+00
  1.00000000E+00  1.00000000E+00  1.00000000E+00  1.00000000E+00  1.00000000E+00
  5.19808943E-04  4.02025621E-03  2.07128267E-02  8.10105536E-02  2.35962985E-01
  4.42653446E-01  3.57064423E-01 -4.42115008E-05 -1.22591041E-03 -1.05517725E-02
 -6.74452633E-02 -1.71198607E-01  1.07329856E+00  1.00000000E+00  1.00000000E+00
  1.00000000E+00  4.11634896E-02  2.57762836E-01  8.02419274E-01  1.00000000E+00
  1.00000000E+00  1.00000000E+00  1.00000000E+00  1.00000000E+00  1.00000000E+00
  1.00000000E+00  1.00000000E+00
Coordinates of each shell                  R   N=         153
  3.30965436E+00 -3.16906557E-01  9.67759866E-32  3.30965436E+00 -3.16906557E-01
  9.67759866E-32  3.30965436E+00 -3.16906557E-01  9.67759866E-32  3.30965436E+00
 -3.16906557E-01  9.67759866E-32  3.30965436E+00 -3.16906557E-01  9.67759866E-32
  3.30965436E+00 -3.16906557E-01  9.67759866E-32  3.30965436E+00 -3.16906557E-01
  9.67759866E-32  3.30965436E+00 -3.16906557E-01  9.67759866E-32  3.30965436E+00
 -3.16906557E-01  9.67759866E-32  1.67060603E+00 -1.13870698E+00  5.28026096E-32
  1.67060603E+00 -1.13870698E+00  5.28026096E-32  1.67060603E+00 -1.13870698E+00
  5.28026096E-32  1.67060603E+00 -1.13870698E+00  5.28026096E-32  1.67060603E+00
 -1.13870698E+00  5.28026096E-32  1.67060603E+00 -1.13870698E+00  5.28026096E-32
  1.67060603E+00 -1.13870698E+00  5.28026096E-32  1.67060603E+00 -1.13870698E+00
  5.28026096E-32  1.67060603E+00 -1.13870698E+00  5.28026096E-32  1.67060603E+00
 -1.13870698E+00  5.28026096E-32  1.67060603E+00 -1.13870698E+00  5.28026096E-32
  1.67060603E+00 -1.13870698E+00  5.28026096E-32  1.67060603E+00 -1.13870698E+00
  5.28026096E-32  1.67060603E+00 -1.13870698E+00  5.28026096E-32 -1.92591369E-17
  9.79955468E-01 -3.95813262E-33 -1.92591369E-17  9.79955468E-01 -3.95813262E-33
 -1.92591369E-17  9.79955468E-01 -3.95813262E-33 -1.92591369E-17  9.79955468E-01
 -3.95813262E-33 -1.92591369E-17  9.79955468E-01 -3.95813262E-33 -1.92591369E-17
  9.79955468E-01 -3.95813262E-33 -1.92591369E-17  9.79955468E-01 -3.95813262E-33
 -1.92591369E-17  9.79955468E-01 -3.95813262E-33 -1.92591369E-17  9.79955468E-01
 -3.95813262E-33 -1.92591369E-17  9.79955468E-01 -3.95813262E-33 -1.92591369E-17
  9.79955468E-01 -3.95813262E-33 -1.92591369E-17  9.79955468E-01 -3.95813262E-33
 -1.92591369E-17  9.79955468E-01 -3.95813262E-33 -1.92591369E-17  9.79955468E-01
 -3.95813262E-33 -2.08431282E+00  3.20859266E-01 -6.14362419E-32 -2.08431282E+00
  3.20859266E-01 -6.14362419E-32 -2.08431282E+00  3.20859266E-01 -6.14362419E-32
 -2.08431282E+00  3.20859266E-01 -6.14362419E-32 -2.08431282E+00  3.20859266E-01
 -6.14362419E-32 -2.08431282E+00  3.20859266E-01 -6.14362419E-32 -2.08431282E+00
  3.20859266E-01 -6.14362419E-32 -2.08431282E+00  3.20859266E-01 -6.14362419E-32
 -2.08431282E+00  3.20859266E-01 -6.14362419E-32 -2.08431282E+00  3.20859266E-01
 -6.14362419E-32 -2.08431282E+00  3.20859266E-01 -6.14362419E-32 -2.08431282E+00
  3.20859266E-01 -6.14362419E-32 -2.08431282E+00  3.20859266E-01 -6.14362419E-32
 -2.08431282E+00  3.20859266E-01 -6.14362419E-32
Num ILSW                                   I              100
ILSW                                       I   N=         100
           0           0           0           0           2           0
           0           0           0           0           0          -1
           5           0           0           0           0           0
           0           0           0           0           0           0
           1           0           0           0           0           0
           0           0      100000           0          -1           0
           0           0           0           0           0           0
           0           0           0           1           0           0
           0 -2000000000           1           0           0           0
           0           0           4          52           0           0
           0           0           0           0           0           0
           0           0           0           4           0           1
           0           0           0           0           0           0
           0           0           0           0           0           0
           0           0           0           0           0           0
           0           0           0           0           0           0
           0           0           0           0
Num RLSW                                   I               52
RLSW                                       R   N=          52
  1.00000000E+00  1.00000000E+00  1.00000000E+00  1.00000000E+00  1.00000000E+00
  0.00000000E+00  0.00000000E+00  1.00000000E+00  0.00000000E+00  0.00000000E+00
  0.00000000E+00  0.00000000E+00  1.00000000E+00  0.00000000E+00  0.00000000E+00
  0.00000000E+00  0.00000000E+00  1.00000000E+00  0.00000000E+00  0.00000000E+00
  0.00000000E+00  0.00000000E+00  1.00000000E+00  0.00000000E+00  0.00000000E+00
  0.00000000E+00  0.00000000E+00  1.00000000E+00  0.00000000E+00  0.00000000E+00
  0.00000000E+00  0.00000000E+00  1.00000000E+00  0.00000000E+00  0.00000000E+00
  0.00000000E+00  0.00000000E+00  0.00000000E+00  1.00000000E+00  1.00000000E+00
  0.00000000E+00  1.00000000E+00  0.00000000E+00  0.00000000E+00  0.00000000E+00
  0.00000000E+00  0.00000000E+00  0.00000000E+00  0.00000000E+00  0.00000000E+00
  0.00000000E+00  0.00000000E+00
MxBond                                     I                2
NBond                                      I   N=           4
           1           2           2           1
IBond                                      I   N=           8
           2           0           1           3           2           4
           3           0
RBond                                      R   N=           8
  1.00000000E+00  0.00000000E+00  1.00000000E+00  1.00000000E+00  1.00000000E+00
  2.00000000E+00  2.00000000E+00  0.00000000E+00
Virial Ratio                               R      2.001893470820343E+00
SCF Energy                                 R     -2.047260595624763E+02
MP2 Energy                                 R     -2.054207421553122E+02
Total Energy                               R     -2.054207421553122E+02
Post-SCF wavefunction norm                 R      1.088635796098170E+00
RMS Density                                R      5.218248578848571E-09
Job Status                                 I                1
Nuclear derivative order                   I                0
External E-field                           R   N=          35
  0.00000000E+00  0.00000000E+00  0.00000000E+00  0.00000000E+00  0.00000000E+00
  0.00000000E+00  0.00000000E+00  0.00000000E+00  0.00000000E+00  0.00000000E+00
  0.00000000E+00  0.00000000E+00  0.00000000E+00  0.00000000E+00  0.00000000E+00
  0.00000000E+00  0.00000000E+00  0.00000000E+00  0.00000000E+00  0.00000000E+00
  0.00000000E+00  0.00000000E+00  0.00000000E+00  0.00000000E+00  0.00000000E+00
  0.00000000E+00  0.00000000E+00  0.00000000E+00  0.00000000E+00  0.00000000E+00
  0.00000000E+00  0.00000000E+00  0.00000000E+00  0.00000000E+00  0.00000000E+00
IOpCl                                      I                0
IROHF                                      I                0
Alpha Orbital Energies                     R   N=         161
 -2.06656805E+01 -2.06376068E+01 -1.57955945E+01 -1.61954104E+00 -1.40225381E+00
 -9.44953959E-01 -7.88502618E-01 -7.33976574E-01 -6.88991203E-01 -6.27244584E-01
 -5.29463262E-01 -4.57539325E-01  2.85652526E-02  8.63168311E-02  9.34406692E-02
  9.76976376E-02  1.28921538E-01  1.44478379E-01  1.56852167E-01  1.72438360E-01
  1.87463149E-01  1.96246548E-01  2.06233880E-01  2.33229651E-01  2.58570540E-01
  2.97311624E-01  3.10240628E-01  3.29942405E-01  3.66226566E-01  3.83473485E-01
  4.25255994E-01  5.24650518E-01  5.28496206E-01  5.48930074E-01  5.73853510E-01
  6.14297739E-01  6.41624331E-01  6.49447565E-01  6.75375262E-01  7.13764150E-01
  7.17457117E-01  7.49222480E-01  7.75136172E-01  7.83023658E-01  8.12885774E-01
  8.14806251E-01  8.64021347E-01  8.82282265E-01  9.27343528E-01  9.40126809E-01
  9.48468588E-01  9.98533972E-01  1.05076295E+00  1.06629712E+00  1.08445666E+00
  1.10834183E+00  1.16239157E+00  1.19827473E+00  1.25495130E+00  1.27248944E+00
  1.36318690E+00  1.43671270E+00  1.48912039E+00  1.52229358E+00  1.52527021E+00
  1.54552952E+00  1.55645382E+00  1.61160234E+00  1.66040165E+00  1.72899176E+00
  1.75580037E+00  1.82291124E+00  1.85772367E+00  1.95837200E+00  1.98344447E+00
  1.98930600E+00  2.07487809E+00  2.13267819E+00  2.13511569E+00  2.19743507E+00
  2.27318702E+00  2.31117045E+00  2.33279058E+00  2.38466574E+00  2.45368301E+00
  2.47267565E+00  2.50070011E+00  2.50391557E+00  2.53004489E+00  2.54486102E+00
  2.57971196E+00  2.61186204E+00  2.61460790E+00  2.67510765E+00  2.78377861E+00
  2.79188417E+00  2.84009063E+00  2.94734294E+00  2.95370615E+00  3.11512257E+00
  3.15099558E+00  3.18460231E+00  3.26366680E+00  3.46419480E+00  3.83657269E+00
  3.85733108E+00  4.03330111E+00  4.17308892E+00  4.21700800E+00  4.22177332E+00
  4.37198472E+00  4.37921313E+00  4.59443278E+00  4.65893538E+00  4.75104251E+00
  4.81924888E+00  4.87603077E+00  4.88640452E+00  4.98013200E+00  5.00035857E+00
  5.07508774E+00  5.09513865E+00  5.17794286E+00  5.25128618E+00  5.25831544E+00
  5.35923893E+00  5.37124220E+00  5.38883235E+00  5.55654615E+00  5.70197190E+00
  5.81080239E+00  6.00425231E+00  6.12409357E+00  6.44147823E+00  6.50700685E+00
  6.50916380E+00  6.68084041E+00  6.72262384E+00  6.74978679E+00  6.86431709E+00
  6.92511543E+00  7.07525035E+00  7.12870171E+00  7.18350603E+00  7.24699692E+00
  7.26297647E+00  7.26416850E+00  7.38233276E+00  7.40362116E+00  7.44072859E+00
  7.48539683E+00  7.65536082E+00  7.65680909E+00  7.71676186E+00  7.82595357E+00
  8.00166450E+00  8.07634397E+00  8.43279834E+00  1.43477779E+01  1.51910353E+01
  1.65789852E+01
Alpha MO coefficients                      R   N=       25921
  6.25766177E-05  2.40399548E-04 -3.23976752E-04  7.44758407E-06 -5.45921389E-05
  5.96001529E-06  0.00000000E+00  2.89571357E-05  3.69315970E-05  0.00000000E+00
  2.43806726E-04  7.73460867E-06  0.00000000E+00  2.12867738E-05  0.00000000E+00
  0.00000000E+00  1.19079928E-05  1.13623504E-05  4.41573147E-05  0.00000000E+00
  0.00000000E+00 -2.84703143E-05  1.79670545E-05 -6.73623287E-04  7.22434268E-05
 -5.15632470E-05 -1.31142734E-04  2.11205582E-04  1.73434921E-05 -1.92909086E-05
  0.00000000E+00 -8.78785141E-05  5.01917578E-05  0.00000000E+00 -1.51624107E-04
  8.21756527E-05  0.00000000E+00 -1.19233454E-04  5.59776562E-05  0.00000000E+00
 -9.03736817E-06  0.00000000E+00  0.00000000E+00  3.23177779E-05  8.77700881E-06
  6.23315734E-06  0.00000000E+00  0.00000000E+00 -1.36680791E-04 -1.14914577E-04
 -1.76615175E-05  0.00000000E+00  0.00000000E+00 -1.15090497E-04 -2.28254003E-04
  0.00000000E+00  2.91777117E-06  1.48474949E-06  0.00000000E+00  0.00000000E+00
 -5.15017243E-06 -1.50016728E-05  0.00000000E+00 -1.74416497E-05 -2.17127126E-05
  0.00000000E+00  0.00000000E+00  1.85986695E-04 -7.98950221E-05  2.53411607E-04
  1.44459122E-03 -1.18292483E-05 -1.97939801E-03  2.63423214E-04 -1.63265675E-04
 -7.75376072E-05  0.00000000E+00 -1.96676349E-03 -5.24275866E-04  0.00000000E+00
  1.32868332E-03 -1.57905668E-07  0.00000000E+00 -8.88140007E-05 -8.18548490E-05
  0.00000000E+00 -1.18839291E-04  0.00000000E+00  0.00000000E+00  2.13186755E-04
  1.33177470E-04 -3.78676692E-04  0.00000000E+00  0.00000000E+00  4.48984410E-04
  7.30818865E-04  2.89229400E-05  0.00000000E+00  0.00000000E+00 -2.26360597E-04
 -1.81386079E-04  0.00000000E+00 -1.99228941E-05 -2.20795064E-05  0.00000000E+00
  0.00000000E+00  4.56121134E-05  4.99158065E-05  0.00000000E+00  1.40769047E-04
  1.21132324E-04  0.00000000E+00  0.00000000E+00 -3.47127081E-05 -2.40490114E-04
  9.76617291E-01 -9.83389704E-03  4.36205447E-02  4.68691449E-03 -3.88249396E-04
  2.13562998E-03  5.44790801E-04  0.00000000E+00 -2.32396388E-03 -5.21652518E-04
  0.00000000E+00  1.09230702E-03  5.56889672E-04  0.00000000E+00 -3.91209181E-05
  3.44333216E-05  0.00000000E+00 -2.44192225E-04  0.00000000E+00  0.00000000E+00
  9.99238974E-05  6.82537190E-05  3.72875649E-04  0.00000000E+00  0.00000000E+00
 -8.08381540E-04 -3.95087115E-04 -1.41196852E-04  0.00000000E+00  0.00000000E+00
  1.70866648E-04  2.26352915E-04  0.00000000E+00  4.40152038E-05  5.74881819E-06
  0.00000000E+00  0.00000000E+00 -8.82831797E-06 -1.02291848E-05  0.00000000E+00
  1.37165065E-04  4.94179668E-05  0.00000000E+00  0.00000000E+00 -1.71127396E-04
 -1.50544653E-04  4.75446563E-04  2.46630336E-03  3.44444581E-04 -6.18485408E-06
 -2.25869859E-04 -1.05358592E-04  0.00000000E+00 -1.00267494E-03 -8.61567447E-04
  0.00000000E+00 -1.01757165E-04 -4.21145355E-04  0.00000000E+00  1.19667482E-05
  0.00000000E+00  0.00000000E+00 -4.99886966E-05 -5.25319311E-05 -1.58055641E-04
  0.00000000E+00  0.00000000E+00  1.77140310E-04  4.11266549E-04  9.76749568E-01
 -9.25643912E-03  4.35622654E-02  8.90351656E-04 -8.78987562E-04  4.50439067E-04
  1.81337771E-03  0.00000000E+00 -2.51157202E-04 -1.81051735E-03  0.00000000E+00
 -1.50254512E-03  3.60342540E-04  0.00000000E+00 -5.58951215E-05  3.61075785E-05
  0.00000000E+00 -4.26489841E-05  0.00000000E+00  0.00000000E+00  3.82789559E-05
  4.42219941E-05  6.46670973E-04  0.00000000E+00  0.00000000E+00 -3.05965981E-04
  2.47640796E-04 -8.92418204E-05  0.00000000E+00  0.00000000E+00 -2.92557709E-04
 -3.64449822E-04  0.00000000E+00 -2.93533939E-05  4.50639133E-05  0.00000000E+00
  0.00000000E+00 -1.26896276E-05 -3.13662264E-06  0.00000000E+00  9.35813105E-05
  5.27041979E-05  0.00000000E+00  0.00000000E+00 -2.31734340E-04 -2.21714888E-04
  5.66114081E-05  1.45158232E-04 -3.18575033E-04 -4.49350994E-04  8.32937413E-04
 -8.08308929E-05  7.66993145E-05  0.00000000E+00  7.06365279E-04 -6.48821147E-04
  0.00000000E+00 -4.39558321E-04  6.03420994E-04  0.00000000E+00  1.55583531E-04
 -1.70473626E-04  0.00000000E+00 -3.43431471E-05  0.00000000E+00  0.00000000E+00
 -3.63414973E-05 -4.98941045E-05 -3.94505102E-04  0.00000000E+00  0.00000000E+00
 -1.87580347E-04 -9.19377527E-04 -1.81239944E-04  0.00000000E+00  0.00000000E+00
  5.57893684E-04 -6.41896744E-05  0.00000000E+00 -8.50110694E-05  9.91545568E-05
  0.00000000E+00  0.00000000E+00 -1.47267465E-04 -5.13064285E-05  0.00000000E+00
 -4.73113594E-05  1.17867253E-04  0.00000000E+00  0.00000000E+00 -4.22092734E-04
  4.39667380E-05  7.06894703E-04  4.99820687E-05  1.60532675E-05 -2.55407831E-04
 -1.63471273E-04 -1.58020663E-05  2.16928848E-05  0.00000000E+00  1.18436355E-04
 -1.28999831E-04  0.00000000E+00  4.59285509E-04 -4.45332727E-04  0.00000000E+00
  1.68905751E-06  1.27790072E-06  0.00000000E+00 -5.29023137E-06  0.00000000E+00
  0.00000000E+00 -1.36874863E-05 -1.17686777E-05  1.39493497E-06  0.00000000E+00
  0.00000000E+00  1.43211359E-04 -2.80626202E-05 -7.19143551E-05  0.00000000E+00
  0.00000000E+00  2.71619432E-04 -2.30988078E-05  0.00000000E+00  3.15905051E-06
  8.86937723E-06  0.00000000E+00  0.00000000E+00 -1.36233292E-05 -6.97951756E-06
  0.00000000E+00  1.16278712E-05 -5.21408270E-05  0.00000000E+00  0.00000000E+00
  1.19455386E-04  7.26375525E-05 -7.69282978E-05 -5.40639045E-04 -4.60125684E-04
  1.99677617E-04  3.61644445E-05  3.53019783E-05  0.00000000E+00  4.90201944E-04
 -3.37300252E-04  0.00000000E+00  3.53300564E-04 -3.25435618E-04  0.00000000E+00
 -1.20043632E-05  0.00000000E+00  0.00000000E+00 -3.92284075E-05  3.12606230E-05
  1.17920213E-04  0.00000000E+00  0.00000000E+00 -3.09023808E-05  1.83842569E-04
 -1.25536885E-04 -2.10365467E-04 -2.07431910E-04  4.91846147E-03  3.31804328E-03
  8.47341128E-06 -4.00353303E-05  0.00000000E+00 -5.07046518E-04  8.55127757E-04
  0.00000000E+00 -2.31476604E-03  3.05473920E-03  0.00000000E+00 -8.17163334E-04
  5.86836950E-04  0.00000000E+00  5.44560705E-07  0.00000000E+00  0.00000000E+00
 -3.36709939E-05 -4.25642894E-05 -4.46424027E-04  0.00000000E+00  0.00000000E+00
 -3.72783448E-05 -5.18297441E-04 -6.09257027E-04  0.00000000E+00  0.00000000E+00
 -2.93946826E-04 -9.25019681E-04  0.00000000E+00  1.86582098E-05 -2.02832613E-05
  0.00000000E+00  0.00000000E+00  3.70986770E-05  3.08529917E-05  0.00000000E+00
  8.97994120E-05 -1.47155058E-04  0.00000000E+00  0.00000000E+00  3.47072889E-05
  2.38318223E-04  9.78257621E-01 -8.23431411E-03  4.18843741E-02 -4.93894823E-03
 -2.84499603E-03 -1.20267365E-03 -3.02648113E-03  0.00000000E+00 -2.48727784E-04
  2.94880236E-03  0.00000000E+00  3.99602319E-04  3.01954464E-03  0.00000000E+00
 -6.47711948E-05  5.30650758E-04  0.00000000E+00 -4.65536353E-04  0.00000000E+00
  0.00000000E+00  2.90235860E-04  2.54942230E-04  9.98940347E-04  0.00000000E+00
  0.00000000E+00 -9.38327779E-05  3.00395123E-04  3.34529961E-04  0.00000000E+00
  0.00000000E+00  1.68344519E-04  8.95111817E-06  0.00000000E+00  1.08504141E-04
 -6.57085924E-05  0.00000000E+00  0.00000000E+00 -8.48768149E-05 -2.53042725E-05
  0.00000000E+00 -2.39836647E-04 -2.24282332E-04  0.00000000E+00  0.00000000E+00
  4.68031577E-04  2.18586082E-04 -2.20959604E-04  9.44642790E-04  2.14156059E-04
  2.57724641E-03  5.70286303E-04  3.00891393E-04  1.35523094E-04  0.00000000E+00
  7.38358411E-04  2.05688518E-04  0.00000000E+00  9.01809398E-04 -3.21244721E-04
  0.00000000E+00 -5.02528703E-05  1.68351651E-05  0.00000000E+00 -3.53508552E-05
  0.00000000E+00  0.00000000E+00  7.04890985E-05  8.08944761E-05  1.39292440E-04
  0.00000000E+00  0.00000000E+00 -9.85884689E-05 -3.71692134E-04  1.45935319E-05
  0.00000000E+00  0.00000000E+00  2.24389033E-04 -2.11387660E-04  0.00000000E+00
  1.04200713E-04  4.00987092E-05  0.00000000E+00  0.00000000E+00 -6.64230672E-05
 -1.23286450E-04  0.00000000E+00  1.84338083E-04  1.33043200E-04  0.00000000E+00
  0.00000000E+00 -4.89578225E-06 -4.00764563E-04  1.84595762E-02  1.50872036E-02
  2.36746184E-06  6.05890717E-04 -2.81107311E-03 -7.38548315E-04  0.00000000E+00
 -2.23194472E-03 -1.23191347E-03  0.00000000E+00  1.86002938E-03  1.02606180E-04
  0.00000000E+00 -2.11091360E-04  0.00000000E+00  0.00000000E+00  3.10477867E-04
  2.86063429E-04  2.30241978E-04  0.00000000E+00  0.00000000E+00  2.44523359E-04
  6.25919273E-04 -5.97764474E-02  1.44841611E-01  3.85087219E-02  8.36771194E-02
  7.25912890E-03 -1.48666852E-02  2.19870945E-02  0.00000000E+00 -1.99655164E-02
  3.16573592E-02  0.00000000E+00 -1.17195724E-02  1.01270052E-02  0.00000000E+00
 -2.26120312E-03 -1.87343058E-03  0.00000000E+00 -1.72928254E-03  0.00000000E+00
  0.00000000E+00  3.83348130E-05 -1.83428974E-03 -3.70856725E-03  0.00000000E+00
  0.00000000E+00  6.56935047E-04 -4.01645970E-03  1.12580780E-03  0.00000000E+00
  0.00000000E+00  8.62983103E-05 -1.17416367E-03  0.00000000E+00  4.39438554E-04
 -8.25544542E-04  0.00000000E+00  0.00000000E+00  6.66741838E-04  1.22012358E-03
  0.00000000E+00 -3.10876647E-04  6.81697640E-04  0.00000000E+00  0.00000000E+00
 -5.75996905E-04  1.25665511E-04 -1.31189542E-01  3.08129540E-01  8.10261979E-02
  6.19540624E-02  1.08054692E-03 -8.05566492E-02 -4.63049656E-02  0.00000000E+00
 -8.32183143E-02 -6.34229192E-02  0.00000000E+00 -3.86722243E-03  9.78966985E-03
  0.00000000E+00 -2.32829807E-04  3.28879144E-03  0.00000000E+00 -9.66771357E-03
  0.00000000E+00  0.00000000E+00  9.49316468E-03  6.95331359E-03 -1.12005972E-02
  0.00000000E+00  0.00000000E+00  9.63867325E-03  6.51025771E-03  6.84476426E-03
  0.00000000E+00  0.00000000E+00 -8.70456298E-04  6.78832611E-04  0.00000000E+00
  2.80008232E-03  2.45162327E-03  0.00000000E+00  0.00000000E+00 -5.20866575E-03
 -5.55090636E-03  0.00000000E+00 -1.54022783E-03 -6.29540471E-04  0.00000000E+00
  0.00000000E+00  1.39506667E-03  3.31386823E-04 -1.53106714E-01  3.65342952E-01
  9.76945274E-02  1.77247830E-01 -1.80650405E-02  8.46304779E-02  2.24487198E-02
  0.00000000E+00  1.05808410E-01  2.78075189E-02  0.00000000E+00  1.48434165E-02
  2.61804382E-03  0.00000000E+00 -9.45920582E-03 -2.50777846E-03  0.00000000E+00
 -5.52534590E-03  0.00000000E+00  0.00000000E+00  7.93751894E-03  4.64449048E-03
 -9.78900163E-03  0.00000000E+00  0.00000000E+00  1.57092396E-02  9.48294391E-03
  3.15909072E-03  0.00000000E+00  0.00000000E+00 -4.77586142E-03 -3.07332639E-03
  0.00000000E+00 -3.28848212E-03 -8.73757288E-04  0.00000000E+00  0.00000000E+00
  3.57501966E-03  3.64880874E-03  0.00000000E+00 -8.90619459E-05 -2.71607384E-04
  0.00000000E+00  0.00000000E+00  1.05427888E-03  1.92810793E-03  8.08458109E-02
  7.89553660E-02 -2.09973225E-02 -2.91774595E-03 -1.19147776E-02 -4.62396701E-03
  0.00000000E+00 -1.47502716E-02 -1.03903277E-03  0.00000000E+00  7.87800918E-03
  2.15377077E-03  0.00000000E+00 -1.32049153E-03  0.00000000E+00  0.00000000E+00
  2.29267699E-03  1.11462519E-03  4.07135521E-04  0.00000000E+00  0.00000000E+00
  2.20159265E-03 -1.45553771E-03 -1.83697428E-01  4.47311398E-01  1.21935829E-01
  2.61138435E-01  1.16941101E-02  1.53400237E-02  3.88377676E-02  0.00000000E+00