title                                                                   
SP        RMP2-FC                                                     Aug-CC-pVTZ         
Number of atoms                            I                5
Info1-9                                    I   N=           9
          33          24           0           0           0         110
           1           2           1
Full Title                                 C   N=           1
title       
Route                                      C   N=           4
#p SP mp2/aug-cc-pvtz density=current           
Charge                                     I                0
Multiplicity                               I                1
Number of electrons                        I               32
Number of alpha electrons                  I               16
Number of beta electrons                   I               16
Number of basis functions                  I              207
Number of independent functions            I              207
Number of point charges in /Mol/           I                0
Number of translation vectors              I                0
Atomic numbers                             I   N=           5
           1           8           8           7           8
Nuclear charges                            R   N=           5
  1.00000000E+00  8.00000000E+00  8.00000000E+00  7.00000000E+00  8.00000000E+00
Current cartesian coordinates              R   N=          15
  2.97776939E+00  3.12892608E+00 -1.61524618E-32  2.74932229E+00  1.31213402E+00
  2.27421180E-32  2.28172596E-16  1.29159252E+00 -5.44793568E-32 -4.98335419E-01
 -1.41969309E+00 -2.50679100E-32 -2.68549997E+00 -1.75261084E+00 -6.02655440E-32
Number of symbols in /Mol/                 I                0
Force Field                                I                0
Atom Types                                 C   N=           5
                                                            
Int Atom Types                             I   N=           5
           0           0           0           0           0
MM charges                                 R   N=           5
  0.00000000E+00  0.00000000E+00  0.00000000E+00  0.00000000E+00  0.00000000E+00
Integer atomic weights                     I   N=           5
           1          16          16          14          16
Real atomic weights                        R   N=           5
  1.00782504E+00  1.59949146E+01  1.59949146E+01  1.40030740E+01  1.59949146E+01
Atom fragment info                         I   N=           5
           0           0           0           0           0
Atom residue num                           I   N=           5
           0           0           0           0           0
Nuclear spins                              I   N=           5
           1           0           0           2           0
Nuclear ZEff                               R   N=           5
 -1.00000000E+00 -5.60000000E+00 -5.60000000E+00 -4.55000000E+00 -5.60000000E+00
Nuclear ZNuc                               R   N=           5
  1.00000000E+00  8.00000000E+00  8.00000000E+00  7.00000000E+00  8.00000000E+00
Nuclear QMom                               R   N=           5
  0.00000000E+00  0.00000000E+00  0.00000000E+00  2.04400000E+00  0.00000000E+00
Nuclear GFac                               R   N=           5
  2.79284600E+00  0.00000000E+00  0.00000000E+00  4.03761000E-01  0.00000000E+00
MicOpt                                     I   N=           5
          -1          -1          -1          -1          -1
Number of residues                         I                0
Number of secondary structures             I                0
SymInf integers                            I   N=          26
           1           2           1           1           1           1
           1          -1           0           0           0           0
           0           0           0           0           0           0
           0           0           0           0           0           0
           0           0
RotTr to input orientation                 R   N=          12
 -9.92187000E-01 -9.92134734E-17 -1.24759594E-01  1.24759594E-01 -7.17933460E-17
 -9.92187000E-01  8.94814099E-17 -1.00000000E+00  8.36102572E-17  2.56414053E+00
  0.00000000E+00  3.47598508E+00
Number of contracted shells                I               65
Number of primitive shells                 I              119
Pure/Cartesian d shells                    I                0
Pure/Cartesian f shells                    I                0
Highest angular momentum                   I                3
Largest degree of contraction              I                7
Shell types                                I   N=          65
           0           0           0           0           1           1
           1          -2          -2           0           0           0
           0           0           1           1           1           1
          -2          -2          -2          -3          -3           0
           0           0           0           0           1           1
           1           1          -2          -2          -2          -3
          -3           0           0           0           0           0
           1           1           1           1          -2          -2
          -2          -3          -3           0           0           0
           0           0           1           1           1           1
          -2          -2          -2          -3          -3
Number of primitives per shell             I   N=          65
           3           1           1           1           1           1
           1           1           1           7           6           1
           1           1           3           1           1           1
           1           1           1           1           1           7
           6           1           1           1           3           1
           1           1           1           1           1           1
           1           7           6           1           1           1
           3           1           1           1           1           1
           1           1           1           7           6           1
           1           1           3           1           1           1
           1           1           1           1           1
Shell to atom map                          I   N=          65
           1           1           1           1           1           1
           1           1           1           2           2           2
           2           2           2           2           2           2
           2           2           2           2           2           3
           3           3           3           3           3           3
           3           3           3           3           3           3
           3           4           4           4           4           4
           4           4           4           4           4           4
           4           4           4           5           5           5
           5           5           5           5           5           5
           5           5           5           5           5
Primitive exponents                        R   N=         119
  3.38700000E+01  5.09500000E+00  1.15900000E+00  3.25800000E-01  1.02700000E-01
  2.52600000E-02  1.40700000E+00  3.88000000E-01  1.02000000E-01  1.05700000E+00
  2.47000000E-01  1.53300000E+04  2.29900000E+03  5.22400000E+02  1.47300000E+02
  4.75500000E+01  1.67600000E+01  6.20700000E+00  5.22400000E+02  1.47300000E+02
  4.75500000E+01  1.67600000E+01  6.20700000E+00  6.88200000E-01  1.75200000E+00
  2.38400000E-01  7.37600000E-02  3.44600000E+01  7.74900000E+00  2.28000000E+00
  7.15600000E-01  2.14000000E-01  5.97400000E-02  2.31400000E+00  6.45000000E-01
  2.14000000E-01  1.42800000E+00  5.00000000E-01  1.53300000E+04  2.29900000E+03
  5.22400000E+02  1.47300000E+02  4.75500000E+01  1.67600000E+01  6.20700000E+00
  5.22400000E+02  1.47300000E+02  4.75500000E+01  1.67600000E+01  6.20700000E+00
  6.88200000E-01  1.75200000E+00  2.38400000E-01  7.37600000E-02  3.44600000E+01
  7.74900000E+00  2.28000000E+00  7.15600000E-01  2.14000000E-01  5.97400000E-02
  2.31400000E+00  6.45000000E-01  2.14000000E-01  1.42800000E+00  5.00000000E-01
  1.14200000E+04  1.71200000E+03  3.89300000E+02  1.10000000E+02  3.55700000E+01
  1.25400000E+01  4.64400000E+00  3.89300000E+02  1.10000000E+02  3.55700000E+01
  1.25400000E+01  4.64400000E+00  5.11800000E-01  1.29300000E+00  1.78700000E-01
  5.76000000E-02  2.66300000E+01  5.94800000E+00  1.74200000E+00  5.55000000E-01
  1.72500000E-01  4.91000000E-02  1.65400000E+00  4.69000000E-01  1.51000000E-01
  1.09300000E+00  3.64000000E-01  1.53300000E+04  2.29900000E+03  5.22400000E+02
  1.47300000E+02  4.75500000E+01  1.67600000E+01  6.20700000E+00  5.22400000E+02
  1.47300000E+02  4.75500000E+01  1.67600000E+01  6.20700000E+00  6.88200000E-01
  1.75200000E+00  2.38400000E-01  7.37600000E-02  3.44600000E+01  7.74900000E+00
  2.28000000E+00  7.15600000E-01  2.14000000E-01  5.97400000E-02  2.31400000E+00
  6.45000000E-01  2.14000000E-01  1.42800000E+00  5.00000000E-01
Contraction coefficients                   R   N=         119
  2.54948632E-02  1.90362766E-01  8.52162022E-01  1.00000000E+00  1.00000000E+00
  1.00000000E+00  1.00000000E+00  1.00000000E+00  1.00000000E+00  1.00000000E+00
  1.00000000E+00  5.19808943E-04  4.02025621E-03  2.07128267E-02  8.10105536E-02
  2.35962985E-01  4.42653446E-01  3.57064423E-01 -4.42115008E-05 -1.22591041E-03
 -1.05517725E-02 -6.74452633E-02 -1.71198607E-01  1.07329856E+00  1.00000000E+00
  1.00000000E+00  1.00000000E+00  4.11634896E-02  2.57762836E-01  8.02419274E-01
  1.00000000E+00  1.00000000E+00  1.00000000E+00  1.00000000E+00  1.00000000E+00
  1.00000000E+00  1.00000000E+00  1.00000000E+00  5.19808943E-04  4.02025621E-03
  2.07128267E-02  8.10105536E-02  2.35962985E-01  4.42653446E-01  3.57064423E-01
 -4.42115008E-05 -1.22591041E-03 -1.05517725E-02 -6.74452633E-02 -1.71198607E-01
  1.07329856E+00  1.00000000E+00  1.00000000E+00  1.00000000E+00  4.11634896E-02
  2.57762836E-01  8.02419274E-01  1.00000000E+00  1.00000000E+00  1.00000000E+00
  1.00000000E+00  1.00000000E+00  1.00000000E+00  1.00000000E+00  1.00000000E+00
  5.34563860E-04  4.13435660E-03  2.12335358E-02  8.25006224E-02  2.38138871E-01
  4.42551547E-01  3.53757422E-01 -4.89867350E-05 -1.19527323E-03 -1.03490714E-02
 -6.48680190E-02 -1.71552477E-01  1.07289568E+00  1.00000000E+00  1.00000000E+00
  1.00000000E+00  3.98072123E-02  2.49002660E-01  8.10479727E-01  1.00000000E+00
  1.00000000E+00  1.00000000E+00  1.00000000E+00  1.00000000E+00  1.00000000E+00
  1.00000000E+00  1.00000000E+00  5.19808943E-04  4.02025621E-03  2.07128267E-02
  8.10105536E-02  2.35962985E-01  4.42653446E-01  3.57064423E-01 -4.42115008E-05
 -1.22591041E-03 -1.05517725E-02 -6.74452633E-02 -1.71198607E-01  1.07329856E+00
  1.00000000E+00  1.00000000E+00  1.00000000E+00  4.11634896E-02  2.57762836E-01
  8.02419274E-01  1.00000000E+00  1.00000000E+00  1.00000000E+00  1.00000000E+00
  1.00000000E+00  1.00000000E+00  1.00000000E+00  1.00000000E+00
Coordinates of each shell                  R   N=         195
  2.97776939E+00  3.12892608E+00 -3.07049124E-33  2.97776939E+00  3.12892608E+00
 -3.07049124E-33  2.97776939E+00  3.12892608E+00 -3.07049124E-33  2.97776939E+00
  3.12892608E+00 -3.07049124E-33  2.97776939E+00  3.12892608E+00 -3.07049124E-33
  2.97776939E+00  3.12892608E+00 -3.07049124E-33  2.97776939E+00  3.12892608E+00
 -3.07049124E-33  2.97776939E+00  3.12892608E+00 -3.07049124E-33  2.97776939E+00
  3.12892608E+00 -3.07049124E-33  2.74932229E+00  1.31213402E+00  6.80661018E-33
  2.74932229E+00  1.31213402E+00  6.80661018E-33  2.74932229E+00  1.31213402E+00
  6.80661018E-33  2.74932229E+00  1.31213402E+00  6.80661018E-33  2.74932229E+00
  1.31213402E+00  6.80661018E-33  2.74932229E+00  1.31213402E+00  6.80661018E-33
  2.74932229E+00  1.31213402E+00  6.80661018E-33  2.74932229E+00  1.31213402E+00
  6.80661018E-33  2.74932229E+00  1.31213402E+00  6.80661018E-33  2.74932229E+00
  1.31213402E+00  6.80661018E-33  2.74932229E+00  1.31213402E+00  6.80661018E-33
  2.74932229E+00  1.31213402E+00  6.80661018E-33  2.74932229E+00  1.31213402E+00
  6.80661018E-33  2.74932229E+00  1.31213402E+00  6.80661018E-33 -3.28673417E-18
  1.29159252E+00 -7.89786155E-33 -3.28673417E-18  1.29159252E+00 -7.89786155E-33
 -3.28673417E-18  1.29159252E+00 -7.89786155E-33 -3.28673417E-18  1.29159252E+00
 -7.89786155E-33 -3.28673417E-18  1.29159252E+00 -7.89786155E-33 -3.28673417E-18
  1.29159252E+00 -7.89786155E-33 -3.28673417E-18  1.29159252E+00 -7.89786155E-33
 -3.28673417E-18  1.29159252E+00 -7.89786155E-33 -3.28673417E-18  1.29159252E+00
 -7.89786155E-33 -3.28673417E-18  1.29159252E+00 -7.89786155E-33 -3.28673417E-18
  1.29159252E+00 -7.89786155E-33 -3.28673417E-18  1.29159252E+00 -7.89786155E-33
 -3.28673417E-18  1.29159252E+00 -7.89786155E-33 -3.28673417E-18  1.29159252E+00
 -7.89786155E-33 -4.98335419E-01 -1.41969309E+00  5.99311025E-33 -4.98335419E-01
 -1.41969309E+00  5.99311025E-33 -4.98335419E-01 -1.41969309E+00  5.99311025E-33
 -4.98335419E-01 -1.41969309E+00  5.99311025E-33 -4.98335419E-01 -1.41969309E+00
  5.99311025E-33 -4.98335419E-01 -1.41969309E+00  5.99311025E-33 -4.98335419E-01
 -1.41969309E+00  5.99311025E-33 -4.98335419E-01 -1.41969309E+00  5.99311025E-33
 -4.98335419E-01 -1.41969309E+00  5.99311025E-33 -4.98335419E-01 -1.41969309E+00
  5.99311025E-33 -4.98335419E-01 -1.41969309E+00  5.99311025E-33 -4.98335419E-01
 -1.41969309E+00  5.99311025E-33 -4.98335419E-01 -1.41969309E+00  5.99311025E-33
 -4.98335419E-01 -1.41969309E+00  5.99311025E-33 -2.68549997E+00 -1.75261084E+00
 -3.76890869E-33 -2.68549997E+00 -1.75261084E+00 -3.76890869E-33 -2.68549997E+00
 -1.75261084E+00 -3.76890869E-33 -2.68549997E+00 -1.75261084E+00 -3.76890869E-33
 -2.68549997E+00 -1.75261084E+00 -3.76890869E-33 -2.68549997E+00 -1.75261084E+00
 -3.76890869E-33 -2.68549997E+00 -1.75261084E+00 -3.76890869E-33 -2.68549997E+00
 -1.75261084E+00 -3.76890869E-33 -2.68549997E+00 -1.75261084E+00 -3.76890869E-33
 -2.68549997E+00 -1.75261084E+00 -3.76890869E-33 -2.68549997E+00 -1.75261084E+00
 -3.76890869E-33 -2.68549997E+00 -1.75261084E+00 -3.76890869E-33 -2.68549997E+00
 -1.75261084E+00 -3.76890869E-33 -2.68549997E+00 -1.75261084E+00 -3.76890869E-33
Num ILSW                                   I              100
ILSW                                       I   N=         100
           0           0           0           0           2           0
           0           0           0           0           0          -1
           5           0           0           0           0           0
           0           0           0           0           0           0
           1           0           0           0           0           0
           0           0      100000           0          -1           0
           0           0           0           0           0           0
           0           0           0           1           0           0
           0 -2000000000           1           0           0           0
           0           0           4          52           0           0
           0           0           0           0           0           0
           0           0           0           5           0           1
           0           0           0           0           0           0
           0           0           0           0           0           0
           0           0           0           0           0           0
           0           0           0           0           0           0
           0           0           0           0
Num RLSW                                   I               52
RLSW                                       R   N=          52
  1.00000000E+00  1.00000000E+00  1.00000000E+00  1.00000000E+00  1.00000000E+00
  0.00000000E+00  0.00000000E+00  1.00000000E+00  0.00000000E+00  0.00000000E+00
  0.00000000E+00  0.00000000E+00  1.00000000E+00  0.00000000E+00  0.00000000E+00
  0.00000000E+00  0.00000000E+00  1.00000000E+00  0.00000000E+00  0.00000000E+00
  0.00000000E+00  0.00000000E+00  1.00000000E+00  0.00000000E+00  0.00000000E+00
  0.00000000E+00  0.00000000E+00  1.00000000E+00  0.00000000E+00  0.00000000E+00
  0.00000000E+00  0.00000000E+00  1.00000000E+00  0.00000000E+00  0.00000000E+00
  0.00000000E+00  0.00000000E+00  0.00000000E+00  1.00000000E+00  1.00000000E+00
  0.00000000E+00  1.00000000E+00  0.00000000E+00  0.00000000E+00  0.00000000E+00
  0.00000000E+00  0.00000000E+00  0.00000000E+00  0.00000000E+00  0.00000000E+00
  0.00000000E+00  0.00000000E+00
MxBond                                     I                2
NBond                                      I   N=           5
           1           2           2           2           1
IBond                                      I   N=          10
           2           0           1           3           2           4
           3           5           4           0
RBond                                      R   N=          10
  1.00000000E+00  0.00000000E+00  1.00000000E+00  1.00000000E+00  1.00000000E+00
  1.00000000E+00  1.00000000E+00  2.00000000E+00  2.00000000E+00  0.00000000E+00
Virial Ratio                               R      2.002320915597197E+00
SCF Energy                                 R     -2.795014559544991E+02
MP2 Energy                                 R     -2.804466428772118E+02
Total Energy                               R     -2.804466428772118E+02
Post-SCF wavefunction norm                 R      1.120225963085360E+00
RMS Density                                R      3.779507118140713E-09
Job Status                                 I                1
Nuclear derivative order                   I                0
External E-field                           R   N=          35
  0.00000000E+00  0.00000000E+00  0.00000000E+00  0.00000000E+00  0.00000000E+00
  0.00000000E+00  0.00000000E+00  0.00000000E+00  0.00000000E+00  0.00000000E+00
  0.00000000E+00  0.00000000E+00  0.00000000E+00  0.00000000E+00  0.00000000E+00
  0.00000000E+00  0.00000000E+00  0.00000000E+00  0.00000000E+00  0.00000000E+00
  0.00000000E+00  0.00000000E+00  0.00000000E+00  0.00000000E+00  0.00000000E+00
  0.00000000E+00  0.00000000E+00  0.00000000E+00  0.00000000E+00  0.00000000E+00
  0.00000000E+00  0.00000000E+00  0.00000000E+00  0.00000000E+00  0.00000000E+00
IOpCl                                      I                0
IROHF                                      I                0
Alpha Orbital Energies                     R   N=         207
 -2.06912408E+01 -2.06839706E+01 -2.06594880E+01 -1.58123885E+01 -1.62408827E+00
 -1.49616582E+00 -1.25368980E+00 -9.48370928E-01 -7.73939920E-01 -7.58571556E-01
 -7.12010645E-01 -6.77074050E-01 -6.20051040E-01 -5.90498752E-01 -4.85337634E-01
 -4.72799097E-01  2.96204459E-02  7.18500207E-02  8.59172866E-02  1.01326789E-01
  1.34082786E-01  1.34120323E-01  1.44255906E-01  1.54985009E-01  1.78193201E-01
  1.93994723E-01  1.99666021E-01  2.06404591E-01  2.21036245E-01  2.35527706E-01
  2.37505839E-01  2.65042413E-01  2.93182859E-01  3.04705767E-01  3.10193976E-01
  3.43106789E-01  3.50208371E-01  3.87887079E-01  4.21460918E-01  4.30702600E-01
  5.27115099E-01  5.30355998E-01  5.60463026E-01  5.83887148E-01  6.26208716E-01
  6.37066580E-01  6.74194262E-01  6.84346127E-01  7.05533607E-01  7.12173337E-01
  7.23773516E-01  7.30237525E-01  7.44722880E-01  7.89939621E-01  7.91922648E-01
  8.09588240E-01  8.12905741E-01  8.31999632E-01  8.68251783E-01  9.07523690E-01
  9.22690696E-01  9.25879395E-01  9.58908325E-01  9.82710879E-01  9.85904167E-01
  1.01653368E+00  1.05304388E+00  1.05371954E+00  1.08643984E+00  1.12121629E+00
  1.14383739E+00  1.18790525E+00  1.22213924E+00  1.23122653E+00  1.33763773E+00
  1.34934035E+00  1.38794338E+00  1.45253267E+00  1.48753032E+00  1.50889373E+00
  1.53983145E+00  1.56827620E+00  1.58073547E+00  1.61551308E+00  1.66581187E+00
  1.66911581E+00  1.70324685E+00  1.79272953E+00  1.82791855E+00  1.83289828E+00
  1.87957700E+00  1.91254713E+00  1.95867978E+00  1.99346123E+00  2.00604856E+00
  2.07682925E+00  2.11765244E+00  2.13099983E+00  2.15038539E+00  2.22501794E+00
  2.26382330E+00  2.26530604E+00  2.28809116E+00  2.31706704E+00  2.35226783E+00
  2.38796950E+00  2.42694463E+00  2.42861138E+00  2.45342542E+00  2.46426953E+00
  2.47704948E+00  2.50672655E+00  2.59006637E+00  2.59501108E+00  2.61895668E+00
  2.62675611E+00  2.63134301E+00  2.67033092E+00  2.76160629E+00  2.83079861E+00
  2.86729366E+00  2.89115579E+00  2.89611471E+00  2.92226132E+00  2.95596312E+00
  3.03390036E+00  3.07207320E+00  3.12548084E+00  3.20669635E+00  3.23150489E+00
  3.31510492E+00  3.33413345E+00  3.50632150E+00  3.65216586E+00  3.84005670E+00
  3.84468723E+00  4.15057613E+00  4.16222130E+00  4.18543604E+00  4.26133777E+00
  4.34740236E+00  4.39626910E+00  4.46389634E+00  4.51786969E+00  4.67087272E+00
  4.71156976E+00  4.80947411E+00  4.82366697E+00  4.82972495E+00  4.89709286E+00
  5.02180538E+00  5.07711545E+00  5.10139458E+00  5.13978076E+00  5.18435227E+00
  5.24662218E+00  5.27125342E+00  5.30836018E+00  5.33380496E+00  5.36354676E+00
  5.61821188E+00  5.67393616E+00  5.77246974E+00  5.82873854E+00  5.95743299E+00
  6.17384570E+00  6.30869986E+00  6.33666847E+00  6.39309102E+00  6.49298034E+00
  6.50419438E+00  6.61656933E+00  6.66526465E+00  6.69781642E+00  6.76255145E+00
  6.76362074E+00  6.83412032E+00  6.89630032E+00  7.00983908E+00  7.05191482E+00
  7.05782903E+00  7.09035039E+00  7.12614969E+00  7.15228399E+00  7.18274751E+00
  7.22279550E+00  7.24380833E+00  7.30994691E+00  7.32465301E+00  7.35579227E+00
  7.40266433E+00  7.42925672E+00  7.48707041E+00  7.60326616E+00  7.61773977E+00
  7.63453911E+00  7.67000837E+00  7.79417325E+00  7.89445006E+00  8.08797566E+00
  8.31576443E+00  8.40929644E+00  8.54352907E+00  1.34034399E+01  1.43642311E+01
  1.51795786E+01  1.61555966E+01
Alpha MO coefficients                      R   N=       42849
  9.09969025E-05 -6.14408156E-04 -7.12816987E-04 -2.94254224E-06 -2.03655978E-05
 -2.67416268E-05  0.00000000E+00 -4.68693684E-05  5.34212376E-05  0.00000000E+00
  8.19761615E-05  3.14132036E-05  0.00000000E+00  3.12670720E-05  0.00000000E+00
  0.00000000E+00 -4.87697745E-05  2.37451630E-05 -5.70353693E-06  0.00000000E+00
  0.00000000E+00 -1.29572464E-04  1.24272116E-04  4.46239009E-03 -2.82945875E-04
  1.12912442E-05  1.49132214E-03  1.80773400E-03  1.05048893E-04  4.72828386E-06
  0.00000000E+00 -6.08000812E-04 -2.00015397E-05  0.00000000E+00 -1.05390019E-03
  7.98881255E-04  0.00000000E+00 -3.96862757E-04  7.31743570E-05  0.00000000E+00
  2.89128750E-05  0.00000000E+00  0.00000000E+00 -5.36028936E-05  8.60404595E-06
 -3.75506303E-04  0.00000000E+00  0.00000000E+00  7.34104950E-04 -7.25706818E-05
 -4.43418017E-04  0.00000000E+00  0.00000000E+00  2.34056284E-04 -2.35505522E-05
  0.00000000E+00  7.98135515E-05  1.04603906E-05  0.00000000E+00  0.00000000E+00
 -1.10051455E-04  5.19805151E-06  0.00000000E+00  2.55604017E-04 -3.29447015E-05
  0.00000000E+00  0.00000000E+00 -3.42828306E-04  7.82389972E-05  9.76912671E-01
 -9.22548205E-03  4.33140173E-02  2.09450095E-03 -9.13768445E-04  1.47357083E-03
 -1.37760370E-03  0.00000000E+00 -1.42290560E-03  1.41410445E-03  0.00000000E+00
  9.76358585E-05 -1.15792492E-03  0.00000000E+00 -1.29891292E-04 -1.06347878E-05
  0.00000000E+00  4.83735436E-05  0.00000000E+00  0.00000000E+00 -3.56680577E-05
  1.86498973E-05  7.41677793E-04  0.00000000E+00  0.00000000E+00 -2.37600070E-04
 -3.51669382E-04 -3.61175299E-04  0.00000000E+00  0.00000000E+00 -3.17253680E-04
 -3.73788071E-04  0.00000000E+00  4.74525308E-05 -5.02021321E-05  0.00000000E+00
  0.00000000E+00 -3.92428583E-05 -1.33083170E-05  0.00000000E+00  2.20773438E-05
  2.11770399E-05  0.00000000E+00  0.00000000E+00 -3.02533827E-04 -1.20240670E-04
  3.81107150E-05  4.10890341E-05 -2.62080362E-04 -7.26588983E-04 -1.46677278E-04
 -2.65869837E-05 -9.64107439E-05  0.00000000E+00  2.58653660E-04  6.93715840E-04
  0.00000000E+00 -8.13427893E-04 -4.76471446E-04  0.00000000E+00 -1.28915103E-04
 -2.82972329E-05  0.00000000E+00 -1.76349441E-05  0.00000000E+00  0.00000000E+00
 -2.85343352E-05  1.50468150E-05 -3.27582259E-04  0.00000000E+00  0.00000000E+00
 -8.23275026E-04  1.27376591E-04 -3.67469783E-05  0.00000000E+00  0.00000000E+00
  9.25134276E-05 -1.11823847E-04  0.00000000E+00 -2.01285378E-05 -1.19617400E-04
  0.00000000E+00  0.00000000E+00 -6.49960576E-05 -1.37869115E-04  0.00000000E+00
 -2.47674559E-06 -1.57381292E-04  0.00000000E+00  0.00000000E+00  4.38265044E-05
 -4.08893285E-04 -2.35737108E-03  1.19755400E-04 -1.12392973E-04 -2.26335378E-04
  1.40329001E-04 -7.43942398E-06 -2.67137143E-05  0.00000000E+00  6.79925352E-05
  1.56793042E-04  0.00000000E+00  2.32546172E-04  2.07514057E-04  0.00000000E+00
  1.27812937E-04  2.81737424E-05  0.00000000E+00 -3.15424109E-06  0.00000000E+00
  0.00000000E+00 -1.77817685E-05  1.27706323E-06  1.27965423E-06  0.00000000E+00
  0.00000000E+00  7.84129833E-05  8.48123838E-05 -9.91973634E-05  0.00000000E+00
  0.00000000E+00  1.60379229E-04  1.64619686E-04  0.00000000E+00  1.60011766E-05
 -3.34115991E-06  0.00000000E+00  0.00000000E+00 -4.12337334E-06 -1.21983363E-05
  0.00000000E+00 -3.32189964E-05  4.48822372E-05  0.00000000E+00  0.00000000E+00
  8.06063147E-05  8.95640715E-05  4.14817460E-05 -9.97058098E-04 -4.72031038E-04
 -1.23409531E-05 -2.19000179E-05  1.54293513E-05  0.00000000E+00  5.43027291E-06
  2.71043549E-04  0.00000000E+00 -4.82491841E-05  1.28814770E-04  0.00000000E+00
  2.65326781E-05  0.00000000E+00  0.00000000E+00  1.13135853E-05  1.00060733E-05
 -3.18362810E-05  0.00000000E+00  0.00000000E+00  1.49135268E-05  3.82812447E-05
  1.11907024E-04  9.41876268E-05 -2.83436116E-05  7.18034974E-04  5.95821312E-04
  1.03101967E-05  2.26600137E-06  0.00000000E+00 -7.70496699E-05  1.36687059E-05
  0.00000000E+00  3.92759764E-04  9.42506567E-04  0.00000000E+00  2.25866197E-05
  9.00235907E-05  0.00000000E+00 -2.83391102E-06  0.00000000E+00  0.00000000E+00
 -2.13669709E-07 -4.28045541E-06 -3.33730226E-05  0.00000000E+00  0.00000000E+00
 -1.37053340E-05  7.48376171E-05 -1.80280724E-05  0.00000000E+00  0.00000000E+00
 -2.80761152E-04 -1.74985823E-04  0.00000000E+00  9.15490769E-06  6.06109010E-06
  0.00000000E+00  0.00000000E+00  2.43305644E-06 -1.82357619E-05  0.00000000E+00
 -4.23106743E-05 -3.97474409E-05  0.00000000E+00  0.00000000E+00 -8.01944551E-05
  3.44723555E-05  2.39591191E-03  4.00441124E-05  8.19936118E-05 -7.07566145E-05
 -4.51914558E-04  7.22267507E-06  1.56851267E-05  0.00000000E+00 -6.24826471E-05
 -5.25405549E-05  0.00000000E+00  2.36862499E-04 -2.17597362E-04  0.00000000E+00
 -1.73422987E-04 -5.99547883E-05  0.00000000E+00 -8.74183362E-06  0.00000000E+00
  0.00000000E+00  2.22949844E-05  2.04143228E-05  4.86863052E-06  0.00000000E+00
  0.00000000E+00 -1.17018771E-04 -4.92011647E-05 -6.54629519E-06  0.00000000E+00
  0.00000000E+00 -2.23639121E-04 -2.24569760E-04  0.00000000E+00  3.20153558E-06
 -1.25965487E-06  0.00000000E+00  0.00000000E+00  1.65444575E-06 -1.27067113E-05
  0.00000000E+00 -4.59845822E-05  6.54694492E-06  0.00000000E+00  0.00000000E+00
 -7.47347490E-05  1.80656476E-04  2.58627837E-04  1.46434065E-03 -7.79154125E-05
 -1.52123404E-03  4.27463142E-04 -1.44245651E-04  5.34779662E-07  0.00000000E+00
 -2.09899887E-03 -4.05082265E-04  0.00000000E+00  1.08544174E-03  7.88708522E-04
  0.00000000E+00 -1.71411881E-04  6.04411572E-05  0.00000000E+00 -1.23159901E-04
  0.00000000E+00  0.00000000E+00  2.43416198E-04  9.26908384E-05 -4.44278070E-04
  0.00000000E+00  0.00000000E+00  8.99308196E-04 -6.34308324E-05  8.93029646E-06
  0.00000000E+00  0.00000000E+00 -3.45268089E-04 -1.13719572E-04  0.00000000E+00
 -3.53471067E-07  1.57791283E-05  0.00000000E+00  0.00000000E+00  1.77839794E-05
  1.16411597E-05  0.00000000E+00  1.58480236E-04 -7.44795901E-05  0.00000000E+00
  0.00000000E+00 -2.38983206E-04  4.97400146E-05  9.76649521E-01 -9.84555949E-03
  4.35702830E-02  4.52067499E-03 -4.53291526E-04  2.14753587E-03  4.74854590E-04
  0.00000000E+00 -2.38444509E-03 -5.99287657E-04  0.00000000E+00  1.13189861E-03
 -7.77844735E-06  0.00000000E+00  2.10732229E-06 -3.99174086E-05  0.00000000E+00
 -2.32913981E-04  0.00000000E+00  0.00000000E+00  1.02548128E-04  3.21511355E-05
  3.90900509E-04  0.00000000E+00  0.00000000E+00 -8.37976060E-04 -4.16750004E-04
 -1.49211015E-04  0.00000000E+00  0.00000000E+00  2.50779654E-04  1.21536944E-05
  0.00000000E+00  5.22762660E-05  1.73943209E-05  0.00000000E+00  0.00000000E+00
 -2.25780355E-05 -1.29337612E-05  0.00000000E+00  1.39430802E-04  9.72297068E-06
  0.00000000E+00  0.00000000E+00 -1.91216375E-04 -1.40180538E-04  4.78488639E-04
  2.14831911E-03  1.45471004E-04  1.49968289E-05 -4.63695631E-05 -2.48897963E-04
  0.00000000E+00  7.12879229E-05 -1.30386825E-03  0.00000000E+00  2.75124066E-04
 -3.58751468E-04  0.00000000E+00 -3.78231829E-06  0.00000000E+00  0.00000000E+00
  7.51004321E-05  9.87154698E-06 -1.58706803E-04  0.00000000E+00  0.00000000E+00
 -5.38611837E-04  7.61427301E-06  9.76829052E-01 -9.16656995E-03  4.34532439E-02
  9.57882717E-05 -1.07823234E-03 -1.51563668E-03  1.48861808E-03  0.00000000E+00
  1.53095894E-03 -1.33370708E-03  0.00000000E+00 -6.02395829E-04 -9.60830348E-04
  0.00000000E+00  5.36597822E-05 -7.07500751E-06  0.00000000E+00  2.85988569E-05
  0.00000000E+00  0.00000000E+00 -1.19196984E-04  5.56600963E-06  7.62375518E-04
  0.00000000E+00  0.00000000E+00 -2.03406745E-04 -2.27492253E-04 -2.64640702E-04
  0.00000000E+00  0.00000000E+00  1.79715059E-04  1.49122913E-04  0.00000000E+00
 -6.35611598E-05  1.86052365E-06  0.00000000E+00  0.00000000E+00  1.79739796E-05
  8.66991950E-06  0.00000000E+00  2.66670733E-06  1.30520813E-04  0.00000000E+00
  0.00000000E+00  2.71305727E-04  7.30635904E-05 -4.55543066E-03 -2.12608956E-04