 Entering Gaussian System, Link 0=g16
 Input=hoono_r4_1p162801.gjf
 Output=hoono_r4_1p162801.log
 Initial command:
 /sw/contrib/gaussian/g16/B01/g16/l1.exe "/scr/Gau-7725.inp" -scrdir="/scr/"
 Entering Link 1 = /sw/contrib/gaussian/g16/B01/g16/l1.exe PID=      7726.
  
 Copyright (c) 1988-2017, Gaussian, Inc.  All Rights Reserved.
  
 This is part of the Gaussian(R) 16 program.  It is based on
 the Gaussian(R) 09 system (copyright 2009, Gaussian, Inc.),
 the Gaussian(R) 03 system (copyright 2003, Gaussian, Inc.),
 the Gaussian(R) 98 system (copyright 1998, Gaussian, Inc.),
 the Gaussian(R) 94 system (copyright 1995, Gaussian, Inc.),
 the Gaussian 92(TM) system (copyright 1992, Gaussian, Inc.),
 the Gaussian 90(TM) system (copyright 1990, Gaussian, Inc.),
 the Gaussian 88(TM) system (copyright 1988, Gaussian, Inc.),
 the Gaussian 86(TM) system (copyright 1986, Carnegie Mellon
 University), and the Gaussian 82(TM) system (copyright 1983,
 Carnegie Mellon University). Gaussian is a federally registered
 trademark of Gaussian, Inc.
  
 This software contains proprietary and confidential information,
 including trade secrets, belonging to Gaussian, Inc.
  
 This software is provided under written license and may be
 used, copied, transmitted, or stored only in accord with that
 written license.
  
 The following legend is applicable only to US Government
 contracts under FAR:
  
                    RESTRICTED RIGHTS LEGEND
  
 Use, reproduction and disclosure by the US Government is
 subject to restrictions as set forth in subparagraphs (a)
 and (c) of the Commercial Computer Software - Restricted
 Rights clause in FAR 52.227-19.
  
 Gaussian, Inc.
 340 Quinnipiac St., Bldg. 40, Wallingford CT 06492
  
  
 ---------------------------------------------------------------
 Warning -- This program may not be used in any manner that
 competes with the business of Gaussian, Inc. or will provide
 assistance to any competitor of Gaussian, Inc.  The licensee
 of this program is prohibited from giving any competitor of
 Gaussian, Inc. access to this program.  By using this program,
 the user acknowledges that Gaussian, Inc. is engaged in the
 business of creating and licensing software in the field of
 computational chemistry and represents and warrants to the
 licensee that it is not a competitor of Gaussian, Inc. and that
 it will not use this program in any manner prohibited above.
 ---------------------------------------------------------------
  

 Cite this work as:
 Gaussian 16, Revision B.01,
 M. J. Frisch, G. W. Trucks, H. B. Schlegel, G. E. Scuseria, 
 M. A. Robb, J. R. Cheeseman, G. Scalmani, V. Barone, 
 G. A. Petersson, H. Nakatsuji, X. Li, M. Caricato, A. V. Marenich, 
 J. Bloino, B. G. Janesko, R. Gomperts, B. Mennucci, H. P. Hratchian, 
 J. V. Ortiz, A. F. Izmaylov, J. L. Sonnenberg, D. Williams-Young, 
 F. Ding, F. Lipparini, F. Egidi, J. Goings, B. Peng, A. Petrone, 
 T. Henderson, D. Ranasinghe, V. G. Zakrzewski, J. Gao, N. Rega, 
 G. Zheng, W. Liang, M. Hada, M. Ehara, K. Toyota, R. Fukuda, 
 J. Hasegawa, M. Ishida, T. Nakajima, Y. Honda, O. Kitao, H. Nakai, 
 T. Vreven, K. Throssell, J. A. Montgomery, Jr., J. E. Peralta, 
 F. Ogliaro, M. J. Bearpark, J. J. Heyd, E. N. Brothers, K. N. Kudin, 
 V. N. Staroverov, T. A. Keith, R. Kobayashi, J. Normand, 
 K. Raghavachari, A. P. Rendell, J. C. Burant, S. S. Iyengar, 
 J. Tomasi, M. Cossi, J. M. Millam, M. Klene, C. Adamo, R. Cammi, 
 J. W. Ochterski, R. L. Martin, K. Morokuma, O. Farkas, 
 J. B. Foresman, and D. J. Fox, Gaussian, Inc., Wallingford CT, 2016.
 
 ******************************************
 Gaussian 16:  ES64L-G16RevB.01 20-Dec-2017
                 8-Feb-2022 
 ******************************************
 %nproc=28
 Will use up to   28 processors via shared memory.
 %mem=120GB
 %chk=hoono_r4_1p162801.chk
 -------------------------------------
 #p SP mp2/aug-cc-pvtz density=current
 -------------------------------------
 1/30=1,38=1,172=1/1;
 2/12=2,17=6,18=5,40=1/2;
 3/5=16,6=1,7=10,11=9,25=1,30=1,71=1/1,2,3;
 4//1;
 5/5=2,38=5/2;
 8/6=4,10=1/1;
 9/15=1,16=-3/6;
 10/5=1,13=10/2;
 6/7=2,8=2,9=2,10=2,22=-1/1;
 99/5=1,9=1/99;
 Leave Link    1 at Tue Feb  8 13:24:26 2022, MaxMem= 16106127360 cpu:               3.2 elap:               0.1
 (Enter /sw/contrib/gaussian/g16/B01/g16/l101.exe)
 -----
 title
 -----
 Symbolic Z-matrix:
 Charge =  0 Multiplicity = 1
 H
 O                    1    r1
 O                    2    r2       1    a1
 N                    3    r3       2    a2       1    d1       0
 O                    4    r4       3    a3       2    d2       0
       Variables:
  r1                    0.96898                  
  r2                    1.45492                  
  r3                    1.45878                  
  r4                    1.1628                   
  a1                   97.59495                  
  a2                  102.29752                  
  a3                  109.06955                  
  d1                  180.                       
  d2                  180.                       
 
 ITRead=  0  0  0  0  0
 MicOpt= -1 -1 -1 -1 -1
 NAtoms=      5 NQM=        5 NQMF=       0 NMMI=      0 NMMIF=      0
                NMic=       0 NMicF=      0.
                    Isotopes and Nuclear Properties:
 (Nuclear quadrupole moments (NQMom) in fm**2, nuclear magnetic moments (NMagM)
  in nuclear magnetons)

  Atom         1           2           3           4           5
 IAtWgt=           1          16          16          14          16
 AtmWgt=   1.0078250  15.9949146  15.9949146  14.0030740  15.9949146
 NucSpn=           1           0           0           2           0
 AtZEff=  -0.0000000  -0.0000000  -0.0000000  -0.0000000  -0.0000000
 NQMom=    0.0000000   0.0000000   0.0000000   2.0440000   0.0000000
 NMagM=    2.7928460   0.0000000   0.0000000   0.4037610   0.0000000
 AtZNuc=   1.0000000   8.0000000   8.0000000   7.0000000   8.0000000
 Leave Link  101 at Tue Feb  8 13:24:26 2022, MaxMem= 16106127360 cpu:               2.8 elap:               0.1
 (Enter /sw/contrib/gaussian/g16/B01/g16/l202.exe)
                          Input orientation:                          
 ---------------------------------------------------------------------
 Center     Atomic      Atomic             Coordinates (Angstroms)
 Number     Number       Type             X           Y           Z
 ---------------------------------------------------------------------
      1          1           0        0.000000    0.000000    0.000000
      2          8           0        0.000000    0.000000    0.968976
      3          8           0        1.442156    0.000000    1.161271
      4          7           0        1.561752    0.000000    2.615144
      5          8           0        2.688188    0.000000    2.903672
 ---------------------------------------------------------------------
                    Distance matrix (angstroms):
                    1          2          3          4          5
     1  H    0.000000
     2  O    0.968976   0.000000
     3  O    1.851584   1.454919   0.000000
     4  N    3.045989   2.269127   1.458784   0.000000
     5  O    3.956977   3.312009   2.142092   1.162801   0.000000
 Stoichiometry    HNO3
 Framework group  CS[SG(HNO3)]
 Deg. of freedom     7
 Full point group                 CS      NOp   2
 Largest Abelian subgroup         CS      NOp   2
 Largest concise Abelian subgroup C1      NOp   1
                         Standard orientation:                         
 ---------------------------------------------------------------------
 Center     Atomic      Atomic             Coordinates (Angstroms)
 Number     Number       Type             X           Y           Z
 ---------------------------------------------------------------------
      1          1           0        1.552059    1.682402    0.000000
      2          8           0        1.454202    0.718381    0.000000
      3          8           0        0.000000    0.672711    0.000000
      4          7           0       -0.265810   -0.761652    0.000000
      5          8           0       -1.415626   -0.934946    0.000000
 ---------------------------------------------------------------------
 Rotational constants (GHZ):          55.0084334           5.0298327           4.6084478
 Leave Link  202 at Tue Feb  8 13:24:26 2022, MaxMem= 16106127360 cpu:               0.2 elap:               0.0
 (Enter /sw/contrib/gaussian/g16/B01/g16/l301.exe)
 Standard basis: Aug-CC-pVTZ (5D, 7F)
 Ernie: Thresh=  0.10000D-02 Tol=  0.10000D-05 Strict=F.
 Ernie:  12 primitive shells out of 131 were deleted.
 There are   166 symmetry adapted cartesian basis functions of A'  symmetry.
 There are    79 symmetry adapted cartesian basis functions of A"  symmetry.
 There are   136 symmetry adapted basis functions of A'  symmetry.
 There are    71 symmetry adapted basis functions of A"  symmetry.
   207 basis functions,   315 primitive gaussians,   245 cartesian basis functions
    16 alpha electrons       16 beta electrons
       nuclear repulsion energy       117.1138251059 Hartrees.
 IExCor=    0 DFT=F Ex=HF Corr=None ExCW=0 ScaHFX=  1.000000
 ScaDFX=  1.000000  1.000000  1.000000  1.000000 ScalE2=  1.000000  1.000000
 IRadAn=      5 IRanWt=     -1 IRanGd=            0 ICorTp=0 IEmpDi=  4
 NAtoms=    5 NActive=    5 NUniq=    5 SFac= 1.00D+00 NAtFMM=   60 NAOKFM=F Big=F
 Integral buffers will be    131072 words long.
 Raffenetti 1 integral format.
 Two-electron integral symmetry is turned on.
 Leave Link  301 at Tue Feb  8 13:24:27 2022, MaxMem= 16106127360 cpu:               1.5 elap:               0.1
 (Enter /sw/contrib/gaussian/g16/B01/g16/l302.exe)
 NPDir=0 NMtPBC=     1 NCelOv=     1 NCel=       1 NClECP=     1 NCelD=      1
         NCelK=      1 NCelE2=     1 NClLst=     1 CellRange=     0.0.
 One-electron integrals computed using PRISM.
 One-electron integral symmetry used in STVInt
 NBasis=   207 RedAO= T EigKep=  1.80D-04  NBF=   136    71
 NBsUse=   207 1.00D-06 EigRej= -1.00D+00 NBFU=   136    71
 Leave Link  302 at Tue Feb  8 13:24:27 2022, MaxMem= 16106127360 cpu:               4.7 elap:               0.2
 (Enter /sw/contrib/gaussian/g16/B01/g16/l303.exe)
 DipDrv:  MaxL=1.
 Leave Link  303 at Tue Feb  8 13:24:27 2022, MaxMem= 16106127360 cpu:               0.9 elap:               0.1
 (Enter /sw/contrib/gaussian/g16/B01/g16/l401.exe)
 ExpMin= 2.53D-02 ExpMax= 1.53D+04 ExpMxC= 5.22D+02 IAcc=3 IRadAn=         5 AccDes= 0.00D+00
 Harris functional with IExCor=  205 and IRadAn=       5 diagonalized for initial guess.
 HarFok:  IExCor=  205 AccDes= 0.00D+00 IRadAn=         5 IDoV= 1 UseB2=F ITyADJ=14
 ICtDFT=  3500011 ScaDFX=  1.000000  1.000000  1.000000  1.000000
 FoFCou: FMM=F IPFlag=           0 FMFlag=      100000 FMFlg1=           0
         NFxFlg=           0 DoJE=T BraDBF=F KetDBF=T FulRan=T
         wScrn=  0.000000 ICntrl=       500 IOpCl=  0 I1Cent=   200000004 NGrid=           0
         NMat0=    1 NMatS0=      1 NMatT0=    0 NMatD0=    1 NMtDS0=    0 NMtDT0=    0
 Petite list used in FoFCou.
 Harris En= -279.628504917408    
 JPrj=0 DoOrth=F DoCkMO=F.
 Initial guess orbital symmetries:
       Occupied  (A') (A') (A') (A') (A') (A') (A') (A') (A') (A')
                 (A") (A') (A') (A") (A") (A')
       Virtual   (A") (A') (A') (A') (A') (A') (A") (A') (A') (A')
                 (A") (A') (A") (A') (A') (A") (A') (A") (A') (A')
                 (A') (A') (A') (A') (A') (A") (A') (A") (A') (A')
                 (A") (A') (A") (A') (A') (A") (A') (A") (A') (A')
                 (A") (A') (A") (A') (A") (A') (A') (A') (A") (A")
                 (A') (A') (A') (A') (A") (A') (A") (A') (A") (A')
                 (A') (A') (A") (A') (A') (A") (A') (A") (A') (A')
                 (A") (A') (A') (A") (A") (A') (A') (A") (A') (A')
                 (A') (A") (A') (A") (A') (A") (A') (A") (A') (A')
                 (A') (A") (A') (A") (A') (A") (A") (A') (A') (A")
                 (A') (A') (A") (A') (A') (A') (A') (A") (A") (A')
                 (A") (A') (A') (A') (A") (A') (A') (A') (A") (A')
                 (A") (A') (A") (A') (A") (A') (A') (A") (A") (A')
                 (A') (A') (A') (A") (A") (A') (A") (A') (A') (A')
                 (A') (A") (A") (A') (A') (A") (A') (A') (A') (A')
                 (A") (A') (A') (A") (A') (A") (A') (A") (A') (A")
                 (A') (A") (A') (A") (A') (A") (A") (A") (A') (A')
                 (A") (A') (A") (A') (A') (A") (A") (A") (A') (A')
                 (A') (A') (A') (A') (A') (A') (A') (A') (A') (A')
                 (A')
 The electronic state of the initial guess is 1-A'.
 Leave Link  401 at Tue Feb  8 13:24:27 2022, MaxMem= 16106127360 cpu:               6.9 elap:               0.3
 (Enter /sw/contrib/gaussian/g16/B01/g16/l502.exe)
 Keep R1 ints in memory in symmetry-blocked form, NReq=348887737.
 FoFCou: FMM=F IPFlag=           0 FMFlag=           0 FMFlg1=           0
         NFxFlg=           0 DoJE=F BraDBF=F KetDBF=F FulRan=T
         wScrn=  0.000000 ICntrl=       600 IOpCl=  0 I1Cent=           0 NGrid=           0
         NMat0=    1 NMatS0=  21528 NMatT0=    0 NMatD0=    1 NMtDS0=    0 NMtDT0=    0
 Petite list used in FoFCou.
 Closed shell SCF:
 Using DIIS extrapolation, IDIIS=  1040.
 NGot= 16106127360 LenX= 15988850015 LenY= 15988789549
 Requested convergence on RMS density matrix=1.00D-08 within 128 cycles.
 Requested convergence on MAX density matrix=1.00D-06.
 Requested convergence on             energy=1.00D-06.
 No special actions if energy rises.

 Cycle   1  Pass 1  IDiag  1:
 E= -279.373301607211    
 DIIS: error= 2.69D-02 at cycle   1 NSaved=   1.
 NSaved= 1 IEnMin= 1 EnMin= -279.373301607211     IErMin= 1 ErrMin= 2.69D-02
 ErrMax= 2.69D-02  0.00D+00 EMaxC= 1.00D-01 BMatC= 4.37D-01 BMatP= 4.37D-01
 IDIUse=3 WtCom= 7.31D-01 WtEn= 2.69D-01
 Coeff-Com:  0.100D+01
 Coeff-En:   0.100D+01
 Coeff:      0.100D+01
 Gap=     0.516 Goal=   None    Shift=    0.000
 GapD=    0.516 DampG=2.000 DampE=0.500 DampFc=1.0000 IDamp=-1.
 RMSDP=1.61D-03 MaxDP=9.87D-02              OVMax= 1.10D-01

 Cycle   2  Pass 1  IDiag  1:
 E= -279.455923795473     Delta-E=       -0.082622188262 Rises=F Damp=F
 DIIS: error= 1.76D-02 at cycle   2 NSaved=   2.
 NSaved= 2 IEnMin= 2 EnMin= -279.455923795473     IErMin= 2 ErrMin= 1.76D-02
 ErrMax= 1.76D-02  0.00D+00 EMaxC= 1.00D-01 BMatC= 6.87D-02 BMatP= 4.37D-01
 IDIUse=3 WtCom= 8.24D-01 WtEn= 1.76D-01
 Coeff-Com:  0.189D+00 0.811D+00
 Coeff-En:   0.000D+00 0.100D+01
 Coeff:      0.155D+00 0.845D+00
 Gap=     0.526 Goal=   None    Shift=    0.000
 RMSDP=8.84D-04 MaxDP=3.67D-02 DE=-8.26D-02 OVMax= 6.81D-02

 Cycle   3  Pass 1  IDiag  1:
 E= -279.483653859468     Delta-E=       -0.027730063995 Rises=F Damp=F
 DIIS: error= 1.02D-02 at cycle   3 NSaved=   3.
 NSaved= 3 IEnMin= 3 EnMin= -279.483653859468     IErMin= 3 ErrMin= 1.02D-02
 ErrMax= 1.02D-02  0.00D+00 EMaxC= 1.00D-01 BMatC= 2.76D-02 BMatP= 6.87D-02
 IDIUse=3 WtCom= 8.98D-01 WtEn= 1.02D-01
 Coeff-Com: -0.328D-01 0.379D+00 0.654D+00
 Coeff-En:   0.000D+00 0.239D+00 0.761D+00
 Coeff:     -0.294D-01 0.364D+00 0.665D+00
 Gap=     0.509 Goal=   None    Shift=    0.000
 RMSDP=3.69D-04 MaxDP=1.49D-02 DE=-2.77D-02 OVMax= 3.68D-02

 Cycle   4  Pass 1  IDiag  1:
 E= -279.501896963829     Delta-E=       -0.018243104362 Rises=F Damp=F
 DIIS: error= 1.28D-03 at cycle   4 NSaved=   4.
 NSaved= 4 IEnMin= 4 EnMin= -279.501896963829     IErMin= 4 ErrMin= 1.28D-03
 ErrMax= 1.28D-03  0.00D+00 EMaxC= 1.00D-01 BMatC= 4.84D-04 BMatP= 2.76D-02
 IDIUse=3 WtCom= 9.87D-01 WtEn= 1.28D-02
 Coeff-Com: -0.117D-01 0.591D-01 0.161D+00 0.792D+00
 Coeff-En:   0.000D+00 0.000D+00 0.000D+00 0.100D+01
 Coeff:     -0.115D-01 0.583D-01 0.159D+00 0.794D+00
 Gap=     0.501 Goal=   None    Shift=    0.000
 RMSDP=8.90D-05 MaxDP=2.76D-03 DE=-1.82D-02 OVMax= 1.10D-02

 Cycle   5  Pass 1  IDiag  1:
 E= -279.502552195164     Delta-E=       -0.000655231335 Rises=F Damp=F
 DIIS: error= 7.29D-04 at cycle   5 NSaved=   5.
 NSaved= 5 IEnMin= 5 EnMin= -279.502552195164     IErMin= 5 ErrMin= 7.29D-04
 ErrMax= 7.29D-04  0.00D+00 EMaxC= 1.00D-01 BMatC= 8.50D-05 BMatP= 4.84D-04
 IDIUse=3 WtCom= 9.93D-01 WtEn= 7.29D-03
 Coeff-Com:  0.603D-02-0.721D-01-0.117D+00 0.216D-01 0.116D+01
 Coeff-En:   0.000D+00 0.000D+00 0.000D+00 0.000D+00 0.100D+01
 Coeff:      0.599D-02-0.716D-01-0.116D+00 0.214D-01 0.116D+01
 Gap=     0.501 Goal=   None    Shift=    0.000
 RMSDP=7.50D-05 MaxDP=2.06D-03 DE=-6.55D-04 OVMax= 1.08D-02

 Cycle   6  Pass 1  IDiag  1:
 E= -279.502857208827     Delta-E=       -0.000305013663 Rises=F Damp=F
 DIIS: error= 2.77D-04 at cycle   6 NSaved=   6.
 NSaved= 6 IEnMin= 6 EnMin= -279.502857208827     IErMin= 6 ErrMin= 2.77D-04
 ErrMax= 2.77D-04  0.00D+00 EMaxC= 1.00D-01 BMatC= 1.62D-05 BMatP= 8.50D-05
 IDIUse=3 WtCom= 9.97D-01 WtEn= 2.77D-03
 Coeff-Com:  0.734D-03-0.169D-03 0.122D-02-0.128D+00-0.207D+00 0.133D+01
 Coeff-En:   0.000D+00 0.000D+00 0.000D+00 0.000D+00 0.000D+00 0.100D+01
 Coeff:      0.732D-03-0.169D-03 0.122D-02-0.127D+00-0.207D+00 0.133D+01
 Gap=     0.501 Goal=   None    Shift=    0.000
 RMSDP=4.43D-05 MaxDP=1.22D-03 DE=-3.05D-04 OVMax= 5.37D-03

 Cycle   7  Pass 1  IDiag  1:
 E= -279.502927216297     Delta-E=       -0.000070007470 Rises=F Damp=F
 DIIS: error= 1.22D-04 at cycle   7 NSaved=   7.
 NSaved= 7 IEnMin= 7 EnMin= -279.502927216297     IErMin= 7 ErrMin= 1.22D-04
 ErrMax= 1.22D-04  0.00D+00 EMaxC= 1.00D-01 BMatC= 4.68D-06 BMatP= 1.62D-05
 IDIUse=3 WtCom= 9.99D-01 WtEn= 1.22D-03
 Coeff-Com: -0.917D-03 0.136D-01 0.265D-01-0.262D-01-0.294D+00 0.413D+00
 Coeff-Com:  0.868D+00
 Coeff-En:   0.000D+00 0.000D+00 0.000D+00 0.000D+00 0.000D+00 0.000D+00
 Coeff-En:   0.100D+01
 Coeff:     -0.915D-03 0.136D-01 0.264D-01-0.261D-01-0.294D+00 0.413D+00
 Coeff:      0.868D+00
 Gap=     0.501 Goal=   None    Shift=    0.000
 RMSDP=1.34D-05 MaxDP=3.77D-04 DE=-7.00D-05 OVMax= 1.54D-03

 Cycle   8  Pass 1  IDiag  1:
 E= -279.502936227659     Delta-E=       -0.000009011362 Rises=F Damp=F
 DIIS: error= 5.45D-05 at cycle   8 NSaved=   8.
 NSaved= 8 IEnMin= 8 EnMin= -279.502936227659     IErMin= 8 ErrMin= 5.45D-05
 ErrMax= 5.45D-05  0.00D+00 EMaxC= 1.00D-01 BMatC= 5.75D-07 BMatP= 4.68D-06
 IDIUse=1 WtCom= 1.00D+00 WtEn= 0.00D+00
 Coeff-Com: -0.451D-03 0.358D-02 0.784D-02 0.270D-01-0.437D-01-0.189D+00
 Coeff-Com:  0.140D+00 0.105D+01
 Coeff:     -0.451D-03 0.358D-02 0.784D-02 0.270D-01-0.437D-01-0.189D+00
 Coeff:      0.140D+00 0.105D+01
 Gap=     0.501 Goal=   None    Shift=    0.000
 RMSDP=6.91D-06 MaxDP=2.00D-04 DE=-9.01D-06 OVMax= 7.51D-04

 Cycle   9  Pass 1  IDiag  1:
 E= -279.502937952871     Delta-E=       -0.000001725211 Rises=F Damp=F
 DIIS: error= 1.48D-05 at cycle   9 NSaved=   9.
 NSaved= 9 IEnMin= 9 EnMin= -279.502937952871     IErMin= 9 ErrMin= 1.48D-05
 ErrMax= 1.48D-05  0.00D+00 EMaxC= 1.00D-01 BMatC= 6.25D-08 BMatP= 5.75D-07
 IDIUse=1 WtCom= 1.00D+00 WtEn= 0.00D+00
 Coeff-Com:  0.114D-03-0.165D-02-0.295D-02-0.159D-02 0.331D-01-0.257D-02
 Coeff-Com: -0.152D+00-0.103D+00 0.123D+01
 Coeff:      0.114D-03-0.165D-02-0.295D-02-0.159D-02 0.331D-01-0.257D-02
 Coeff:     -0.152D+00-0.103D+00 0.123D+01
 Gap=     0.501 Goal=   None    Shift=    0.000
 RMSDP=1.84D-06 MaxDP=6.16D-05 DE=-1.73D-06 OVMax= 1.61D-04

 Cycle  10  Pass 1  IDiag  1:
 E= -279.502938095830     Delta-E=       -0.000000142960 Rises=F Damp=F
 DIIS: error= 3.94D-06 at cycle  10 NSaved=  10.
 NSaved=10 IEnMin=10 EnMin= -279.502938095830     IErMin=10 ErrMin= 3.94D-06
 ErrMax= 3.94D-06  0.00D+00 EMaxC= 1.00D-01 BMatC= 4.97D-09 BMatP= 6.25D-08
 IDIUse=1 WtCom= 1.00D+00 WtEn= 0.00D+00
 Coeff-Com:  0.334D-04-0.281D-03-0.406D-03-0.264D-02 0.242D-02 0.190D-01
 Coeff-Com: -0.135D-01-0.790D-01-0.567D-01 0.113D+01
 Coeff:      0.334D-04-0.281D-03-0.406D-03-0.264D-02 0.242D-02 0.190D-01
 Coeff:     -0.135D-01-0.790D-01-0.567D-01 0.113D+01
 Gap=     0.501 Goal=   None    Shift=    0.000
 RMSDP=4.76D-07 MaxDP=1.95D-05 DE=-1.43D-07 OVMax= 3.71D-05

 Cycle  11  Pass 1  IDiag  1:
 E= -279.502938106661     Delta-E=       -0.000000010831 Rises=F Damp=F
 DIIS: error= 1.85D-06 at cycle  11 NSaved=  11.
 NSaved=11 IEnMin=11 EnMin= -279.502938106661     IErMin=11 ErrMin= 1.85D-06
 ErrMax= 1.85D-06  0.00D+00 EMaxC= 1.00D-01 BMatC= 5.69D-10 BMatP= 4.97D-09
 IDIUse=1 WtCom= 1.00D+00 WtEn= 0.00D+00
 Coeff-Com: -0.198D-04 0.232D-03 0.465D-03 0.479D-03-0.412D-02-0.309D-02
 Coeff-Com:  0.183D-01 0.310D-01-0.133D+00-0.180D+00 0.127D+01
 Coeff:     -0.198D-04 0.232D-03 0.465D-03 0.479D-03-0.412D-02-0.309D-02
 Coeff:      0.183D-01 0.310D-01-0.133D+00-0.180D+00 0.127D+01
 Gap=     0.501 Goal=   None    Shift=    0.000
 RMSDP=1.63D-07 MaxDP=5.94D-06 DE=-1.08D-08 OVMax= 1.61D-05

 Cycle  12  Pass 1  IDiag  1:
 E= -279.502938108173     Delta-E=       -0.000000001512 Rises=F Damp=F
 DIIS: error= 5.53D-07 at cycle  12 NSaved=  12.
 NSaved=12 IEnMin=12 EnMin= -279.502938108173     IErMin=12 ErrMin= 5.53D-07
 ErrMax= 5.53D-07  0.00D+00 EMaxC= 1.00D-01 BMatC= 6.16D-11 BMatP= 5.69D-10
 IDIUse=1 WtCom= 1.00D+00 WtEn= 0.00D+00
 Coeff-Com:  0.996D-06-0.256D-04-0.564D-04 0.164D-03 0.992D-03-0.211D-02
 Coeff-Com: -0.382D-02 0.516D-02 0.394D-01-0.103D+00-0.302D+00 0.137D+01
 Coeff:      0.996D-06-0.256D-04-0.564D-04 0.164D-03 0.992D-03-0.211D-02
 Coeff:     -0.382D-02 0.516D-02 0.394D-01-0.103D+00-0.302D+00 0.137D+01
 Gap=     0.501 Goal=   None    Shift=    0.000
 RMSDP=6.56D-08 MaxDP=2.59D-06 DE=-1.51D-09 OVMax= 6.28D-06

 Cycle  13  Pass 1  IDiag  1:
 E= -279.502938108367     Delta-E=       -0.000000000194 Rises=F Damp=F
 DIIS: error= 1.54D-07 at cycle  13 NSaved=  13.
 NSaved=13 IEnMin=13 EnMin= -279.502938108367     IErMin=13 ErrMin= 1.54D-07
 ErrMax= 1.54D-07  0.00D+00 EMaxC= 1.00D-01 BMatC= 3.48D-12 BMatP= 6.16D-11
 IDIUse=1 WtCom= 1.00D+00 WtEn= 0.00D+00
 Coeff-Com:  0.123D-05-0.135D-04-0.220D-04-0.816D-04 0.123D-03 0.698D-03
 Coeff-Com: -0.677D-03-0.324D-02 0.426D-03 0.392D-01-0.276D-01-0.339D+00
 Coeff-Com:  0.133D+01
 Coeff:      0.123D-05-0.135D-04-0.220D-04-0.816D-04 0.123D-03 0.698D-03
 Coeff:     -0.677D-03-0.324D-02 0.426D-03 0.392D-01-0.276D-01-0.339D+00
 Coeff:      0.133D+01
 Gap=     0.501 Goal=   None    Shift=    0.000
 RMSDP=1.78D-08 MaxDP=5.21D-07 DE=-1.94D-10 OVMax= 1.48D-06

 Cycle  14  Pass 1  IDiag  1:
 E= -279.502938108379     Delta-E=       -0.000000000012 Rises=F Damp=F
 DIIS: error= 2.29D-08 at cycle  14 NSaved=  14.
 NSaved=14 IEnMin=14 EnMin= -279.502938108379     IErMin=14 ErrMin= 2.29D-08
 ErrMax= 2.29D-08  0.00D+00 EMaxC= 1.00D-01 BMatC= 1.69D-13 BMatP= 3.48D-12
 IDIUse=1 WtCom= 1.00D+00 WtEn= 0.00D+00
 Coeff-Com: -0.183D-06 0.301D-05 0.546D-05 0.459D-05-0.794D-04 0.404D-04
 Coeff-Com:  0.259D-03 0.241D-03-0.236D-02 0.108D-02 0.177D-01-0.251D-01
 Coeff-Com: -0.205D+00 0.121D+01
 Coeff:     -0.183D-06 0.301D-05 0.546D-05 0.459D-05-0.794D-04 0.404D-04
 Coeff:      0.259D-03 0.241D-03-0.236D-02 0.108D-02 0.177D-01-0.251D-01
 Coeff:     -0.205D+00 0.121D+01
 Gap=     0.501 Goal=   None    Shift=    0.000
 RMSDP=3.58D-09 MaxDP=8.55D-08 DE=-1.19D-11 OVMax= 3.21D-07

 SCF Done:  E(RHF) =  -279.502938108     A.U. after   14 cycles
            NFock= 14  Conv=0.36D-08     -V/T= 2.0022
 KE= 2.788847460249D+02 PE=-8.955853176504D+02 EE= 2.200838084113D+02
 Leave Link  502 at Tue Feb  8 13:24:31 2022, MaxMem= 16106127360 cpu:              54.7 elap:               3.6
 (Enter /sw/contrib/gaussian/g16/B01/g16/l801.exe)
 ExpMin= 2.53D-02 ExpMax= 1.53D+04 ExpMxC= 5.22D+02 IAcc=3 IRadAn=         5 AccDes= 0.00D+00
 HarFok:  IExCor=  205 AccDes= 0.00D+00 IRadAn=         5 IDoV=-2 UseB2=F ITyADJ=14
 ICtDFT= 12500011 ScaDFX=  1.000000  1.000000  1.000000  1.000000
 Largest valence mixing into a core orbital is  2.08D-04
 Largest core mixing into a valence orbital is  3.60D-05
 Range of M.O.s used for correlation:     5   207
 NBasis=   207 NAE=    16 NBE=    16 NFC=     4 NFV=     0
 NROrb=    203 NOA=    12 NOB=    12 NVA=   191 NVB=   191

 **** Warning!!: The largest alpha MO coefficient is  0.17653810D+02

 Leave Link  801 at Tue Feb  8 13:24:31 2022, MaxMem= 16106127360 cpu:               2.3 elap:               0.1
 (Enter /sw/contrib/gaussian/g16/B01/g16/l906.exe)
 Frozen-core derivative calculation, NFC=   4 NFV=   0.
 FulOut=F Deriv=T AODrv=F NAtomX=     5
   MMem=          76  MDisk=          12 MDiskD=          12
  W3Min=      811440 MinDsk=     1524655 NBas6D=         245
 NBas2D=       30762    NTT=       30135    LW2=     3500000
    MDV= 16105579899 MDiskM=      328644 NBas2p=       30466
 Fully in-core method, ICMem=   960157634.
 IMap=   1   2   3   4   5   6   7   8   9  10  11  12  13  14  15  16
 JobTyp=1 Pass  1 fully in-core, NPsUse= 28.
 Compute canonical integrals.
 FoFCou: FMM=F IPFlag=           0 FMFlag=           0 FMFlg1=           0
         NFxFlg=           0 DoJE=F BraDBF=F KetDBF=F FulRan=T
         wScrn=  0.000000 ICntrl=       600 IOpCl=  1 I1Cent=           0 NGrid=           0
         NMat0=    1 NMatS0=  30762 NMatT0=    0 NMatD0=    1 NMtDS0=    0 NMtDT0=    0
 Symmetry not used in FoFCou.
 Spin components of T(2) and E(2):
     alpha-alpha T2 =       0.3386235100D-01 E2=     -0.1222349484D+00
     alpha-beta  T2 =       0.1859398823D+00 E2=     -0.6992279575D+00
     beta-beta   T2 =       0.3386235100D-01 E2=     -0.1222349484D+00
 The integrals were generated   1 times.
 ANorm=    0.1119671641D+01
 E2 =    -0.9436978543D+00 EUMP2 =    -0.28044663596270D+03
 Leave Link  906 at Tue Feb  8 13:24:40 2022, MaxMem= 16106127360 cpu:             250.5 elap:               9.0
 (Enter /sw/contrib/gaussian/g16/B01/g16/l1002.exe)
 Minotr:  Closed shell wavefunction.
          Computing MP2/KS-MP2 derivatives.
          Using Z-Vector for PSCF gradient.
          Skipping F1 and S1 gradient terms here.
          Frozen-core window.
          Direct CPHF calculation.
          Differentiating once with respect to electric field.
                with respect to dipole field.
          Electric field/nuclear overlap derivatives assumed to be zero.
          Using symmetry in CPHF.
          Requested convergence is 1.0D-10 RMS, and 1.0D-09 maximum.
          NewPWx=F KeepS1=T KeepF1=T KeepIn=T MapXYZ=F SortEE=F KeepMc=T.
 Keep R1 ints in memory in symmetry-blocked form, NReq=348888868.
 FoFCou: FMM=F IPFlag=           0 FMFlag=           0 FMFlg1=           0
         NFxFlg=           0 DoJE=F BraDBF=F KetDBF=F FulRan=T
         wScrn=  0.000000 ICntrl=       600 IOpCl=  0 I1Cent=           0 NGrid=           0
         NMat0=    1 NMatS0=  21528 NMatT0=    0 NMatD0=    1 NMtDS0=    0 NMtDT0=    0
 Petite list used in FoFCou.
          MDV=   16106127360 using IRadAn=       5.
          Solving linear equations separately, MaxMat=       0.
          There are     1 degrees of freedom in the 1st order CPHF.  IDoFFX=0 NUNeed=     1.
 LinEq1:  Iter=  0 NonCon=     1 RMS=5.91D-03 Max=1.30D-01 NDo=     1
 AX will form     1 AO Fock derivatives at one time.
 LinEq1:  Iter=  1 NonCon=     1 RMS=1.88D-03 Max=3.72D-02 NDo=     1
 LinEq1:  Iter=  2 NonCon=     1 RMS=8.52D-04 Max=1.38D-02 NDo=     1
 LinEq1:  Iter=  3 NonCon=     1 RMS=3.77D-04 Max=7.44D-03 NDo=     1
 LinEq1:  Iter=  4 NonCon=     1 RMS=1.17D-04 Max=1.85D-03 NDo=     1
 LinEq1:  Iter=  5 NonCon=     1 RMS=4.30D-05 Max=6.79D-04 NDo=     1
 LinEq1:  Iter=  6 NonCon=     1 RMS=1.93D-05 Max=2.29D-04 NDo=     1
 LinEq1:  Iter=  7 NonCon=     1 RMS=7.70D-06 Max=1.55D-04 NDo=     1
 LinEq1:  Iter=  8 NonCon=     1 RMS=3.29D-06 Max=3.28D-05 NDo=     1
 LinEq1:  Iter=  9 NonCon=     1 RMS=8.99D-07 Max=1.28D-05 NDo=     1
 LinEq1:  Iter= 10 NonCon=     1 RMS=1.77D-07 Max=1.91D-06 NDo=     1
 LinEq1:  Iter= 11 NonCon=     1 RMS=3.31D-08 Max=3.41D-07 NDo=     1
 LinEq1:  Iter= 12 NonCon=     1 RMS=7.95D-09 Max=1.24D-07 NDo=     1
 LinEq1:  Iter= 13 NonCon=     1 RMS=1.43D-09 Max=2.49D-08 NDo=     1
 LinEq1:  Iter= 14 NonCon=     1 RMS=2.60D-10 Max=3.64D-09 NDo=     1
 LinEq1:  Iter= 15 NonCon=     0 RMS=4.76D-11 Max=5.47D-10 NDo=     1
 Linear equations converged to 1.000D-10 1.000D-09 after    15 iterations.
 End of Minotr F.D. properties file   721 does not exist.
 End of Minotr F.D. properties file   722 does not exist.
 End of Minotr F.D. properties file   788 does not exist.
 Leave Link 1002 at Tue Feb  8 13:24:44 2022, MaxMem= 16106127360 cpu:              52.7 elap:               3.9
 (Enter /sw/contrib/gaussian/g16/B01/g16/l601.exe)
 Copying SCF densities to generalized density rwf, IOpCl= 0 IROHF=0.

 **********************************************************************

            Population analysis using the MP2 Density.

 **********************************************************************

 Orbital symmetries:
       Occupied  (A') (A') (A') (A') (A') (A') (A') (A') (A') (A')
                 (A") (A') (A") (A') (A") (A')
       Virtual   (A') (A") (A') (A') (A") (A') (A') (A') (A") (A')
                 (A") (A') (A') (A') (A") (A') (A') (A") (A') (A')
                 (A') (A') (A') (A') (A") (A') (A') (A") (A') (A')
                 (A") (A') (A") (A') (A') (A") (A') (A') (A") (A')
                 (A") (A') (A") (A') (A') (A") (A') (A') (A") (A')
                 (A") (A') (A') (A') (A") (A') (A") (A') (A") (A')
                 (A') (A') (A") (A') (A') (A") (A') (A") (A') (A')
                 (A") (A') (A') (A") (A") (A') (A') (A") (A') (A')
                 (A') (A") (A') (A") (A") (A') (A') (A") (A') (A')
                 (A") (A') (A') (A") (A') (A") (A') (A") (A') (A')
                 (A") (A') (A") (A') (A') (A") (A') (A') (A") (A')
                 (A") (A') (A') (A') (A") (A') (A') (A') (A") (A')
                 (A") (A') (A") (A') (A') (A") (A") (A') (A") (A')
                 (A') (A') (A') (A") (A") (A") (A') (A') (A') (A')
                 (A") (A') (A") (A') (A') (A") (A') (A') (A') (A')
                 (A") (A') (A') (A") (A') (A") (A') (A") (A') (A")
                 (A') (A") (A') (A") (A') (A") (A") (A') (A") (A')
                 (A") (A') (A") (A') (A") (A') (A") (A") (A') (A')
                 (A') (A') (A') (A') (A') (A') (A') (A') (A') (A')
                 (A')
 The electronic state is 1-A'.
 Alpha  occ. eigenvalues --  -20.68901 -20.68463 -20.65896 -15.81168  -1.63057
 Alpha  occ. eigenvalues --   -1.49580  -1.25361  -0.94699  -0.77375  -0.76129
 Alpha  occ. eigenvalues --   -0.71350  -0.68029  -0.62201  -0.58890  -0.48455
 Alpha  occ. eigenvalues --   -0.47094
 Alpha virt. eigenvalues --    0.02984   0.07412   0.08581   0.10172   0.13381
 Alpha virt. eigenvalues --    0.13406   0.14425   0.15473   0.17840   0.19408
 Alpha virt. eigenvalues --    0.20011   0.20637   0.22107   0.23610   0.23744
 Alpha virt. eigenvalues --    0.26614   0.29424   0.30420   0.31083   0.34335
 Alpha virt. eigenvalues --    0.35001   0.38753   0.42238   0.43176   0.52718
 Alpha virt. eigenvalues --    0.53030   0.55894   0.58182   0.63018   0.63801
 Alpha virt. eigenvalues --    0.67201   0.68508   0.70648   0.71136   0.72439
 Alpha virt. eigenvalues --    0.72988   0.74466   0.79199   0.79255   0.81005
 Alpha virt. eigenvalues --    0.81344   0.83271   0.86890   0.90904   0.92269
 Alpha virt. eigenvalues --    0.92706   0.95704   0.97924   0.98532   1.01686
 Alpha virt. eigenvalues --    1.05252   1.05555   1.08406   1.11877   1.14196
 Alpha virt. eigenvalues --    1.18999   1.22191   1.23386   1.33945   1.35098
 Alpha virt. eigenvalues --    1.38753   1.45392   1.48820   1.50999   1.53825
 Alpha virt. eigenvalues --    1.56691   1.57956   1.61386   1.66602   1.67009
 Alpha virt. eigenvalues --    1.70301   1.79357   1.83058   1.83499   1.88046
 Alpha virt. eigenvalues --    1.90991   1.95407   1.99425   2.00571   2.07815
 Alpha virt. eigenvalues --    2.12124   2.13283   2.15078   2.22487   2.26515
 Alpha virt. eigenvalues --    2.26551   2.29033   2.31531   2.34661   2.38687
 Alpha virt. eigenvalues --    2.42626   2.43076   2.45440   2.46389   2.47799
 Alpha virt. eigenvalues --    2.50283   2.59063   2.59829   2.62246   2.62793
 Alpha virt. eigenvalues --    2.63571   2.67008   2.76065   2.82843   2.85882
 Alpha virt. eigenvalues --    2.88810   2.89624   2.92721   2.96009   3.02697
 Alpha virt. eigenvalues --    3.06690   3.12435   3.20541   3.22884   3.31825
 Alpha virt. eigenvalues --    3.34294   3.52052   3.64412   3.83949   3.84692
 Alpha virt. eigenvalues --    4.14972   4.16427   4.18511   4.27666   4.35264
 Alpha virt. eigenvalues --    4.39453   4.46549   4.52094   4.67173   4.71214
 Alpha virt. eigenvalues --    4.80906   4.82645   4.83113   4.89538   5.02202
 Alpha virt. eigenvalues --    5.07826   5.10663   5.14040   5.18153   5.24550
 Alpha virt. eigenvalues --    5.27287   5.30730   5.33097   5.36334   5.60798
 Alpha virt. eigenvalues --    5.68696   5.77735   5.83259   5.95520   6.17075
 Alpha virt. eigenvalues --    6.31030   6.33915   6.39561   6.49363   6.50554
 Alpha virt. eigenvalues --    6.61495   6.66908   6.70284   6.75910   6.76487
 Alpha virt. eigenvalues --    6.83759   6.90128   7.01620   7.05844   7.05884
 Alpha virt. eigenvalues --    7.09134   7.12846   7.15191   7.18274   7.23095
 Alpha virt. eigenvalues --    7.24351   7.31123   7.34028   7.35332   7.40770
 Alpha virt. eigenvalues --    7.43292   7.48559   7.60975   7.63022   7.63786
 Alpha virt. eigenvalues --    7.66826   7.79615   7.90008   8.09654   8.31800
 Alpha virt. eigenvalues --    8.41021   8.54627  13.40575  14.45706  15.16555
 Alpha virt. eigenvalues --   16.39898
          Condensed to atoms (all electrons):
               1          2          3          4          5
     1  H    0.589740   0.128396   0.020046   0.012480  -0.000652
     2  O    0.128396   8.322543  -0.173781  -0.090460   0.015536
     3  O    0.020046  -0.173781   8.476454  -0.133305  -0.040487
     4  N    0.012480  -0.090460  -0.133305   6.975135  -0.056397
     5  O   -0.000652   0.015536  -0.040487  -0.056397   8.273376
 Mulliken charges:
               1
     1  H    0.249990
     2  O   -0.202234
     3  O   -0.148927
     4  N    0.292547
     5  O   -0.191376
 Sum of Mulliken charges =   0.00000
 Mulliken charges with hydrogens summed into heavy atoms:
               1
     2  O    0.047756
     3  O   -0.148927
     4  N    0.292547
     5  O   -0.191376
 Electronic spatial extent (au):  <R**2>=            252.1555
 Charge=              0.0000 electrons
 Dipole moment (field-independent basis, Debye):
    X=              0.4779    Y=              1.3256    Z=              0.0000  Tot=              1.4091
 Quadrupole moment (field-independent basis, Debye-Ang):
   XX=            -22.4268   YY=            -18.6158   ZZ=            -21.9972
   XY=              3.2831   XZ=              0.0000   YZ=             -0.0000
 Traceless Quadrupole moment (field-independent basis, Debye-Ang):
   XX=             -1.4135   YY=              2.3975   ZZ=             -0.9839
   XY=              3.2831   XZ=              0.0000   YZ=             -0.0000
 Octapole moment (field-independent basis, Debye-Ang**2):
  XXX=              2.7976  YYY=             11.1029  ZZZ=              0.0000  XYY=              7.8371
  XXY=              6.5523  XXZ=              0.0000  XZZ=             -1.6048  YZZ=             -0.8809
  YYZ=              0.0000  XYZ=              0.0000
 Hexadecapole moment (field-independent basis, Debye-Ang**3):
 XXXX=           -158.1346 YYYY=            -89.2050 ZZZZ=            -18.2294 XXXY=            -36.3872
 XXXZ=              0.0000 YYYX=            -30.4936 YYYZ=             -0.0000 ZZZX=              0.0000
 ZZZY=             -0.0000 XXYY=            -33.7972 XXZZ=            -30.8239 YYZZ=            -20.5537
 XXYZ=             -0.0000 YYXZ=             -0.0000 ZZXY=            -14.9619
 N-N= 1.171138251059D+02 E-N=-8.963593493058D+02  KE= 2.802316010882D+02
 Symmetry A'   KE= 2.662567926067D+02
 Symmetry A"   KE= 1.397480848150D+01
 No NMR shielding tensors so no spin-rotation constants.
 Leave Link  601 at Tue Feb  8 13:24:44 2022, MaxMem= 16106127360 cpu:               4.9 elap:               0.2
 (Enter /sw/contrib/gaussian/g16/B01/g16/l9999.exe)
 1\1\GINC-N2177\SP\RMP2-FC\Aug-CC-pVTZ\H1N1O3\CGAVINH\08-Feb-2022\0\\#p
  SP mp2/aug-cc-pvtz density=current\\title\\0,1\H\O,1,0.96897556\O,2,1
 .45491931,1,97.59494903\N,3,1.45878406,2,102.29752444,1,180.,0\O,4,1.1
 628012848,3,109.06955123,2,180.,0\\Version=ES64L-G16RevB.01\State=1-A'
 \HF=-279.5029381\MP2=-280.446636\RMSD=3.581e-09\Dipole=-0.1344036,0.,-
 0.537838\Quadrupole=-1.5125016,-0.7315306,2.2440321,0.,2.1064038,0.\PG
 =CS [SG(H1N1O3)]\\@


 The impersonal hand of government can
 never replace the helping hand of a neighbor.
                        -- Hubert H. Humphrey
 Job cpu time:       0 days  0 hours  6 minutes 26.8 seconds.
 Elapsed time:       0 days  0 hours  0 minutes 17.9 seconds.
 File lengths (MBytes):  RWF=     22 Int=      0 D2E=      0 Chk=      8 Scr=      1
 Normal termination of Gaussian 16 at Tue Feb  8 13:24:44 2022.
