 Entering Gaussian System, Link 0=g16
 Input=hoono_d1_171p2242.gjf
 Output=hoono_d1_171p2242.log
 Initial command:
 /sw/contrib/gaussian/g16/B01/g16/l1.exe "/scr/Gau-3301.inp" -scrdir="/scr/"
 Entering Link 1 = /sw/contrib/gaussian/g16/B01/g16/l1.exe PID=      3302.
  
 Copyright (c) 1988-2017, Gaussian, Inc.  All Rights Reserved.
  
 This is part of the Gaussian(R) 16 program.  It is based on
 the Gaussian(R) 09 system (copyright 2009, Gaussian, Inc.),
 the Gaussian(R) 03 system (copyright 2003, Gaussian, Inc.),
 the Gaussian(R) 98 system (copyright 1998, Gaussian, Inc.),
 the Gaussian(R) 94 system (copyright 1995, Gaussian, Inc.),
 the Gaussian 92(TM) system (copyright 1992, Gaussian, Inc.),
 the Gaussian 90(TM) system (copyright 1990, Gaussian, Inc.),
 the Gaussian 88(TM) system (copyright 1988, Gaussian, Inc.),
 the Gaussian 86(TM) system (copyright 1986, Carnegie Mellon
 University), and the Gaussian 82(TM) system (copyright 1983,
 Carnegie Mellon University). Gaussian is a federally registered
 trademark of Gaussian, Inc.
  
 This software contains proprietary and confidential information,
 including trade secrets, belonging to Gaussian, Inc.
  
 This software is provided under written license and may be
 used, copied, transmitted, or stored only in accord with that
 written license.
  
 The following legend is applicable only to US Government
 contracts under FAR:
  
                    RESTRICTED RIGHTS LEGEND
  
 Use, reproduction and disclosure by the US Government is
 subject to restrictions as set forth in subparagraphs (a)
 and (c) of the Commercial Computer Software - Restricted
 Rights clause in FAR 52.227-19.
  
 Gaussian, Inc.
 340 Quinnipiac St., Bldg. 40, Wallingford CT 06492
  
  
 ---------------------------------------------------------------
 Warning -- This program may not be used in any manner that
 competes with the business of Gaussian, Inc. or will provide
 assistance to any competitor of Gaussian, Inc.  The licensee
 of this program is prohibited from giving any competitor of
 Gaussian, Inc. access to this program.  By using this program,
 the user acknowledges that Gaussian, Inc. is engaged in the
 business of creating and licensing software in the field of
 computational chemistry and represents and warrants to the
 licensee that it is not a competitor of Gaussian, Inc. and that
 it will not use this program in any manner prohibited above.
 ---------------------------------------------------------------
  

 Cite this work as:
 Gaussian 16, Revision B.01,
 M. J. Frisch, G. W. Trucks, H. B. Schlegel, G. E. Scuseria, 
 M. A. Robb, J. R. Cheeseman, G. Scalmani, V. Barone, 
 G. A. Petersson, H. Nakatsuji, X. Li, M. Caricato, A. V. Marenich, 
 J. Bloino, B. G. Janesko, R. Gomperts, B. Mennucci, H. P. Hratchian, 
 J. V. Ortiz, A. F. Izmaylov, J. L. Sonnenberg, D. Williams-Young, 
 F. Ding, F. Lipparini, F. Egidi, J. Goings, B. Peng, A. Petrone, 
 T. Henderson, D. Ranasinghe, V. G. Zakrzewski, J. Gao, N. Rega, 
 G. Zheng, W. Liang, M. Hada, M. Ehara, K. Toyota, R. Fukuda, 
 J. Hasegawa, M. Ishida, T. Nakajima, Y. Honda, O. Kitao, H. Nakai, 
 T. Vreven, K. Throssell, J. A. Montgomery, Jr., J. E. Peralta, 
 F. Ogliaro, M. J. Bearpark, J. J. Heyd, E. N. Brothers, K. N. Kudin, 
 V. N. Staroverov, T. A. Keith, R. Kobayashi, J. Normand, 
 K. Raghavachari, A. P. Rendell, J. C. Burant, S. S. Iyengar, 
 J. Tomasi, M. Cossi, J. M. Millam, M. Klene, C. Adamo, R. Cammi, 
 J. W. Ochterski, R. L. Martin, K. Morokuma, O. Farkas, 
 J. B. Foresman, and D. J. Fox, Gaussian, Inc., Wallingford CT, 2016.
 
 ******************************************
 Gaussian 16:  ES64L-G16RevB.01 20-Dec-2017
                 8-Feb-2022 
 ******************************************
 %nproc=28
 Will use up to   28 processors via shared memory.
 %mem=120GB
 %chk=hoono_d1_171p2242.chk
 -------------------------------------
 #p SP mp2/aug-cc-pvtz density=current
 -------------------------------------
 1/30=1,38=1,172=1/1;
 2/12=2,17=6,18=5,40=1/2;
 3/5=16,6=1,7=10,11=9,25=1,30=1,71=1/1,2,3;
 4//1;
 5/5=2,38=5/2;
 8/6=4,10=1/1;
 9/15=1,16=-3/6;
 10/5=1,13=10/2;
 6/7=2,8=2,9=2,10=2,22=-1/1;
 99/5=1,9=1/99;
 Leave Link    1 at Tue Feb  8 13:20:46 2022, MaxMem= 16106127360 cpu:               3.5 elap:               0.1
 (Enter /sw/contrib/gaussian/g16/B01/g16/l101.exe)
 -----
 title
 -----
 Symbolic Z-matrix:
 Charge =  0 Multiplicity = 1
 H
 O                    1    r1
 O                    2    r2       1    a1
 N                    3    r3       2    a2       1    d1       0
 O                    4    r4       3    a3       2    d2       0
       Variables:
  r1                    0.96898                  
  r2                    1.45492                  
  r3                    1.45878                  
  r4                    1.17073                  
  a1                   97.59495                  
  a2                  102.29752                  
  a3                  109.06955                  
  d1                  171.22422                  
  d2                  180.                       
 
 ITRead=  0  0  0  0  0
 MicOpt= -1 -1 -1 -1 -1
 NAtoms=      5 NQM=        5 NQMF=       0 NMMI=      0 NMMIF=      0
                NMic=       0 NMicF=      0.
                    Isotopes and Nuclear Properties:
 (Nuclear quadrupole moments (NQMom) in fm**2, nuclear magnetic moments (NMagM)
  in nuclear magnetons)

  Atom         1           2           3           4           5
 IAtWgt=           1          16          16          14          16
 AtmWgt=   1.0078250  15.9949146  15.9949146  14.0030740  15.9949146
 NucSpn=           1           0           0           2           0
 AtZEff=  -0.0000000  -0.0000000  -0.0000000  -0.0000000  -0.0000000
 NQMom=    0.0000000   0.0000000   0.0000000   2.0440000   0.0000000
 NMagM=    2.7928460   0.0000000   0.0000000   0.4037610   0.0000000
 AtZNuc=   1.0000000   8.0000000   8.0000000   7.0000000   8.0000000
 Leave Link  101 at Tue Feb  8 13:20:46 2022, MaxMem= 16106127360 cpu:               3.9 elap:               0.2
 (Enter /sw/contrib/gaussian/g16/B01/g16/l202.exe)
                          Input orientation:                          
 ---------------------------------------------------------------------
 Center     Atomic      Atomic             Coordinates (Angstroms)
 Number     Number       Type             X           Y           Z
 ---------------------------------------------------------------------
      1          1           0        0.000000    0.000000    0.000000
      2          8           0        0.000000    0.000000    0.968976
      3          8           0        1.442156    0.000000    1.161271
      4          7           0        1.563957    0.217457    2.598604
      5          8           0        2.698286    0.238519    2.887497
 ---------------------------------------------------------------------
                    Distance matrix (angstroms):
                    1          2          3          4          5
     1  H    0.000000
     2  O    0.968976   0.000000
     3  O    1.851584   1.454919   0.000000
     4  N    3.040723   2.269127   1.458784   0.000000
     5  O    3.959202   3.319392   2.148165   1.170729   0.000000
 Stoichiometry    HNO3
 Framework group  C1[X(HNO3)]
 Deg. of freedom     9
 Full point group                 C1      NOp   1
 Largest Abelian subgroup         C1      NOp   1
 Largest concise Abelian subgroup C1      NOp   1
                         Standard orientation:                         
 ---------------------------------------------------------------------
 Center     Atomic      Atomic             Coordinates (Angstroms)
 Number     Number       Type             X           Y           Z
 ---------------------------------------------------------------------
      1          1           0       -2.243341    0.428485    0.122312
      2          8           0       -1.599124   -0.282993   -0.010720
      3          8           0       -0.400255    0.541319   -0.014309
      4          7           0        0.663265   -0.456969    0.005654
      5          8           0        1.699439    0.087961    0.004794
 ---------------------------------------------------------------------
 Rotational constants (GHZ):          54.8864348           5.0115263           4.5938663
 Leave Link  202 at Tue Feb  8 13:20:47 2022, MaxMem= 16106127360 cpu:               2.3 elap:               0.1
 (Enter /sw/contrib/gaussian/g16/B01/g16/l301.exe)
 Standard basis: Aug-CC-pVTZ (5D, 7F)
 Ernie: Thresh=  0.10000D-02 Tol=  0.10000D-05 Strict=F.
 Ernie:  12 primitive shells out of 131 were deleted.
 There are   245 symmetry adapted cartesian basis functions of A   symmetry.
 There are   207 symmetry adapted basis functions of A   symmetry.
   207 basis functions,   315 primitive gaussians,   245 cartesian basis functions
    16 alpha electrons       16 beta electrons
       nuclear repulsion energy       116.8753147631 Hartrees.
 IExCor=    0 DFT=F Ex=HF Corr=None ExCW=0 ScaHFX=  1.000000
 ScaDFX=  1.000000  1.000000  1.000000  1.000000 ScalE2=  1.000000  1.000000
 IRadAn=      5 IRanWt=     -1 IRanGd=            0 ICorTp=0 IEmpDi=  4
 NAtoms=    5 NActive=    5 NUniq=    5 SFac= 1.00D+00 NAtFMM=   60 NAOKFM=F Big=F
 Integral buffers will be    131072 words long.
 Raffenetti 1 integral format.
 Two-electron integral symmetry is turned on.
 Leave Link  301 at Tue Feb  8 13:20:47 2022, MaxMem= 16106127360 cpu:               3.4 elap:               0.2
 (Enter /sw/contrib/gaussian/g16/B01/g16/l302.exe)
 NPDir=0 NMtPBC=     1 NCelOv=     1 NCel=       1 NClECP=     1 NCelD=      1
         NCelK=      1 NCelE2=     1 NClLst=     1 CellRange=     0.0.
 One-electron integrals computed using PRISM.
 One-electron integral symmetry used in STVInt
 NBasis=   207 RedAO= T EigKep=  1.82D-04  NBF=   207
 NBsUse=   207 1.00D-06 EigRej= -1.00D+00 NBFU=   207
 Leave Link  302 at Tue Feb  8 13:20:48 2022, MaxMem= 16106127360 cpu:               6.7 elap:               0.3
 (Enter /sw/contrib/gaussian/g16/B01/g16/l303.exe)
 DipDrv:  MaxL=1.
 Leave Link  303 at Tue Feb  8 13:20:48 2022, MaxMem= 16106127360 cpu:               3.2 elap:               0.2
 (Enter /sw/contrib/gaussian/g16/B01/g16/l401.exe)
 ExpMin= 2.53D-02 ExpMax= 1.53D+04 ExpMxC= 5.22D+02 IAcc=3 IRadAn=         5 AccDes= 0.00D+00
 Harris functional with IExCor=  205 and IRadAn=       5 diagonalized for initial guess.
 HarFok:  IExCor=  205 AccDes= 0.00D+00 IRadAn=         5 IDoV= 1 UseB2=F ITyADJ=14
 ICtDFT=  3500011 ScaDFX=  1.000000  1.000000  1.000000  1.000000
 FoFCou: FMM=F IPFlag=           0 FMFlag=      100000 FMFlg1=           0
         NFxFlg=           0 DoJE=T BraDBF=F KetDBF=T FulRan=T
         wScrn=  0.000000 ICntrl=       500 IOpCl=  0 I1Cent=   200000004 NGrid=           0
         NMat0=    1 NMatS0=      1 NMatT0=    0 NMatD0=    1 NMtDS0=    0 NMtDT0=    0
 Petite list used in FoFCou.
 Harris En= -279.628742742989    
 JPrj=0 DoOrth=F DoCkMO=F.
 Leave Link  401 at Tue Feb  8 13:20:49 2022, MaxMem= 16106127360 cpu:              12.7 elap:               0.6
 (Enter /sw/contrib/gaussian/g16/B01/g16/l502.exe)
 Keep R1 ints in memory in canonical form, NReq=245616937.
 FoFCou: FMM=F IPFlag=           0 FMFlag=           0 FMFlg1=           0
         NFxFlg=           0 DoJE=F BraDBF=F KetDBF=F FulRan=T
         wScrn=  0.000000 ICntrl=       600 IOpCl=  0 I1Cent=           0 NGrid=           0
         NMat0=    1 NMatS0=  21528 NMatT0=    0 NMatD0=    1 NMtDS0=    0 NMtDT0=    0
 Symmetry not used in FoFCou.
 Two-electron integral symmetry not used.
 Closed shell SCF:
 Using DIIS extrapolation, IDIIS=  1040.
 NGot= 16106127360 LenX= 15874260251 LenY= 15874199785
 Requested convergence on RMS density matrix=1.00D-08 within 128 cycles.
 Requested convergence on MAX density matrix=1.00D-06.
 Requested convergence on             energy=1.00D-06.
 No special actions if energy rises.

 Cycle   1  Pass 1  IDiag  1:
 E= -279.370560869557    
 DIIS: error= 2.41D-02 at cycle   1 NSaved=   1.
 NSaved= 1 IEnMin= 1 EnMin= -279.370560869557     IErMin= 1 ErrMin= 2.41D-02
 ErrMax= 2.41D-02  0.00D+00 EMaxC= 1.00D-01 BMatC= 4.38D-01 BMatP= 4.38D-01
 IDIUse=3 WtCom= 7.59D-01 WtEn= 2.41D-01
 Coeff-Com:  0.100D+01
 Coeff-En:   0.100D+01
 Coeff:      0.100D+01
 Gap=     0.518 Goal=   None    Shift=    0.000
 GapD=    0.518 DampG=2.000 DampE=0.500 DampFc=1.0000 IDamp=-1.
 RMSDP=1.62D-03 MaxDP=9.92D-02              OVMax= 1.13D-01

 Cycle   2  Pass 1  IDiag  1:
 E= -279.452491415958     Delta-E=       -0.081930546401 Rises=F Damp=F
 DIIS: error= 1.73D-02 at cycle   2 NSaved=   2.
 NSaved= 2 IEnMin= 2 EnMin= -279.452491415958     IErMin= 2 ErrMin= 1.73D-02
 ErrMax= 1.73D-02  0.00D+00 EMaxC= 1.00D-01 BMatC= 7.18D-02 BMatP= 4.38D-01
 IDIUse=3 WtCom= 8.27D-01 WtEn= 1.73D-01
 Coeff-Com:  0.195D+00 0.805D+00
 Coeff-En:   0.000D+00 0.100D+01
 Coeff:      0.161D+00 0.839D+00
 Gap=     0.532 Goal=   None    Shift=    0.000
 RMSDP=8.99D-04 MaxDP=3.73D-02 DE=-8.19D-02 OVMax= 6.77D-02

 Cycle   3  Pass 1  IDiag  1:
 E= -279.481712606441     Delta-E=       -0.029221190483 Rises=F Damp=F
 DIIS: error= 1.00D-02 at cycle   3 NSaved=   3.
 NSaved= 3 IEnMin= 3 EnMin= -279.481712606441     IErMin= 3 ErrMin= 1.00D-02
 ErrMax= 1.00D-02  0.00D+00 EMaxC= 1.00D-01 BMatC= 2.86D-02 BMatP= 7.18D-02
 IDIUse=3 WtCom= 9.00D-01 WtEn= 1.00D-01
 Coeff-Com: -0.330D-01 0.377D+00 0.656D+00
 Coeff-En:   0.000D+00 0.239D+00 0.761D+00
 Coeff:     -0.297D-01 0.364D+00 0.666D+00
 Gap=     0.510 Goal=   None    Shift=    0.000
 RMSDP=3.75D-04 MaxDP=1.54D-02 DE=-2.92D-02 OVMax= 3.79D-02

 Cycle   4  Pass 1  IDiag  1:
 E= -279.500684700819     Delta-E=       -0.018972094377 Rises=F Damp=F
 DIIS: error= 1.26D-03 at cycle   4 NSaved=   4.
 NSaved= 4 IEnMin= 4 EnMin= -279.500684700819     IErMin= 4 ErrMin= 1.26D-03
 ErrMax= 1.26D-03  0.00D+00 EMaxC= 1.00D-01 BMatC= 4.89D-04 BMatP= 2.86D-02
 IDIUse=3 WtCom= 9.87D-01 WtEn= 1.26D-02
 Coeff-Com: -0.117D-01 0.575D-01 0.158D+00 0.796D+00
 Coeff-En:   0.000D+00 0.000D+00 0.000D+00 0.100D+01
 Coeff:     -0.115D-01 0.568D-01 0.156D+00 0.798D+00
 Gap=     0.502 Goal=   None    Shift=    0.000
 RMSDP=9.01D-05 MaxDP=2.18D-03 DE=-1.90D-02 OVMax= 1.09D-02

 Cycle   5  Pass 1  IDiag  1:
 E= -279.501356756758     Delta-E=       -0.000672055940 Rises=F Damp=F
 DIIS: error= 7.14D-04 at cycle   5 NSaved=   5.
 NSaved= 5 IEnMin= 5 EnMin= -279.501356756758     IErMin= 5 ErrMin= 7.14D-04
 ErrMax= 7.14D-04  0.00D+00 EMaxC= 1.00D-01 BMatC= 8.70D-05 BMatP= 4.89D-04
 IDIUse=3 WtCom= 9.93D-01 WtEn= 7.14D-03
 Coeff-Com:  0.613D-02-0.722D-01-0.118D+00 0.202D-01 0.116D+01
 Coeff-En:   0.000D+00 0.000D+00 0.000D+00 0.000D+00 0.100D+01
 Coeff:      0.608D-02-0.717D-01-0.117D+00 0.200D-01 0.116D+01
 Gap=     0.502 Goal=   None    Shift=    0.000
 RMSDP=7.61D-05 MaxDP=2.10D-03 DE=-6.72D-04 OVMax= 1.10D-02

 Cycle   6  Pass 1  IDiag  1:
 E= -279.501671057051     Delta-E=       -0.000314300293 Rises=F Damp=F
 DIIS: error= 2.83D-04 at cycle   6 NSaved=   6.
 NSaved= 6 IEnMin= 6 EnMin= -279.501671057051     IErMin= 6 ErrMin= 2.83D-04
 ErrMax= 2.83D-04  0.00D+00 EMaxC= 1.00D-01 BMatC= 1.66D-05 BMatP= 8.70D-05
 IDIUse=3 WtCom= 9.97D-01 WtEn= 2.83D-03
 Coeff-Com:  0.596D-03 0.155D-02 0.455D-02-0.130D+00-0.230D+00 0.135D+01
 Coeff-En:   0.000D+00 0.000D+00 0.000D+00 0.000D+00 0.000D+00 0.100D+01
 Coeff:      0.595D-03 0.155D-02 0.453D-02-0.129D+00-0.230D+00 0.135D+01
 Gap=     0.502 Goal=   None    Shift=    0.000
 RMSDP=4.52D-05 MaxDP=1.06D-03 DE=-3.14D-04 OVMax= 5.53D-03

 Cycle   7  Pass 1  IDiag  1:
 E= -279.501743537325     Delta-E=       -0.000072480274 Rises=F Damp=F
 DIIS: error= 9.99D-05 at cycle   7 NSaved=   7.
 NSaved= 7 IEnMin= 7 EnMin= -279.501743537325     IErMin= 7 ErrMin= 9.99D-05
 ErrMax= 9.99D-05  0.00D+00 EMaxC= 1.00D-01 BMatC= 4.51D-06 BMatP= 1.66D-05
 IDIUse=1 WtCom= 1.00D+00 WtEn= 0.00D+00
 Coeff-Com: -0.937D-03 0.135D-01 0.265D-01-0.242D-01-0.287D+00 0.391D+00
 Coeff-Com:  0.881D+00
 Coeff:     -0.937D-03 0.135D-01 0.265D-01-0.242D-01-0.287D+00 0.391D+00
 Coeff:      0.881D+00
 Gap=     0.502 Goal=   None    Shift=    0.000
 RMSDP=1.33D-05 MaxDP=3.78D-04 DE=-7.25D-05 OVMax= 1.54D-03

 Cycle   8  Pass 1  IDiag  1:
 E= -279.501752421963     Delta-E=       -0.000008884638 Rises=F Damp=F
 DIIS: error= 4.79D-05 at cycle   8 NSaved=   8.
 NSaved= 8 IEnMin= 8 EnMin= -279.501752421963     IErMin= 8 ErrMin= 4.79D-05
 ErrMax= 4.79D-05  0.00D+00 EMaxC= 1.00D-01 BMatC= 6.06D-07 BMatP= 4.51D-06
 IDIUse=1 WtCom= 1.00D+00 WtEn= 0.00D+00
 Coeff-Com: -0.449D-03 0.345D-02 0.761D-02 0.274D-01-0.410D-01-0.197D+00
 Coeff-Com:  0.171D+00 0.103D+01
 Coeff:     -0.449D-03 0.345D-02 0.761D-02 0.274D-01-0.410D-01-0.197D+00
 Coeff:      0.171D+00 0.103D+01
 Gap=     0.502 Goal=   None    Shift=    0.000
 RMSDP=6.90D-06 MaxDP=2.03D-04 DE=-8.88D-06 OVMax= 7.46D-04

 Cycle   9  Pass 1  IDiag  1:
 E= -279.501754195736     Delta-E=       -0.000001773774 Rises=F Damp=F
 DIIS: error= 1.56D-05 at cycle   9 NSaved=   9.
 NSaved= 9 IEnMin= 9 EnMin= -279.501754195736     IErMin= 9 ErrMin= 1.56D-05
 ErrMax= 1.56D-05  0.00D+00 EMaxC= 1.00D-01 BMatC= 6.92D-08 BMatP= 6.06D-07
 IDIUse=1 WtCom= 1.00D+00 WtEn= 0.00D+00
 Coeff-Com:  0.123D-03-0.172D-02-0.308D-02-0.205D-02 0.342D-01-0.583D-04
 Coeff-Com: -0.167D+00-0.103D+00 0.124D+01
 Coeff:      0.123D-03-0.172D-02-0.308D-02-0.205D-02 0.342D-01-0.583D-04
 Coeff:     -0.167D+00-0.103D+00 0.124D+01
 Gap=     0.502 Goal=   None    Shift=    0.000
 RMSDP=1.94D-06 MaxDP=5.17D-05 DE=-1.77D-06 OVMax= 1.73D-04

 Cycle  10  Pass 1  IDiag  1:
 E= -279.501754356048     Delta-E=       -0.000000160312 Rises=F Damp=F
 DIIS: error= 3.99D-06 at cycle  10 NSaved=  10.
 NSaved=10 IEnMin=10 EnMin= -279.501754356048     IErMin=10 ErrMin= 3.99D-06
 ErrMax= 3.99D-06  0.00D+00 EMaxC= 1.00D-01 BMatC= 5.56D-09 BMatP= 6.92D-08
 IDIUse=1 WtCom= 1.00D+00 WtEn= 0.00D+00
 Coeff-Com:  0.310D-04-0.243D-03-0.324D-03-0.270D-02 0.164D-02 0.196D-01
 Coeff-Com: -0.130D-01-0.744D-01-0.805D-01 0.115D+01
 Coeff:      0.310D-04-0.243D-03-0.324D-03-0.270D-02 0.164D-02 0.196D-01
 Coeff:     -0.130D-01-0.744D-01-0.805D-01 0.115D+01
 Gap=     0.502 Goal=   None    Shift=    0.000
 RMSDP=5.07D-07 MaxDP=2.10D-05 DE=-1.60D-07 OVMax= 4.11D-05

 Cycle  11  Pass 1  IDiag  1:
 E= -279.501754368693     Delta-E=       -0.000000012645 Rises=F Damp=F
 DIIS: error= 1.77D-06 at cycle  11 NSaved=  11.
 NSaved=11 IEnMin=11 EnMin= -279.501754368693     IErMin=11 ErrMin= 1.77D-06
 ErrMax= 1.77D-06  0.00D+00 EMaxC= 1.00D-01 BMatC= 6.69D-10 BMatP= 5.56D-09
 IDIUse=1 WtCom= 1.00D+00 WtEn= 0.00D+00
 Coeff-Com: -0.214D-04 0.245D-03 0.490D-03 0.538D-03-0.430D-02-0.360D-02
 Coeff-Com:  0.212D-01 0.312D-01-0.139D+00-0.180D+00 0.127D+01
 Coeff:     -0.214D-04 0.245D-03 0.490D-03 0.538D-03-0.430D-02-0.360D-02
 Coeff:      0.212D-01 0.312D-01-0.139D+00-0.180D+00 0.127D+01
 Gap=     0.502 Goal=   None    Shift=    0.000
 RMSDP=1.82D-07 MaxDP=6.51D-06 DE=-1.26D-08 OVMax= 1.70D-05

 Cycle  12  Pass 1  IDiag  1:
 E= -279.501754370569     Delta-E=       -0.000000001876 Rises=F Damp=F
 DIIS: error= 5.55D-07 at cycle  12 NSaved=  12.
 NSaved=12 IEnMin=12 EnMin= -279.501754370569     IErMin=12 ErrMin= 5.55D-07
 ErrMax= 5.55D-07  0.00D+00 EMaxC= 1.00D-01 BMatC= 7.58D-11 BMatP= 6.69D-10
 IDIUse=1 WtCom= 1.00D+00 WtEn= 0.00D+00
 Coeff-Com:  0.133D-05-0.302D-04-0.659D-04 0.184D-03 0.111D-02-0.231D-02
 Coeff-Com: -0.423D-02 0.540D-02 0.427D-01-0.114D+00-0.288D+00 0.136D+01
 Coeff:      0.133D-05-0.302D-04-0.659D-04 0.184D-03 0.111D-02-0.231D-02
 Coeff:     -0.423D-02 0.540D-02 0.427D-01-0.114D+00-0.288D+00 0.136D+01
 Gap=     0.502 Goal=   None    Shift=    0.000
 RMSDP=7.65D-08 MaxDP=2.83D-06 DE=-1.88D-09 OVMax= 7.37D-06

 Cycle  13  Pass 1  IDiag  1:
 E= -279.501754370831     Delta-E=       -0.000000000262 Rises=F Damp=F
 DIIS: error= 1.66D-07 at cycle  13 NSaved=  13.
 NSaved=13 IEnMin=13 EnMin= -279.501754370831     IErMin=13 ErrMin= 1.66D-07
 ErrMax= 1.66D-07  0.00D+00 EMaxC= 1.00D-01 BMatC= 5.64D-12 BMatP= 7.58D-11
 IDIUse=1 WtCom= 1.00D+00 WtEn= 0.00D+00
 Coeff-Com:  0.135D-05-0.143D-04-0.230D-04-0.981D-04 0.109D-03 0.856D-03
 Coeff-Com: -0.811D-03-0.362D-02-0.156D-03 0.461D-01-0.330D-01-0.369D+00
 Coeff-Com:  0.136D+01
 Coeff:      0.135D-05-0.143D-04-0.230D-04-0.981D-04 0.109D-03 0.856D-03
 Coeff:     -0.811D-03-0.362D-02-0.156D-03 0.461D-01-0.330D-01-0.369D+00
 Coeff:      0.136D+01
 Gap=     0.502 Goal=   None    Shift=    0.000
 RMSDP=2.47D-08 MaxDP=5.71D-07 DE=-2.62D-10 OVMax= 3.25D-06

 Cycle  14  Pass 1  IDiag  1:
 E= -279.501754370854     Delta-E=       -0.000000000024 Rises=F Damp=F
 DIIS: error= 8.36D-08 at cycle  14 NSaved=  14.
 NSaved=14 IEnMin=14 EnMin= -279.501754370854     IErMin=14 ErrMin= 8.36D-08
 ErrMax= 8.36D-08  0.00D+00 EMaxC= 1.00D-01 BMatC= 8.85D-13 BMatP= 5.64D-12
 IDIUse=1 WtCom= 1.00D+00 WtEn= 0.00D+00
 Coeff-Com: -0.427D-06 0.615D-05 0.106D-04 0.166D-04-0.130D-03-0.281D-04
 Coeff-Com:  0.516D-03 0.661D-03-0.349D-02-0.289D-02 0.287D-01 0.117D-02
 Coeff-Com: -0.413D+00 0.139D+01
 Coeff:     -0.427D-06 0.615D-05 0.106D-04 0.166D-04-0.130D-03-0.281D-04
 Coeff:      0.516D-03 0.661D-03-0.349D-02-0.289D-02 0.287D-01 0.117D-02
 Coeff:     -0.413D+00 0.139D+01
 Gap=     0.502 Goal=   None    Shift=    0.000
 RMSDP=1.04D-08 MaxDP=2.86D-07 DE=-2.35D-11 OVMax= 1.81D-06

 Cycle  15  Pass 1  IDiag  1:
 E= -279.501754370859     Delta-E=       -0.000000000005 Rises=F Damp=F
 DIIS: error= 5.59D-08 at cycle  15 NSaved=  15.
 NSaved=15 IEnMin=15 EnMin= -279.501754370859     IErMin=15 ErrMin= 5.59D-08
 ErrMax= 5.59D-08  0.00D+00 EMaxC= 1.00D-01 BMatC= 2.99D-13 BMatP= 8.85D-13
 IDIUse=1 WtCom= 1.00D+00 WtEn= 0.00D+00
 Coeff-Com:  0.717D-07-0.175D-05-0.446D-05 0.827D-05 0.873D-04-0.163D-03
 Coeff-Com: -0.246D-03 0.183D-03 0.296D-02-0.726D-02-0.171D-01 0.850D-01
 Coeff-Com:  0.186D-01-0.116D+01 0.207D+01
 Coeff:      0.717D-07-0.175D-05-0.446D-05 0.827D-05 0.873D-04-0.163D-03
 Coeff:     -0.246D-03 0.183D-03 0.296D-02-0.726D-02-0.171D-01 0.850D-01
 Coeff:      0.186D-01-0.116D+01 0.207D+01
 Gap=     0.502 Goal=   None    Shift=    0.000
 RMSDP=1.01D-08 MaxDP=2.99D-07 DE=-4.66D-12 OVMax= 1.86D-06

 Cycle  16  Pass 1  IDiag  1:
 E= -279.501754370862     Delta-E=       -0.000000000003 Rises=F Damp=F
 DIIS: error= 2.26D-08 at cycle  16 NSaved=  16.
 NSaved=16 IEnMin=16 EnMin= -279.501754370862     IErMin=16 ErrMin= 2.26D-08
 ErrMax= 2.26D-08  0.00D+00 EMaxC= 1.00D-01 BMatC= 4.97D-14 BMatP= 2.99D-13
 IDIUse=1 WtCom= 1.00D+00 WtEn= 0.00D+00
 Coeff-Com:  0.553D-07-0.679D-06-0.212D-06-0.882D-05-0.764D-05 0.766D-04
 Coeff-Com: -0.712D-06-0.252D-03-0.480D-03 0.379D-02 0.503D-03-0.403D-01
 Coeff-Com:  0.113D+00 0.128D+00-0.905D+00 0.170D+01
 Coeff:      0.553D-07-0.679D-06-0.212D-06-0.882D-05-0.764D-05 0.766D-04
 Coeff:     -0.712D-06-0.252D-03-0.480D-03 0.379D-02 0.503D-03-0.403D-01
 Coeff:      0.113D+00 0.128D+00-0.905D+00 0.170D+01
 Gap=     0.502 Goal=   None    Shift=    0.000
 RMSDP=5.01D-09 MaxDP=1.50D-07 DE=-3.47D-12 OVMax= 9.39D-07

 SCF Done:  E(RHF) =  -279.501754371     A.U. after   16 cycles
            NFock= 16  Conv=0.50D-08     -V/T= 2.0024
 KE= 2.788454611302D+02 PE=-8.950770078061D+02 EE= 2.198544775419D+02
 Leave Link  502 at Tue Feb  8 13:20:57 2022, MaxMem= 16106127360 cpu:              45.2 elap:               7.9
 (Enter /sw/contrib/gaussian/g16/B01/g16/l801.exe)
 ExpMin= 2.53D-02 ExpMax= 1.53D+04 ExpMxC= 5.22D+02 IAcc=3 IRadAn=         5 AccDes= 0.00D+00
 HarFok:  IExCor=  205 AccDes= 0.00D+00 IRadAn=         5 IDoV=-2 UseB2=F ITyADJ=14
 ICtDFT= 12500011 ScaDFX=  1.000000  1.000000  1.000000  1.000000
 Largest valence mixing into a core orbital is  2.08D-04
 Largest core mixing into a valence orbital is  3.63D-05
 Range of M.O.s used for correlation:     5   207
 NBasis=   207 NAE=    16 NBE=    16 NFC=     4 NFV=     0
 NROrb=    203 NOA=    12 NOB=    12 NVA=   191 NVB=   191

 **** Warning!!: The largest alpha MO coefficient is  0.17826748D+02

 Leave Link  801 at Tue Feb  8 13:20:58 2022, MaxMem= 16106127360 cpu:               3.3 elap:               0.2
 (Enter /sw/contrib/gaussian/g16/B01/g16/l906.exe)
 Frozen-core derivative calculation, NFC=   4 NFV=   0.
 FulOut=F Deriv=T AODrv=F NAtomX=     5
   MMem=          76  MDisk=          12 MDiskD=          12
  W3Min=      811440 MinDsk=     1524655 NBas6D=         245
 NBas2D=       30762    NTT=       30135    LW2=     3500000
    MDV= 16105643539 MDiskM=      328645 NBas2p=       30466
 Fully in-core method, ICMem=   960157634.
 IMap=   1   2   3   4   5   6   7   8   9  10  11  12  13  14  15  16
 JobTyp=1 Pass  1 fully in-core, NPsUse= 28.
 Compute canonical integrals.
 FoFCou: FMM=F IPFlag=           0 FMFlag=           0 FMFlg1=           0
         NFxFlg=           0 DoJE=F BraDBF=F KetDBF=F FulRan=T
         wScrn=  0.000000 ICntrl=       600 IOpCl=  1 I1Cent=           0 NGrid=           0
         NMat0=    1 NMatS0=  30762 NMatT0=    0 NMatD0=    1 NMtDS0=    0 NMtDT0=    0
 Symmetry not used in FoFCou.
 Spin components of T(2) and E(2):
     alpha-alpha T2 =       0.3402637472D-01 E2=     -0.1224089288D+00
     alpha-beta  T2 =       0.1868545913D+00 E2=     -0.7002527428D+00
     beta-beta   T2 =       0.3402637472D-01 E2=     -0.1224089288D+00
 The integrals were generated   1 times.
 ANorm=    0.1120226469D+01
 E2 =    -0.9450706004D+00 EUMP2 =    -0.28044682497122D+03
 Leave Link  906 at Tue Feb  8 13:21:08 2022, MaxMem= 16106127360 cpu:             260.2 elap:               9.4
 (Enter /sw/contrib/gaussian/g16/B01/g16/l1002.exe)
 Minotr:  Closed shell wavefunction.
          Computing MP2/KS-MP2 derivatives.
          Using Z-Vector for PSCF gradient.
          Skipping F1 and S1 gradient terms here.
          Frozen-core window.
          Direct CPHF calculation.
          Differentiating once with respect to electric field.
                with respect to dipole field.
          Electric field/nuclear overlap derivatives assumed to be zero.
          Requested convergence is 1.0D-10 RMS, and 1.0D-09 maximum.
          NewPWx=F KeepS1=T KeepF1=T KeepIn=T MapXYZ=F SortEE=F KeepMc=T.
 Keep R1 ints in memory in canonical form, NReq=245621348.
 FoFCou: FMM=F IPFlag=           0 FMFlag=           0 FMFlg1=           0
         NFxFlg=           0 DoJE=F BraDBF=F KetDBF=F FulRan=T
         wScrn=  0.000000 ICntrl=       600 IOpCl=  0 I1Cent=           0 NGrid=           0
         NMat0=    1 NMatS0=  21528 NMatT0=    0 NMatD0=    1 NMtDS0=    0 NMtDT0=    0
 Symmetry not used in FoFCou.
 Two-electron integral symmetry not used.
          MDV=   16106127360 using IRadAn=       5.
          Solving linear equations separately, MaxMat=       0.
          There are     1 degrees of freedom in the 1st order CPHF.  IDoFFX=0 NUNeed=     1.
 LinEq1:  Iter=  0 NonCon=     1 RMS=5.96D-03 Max=1.30D-01 NDo=     1
 AX will form     1 AO Fock derivatives at one time.
 LinEq1:  Iter=  1 NonCon=     1 RMS=1.90D-03 Max=3.78D-02 NDo=     1
 LinEq1:  Iter=  2 NonCon=     1 RMS=8.67D-04 Max=1.32D-02 NDo=     1
 LinEq1:  Iter=  3 NonCon=     1 RMS=3.86D-04 Max=7.69D-03 NDo=     1
 LinEq1:  Iter=  4 NonCon=     1 RMS=1.19D-04 Max=1.79D-03 NDo=     1
 LinEq1:  Iter=  5 NonCon=     1 RMS=4.55D-05 Max=7.13D-04 NDo=     1
 LinEq1:  Iter=  6 NonCon=     1 RMS=2.04D-05 Max=2.36D-04 NDo=     1
 LinEq1:  Iter=  7 NonCon=     1 RMS=8.21D-06 Max=1.58D-04 NDo=     1
 LinEq1:  Iter=  8 NonCon=     1 RMS=3.57D-06 Max=4.07D-05 NDo=     1
 LinEq1:  Iter=  9 NonCon=     1 RMS=1.03D-06 Max=1.92D-05 NDo=     1
 LinEq1:  Iter= 10 NonCon=     1 RMS=2.56D-07 Max=7.23D-06 NDo=     1
 LinEq1:  Iter= 11 NonCon=     1 RMS=7.39D-08 Max=1.96D-06 NDo=     1
 LinEq1:  Iter= 12 NonCon=     1 RMS=1.99D-08 Max=2.66D-07 NDo=     1
 LinEq1:  Iter= 13 NonCon=     1 RMS=3.85D-09 Max=4.10D-08 NDo=     1
 LinEq1:  Iter= 14 NonCon=     1 RMS=6.21D-10 Max=9.90D-09 NDo=     1
 LinEq1:  Iter= 15 NonCon=     1 RMS=1.32D-10 Max=2.17D-09 NDo=     1
 LinEq1:  Iter= 16 NonCon=     0 RMS=3.35D-11 Max=4.31D-10 NDo=     1
 Linear equations converged to 1.000D-10 1.000D-09 after    16 iterations.
 End of Minotr F.D. properties file   721 does not exist.
 End of Minotr F.D. properties file   722 does not exist.
 End of Minotr F.D. properties file   788 does not exist.
 Leave Link 1002 at Tue Feb  8 13:21:17 2022, MaxMem= 16106127360 cpu:              51.0 elap:               8.6
 (Enter /sw/contrib/gaussian/g16/B01/g16/l601.exe)
 Copying SCF densities to generalized density rwf, IOpCl= 0 IROHF=0.

 **********************************************************************

            Population analysis using the MP2 Density.

 **********************************************************************

 Orbital symmetries:
       Occupied  (A) (A) (A) (A) (A) (A) (A) (A) (A) (A) (A) (A)
                 (A) (A) (A) (A)
       Virtual   (A) (A) (A) (A) (A) (A) (A) (A) (A) (A) (A) (A)
                 (A) (A) (A) (A) (A) (A) (A) (A) (A) (A) (A) (A)
                 (A) (A) (A) (A) (A) (A) (A) (A) (A) (A) (A) (A)
                 (A) (A) (A) (A) (A) (A) (A) (A) (A) (A) (A) (A)
                 (A) (A) (A) (A) (A) (A) (A) (A) (A) (A) (A) (A)
                 (A) (A) (A) (A) (A) (A) (A) (A) (A) (A) (A) (A)
                 (A) (A) (A) (A) (A) (A) (A) (A) (A) (A) (A) (A)
                 (A) (A) (A) (A) (A) (A) (A) (A) (A) (A) (A) (A)
                 (A) (A) (A) (A) (A) (A) (A) (A) (A) (A) (A) (A)
                 (A) (A) (A) (A) (A) (A) (A) (A) (A) (A) (A) (A)
                 (A) (A) (A) (A) (A) (A) (A) (A) (A) (A) (A) (A)
                 (A) (A) (A) (A) (A) (A) (A) (A) (A) (A) (A) (A)
                 (A) (A) (A) (A) (A) (A) (A) (A) (A) (A) (A) (A)
                 (A) (A) (A) (A) (A) (A) (A) (A) (A) (A) (A) (A)
                 (A) (A) (A) (A) (A) (A) (A) (A) (A) (A) (A) (A)
                 (A) (A) (A) (A) (A) (A) (A) (A) (A) (A) (A)
 The electronic state is 1-A.
 Alpha  occ. eigenvalues --  -20.69097 -20.68428 -20.66007 -15.81276  -1.62403
 Alpha  occ. eigenvalues --   -1.49579  -1.25442  -0.94808  -0.77263  -0.75934
 Alpha  occ. eigenvalues --   -0.71241  -0.67905  -0.62013  -0.58909  -0.48621
 Alpha  occ. eigenvalues --   -0.47203
 Alpha virt. eigenvalues --    0.02960   0.07166   0.08593   0.10174   0.13285
 Alpha virt. eigenvalues --    0.13478   0.14398   0.15448   0.17818   0.19413
 Alpha virt. eigenvalues --    0.19948   0.20651   0.22081   0.23539   0.23731
 Alpha virt. eigenvalues --    0.26658   0.29290   0.30132   0.31150   0.34347
 Alpha virt. eigenvalues --    0.35223   0.38741   0.41904   0.42994   0.52720
 Alpha virt. eigenvalues --    0.53038   0.55856   0.58126   0.62596   0.63818
 Alpha virt. eigenvalues --    0.67400   0.68388   0.70669   0.71236   0.72065
 Alpha virt. eigenvalues --    0.73168   0.74664   0.78721   0.79412   0.81040
 Alpha virt. eigenvalues --    0.81355   0.83277   0.86788   0.90834   0.91760
 Alpha virt. eigenvalues --    0.93142   0.95593   0.97272   0.98767   1.01581
 Alpha virt. eigenvalues --    1.05454   1.05652   1.08316   1.11546   1.13281
 Alpha virt. eigenvalues --    1.19606   1.21961   1.23356   1.33765   1.35066
 Alpha virt. eigenvalues --    1.38778   1.45473   1.49073   1.50852   1.53745
 Alpha virt. eigenvalues --    1.56714   1.58036   1.60713   1.66516   1.66711
 Alpha virt. eigenvalues --    1.70493   1.79051   1.83019   1.83636   1.87995
 Alpha virt. eigenvalues --    1.90696   1.95614   1.98452   2.02018   2.07765
 Alpha virt. eigenvalues --    2.11746   2.12894   2.15376   2.22242   2.25954
 Alpha virt. eigenvalues --    2.27019   2.28813   2.31269   2.34373   2.38725
 Alpha virt. eigenvalues --    2.40882   2.44491   2.45388   2.46540   2.47619
 Alpha virt. eigenvalues --    2.50482   2.58957   2.59792   2.61935   2.62559
 Alpha virt. eigenvalues --    2.63676   2.66630   2.75307   2.82731   2.84982
 Alpha virt. eigenvalues --    2.88796   2.89655   2.91994   2.95942   3.02199
 Alpha virt. eigenvalues --    3.07349   3.12048   3.20460   3.22836   3.31613
 Alpha virt. eigenvalues --    3.34105   3.51496   3.64617   3.83771   3.84729
 Alpha virt. eigenvalues --    4.13950   4.16377   4.19682   4.25542   4.34411
 Alpha virt. eigenvalues --    4.39383   4.47113   4.52222   4.65520   4.71099
 Alpha virt. eigenvalues --    4.80450   4.82357   4.82712   4.89650   5.02282
 Alpha virt. eigenvalues --    5.07415   5.10215   5.14539   5.18184   5.24711
 Alpha virt. eigenvalues --    5.27174   5.30564   5.32991   5.35306   5.60247
 Alpha virt. eigenvalues --    5.67359   5.76456   5.83111   5.95555   6.16919
 Alpha virt. eigenvalues --    6.31079   6.34020   6.39309   6.49404   6.50522
 Alpha virt. eigenvalues --    6.61887   6.65943   6.70407   6.75031   6.76831
 Alpha virt. eigenvalues --    6.83415   6.89835   7.01230   7.05492   7.05756
 Alpha virt. eigenvalues --    7.09280   7.12607   7.14735   7.18655   7.22487
 Alpha virt. eigenvalues --    7.23958   7.30524   7.32310   7.35334   7.39486
 Alpha virt. eigenvalues --    7.42939   7.48567   7.60693   7.61825   7.63077
 Alpha virt. eigenvalues --    7.67105   7.78663   7.88515   8.09204   8.31290
 Alpha virt. eigenvalues --    8.40311   8.54235  13.38725  14.39764  15.16100
 Alpha virt. eigenvalues --   16.15105
          Condensed to atoms (all electrons):
               1          2          3          4          5
     1  H    0.590043   0.128417   0.020138   0.011887  -0.000618
     2  O    0.128417   8.320886  -0.172863  -0.090062   0.015249
     3  O    0.020138  -0.172863   8.468080  -0.129540  -0.038732
     4  N    0.011887  -0.090062  -0.129540   6.970777  -0.054955
     5  O   -0.000618   0.015249  -0.038732  -0.054955   8.272373
 Mulliken charges:
               1
     1  H    0.250133
     2  O   -0.201628
     3  O   -0.147083
     4  N    0.291894
     5  O   -0.193316
 Sum of Mulliken charges =  -0.00000
 Mulliken charges with hydrogens summed into heavy atoms:
               1
     2  O    0.048506
     3  O   -0.147083
     4  N    0.291894
     5  O   -0.193316
 Electronic spatial extent (au):  <R**2>=            252.8603
 Charge=             -0.0000 electrons
 Dipole moment (field-independent basis, Debye):
    X=             -1.2091    Y=              0.7795    Z=              0.2322  Tot=              1.4572
 Quadrupole moment (field-independent basis, Debye-Ang):
   XX=            -18.0468   YY=            -23.1096   ZZ=            -21.9676
   XY=             -2.7537   XZ=             -0.6123   YZ=              0.1879
 Traceless Quadrupole moment (field-independent basis, Debye-Ang):
   XX=              2.9945   YY=             -2.0683   ZZ=             -0.9263
   XY=             -2.7537   XZ=             -0.6123   YZ=              0.1879
 Octapole moment (field-independent basis, Debye-Ang**2):
  XXX=            -18.0029  YYY=              1.7536  ZZZ=              0.0759  XYY=             -1.0555
  XXY=              6.0934  XXZ=              1.4671  XZZ=              1.6847  YZZ=              0.2630
  YYZ=              0.0305  XYZ=             -0.3211
 Hexadecapole moment (field-independent basis, Debye-Ang**3):
 XXXX=           -190.6786 YYYY=            -41.0869 ZZZZ=            -18.2711 XXXY=            -11.8486
 XXXZ=             -3.7196 YYYX=             -0.9780 YYYZ=              0.1734 ZZZX=             -0.2266
 ZZZY=              0.1248 XXYY=            -42.5260 XXZZ=            -41.4548 YYZZ=             -9.8708
 XXYZ=              0.7622 YYXZ=             -0.1625 ZZXY=             -0.5024
 N-N= 1.168753147631D+02 E-N=-8.958610650466D+02  KE= 2.801976807521D+02
 No NMR shielding tensors so no spin-rotation constants.
 Leave Link  601 at Tue Feb  8 13:21:17 2022, MaxMem= 16106127360 cpu:               6.2 elap:               0.3
 (Enter /sw/contrib/gaussian/g16/B01/g16/l9999.exe)
 1\1\GINC-N2177\SP\RMP2-FC\Aug-CC-pVTZ\H1N1O3\CGAVINH\08-Feb-2022\0\\#p
  SP mp2/aug-cc-pvtz density=current\\title\\0,1\H\O,1,0.96897556\O,2,1
 .45491931,1,97.59494903\N,3,1.45878406,2,102.29752444,1,171.22421996,0
 \O,4,1.17072885,3,109.06955123,2,180.,0\\Version=ES64L-G16RevB.01\Stat
 e=1-A\HF=-279.5017544\MP2=-280.446825\RMSD=5.008e-09\Dipole=-0.1465222
 ,0.0177902,-0.5539691\Quadrupole=-1.5050437,-0.7471473,2.252191,0.0556
 909,2.0889503,-0.0348413\PG=C01 [X(H1N1O3)]\\@


 EDUCATION WITHOUT COMMON SENSE IS A LOAD OF BOOKS ON THE BACK OF AN ASS.
 Job cpu time:       0 days  0 hours  6 minutes 45.6 seconds.
 Elapsed time:       0 days  0 hours  0 minutes 28.5 seconds.
 File lengths (MBytes):  RWF=     21 Int=      0 D2E=      0 Chk=      8 Scr=      1
 Normal termination of Gaussian 16 at Tue Feb  8 13:21:18 2022.
