title                                                                   
SP        RMP2-FC                                                     Aug-CC-pVTZ         
Number of atoms                            I                5
Info1-9                                    I   N=           9
          33          24           0           0           0         110
           1           2           1
Full Title                                 C   N=           1
title       
Route                                      C   N=           4
#p SP mp2/aug-cc-pvtz density=current           
Charge                                     I                0
Multiplicity                               I                1
Number of electrons                        I               32
Number of alpha electrons                  I               16
Number of beta electrons                   I               16
Number of basis functions                  I              207
Number of independent functions            I              207
Number of point charges in /Mol/           I                0
Number of translation vectors              I                0
Atomic numbers                             I   N=           5
           1           8           8           7           8
Nuclear charges                            R   N=           5
  1.00000000E+00  8.00000000E+00  8.00000000E+00  7.00000000E+00  8.00000000E+00
Current cartesian coordinates              R   N=          15
  2.92998844E+00  3.19501893E+00  1.45624371E-30  2.74790633E+00  1.37299599E+00
  1.36303632E-30 -1.37177143E-16  1.28241001E+00  3.76253267E-31 -4.98083647E-01
 -1.42892186E+00 -5.90784656E-31 -2.67833170E+00 -1.80447674E+00 -9.16815421E-31
Number of symbols in /Mol/                 I                0
Force Field                                I                0
Atom Types                                 C   N=           5
                                                            
Int Atom Types                             I   N=           5
           0           0           0           0           0
MM charges                                 R   N=           5
  0.00000000E+00  0.00000000E+00  0.00000000E+00  0.00000000E+00  0.00000000E+00
Integer atomic weights                     I   N=           5
           1          16          16          14          16
Real atomic weights                        R   N=           5
  1.00782504E+00  1.59949146E+01  1.59949146E+01  1.40030740E+01  1.59949146E+01
Atom fragment info                         I   N=           5
           0           0           0           0           0
Atom residue num                           I   N=           5
           0           0           0           0           0
Nuclear spins                              I   N=           5
           1           0           0           2           0
Nuclear ZEff                               R   N=           5
 -1.00000000E+00 -5.60000000E+00 -5.60000000E+00 -4.55000000E+00 -5.60000000E+00
Nuclear ZNuc                               R   N=           5
  1.00000000E+00  8.00000000E+00  8.00000000E+00  7.00000000E+00  8.00000000E+00
Nuclear QMom                               R   N=           5
  0.00000000E+00  0.00000000E+00  0.00000000E+00  2.04400000E+00  0.00000000E+00
Nuclear GFac                               R   N=           5
  2.79284600E+00  0.00000000E+00  0.00000000E+00  4.03761000E-01  0.00000000E+00
MicOpt                                     I   N=           5
          -1          -1          -1          -1          -1
Number of residues                         I                0
Number of secondary structures             I                0
SymInf integers                            I   N=          26
           1           2           1           1           1           1
           1          -1           0           0           0           0
           0           0           0           0           0           0
           0           0           0           0           0           0
           0           0
RotTr to input orientation                 R   N=          12
 -9.95043686E-01  1.11861682E-15 -9.94387358E-02  9.94387358E-02 -1.19281381E-15
 -9.95043686E-01 -1.23168450E-15 -1.00000000E+00  1.07566800E-15  2.59775786E+00
  0.00000000E+00  3.47053776E+00
Number of contracted shells                I               65
Number of primitive shells                 I              119
Pure/Cartesian d shells                    I                0
Pure/Cartesian f shells                    I                0
Highest angular momentum                   I                3
Largest degree of contraction              I                7
Shell types                                I   N=          65
           0           0           0           0           1           1
           1          -2          -2           0           0           0
           0           0           1           1           1           1
          -2          -2          -2          -3          -3           0
           0           0           0           0           1           1
           1           1          -2          -2          -2          -3
          -3           0           0           0           0           0
           1           1           1           1          -2          -2
          -2          -3          -3           0           0           0
           0           0           1           1           1           1
          -2          -2          -2          -3          -3
Number of primitives per shell             I   N=          65
           3           1           1           1           1           1
           1           1           1           7           6           1
           1           1           3           1           1           1
           1           1           1           1           1           7
           6           1           1           1           3           1
           1           1           1           1           1           1
           1           7           6           1           1           1
           3           1           1           1           1           1
           1           1           1           7           6           1
           1           1           3           1           1           1
           1           1           1           1           1
Shell to atom map                          I   N=          65
           1           1           1           1           1           1
           1           1           1           2           2           2
           2           2           2           2           2           2
           2           2           2           2           2           3
           3           3           3           3           3           3
           3           3           3           3           3           3
           3           4           4           4           4           4
           4           4           4           4           4           4
           4           4           4           5           5           5
           5           5           5           5           5           5
           5           5           5           5           5
Primitive exponents                        R   N=         119
  3.38700000E+01  5.09500000E+00  1.15900000E+00  3.25800000E-01  1.02700000E-01
  2.52600000E-02  1.40700000E+00  3.88000000E-01  1.02000000E-01  1.05700000E+00
  2.47000000E-01  1.53300000E+04  2.29900000E+03  5.22400000E+02  1.47300000E+02
  4.75500000E+01  1.67600000E+01  6.20700000E+00  5.22400000E+02  1.47300000E+02
  4.75500000E+01  1.67600000E+01  6.20700000E+00  6.88200000E-01  1.75200000E+00
  2.38400000E-01  7.37600000E-02  3.44600000E+01  7.74900000E+00  2.28000000E+00
  7.15600000E-01  2.14000000E-01  5.97400000E-02  2.31400000E+00  6.45000000E-01
  2.14000000E-01  1.42800000E+00  5.00000000E-01  1.53300000E+04  2.29900000E+03
  5.22400000E+02  1.47300000E+02  4.75500000E+01  1.67600000E+01  6.20700000E+00
  5.22400000E+02  1.47300000E+02  4.75500000E+01  1.67600000E+01  6.20700000E+00
  6.88200000E-01  1.75200000E+00  2.38400000E-01  7.37600000E-02  3.44600000E+01
  7.74900000E+00  2.28000000E+00  7.15600000E-01  2.14000000E-01  5.97400000E-02
  2.31400000E+00  6.45000000E-01  2.14000000E-01  1.42800000E+00  5.00000000E-01
  1.14200000E+04  1.71200000E+03  3.89300000E+02  1.10000000E+02  3.55700000E+01
  1.25400000E+01  4.64400000E+00  3.89300000E+02  1.10000000E+02  3.55700000E+01
  1.25400000E+01  4.64400000E+00  5.11800000E-01  1.29300000E+00  1.78700000E-01
  5.76000000E-02  2.66300000E+01  5.94800000E+00  1.74200000E+00  5.55000000E-01
  1.72500000E-01  4.91000000E-02  1.65400000E+00  4.69000000E-01  1.51000000E-01
  1.09300000E+00  3.64000000E-01  1.53300000E+04  2.29900000E+03  5.22400000E+02
  1.47300000E+02  4.75500000E+01  1.67600000E+01  6.20700000E+00  5.22400000E+02
  1.47300000E+02  4.75500000E+01  1.67600000E+01  6.20700000E+00  6.88200000E-01
  1.75200000E+00  2.38400000E-01  7.37600000E-02  3.44600000E+01  7.74900000E+00
  2.28000000E+00  7.15600000E-01  2.14000000E-01  5.97400000E-02  2.31400000E+00
  6.45000000E-01  2.14000000E-01  1.42800000E+00  5.00000000E-01
Contraction coefficients                   R   N=         119
  2.54948632E-02  1.90362766E-01  8.52162022E-01  1.00000000E+00  1.00000000E+00
  1.00000000E+00  1.00000000E+00  1.00000000E+00  1.00000000E+00  1.00000000E+00
  1.00000000E+00  5.19808943E-04  4.02025621E-03  2.07128267E-02  8.10105536E-02
  2.35962985E-01  4.42653446E-01  3.57064423E-01 -4.42115008E-05 -1.22591041E-03
 -1.05517725E-02 -6.74452633E-02 -1.71198607E-01  1.07329856E+00  1.00000000E+00
  1.00000000E+00  1.00000000E+00  4.11634896E-02  2.57762836E-01  8.02419274E-01
  1.00000000E+00  1.00000000E+00  1.00000000E+00  1.00000000E+00  1.00000000E+00
  1.00000000E+00  1.00000000E+00  1.00000000E+00  5.19808943E-04  4.02025621E-03
  2.07128267E-02  8.10105536E-02  2.35962985E-01  4.42653446E-01  3.57064423E-01
 -4.42115008E-05 -1.22591041E-03 -1.05517725E-02 -6.74452633E-02 -1.71198607E-01
  1.07329856E+00  1.00000000E+00  1.00000000E+00  1.00000000E+00  4.11634896E-02
  2.57762836E-01  8.02419274E-01  1.00000000E+00  1.00000000E+00  1.00000000E+00
  1.00000000E+00  1.00000000E+00  1.00000000E+00  1.00000000E+00  1.00000000E+00
  5.34563860E-04  4.13435660E-03  2.12335358E-02  8.25006224E-02  2.38138871E-01
  4.42551547E-01  3.53757422E-01 -4.89867350E-05 -1.19527323E-03 -1.03490714E-02
 -6.48680190E-02 -1.71552477E-01  1.07289568E+00  1.00000000E+00  1.00000000E+00
  1.00000000E+00  3.98072123E-02  2.49002660E-01  8.10479727E-01  1.00000000E+00
  1.00000000E+00  1.00000000E+00  1.00000000E+00  1.00000000E+00  1.00000000E+00
  1.00000000E+00  1.00000000E+00  5.19808943E-04  4.02025621E-03  2.07128267E-02
  8.10105536E-02  2.35962985E-01  4.42653446E-01  3.57064423E-01 -4.42115008E-05
 -1.22591041E-03 -1.05517725E-02 -6.74452633E-02 -1.71198607E-01  1.07329856E+00
  1.00000000E+00  1.00000000E+00  1.00000000E+00  4.11634896E-02  2.57762836E-01
  8.02419274E-01  1.00000000E+00  1.00000000E+00  1.00000000E+00  1.00000000E+00
  1.00000000E+00  1.00000000E+00  1.00000000E+00  1.00000000E+00
Coordinates of each shell                  R   N=         195
  2.92998844E+00  3.19501893E+00  6.31140612E-31  2.92998844E+00  3.19501893E+00
  6.31140612E-31  2.92998844E+00  3.19501893E+00  6.31140612E-31  2.92998844E+00
  3.19501893E+00  6.31140612E-31  2.92998844E+00  3.19501893E+00  6.31140612E-31
  2.92998844E+00  3.19501893E+00  6.31140612E-31  2.92998844E+00  3.19501893E+00
  6.31140612E-31  2.92998844E+00  3.19501893E+00  6.31140612E-31  2.92998844E+00
  3.19501893E+00  6.31140612E-31  2.74790633E+00  1.37299599E+00  4.32625683E-31
  2.74790633E+00  1.37299599E+00  4.32625683E-31  2.74790633E+00  1.37299599E+00
  4.32625683E-31  2.74790633E+00  1.37299599E+00  4.32625683E-31  2.74790633E+00
  1.37299599E+00  4.32625683E-31  2.74790633E+00  1.37299599E+00  4.32625683E-31
  2.74790633E+00  1.37299599E+00  4.32625683E-31  2.74790633E+00  1.37299599E+00
  4.32625683E-31  2.74790633E+00  1.37299599E+00  4.32625683E-31  2.74790633E+00
  1.37299599E+00  4.32625683E-31  2.74790633E+00  1.37299599E+00  4.32625683E-31
  2.74790633E+00  1.37299599E+00  4.32625683E-31  2.74790633E+00  1.37299599E+00
  4.32625683E-31  2.74790633E+00  1.37299599E+00  4.32625683E-31  1.68920023E-18
  1.28241001E+00  1.25828638E-31  1.68920023E-18  1.28241001E+00  1.25828638E-31
  1.68920023E-18  1.28241001E+00  1.25828638E-31  1.68920023E-18  1.28241001E+00
  1.25828638E-31  1.68920023E-18  1.28241001E+00  1.25828638E-31  1.68920023E-18
  1.28241001E+00  1.25828638E-31  1.68920023E-18  1.28241001E+00  1.25828638E-31
  1.68920023E-18  1.28241001E+00  1.25828638E-31  1.68920023E-18  1.28241001E+00
  1.25828638E-31  1.68920023E-18  1.28241001E+00  1.25828638E-31  1.68920023E-18
  1.28241001E+00  1.25828638E-31  1.68920023E-18  1.28241001E+00  1.25828638E-31
  1.68920023E-18  1.28241001E+00  1.25828638E-31  1.68920023E-18  1.28241001E+00
  1.25828638E-31 -4.98083647E-01 -1.42892186E+00 -1.94202974E-31 -4.98083647E-01
 -1.42892186E+00 -1.94202974E-31 -4.98083647E-01 -1.42892186E+00 -1.94202974E-31
 -4.98083647E-01 -1.42892186E+00 -1.94202974E-31 -4.98083647E-01 -1.42892186E+00
 -1.94202974E-31 -4.98083647E-01 -1.42892186E+00 -1.94202974E-31 -4.98083647E-01
 -1.42892186E+00 -1.94202974E-31 -4.98083647E-01 -1.42892186E+00 -1.94202974E-31
 -4.98083647E-01 -1.42892186E+00 -1.94202974E-31 -4.98083647E-01 -1.42892186E+00
 -1.94202974E-31 -4.98083647E-01 -1.42892186E+00 -1.94202974E-31 -4.98083647E-01
 -1.42892186E+00 -1.94202974E-31 -4.98083647E-01 -1.42892186E+00 -1.94202974E-31
 -4.98083647E-01 -1.42892186E+00 -1.94202974E-31 -2.67833170E+00 -1.80447674E+00
 -4.67419295E-31 -2.67833170E+00 -1.80447674E+00 -4.67419295E-31 -2.67833170E+00
 -1.80447674E+00 -4.67419295E-31 -2.67833170E+00 -1.80447674E+00 -4.67419295E-31
 -2.67833170E+00 -1.80447674E+00 -4.67419295E-31 -2.67833170E+00 -1.80447674E+00
 -4.67419295E-31 -2.67833170E+00 -1.80447674E+00 -4.67419295E-31 -2.67833170E+00
 -1.80447674E+00 -4.67419295E-31 -2.67833170E+00 -1.80447674E+00 -4.67419295E-31
 -2.67833170E+00 -1.80447674E+00 -4.67419295E-31 -2.67833170E+00 -1.80447674E+00
 -4.67419295E-31 -2.67833170E+00 -1.80447674E+00 -4.67419295E-31 -2.67833170E+00
 -1.80447674E+00 -4.67419295E-31 -2.67833170E+00 -1.80447674E+00 -4.67419295E-31
Num ILSW                                   I              100
ILSW                                       I   N=         100
           0           0           0           0           2           0
           0           0           0           0           0          -1
           5           0           0           0           0           0
           0           0           0           0           0           0
           1           0           0           0           0           0
           0           0      100000           0          -1           0
           0           0           0           0           0           0
           0           0           0           1           0           0
           0 -2000000000           1           0           0           0
           0           0           4          52           0           0
           0           0           0           0           0           0
           0           0           0           5           0           1
           0           0           0           0           0           0
           0           0           0           0           0           0
           0           0           0           0           0           0
           0           0           0           0           0           0
           0           0           0           0
Num RLSW                                   I               52
RLSW                                       R   N=          52
  1.00000000E+00  1.00000000E+00  1.00000000E+00  1.00000000E+00  1.00000000E+00
  0.00000000E+00  0.00000000E+00  1.00000000E+00  0.00000000E+00  0.00000000E+00
  0.00000000E+00  0.00000000E+00  1.00000000E+00  0.00000000E+00  0.00000000E+00
  0.00000000E+00  0.00000000E+00  1.00000000E+00  0.00000000E+00  0.00000000E+00
  0.00000000E+00  0.00000000E+00  1.00000000E+00  0.00000000E+00  0.00000000E+00
  0.00000000E+00  0.00000000E+00  1.00000000E+00  0.00000000E+00  0.00000000E+00
  0.00000000E+00  0.00000000E+00  1.00000000E+00  0.00000000E+00  0.00000000E+00
  0.00000000E+00  0.00000000E+00  0.00000000E+00  1.00000000E+00  1.00000000E+00
  0.00000000E+00  1.00000000E+00  0.00000000E+00  0.00000000E+00  0.00000000E+00
  0.00000000E+00  0.00000000E+00  0.00000000E+00  0.00000000E+00  0.00000000E+00
  0.00000000E+00  0.00000000E+00
MxBond                                     I                2
NBond                                      I   N=           5
           1           2           2           2           1
IBond                                      I   N=          10
           2           0           1           3           2           4
           3           5           4           0
RBond                                      R   N=          10
  1.00000000E+00  0.00000000E+00  1.00000000E+00  1.00000000E+00  1.00000000E+00
  1.00000000E+00  1.00000000E+00  2.00000000E+00  2.00000000E+00  0.00000000E+00
Virial Ratio                               R      2.002379424608729E+00
SCF Energy                                 R     -2.795015130041272E+02
MP2 Energy                                 R     -2.804466436156646E+02
Total Energy                               R     -2.804466436156646E+02
Post-SCF wavefunction norm                 R      1.120274780653144E+00
RMS Density                                R      3.844561315202103E-09
Job Status                                 I                1
Nuclear derivative order                   I                0
External E-field                           R   N=          35
  0.00000000E+00  0.00000000E+00  0.00000000E+00  0.00000000E+00  0.00000000E+00
  0.00000000E+00  0.00000000E+00  0.00000000E+00  0.00000000E+00  0.00000000E+00
  0.00000000E+00  0.00000000E+00  0.00000000E+00  0.00000000E+00  0.00000000E+00
  0.00000000E+00  0.00000000E+00  0.00000000E+00  0.00000000E+00  0.00000000E+00
  0.00000000E+00  0.00000000E+00  0.00000000E+00  0.00000000E+00  0.00000000E+00
  0.00000000E+00  0.00000000E+00  0.00000000E+00  0.00000000E+00  0.00000000E+00
  0.00000000E+00  0.00000000E+00  0.00000000E+00  0.00000000E+00  0.00000000E+00
IOpCl                                      I                0
IROHF                                      I                0
Alpha Orbital Energies                     R   N=         207
 -2.06913493E+01 -2.06846831E+01 -2.06606772E+01 -1.58124409E+01 -1.62312144E+00
 -1.49655243E+00 -1.25529622E+00 -9.47783554E-01 -7.73371778E-01 -7.58812876E-01
 -7.11587598E-01 -6.79656703E-01 -6.20885645E-01 -5.90379373E-01 -4.85742342E-01
 -4.71122512E-01  2.95423722E-02  7.21417172E-02  8.57247916E-02  1.01731194E-01
  1.34015603E-01  1.34020614E-01  1.44036192E-01  1.54605160E-01  1.78140825E-01
  1.94217617E-01  1.99766301E-01  2.06143029E-01  2.20814792E-01  2.34330175E-01
  2.37232104E-01  2.65262360E-01  2.94265298E-01  3.04234550E-01  3.10656192E-01
  3.43068543E-01  3.49899951E-01  3.86833199E-01  4.21529528E-01  4.31272212E-01
  5.26303060E-01  5.30122948E-01  5.58962002E-01  5.82759549E-01  6.26602760E-01
  6.35882457E-01  6.74152847E-01  6.84256229E-01  7.08072590E-01  7.10775500E-01
  7.24489155E-01  7.29674194E-01  7.45782379E-01  7.89740357E-01  7.91500302E-01
  8.09732341E-01  8.12294207E-01  8.30127682E-01  8.68279930E-01  9.07542697E-01
  9.21670708E-01  9.23971627E-01  9.56739471E-01  9.79578218E-01  9.84389148E-01
  1.01603202E+00  1.05212838E+00  1.05466698E+00  1.08177873E+00  1.11815302E+00
  1.14052575E+00  1.18886230E+00  1.22303337E+00  1.23213670E+00  1.33830740E+00
  1.34895675E+00  1.38431348E+00  1.45177800E+00  1.48799840E+00  1.51011151E+00
  1.53878234E+00  1.56580897E+00  1.58000750E+00  1.61394093E+00  1.66362389E+00
  1.66813063E+00  1.70432019E+00  1.79350571E+00  1.83276768E+00  1.83409720E+00
  1.87632599E+00  1.91179561E+00  1.95566985E+00  1.99096059E+00  2.00874915E+00
  2.07487363E+00  2.11927449E+00  2.13328580E+00  2.14870584E+00  2.22302458E+00
  2.26171984E+00  2.26380548E+00  2.28980151E+00  2.31419248E+00  2.34105930E+00
  2.38603652E+00  2.42229335E+00  2.42877794E+00  2.45645773E+00  2.46617966E+00
  2.47586894E+00  2.50199449E+00  2.58978851E+00  2.59466724E+00  2.61761238E+00
  2.62666398E+00  2.63490097E+00  2.66477034E+00  2.76110959E+00  2.83208662E+00
  2.86178900E+00  2.87715257E+00  2.89449176E+00  2.91079485E+00  2.96318508E+00
  3.02325782E+00  3.07189598E+00  3.11736629E+00  3.20475839E+00  3.22952782E+00
  3.31447709E+00  3.34527440E+00  3.50907923E+00  3.64801513E+00  3.83851082E+00
  3.84478553E+00  4.14791463E+00  4.15900494E+00  4.18299977E+00  4.25730913E+00
  4.35468789E+00  4.39295788E+00  4.46330282E+00  4.51824232E+00  4.66663246E+00
  4.70939326E+00  4.80761003E+00  4.82055269E+00  4.82723656E+00  4.89505349E+00
  5.02190070E+00  5.07840259E+00  5.10002428E+00  5.14264807E+00  5.18379043E+00
  5.24091188E+00  5.27013834E+00  5.31136024E+00  5.32864242E+00  5.35806192E+00
  5.60921702E+00  5.67359298E+00  5.75659142E+00  5.82915580E+00  5.95795529E+00
  6.16770541E+00  6.30697087E+00  6.33979827E+00  6.39387597E+00  6.49138317E+00
  6.50235800E+00  6.61252810E+00  6.66769733E+00  6.69483760E+00  6.75704418E+00
  6.76183399E+00  6.82751180E+00  6.90248268E+00  7.01237078E+00  7.05488894E+00
  7.05689182E+00  7.08844636E+00  7.12573863E+00  7.14761663E+00  7.18078120E+00
  7.22431197E+00  7.24094870E+00  7.30693631E+00  7.32480487E+00  7.34798815E+00
  7.40005769E+00  7.43233071E+00  7.48603892E+00  7.60663357E+00  7.61681636E+00
  7.62860786E+00  7.66196497E+00  7.78202190E+00  7.89288012E+00  8.09189203E+00
  8.31413920E+00  8.40915765E+00  8.54510095E+00  1.33807514E+01  1.44066722E+01
  1.51553833E+01  1.61504104E+01
Alpha MO coefficients                      R   N=       42849
  9.17011208E-05 -6.54514698E-04 -7.26455944E-04 -5.17370868E-06 -2.11896943E-05
 -2.65206917E-05  0.00000000E+00 -4.37042162E-05  6.46656491E-05  0.00000000E+00
  8.70643521E-05  3.55094465E-05  0.00000000E+00  3.19342025E-05  0.00000000E+00
  0.00000000E+00 -4.91081460E-05  2.13686922E-05 -6.28972791E-06  0.00000000E+00
  0.00000000E+00 -1.36742042E-04  1.17518711E-04  4.61617684E-03 -2.82738120E-04
  1.64231727E-05  1.57646127E-03  1.82287370E-03  1.05790706E-04  7.27305295E-06
  0.00000000E+00 -6.15763806E-04 -3.38113867E-05  0.00000000E+00 -1.10251665E-03
  8.12257173E-04  0.00000000E+00 -4.02694313E-04  6.51778231E-05  0.00000000E+00
  2.87422156E-05  0.00000000E+00  0.00000000E+00 -5.38581465E-05  5.80966162E-06
 -3.77944025E-04  0.00000000E+00  0.00000000E+00  7.37502559E-04 -3.30085607E-05
 -4.47332758E-04  0.00000000E+00  0.00000000E+00  2.37943841E-04 -2.18731541E-05
  0.00000000E+00  7.98715558E-05  1.25863818E-05  0.00000000E+00  0.00000000E+00
 -1.09555519E-04 -3.13431525E-06  0.00000000E+00  2.53845772E-04 -2.82520147E-05
  0.00000000E+00  0.00000000E+00 -3.52115981E-04  5.11037141E-05  9.76911318E-01
 -9.21566261E-03  4.33182667E-02  2.04956256E-03 -9.32601127E-04  1.48782983E-03
 -1.36669450E-03  0.00000000E+00 -1.42903317E-03  1.39608464E-03  0.00000000E+00
  7.85951145E-05 -1.17744755E-03  0.00000000E+00 -1.34559987E-04 -1.01505133E-05
  0.00000000E+00  4.58090771E-05  0.00000000E+00  0.00000000E+00 -3.63722523E-05
  2.07013653E-05  7.45931534E-04  0.00000000E+00  0.00000000E+00 -2.28840622E-04
 -3.88670176E-04 -3.53526899E-04  0.00000000E+00  0.00000000E+00 -3.22885163E-04
 -3.88290208E-04  0.00000000E+00  4.76343652E-05 -4.93563421E-05  0.00000000E+00
  0.00000000E+00 -3.85794884E-05 -1.65894299E-05  0.00000000E+00  2.19271702E-05
  2.15743112E-05  0.00000000E+00  0.00000000E+00 -3.07101885E-04 -1.37947974E-04
  3.92473826E-05  4.63975358E-05 -2.66029939E-04 -6.83213745E-04 -1.21502894E-04
 -2.77319417E-05 -9.83333457E-05  0.00000000E+00  2.68147122E-04  7.16618137E-04
  0.00000000E+00 -8.60175475E-04 -4.98298639E-04  0.00000000E+00 -1.26177911E-04
 -2.36273828E-05  0.00000000E+00 -1.79854031E-05  0.00000000E+00  0.00000000E+00
 -2.92844141E-05  1.38758818E-05 -3.30428191E-04  0.00000000E+00  0.00000000E+00
 -8.32559119E-04  1.32109311E-04 -3.65793124E-05  0.00000000E+00  0.00000000E+00
  1.02525558E-04 -1.10372773E-04  0.00000000E+00 -2.10202745E-05 -1.20506385E-04
  0.00000000E+00  0.00000000E+00 -6.29952076E-05 -1.38395231E-04  0.00000000E+00
  1.34132055E-06 -1.51984868E-04  0.00000000E+00  0.00000000E+00  4.43775624E-05
 -4.23580257E-04 -2.50675769E-03  1.13405209E-04 -1.23298178E-04 -2.64556855E-04
  1.18282098E-04 -8.20467296E-06 -2.98945899E-05  0.00000000E+00  6.47106784E-05
  1.73599445E-04  0.00000000E+00  2.21527539E-04  2.11467977E-04  0.00000000E+00
  1.22798686E-04  2.24813188E-05  0.00000000E+00 -2.70984831E-06  0.00000000E+00
  0.00000000E+00 -1.74371801E-05  4.43519053E-07 -4.44110813E-06  0.00000000E+00
  0.00000000E+00  7.10266395E-05  9.62851566E-05 -1.04251834E-04  0.00000000E+00
  0.00000000E+00  1.55967996E-04  1.65511227E-04  0.00000000E+00  1.52090985E-05
 -4.49419063E-06  0.00000000E+00  0.00000000E+00 -5.79700513E-06 -1.17457693E-05
  0.00000000E+00 -3.62948838E-05  4.65525353E-05  0.00000000E+00  0.00000000E+00
  7.73444555E-05  9.09629074E-05  3.86851491E-05 -1.00046810E-03 -4.95853516E-04
 -1.10278940E-05 -2.38247281E-05  1.70939272E-05  0.00000000E+00  4.24144884E-06
  2.83416675E-04  0.00000000E+00 -3.87283867E-05  1.36122724E-04  0.00000000E+00
  2.64522722E-05  0.00000000E+00  0.00000000E+00  1.37323747E-05  1.10164787E-05
 -2.51095609E-05  0.00000000E+00  0.00000000E+00  1.05345075E-05  3.43080572E-05
  1.11484817E-04  8.41613597E-05 -2.85744990E-05  7.75567344E-04  6.46331884E-04
  1.00996584E-05  2.45211876E-06  0.00000000E+00 -7.11210646E-05  1.92363419E-05
  0.00000000E+00  3.28208485E-04  8.89195980E-04  0.00000000E+00  5.85474371E-06
  7.86347403E-05  0.00000000E+00 -2.21502803E-06  0.00000000E+00  0.00000000E+00
 -4.33868060E-08 -7.10992795E-06 -3.70924682E-05  0.00000000E+00  0.00000000E+00
 -2.30952561E-05  8.98768290E-05 -2.27118239E-05  0.00000000E+00  0.00000000E+00
 -2.63594345E-04 -1.53248335E-04  0.00000000E+00  9.46173822E-06  5.85342254E-06
  0.00000000E+00  0.00000000E+00  2.96302321E-06 -1.91545243E-05  0.00000000E+00
 -4.19114012E-05 -3.73741516E-05  0.00000000E+00  0.00000000E+00 -7.80575218E-05
  1.61914598E-05  2.54456162E-03  3.76939434E-05  8.38221598E-05 -4.94977870E-05
 -4.40492543E-04  8.98152586E-06  1.85849867E-05  0.00000000E+00 -6.77542277E-05
 -6.64922683E-05  0.00000000E+00  2.00060319E-04 -1.90093743E-04  0.00000000E+00
 -1.79260259E-04 -6.03199659E-05  0.00000000E+00 -8.29489499E-06  0.00000000E+00
  0.00000000E+00  2.24837389E-05  1.78078172E-05 -1.30040952E-06  0.00000000E+00
  0.00000000E+00 -1.20647328E-04 -3.25776570E-05 -1.10119579E-05  0.00000000E+00
  0.00000000E+00 -2.22226949E-04 -1.75580666E-04  0.00000000E+00  4.91586787E-06
  1.91469835E-06  0.00000000E+00  0.00000000E+00  4.08861798E-06 -1.54468876E-05
  0.00000000E+00 -4.78366119E-05  8.13113285E-07  0.00000000E+00  0.00000000E+00
 -7.31799318E-05  1.94328284E-04  2.59351296E-04  1.47164314E-03 -7.55832413E-05
 -1.59444444E-03  3.81595125E-04 -1.43564980E-04 -3.53142198E-07  0.00000000E+00
 -2.09349370E-03 -4.44775128E-04  0.00000000E+00  1.07589649E-03  7.83512736E-04
  0.00000000E+00 -1.75960610E-04  4.52378815E-05  0.00000000E+00 -1.24189032E-04
  0.00000000E+00  0.00000000E+00  2.38915069E-04  1.01641622E-04 -4.37428439E-04
  0.00000000E+00  0.00000000E+00  9.11473981E-04 -4.01419251E-05  1.76175225E-05
  0.00000000E+00  0.00000000E+00 -3.37093075E-04 -1.27181764E-04  0.00000000E+00
 -3.60725267E-07  1.60797228E-05  0.00000000E+00  0.00000000E+00  1.80716938E-05
  1.54102656E-05  0.00000000E+00  1.61695573E-04 -6.90406001E-05  0.00000000E+00
  0.00000000E+00 -2.47351813E-04  3.79032100E-05  9.76651308E-01 -9.84663933E-03
  4.35654625E-02  4.52985668E-03 -4.39893046E-04  2.13804985E-03  5.30762295E-04
  0.00000000E+00 -2.37354536E-03 -6.56379126E-04  0.00000000E+00  1.14379002E-03
 -2.72233276E-06  0.00000000E+00  6.11173912E-06 -3.91642221E-05  0.00000000E+00
 -2.31500593E-04  0.00000000E+00  0.00000000E+00  1.02483277E-04  3.46853557E-05
  3.92032558E-04  0.00000000E+00  0.00000000E+00 -8.18479140E-04 -4.57571450E-04
 -1.48573002E-04  0.00000000E+00  0.00000000E+00  2.61030624E-04  1.48051041E-05
  0.00000000E+00  5.19452343E-05  1.80539407E-05  0.00000000E+00  0.00000000E+00
 -2.21527987E-05 -1.49682657E-05  0.00000000E+00  1.38776708E-04  1.45669023E-05
  0.00000000E+00  0.00000000E+00 -1.79745831E-04 -1.53032276E-04  4.74635583E-04
  2.06764805E-03  1.21992960E-04  1.50650700E-05 -4.14989177E-05 -2.46709602E-04
  0.00000000E+00  1.08958010E-04 -1.27777175E-03  0.00000000E+00  3.04815272E-04
 -3.41695441E-04  0.00000000E+00 -2.78447662E-06  0.00000000E+00  0.00000000E+00
  7.58012494E-05  1.53541132E-05 -1.60543122E-04  0.00000000E+00  0.00000000E+00
 -5.37079353E-04 -2.06954606E-05  9.76830625E-01 -9.16312097E-03  4.34488302E-02
  1.58178131E-04 -1.12574056E-03 -1.56276556E-03  1.44469266E-03  0.00000000E+00
  1.57456966E-03 -1.28763559E-03  0.00000000E+00 -5.73679852E-04 -8.71776375E-04
  0.00000000E+00  5.45254277E-05 -2.63680444E-05  0.00000000E+00  2.97571051E-05
  0.00000000E+00  0.00000000E+00 -1.18338792E-04 -2.90260418E-06  7.58124434E-04
  0.00000000E+00  0.00000000E+00 -2.03116174E-04 -2.35444283E-04 -2.65632797E-04
  0.00000000E+00  0.00000000E+00  1.71630152E-04  1.27906557E-04  0.00000000E+00
 -6.41469465E-05  1.35468821E-06  0.00000000E+00  0.00000000E+00  1.89859159E-05
  9.65019713E-06  0.00000000E+00 -1.11606867E-06  1.22932112E-04  0.00000000E+00
  0.00000000E+00  2.57687805E-04  9.11155006E-05 -4.70893941E-03 -2.12409632E-04