title                                                                   
SP        RMP2-FC                                                     Aug-CC-pVTZ         
Number of atoms                            I                5
Info1-9                                    I   N=           9
          33          24           0           0           0         110
           1           2           1
Full Title                                 C   N=           1
title       
Route                                      C   N=           4
#p SP mp2/aug-cc-pvtz density=current           
Charge                                     I                0
Multiplicity                               I                1
Number of electrons                        I               32
Number of alpha electrons                  I               16
Number of beta electrons                   I               16
Number of basis functions                  I              207
Number of independent functions            I              207
Number of point charges in /Mol/           I                0
Number of translation vectors              I                0
Atomic numbers                             I   N=           5
           1           8           8           7           8
Nuclear charges                            R   N=           5
  1.00000000E+00  8.00000000E+00  8.00000000E+00  7.00000000E+00  8.00000000E+00
Current cartesian coordinates              R   N=          15
  4.23929947E+00  8.09719001E-01  2.31136086E-01  3.02190608E+00 -5.34779245E-01
 -2.02585717E-02  7.56371867E-01  1.02294465E+00 -2.70407630E-02 -1.25338922E+00
 -8.63545494E-01  1.06839899E-02 -3.21147482E+00  1.66222026E-01  9.05883296E-03
Number of symbols in /Mol/                 I                0
Force Field                                I                0
Atom Types                                 C   N=           5
                                                            
Int Atom Types                             I   N=           5
           0           0           0           0           0
MM charges                                 R   N=           5
  0.00000000E+00  0.00000000E+00  0.00000000E+00  0.00000000E+00  0.00000000E+00
Integer atomic weights                     I   N=           5
           1          16          16          14          16
Real atomic weights                        R   N=           5
  1.00782504E+00  1.59949146E+01  1.59949146E+01  1.40030740E+01  1.59949146E+01
Atom fragment info                         I   N=           5
           0           0           0           0           0
Atom residue num                           I   N=           5
           0           0           0           0           0
Nuclear spins                              I   N=           5
           1           0           0           2           0
Nuclear ZEff                               R   N=           5
 -1.00000000E+00 -5.60000000E+00 -5.60000000E+00 -4.55000000E+00 -5.60000000E+00
Nuclear ZNuc                               R   N=           5
  1.00000000E+00  8.00000000E+00  8.00000000E+00  7.00000000E+00  8.00000000E+00
Nuclear QMom                               R   N=           5
  0.00000000E+00  0.00000000E+00  0.00000000E+00  2.04400000E+00  0.00000000E+00
Nuclear GFac                               R   N=           5
  2.79284600E+00  0.00000000E+00  0.00000000E+00  4.03761000E-01  0.00000000E+00
MicOpt                                     I   N=           5
          -1          -1          -1          -1          -1
Number of residues                         I                0
Number of secondary structures             I                0
SymInf integers                            I   N=          26
           1           1           1           1           1           0
           0           0           0           0           0           0
           0           0           0           0           0           0
           0           0           0           0           0           0
           0           0
RotTr to input orientation                 R   N=          12
 -7.42654190E-01  8.03009402E-02 -6.64843225E-01  6.69488278E-01  1.12476554E-01
 -7.34257768E-01  1.58176858E-02 -9.90404354E-01 -1.37291722E-01  2.60258009E+00
 -2.02575951E-01  3.44474507E+00
Number of contracted shells                I               65
Number of primitive shells                 I              119
Pure/Cartesian d shells                    I                0
Pure/Cartesian f shells                    I                0
Highest angular momentum                   I                3
Largest degree of contraction              I                7
Shell types                                I   N=          65
           0           0           0           0           1           1
           1          -2          -2           0           0           0
           0           0           1           1           1           1
          -2          -2          -2          -3          -3           0
           0           0           0           0           1           1
           1           1          -2          -2          -2          -3
          -3           0           0           0           0           0
           1           1           1           1          -2          -2
          -2          -3          -3           0           0           0
           0           0           1           1           1           1
          -2          -2          -2          -3          -3
Number of primitives per shell             I   N=          65
           3           1           1           1           1           1
           1           1           1           7           6           1
           1           1           3           1           1           1
           1           1           1           1           1           7
           6           1           1           1           3           1
           1           1           1           1           1           1
           1           7           6           1           1           1
           3           1           1           1           1           1
           1           1           1           7           6           1
           1           1           3           1           1           1
           1           1           1           1           1
Shell to atom map                          I   N=          65
           1           1           1           1           1           1
           1           1           1           2           2           2
           2           2           2           2           2           2
           2           2           2           2           2           3
           3           3           3           3           3           3
           3           3           3           3           3           3
           3           4           4           4           4           4
           4           4           4           4           4           4
           4           4           4           5           5           5
           5           5           5           5           5           5
           5           5           5           5           5
Primitive exponents                        R   N=         119
  3.38700000E+01  5.09500000E+00  1.15900000E+00  3.25800000E-01  1.02700000E-01
  2.52600000E-02  1.40700000E+00  3.88000000E-01  1.02000000E-01  1.05700000E+00
  2.47000000E-01  1.53300000E+04  2.29900000E+03  5.22400000E+02  1.47300000E+02
  4.75500000E+01  1.67600000E+01  6.20700000E+00  5.22400000E+02  1.47300000E+02
  4.75500000E+01  1.67600000E+01  6.20700000E+00  6.88200000E-01  1.75200000E+00
  2.38400000E-01  7.37600000E-02  3.44600000E+01  7.74900000E+00  2.28000000E+00
  7.15600000E-01  2.14000000E-01  5.97400000E-02  2.31400000E+00  6.45000000E-01
  2.14000000E-01  1.42800000E+00  5.00000000E-01  1.53300000E+04  2.29900000E+03
  5.22400000E+02  1.47300000E+02  4.75500000E+01  1.67600000E+01  6.20700000E+00
  5.22400000E+02  1.47300000E+02  4.75500000E+01  1.67600000E+01  6.20700000E+00
  6.88200000E-01  1.75200000E+00  2.38400000E-01  7.37600000E-02  3.44600000E+01
  7.74900000E+00  2.28000000E+00  7.15600000E-01  2.14000000E-01  5.97400000E-02
  2.31400000E+00  6.45000000E-01  2.14000000E-01  1.42800000E+00  5.00000000E-01
  1.14200000E+04  1.71200000E+03  3.89300000E+02  1.10000000E+02  3.55700000E+01
  1.25400000E+01  4.64400000E+00  3.89300000E+02  1.10000000E+02  3.55700000E+01
  1.25400000E+01  4.64400000E+00  5.11800000E-01  1.29300000E+00  1.78700000E-01
  5.76000000E-02  2.66300000E+01  5.94800000E+00  1.74200000E+00  5.55000000E-01
  1.72500000E-01  4.91000000E-02  1.65400000E+00  4.69000000E-01  1.51000000E-01
  1.09300000E+00  3.64000000E-01  1.53300000E+04  2.29900000E+03  5.22400000E+02
  1.47300000E+02  4.75500000E+01  1.67600000E+01  6.20700000E+00  5.22400000E+02
  1.47300000E+02  4.75500000E+01  1.67600000E+01  6.20700000E+00  6.88200000E-01
  1.75200000E+00  2.38400000E-01  7.37600000E-02  3.44600000E+01  7.74900000E+00
  2.28000000E+00  7.15600000E-01  2.14000000E-01  5.97400000E-02  2.31400000E+00
  6.45000000E-01  2.14000000E-01  1.42800000E+00  5.00000000E-01
Contraction coefficients                   R   N=         119
  2.54948632E-02  1.90362766E-01  8.52162022E-01  1.00000000E+00  1.00000000E+00
  1.00000000E+00  1.00000000E+00  1.00000000E+00  1.00000000E+00  1.00000000E+00
  1.00000000E+00  5.19808943E-04  4.02025621E-03  2.07128267E-02  8.10105536E-02
  2.35962985E-01  4.42653446E-01  3.57064423E-01 -4.42115008E-05 -1.22591041E-03
 -1.05517725E-02 -6.74452633E-02 -1.71198607E-01  1.07329856E+00  1.00000000E+00
  1.00000000E+00  1.00000000E+00  4.11634896E-02  2.57762836E-01  8.02419274E-01
  1.00000000E+00  1.00000000E+00  1.00000000E+00  1.00000000E+00  1.00000000E+00
  1.00000000E+00  1.00000000E+00  1.00000000E+00  5.19808943E-04  4.02025621E-03
  2.07128267E-02  8.10105536E-02  2.35962985E-01  4.42653446E-01  3.57064423E-01
 -4.42115008E-05 -1.22591041E-03 -1.05517725E-02 -6.74452633E-02 -1.71198607E-01
  1.07329856E+00  1.00000000E+00  1.00000000E+00  1.00000000E+00  4.11634896E-02
  2.57762836E-01  8.02419274E-01  1.00000000E+00  1.00000000E+00  1.00000000E+00
  1.00000000E+00  1.00000000E+00  1.00000000E+00  1.00000000E+00  1.00000000E+00
  5.34563860E-04  4.13435660E-03  2.12335358E-02  8.25006224E-02  2.38138871E-01
  4.42551547E-01  3.53757422E-01 -4.89867350E-05 -1.19527323E-03 -1.03490714E-02
 -6.48680190E-02 -1.71552477E-01  1.07289568E+00  1.00000000E+00  1.00000000E+00
  1.00000000E+00  3.98072123E-02  2.49002660E-01  8.10479727E-01  1.00000000E+00
  1.00000000E+00  1.00000000E+00  1.00000000E+00  1.00000000E+00  1.00000000E+00
  1.00000000E+00  1.00000000E+00  5.19808943E-04  4.02025621E-03  2.07128267E-02
  8.10105536E-02  2.35962985E-01  4.42653446E-01  3.57064423E-01 -4.42115008E-05
 -1.22591041E-03 -1.05517725E-02 -6.74452633E-02 -1.71198607E-01  1.07329856E+00
  1.00000000E+00  1.00000000E+00  1.00000000E+00  4.11634896E-02  2.57762836E-01
  8.02419274E-01  1.00000000E+00  1.00000000E+00  1.00000000E+00  1.00000000E+00
  1.00000000E+00  1.00000000E+00  1.00000000E+00  1.00000000E+00
Coordinates of each shell                  R   N=         195
  4.23929947E+00  8.09719001E-01  2.31136086E-01  4.23929947E+00  8.09719001E-01
  2.31136086E-01  4.23929947E+00  8.09719001E-01  2.31136086E-01  4.23929947E+00
  8.09719001E-01  2.31136086E-01  4.23929947E+00  8.09719001E-01  2.31136086E-01
  4.23929947E+00  8.09719001E-01  2.31136086E-01  4.23929947E+00  8.09719001E-01
  2.31136086E-01  4.23929947E+00  8.09719001E-01  2.31136086E-01  4.23929947E+00
  8.09719001E-01  2.31136086E-01  3.02190608E+00 -5.34779245E-01 -2.02585717E-02
  3.02190608E+00 -5.34779245E-01 -2.02585717E-02  3.02190608E+00 -5.34779245E-01
 -2.02585717E-02  3.02190608E+00 -5.34779245E-01 -2.02585717E-02  3.02190608E+00
 -5.34779245E-01 -2.02585717E-02  3.02190608E+00 -5.34779245E-01 -2.02585717E-02
  3.02190608E+00 -5.34779245E-01 -2.02585717E-02  3.02190608E+00 -5.34779245E-01
 -2.02585717E-02  3.02190608E+00 -5.34779245E-01 -2.02585717E-02  3.02190608E+00
 -5.34779245E-01 -2.02585717E-02  3.02190608E+00 -5.34779245E-01 -2.02585717E-02
  3.02190608E+00 -5.34779245E-01 -2.02585717E-02  3.02190608E+00 -5.34779245E-01
 -2.02585717E-02  3.02190608E+00 -5.34779245E-01 -2.02585717E-02  7.56371867E-01
  1.02294465E+00 -2.70407630E-02  7.56371867E-01  1.02294465E+00 -2.70407630E-02
  7.56371867E-01  1.02294465E+00 -2.70407630E-02  7.56371867E-01  1.02294465E+00
 -2.70407630E-02  7.56371867E-01  1.02294465E+00 -2.70407630E-02  7.56371867E-01
  1.02294465E+00 -2.70407630E-02  7.56371867E-01  1.02294465E+00 -2.70407630E-02
  7.56371867E-01  1.02294465E+00 -2.70407630E-02  7.56371867E-01  1.02294465E+00
 -2.70407630E-02  7.56371867E-01  1.02294465E+00 -2.70407630E-02  7.56371867E-01
  1.02294465E+00 -2.70407630E-02  7.56371867E-01  1.02294465E+00 -2.70407630E-02
  7.56371867E-01  1.02294465E+00 -2.70407630E-02  7.56371867E-01  1.02294465E+00
 -2.70407630E-02 -1.25338922E+00 -8.63545494E-01  1.06839899E-02 -1.25338922E+00
 -8.63545494E-01  1.06839899E-02 -1.25338922E+00 -8.63545494E-01  1.06839899E-02
 -1.25338922E+00 -8.63545494E-01  1.06839899E-02 -1.25338922E+00 -8.63545494E-01
  1.06839899E-02 -1.25338922E+00 -8.63545494E-01  1.06839899E-02 -1.25338922E+00
 -8.63545494E-01  1.06839899E-02 -1.25338922E+00 -8.63545494E-01  1.06839899E-02
 -1.25338922E+00 -8.63545494E-01  1.06839899E-02 -1.25338922E+00 -8.63545494E-01
  1.06839899E-02 -1.25338922E+00 -8.63545494E-01  1.06839899E-02 -1.25338922E+00
 -8.63545494E-01  1.06839899E-02 -1.25338922E+00 -8.63545494E-01  1.06839899E-02
 -1.25338922E+00 -8.63545494E-01  1.06839899E-02 -3.21147482E+00  1.66222026E-01
  9.05883296E-03 -3.21147482E+00  1.66222026E-01  9.05883296E-03 -3.21147482E+00
  1.66222026E-01  9.05883296E-03 -3.21147482E+00  1.66222026E-01  9.05883296E-03
 -3.21147482E+00  1.66222026E-01  9.05883296E-03 -3.21147482E+00  1.66222026E-01
  9.05883296E-03 -3.21147482E+00  1.66222026E-01  9.05883296E-03 -3.21147482E+00
  1.66222026E-01  9.05883296E-03 -3.21147482E+00  1.66222026E-01  9.05883296E-03
 -3.21147482E+00  1.66222026E-01  9.05883296E-03 -3.21147482E+00  1.66222026E-01
  9.05883296E-03 -3.21147482E+00  1.66222026E-01  9.05883296E-03 -3.21147482E+00
  1.66222026E-01  9.05883296E-03 -3.21147482E+00  1.66222026E-01  9.05883296E-03
Num ILSW                                   I              100
ILSW                                       I   N=         100
           0           0           0           0           2           0
           0           0           0           0           0          -1
           5           0           0           0           0           0
           0           0           0           0           0           0
           1           0           0           0           0           0
           0           0      100000           0          -1           0
           0           0           0           0           0           0
           0           0           0           1           0           0
           0 -2000000000           1           0           0           0
           0           0           4          52           0           0
           0           0           0           0           0           0
           0           0           0           5           0           1
           0           0           0           0           0           0
           0           0           0           0           0           0
           0           0           0           0           0           0
           0           0           0           0           0           0
           0           0           0           0
Num RLSW                                   I               52
RLSW                                       R   N=          52
  1.00000000E+00  1.00000000E+00  1.00000000E+00  1.00000000E+00  1.00000000E+00
  0.00000000E+00  0.00000000E+00  1.00000000E+00  0.00000000E+00  0.00000000E+00
  0.00000000E+00  0.00000000E+00  1.00000000E+00  0.00000000E+00  0.00000000E+00
  0.00000000E+00  0.00000000E+00  1.00000000E+00  0.00000000E+00  0.00000000E+00
  0.00000000E+00  0.00000000E+00  1.00000000E+00  0.00000000E+00  0.00000000E+00
  0.00000000E+00  0.00000000E+00  1.00000000E+00  0.00000000E+00  0.00000000E+00
  0.00000000E+00  0.00000000E+00  1.00000000E+00  0.00000000E+00  0.00000000E+00
  0.00000000E+00  0.00000000E+00  0.00000000E+00  1.00000000E+00  1.00000000E+00
  0.00000000E+00  1.00000000E+00  0.00000000E+00  0.00000000E+00  0.00000000E+00
  0.00000000E+00  0.00000000E+00  0.00000000E+00  0.00000000E+00  0.00000000E+00
  0.00000000E+00  0.00000000E+00
MxBond                                     I                2
NBond                                      I   N=           5
           1           2           2           2           1
IBond                                      I   N=          10
           2           0           1           3           2           4
           3           5           4           0
RBond                                      R   N=          10
  1.00000000E+00  0.00000000E+00  1.00000000E+00  1.00000000E+00  1.00000000E+00
  1.00000000E+00  1.00000000E+00  2.00000000E+00  2.00000000E+00  0.00000000E+00
Virial Ratio                               R      2.002353609192526E+00
SCF Energy                                 R     -2.795017543708626E+02
MP2 Energy                                 R     -2.804468249712205E+02
Total Energy                               R     -2.804468249712205E+02
Post-SCF wavefunction norm                 R      1.120226468505605E+00
RMS Density                                R      5.008114084518976E-09
Job Status                                 I                1
Nuclear derivative order                   I                0
External E-field                           R   N=          35
  0.00000000E+00  0.00000000E+00  0.00000000E+00  0.00000000E+00  0.00000000E+00
  0.00000000E+00  0.00000000E+00  0.00000000E+00  0.00000000E+00  0.00000000E+00
  0.00000000E+00  0.00000000E+00  0.00000000E+00  0.00000000E+00  0.00000000E+00
  0.00000000E+00  0.00000000E+00  0.00000000E+00  0.00000000E+00  0.00000000E+00
  0.00000000E+00  0.00000000E+00  0.00000000E+00  0.00000000E+00  0.00000000E+00
  0.00000000E+00  0.00000000E+00  0.00000000E+00  0.00000000E+00  0.00000000E+00
  0.00000000E+00  0.00000000E+00  0.00000000E+00  0.00000000E+00  0.00000000E+00
IOpCl                                      I                0
IROHF                                      I                0
Alpha Orbital Energies                     R   N=         207
 -2.06909743E+01 -2.06842771E+01 -2.06600664E+01 -1.58127611E+01 -1.62402853E+00
 -1.49579316E+00 -1.25442462E+00 -9.48078854E-01 -7.72631330E-01 -7.59344484E-01
 -7.12406667E-01 -6.79045513E-01 -6.20133631E-01 -5.89087673E-01 -4.86213807E-01
 -4.72028751E-01  2.96026621E-02  7.16579048E-02  8.59344739E-02  1.01737849E-01
  1.32851732E-01  1.34782569E-01  1.43975072E-01  1.54475943E-01  1.78175831E-01
  1.94134736E-01  1.99483786E-01  2.06509657E-01  2.20807514E-01  2.35386838E-01
  2.37310074E-01  2.66576670E-01  2.92896783E-01  3.01323110E-01  3.11503692E-01
  3.43471174E-01  3.52230691E-01  3.87410609E-01  4.19042774E-01  4.29936248E-01
  5.27197362E-01  5.30378172E-01  5.58562173E-01  5.81263760E-01  6.25959760E-01
  6.38180860E-01  6.74003900E-01  6.83880193E-01  7.06687490E-01  7.12360125E-01
  7.20646201E-01  7.31679868E-01  7.46639911E-01  7.87207746E-01  7.94123623E-01
  8.10397392E-01  8.13553091E-01  8.32774709E-01  8.67881487E-01  9.08338682E-01
  9.17597409E-01  9.31416692E-01  9.55927530E-01  9.72715220E-01  9.87674131E-01
  1.01581058E+00  1.05453542E+00  1.05652426E+00  1.08315891E+00  1.11545548E+00
  1.13281466E+00  1.19605776E+00  1.21961453E+00  1.23355633E+00  1.33764958E+00
  1.35066112E+00  1.38777892E+00  1.45472807E+00  1.49072942E+00  1.50851584E+00
  1.53745118E+00  1.56714460E+00  1.58036402E+00  1.60712980E+00  1.66515817E+00
  1.66710623E+00  1.70493408E+00  1.79050701E+00  1.83018532E+00  1.83635850E+00
  1.87995442E+00  1.90695803E+00  1.95614227E+00  1.98452453E+00  2.02018485E+00
  2.07764899E+00  2.11746398E+00  2.12894074E+00  2.15375898E+00  2.22241997E+00
  2.25954008E+00  2.27018779E+00  2.28813297E+00  2.31268872E+00  2.34373177E+00
  2.38724595E+00  2.40881977E+00  2.44490931E+00  2.45388248E+00  2.46540139E+00
  2.47619284E+00  2.50481730E+00  2.58956610E+00  2.59792102E+00  2.61935302E+00
  2.62559446E+00  2.63676106E+00  2.66630362E+00  2.75307028E+00  2.82731324E+00
  2.84982098E+00  2.88795564E+00  2.89654953E+00  2.91993688E+00  2.95942253E+00
  3.02199146E+00  3.07348887E+00  3.12048435E+00  3.20460395E+00  3.22835944E+00
  3.31613271E+00  3.34105296E+00  3.51496333E+00  3.64617110E+00  3.83770616E+00
  3.84728525E+00  4.13949733E+00  4.16376678E+00  4.19682345E+00  4.25542173E+00
  4.34410893E+00  4.39382719E+00  4.47112697E+00  4.52222371E+00  4.65519535E+00
  4.71098865E+00  4.80450354E+00  4.82357163E+00  4.82711537E+00  4.89649996E+00
  5.02281588E+00  5.07415237E+00  5.10214804E+00  5.14539259E+00  5.18184456E+00
  5.24710559E+00  5.27174061E+00  5.30563731E+00  5.32991118E+00  5.35306267E+00
  5.60247262E+00  5.67358991E+00  5.76455943E+00  5.83111491E+00  5.95554784E+00
  6.16918551E+00  6.31078973E+00  6.34020032E+00  6.39308770E+00  6.49404331E+00
  6.50521564E+00  6.61887494E+00  6.65943293E+00  6.70407091E+00  6.75030575E+00
  6.76831098E+00  6.83414692E+00  6.89835210E+00  7.01229722E+00  7.05492060E+00
  7.05756372E+00  7.09280229E+00  7.12607437E+00  7.14734683E+00  7.18654773E+00
  7.22487157E+00  7.23958090E+00  7.30524334E+00  7.32309629E+00  7.35333909E+00
  7.39485943E+00  7.42938702E+00  7.48566907E+00  7.60693012E+00  7.61824664E+00
  7.63077326E+00  7.67105295E+00  7.78663433E+00  7.88514854E+00  8.09203918E+00
  8.31289818E+00  8.40311147E+00  8.54234665E+00  1.33872532E+01  1.43976352E+01
  1.51609953E+01  1.61510467E+01
Alpha MO coefficients                      R   N=       42849
  8.93507181E-05 -5.85339160E-04 -7.03266728E-04 -5.01313182E-06 -3.36812183E-05
 -9.13595351E-06 -1.17255079E-05 -1.46668606E-05  6.78145496E-05  2.13227389E-05
  8.02608774E-05 -1.95146023E-05  3.02176112E-05  3.16016401E-05  2.09606767E-06
  1.59835247E-07  6.74393571E-06  5.51781175E-05 -3.80137116E-06  7.81593452E-06
  1.29623760E-05  7.46845007E-05  1.62921767E-04  4.58529888E-03 -2.81209721E-04
  1.49541737E-05  1.52688425E-03  1.81404097E-03  9.00350435E-05 -5.68531262E-05
  2.45968372E-06 -5.19493256E-04  3.34974146E-04 -1.27499907E-05 -4.44919654E-04
  1.26205323E-03  4.44595518E-05 -2.78856855E-04  2.91713685E-04  3.92010155E-06
  2.87739188E-05 -1.48159506E-06 -4.76286505E-07 -1.05375542E-05  5.36364308E-05
 -3.77148699E-04  3.63219305E-06 -7.10345803E-06  1.87848864E-04 -7.20780809E-04
 -4.36611921E-04  4.89562474E-05  2.06600663E-05  6.48765013E-05 -2.51222192E-04
  6.74787434E-06  7.05210441E-05 -3.82801064E-05 -1.68745969E-06 -5.16135300E-06
  3.35542726E-05  1.04680030E-04 -1.67390945E-05  1.93987559E-04 -1.70720082E-04
  1.22916710E-05  1.18314831E-05  1.65746135E-04  3.16199588E-04  9.76911750E-01
 -9.21546838E-03  4.33176447E-02  2.04319118E-03 -9.41105693E-04  3.95676007E-04
 -1.97788489E-03  4.05814820E-05 -3.31976958E-04  1.96636654E-03 -3.63633238E-05
 -6.30626063E-04 -9.78992550E-04  1.57056354E-05 -1.33401971E-04  7.32539373E-05
  6.05883458E-06  4.64943217E-05  1.62201360E-06  9.17704070E-07  9.84691005E-06
  3.97303319E-05  7.46023478E-04  4.18013351E-06  1.32990582E-05 -4.39721677E-04
  1.09918772E-04 -3.54882616E-04  1.83386129E-05 -1.04019698E-06 -4.51751201E-04
  1.87805811E-04  3.50661032E-06  8.74884382E-06 -6.77774540E-05 -1.22764060E-06
 -1.11864775E-06 -1.44102281E-06  4.22111022E-05 -2.30036041E-06  3.36375245E-05
  4.05758088E-06  4.71505714E-06  2.10980535E-07 -3.11211070E-05  3.33801615E-04
  3.87792239E-05  4.40423753E-05 -2.64745163E-04 -6.88038397E-04 -1.19143960E-04
 -7.97779908E-05 -6.22621258E-05  2.14132415E-06  6.40840080E-04  4.09042880E-04
 -1.42513113E-05 -9.84982167E-04  1.13343865E-04  9.00362072E-06 -1.06636899E-04
  5.65038520E-05 -6.87988873E-06 -1.81997800E-05 -1.83152512E-06 -9.77146204E-07
  5.66775526E-06  3.28232743E-05 -3.28109668E-04 -5.38229954E-06 -1.55089977E-05
 -1.18316470E-04  8.28361049E-04 -3.93479766E-05  2.63297017E-05 -2.62511773E-06
 -7.91910043E-05 -1.36576045E-04  4.72901833E-06 -8.80194958E-05 -8.39984404E-05
  2.01852877E-07 -5.70467740E-06 -1.08730079E-04  1.04969344E-04  4.83344197E-06
 -8.61727250E-05 -1.23907274E-04  6.35306435E-06 -4.31872164E-06 -4.11083717E-04
  9.79415869E-05 -2.53193370E-03  1.21737712E-04 -1.21736769E-04 -2.70453142E-04
  1.17954219E-04 -2.28083803E-05 -1.78130656E-05  4.08598176E-07  1.52304571E-04
  9.19420635E-05 -2.18738467E-06  3.06041454E-04  2.87539150E-05  2.08333148E-05
  1.09567833E-04 -6.07263128E-05  5.33398582E-06 -3.34979841E-06 -8.09483537E-07
 -4.01135427E-07 -4.25609985E-06  1.74349498E-05  6.70437606E-07  3.92646537E-06
  2.03320632E-06  1.08548561E-04 -5.06222781E-05 -1.01901317E-04  6.72870988E-06
 -3.40990967E-06  2.06372107E-04 -1.12154484E-04  1.27673169E-07  1.06926461E-05
 -1.22946261E-05  3.04112835E-07 -2.23792255E-07 -9.92581688E-06  8.16473723E-06
 -3.06030714E-06 -5.68112592E-07  5.65772380E-05  2.29102742E-06  1.47337545E-06
  5.76320967E-05 -1.09517076E-04  3.75150325E-05 -9.59702404E-04 -4.73622388E-04
 -1.10121321E-05 -7.60036688E-06  2.52358112E-05 -1.33253642E-06  1.54687920E-04
  2.10539638E-04  4.28778575E-05  4.25908940E-05  1.29226995E-04  2.43079152E-05
  2.43856074E-05  8.02595753E-07 -8.87502407E-06  1.28815437E-05 -7.70333066E-06
 -2.75111554E-05 -3.43445246E-06  2.34937765E-06  3.66059068E-05 -1.66171455E-07
  1.12508657E-04  8.37973155E-05 -2.76844226E-05  7.28567774E-04  6.38348237E-04
  1.00675648E-05 -3.73991454E-06 -1.76708425E-06 -5.22000427E-05  5.29014964E-05
  1.36518673E-05  7.85826295E-04  5.06396546E-04  8.76114429E-05  5.25492782E-05
  6.10743017E-05  5.40698557E-06 -2.41408771E-06 -8.36643026E-07 -8.06271259E-07
 -5.66847773E-06 -1.66267902E-06 -3.26068250E-05  1.19568479E-05  1.19308411E-05
  7.32570753E-05  4.07002003E-05 -1.49677822E-05  3.47399670E-05  3.64243462E-05
 -2.30500445E-04  2.00850558E-04  7.95219978E-07  1.08452124E-05 -6.85063179E-07
  4.46461468E-07 -5.86092285E-07 -1.84003054E-05  3.64262680E-06 -1.07423879E-05
 -5.22308414E-05 -4.34685234E-06  1.96102886E-06  1.02726001E-05  4.43359169E-05
  6.37638367E-05  2.57103853E-03  4.02657934E-05  8.91409946E-05 -6.80175028E-05
 -4.70948944E-04  1.51007443E-05  8.59017581E-06 -5.40993403E-07 -8.21421443E-05
 -8.54148373E-06  2.13040180E-06  7.87565282E-05 -2.86962973E-04 -1.93969162E-05
 -1.88382103E-04  6.16540099E-05 -7.21489111E-06 -8.77489855E-06 -3.94509813E-07
  8.69492431E-08  2.54942622E-05 -1.55629582E-05  4.43640513E-06  6.91547392E-07
 -8.81250859E-07 -7.88170884E-05  9.82941548E-05 -4.77741226E-06 -1.17243551E-05
  4.03346533E-06 -2.59270070E-04  1.52223612E-04 -1.01280375E-07  2.16820209E-06
 -2.38789801E-06 -3.70964315E-07 -6.04996859E-07 -1.32425221E-05  2.98329213E-06
  5.81948849E-07 -3.47706470E-05  3.03343059E-05 -3.70931460E-07  3.68165997E-06
  2.01844170E-04  9.02878393E-06  2.58566235E-04  1.46424110E-03 -7.83606467E-05
 -1.53264309E-03  4.04316985E-04 -1.16194589E-04  8.59842677E-05 -1.12680794E-07
 -1.91885546E-03  9.17310551E-04 -2.42552860E-06  1.28398721E-03 -9.14663930E-08
 -6.39050909E-06 -1.02751474E-04  1.47663895E-04  8.98012242E-07 -1.23372329E-04
  1.04792028E-07  5.19379255E-07  1.61095381E-04 -2.04769024E-04 -4.42465360E-04
  8.17728864E-06 -2.61562944E-06  2.01311152E-04 -8.79315852E-04  1.10547470E-05
  1.47219582E-05 -5.98388315E-06 -2.18190673E-04  2.83684424E-04 -4.21354433E-07
  7.99262928E-06  1.30407228E-05 -2.21237446E-07  3.95617216E-07  6.41661223E-06
 -2.21300978E-05  2.81046966E-06  9.03562551E-05 -1.55451421E-04  2.49594527E-06
  3.22642279E-06  1.19342147E-04  2.13412301E-04  9.76649421E-01 -9.84803970E-03
  4.35679281E-02  4.49305719E-03 -4.47916197E-04  2.01294936E-03 -8.90519136E-04
 -3.59866556E-07 -2.27585865E-03  9.32855217E-04  9.03935101E-07  9.11332205E-04
 -6.82896013E-04  1.46505218E-05 -2.19540674E-05 -3.79543256E-05  3.31104401E-06
 -2.32318069E-04 -1.60445354E-06 -3.92991137E-06  6.05696109E-05 -8.88325767E-05
  3.90587556E-04  6.53994249E-07 -2.64897784E-06 -6.44974576E-04  6.74415703E-04
 -1.54035814E-04  2.72968489E-06 -4.51930660E-06  9.03977693E-05 -2.41379622E-04
 -4.97602670E-07  5.25308905E-05 -1.68924823E-05  6.03478995E-07  8.18035167E-07
 -5.15628894E-06  2.53561921E-05  9.99165379E-07  1.16635525E-04 -7.45238488E-05
 -1.30509185E-07 -1.94916503E-06 -6.96285302E-05  2.25245594E-04  4.72982446E-04
  2.08146273E-03  1.35317144E-04  1.46283695E-05 -1.79244698E-04 -1.71145883E-04
 -3.94976140E-05 -6.64866071E-04 -1.08464404E-03 -1.77292238E-04  3.99955546E-05
 -4.51836978E-04 -2.59250242E-05 -2.49206836E-06 -5.00902465E-06 -2.48375549E-06
  3.77184300E-05 -6.63598634E-05 -1.47040381E-04  7.05690019E-05  8.53779808E-05
 -1.76396126E-04  4.97749231E-04  9.76830405E-01 -9.16315127E-03  4.34491950E-02
  1.51841387E-04 -1.15350677E-03 -4.07419863E-04  2.07635675E-03  2.16162303E-04
  5.08978721E-04 -1.96029752E-03 -1.99762282E-04 -9.77573663E-04 -3.60645291E-04
 -8.49083166E-05  3.49386045E-05 -5.60957957E-05  6.21566169E-07  3.06379775E-05
  3.83593659E-06  7.67033268E-06 -3.72765722E-05  1.11333972E-04  7.41313984E-04
 -9.87512693E-05 -1.00491607E-04 -2.84996175E-04  1.32974889E-04 -2.66154958E-04
 -2.51608522E-05 -1.66120496E-06  1.73927394E-04 -1.31442038E-04  4.48355246E-06
 -5.08285184E-05  3.82271913E-05  5.87374688E-06 -1.46890631E-06  2.72712862E-06
 -2.17815243E-05  2.45841014E-05  6.62418530E-05  9.44103804E-05 -8.25736206E-06
 -3.59527322E-05  1.34692890E-07 -2.69134459E-04 -4.67704363E-03 -2.09190186E-04