title                                                                   
SP        RMP2-FC                                                     Aug-CC-pVTZ         
Number of atoms                            I                5
Info1-9                                    I   N=           9
          33          24           0           0           0         110
           1           2           1
Full Title                                 C   N=           1
title       
Route                                      C   N=           4
#p SP mp2/aug-cc-pvtz density=current           
Charge                                     I                0
Multiplicity                               I                1
Number of electrons                        I               32
Number of alpha electrons                  I               16
Number of beta electrons                   I               16
Number of basis functions                  I              207
Number of independent functions            I              207
Number of point charges in /Mol/           I                0
Number of translation vectors              I                0
Atomic numbers                             I   N=           5
           1           8           8           7           8
Nuclear charges                            R   N=           5
  1.00000000E+00  8.00000000E+00  8.00000000E+00  7.00000000E+00  8.00000000E+00
Current cartesian coordinates              R   N=          15
  2.92546075E+00  3.17032569E+00  2.38479220E-31  2.74777692E+00  1.36681928E+00
  1.42157610E-31 -1.41038159E-16  1.27238921E+00  3.87444901E-32 -4.94290153E-01
 -1.43963680E+00 -2.38475361E-32 -2.68095563E+00 -1.77581700E+00 -9.56687949E-32
Number of symbols in /Mol/                 I                0
Force Field                                I                0
Atom Types                                 C   N=           5
                                                            
Int Atom Types                             I   N=           5
           0           0           0           0           0
MM charges                                 R   N=           5
  0.00000000E+00  0.00000000E+00  0.00000000E+00  0.00000000E+00  0.00000000E+00
Integer atomic weights                     I   N=           5
           1          16          16          14          16
Real atomic weights                        R   N=           5
  1.00782504E+00  1.59949146E+01  1.59949146E+01  1.40030740E+01  1.59949146E+01
Atom fragment info                         I   N=           5
           0           0           0           0           0
Atom residue num                           I   N=           5
           0           0           0           0           0
Nuclear spins                              I   N=           5
           1           0           0           2           0
Nuclear ZEff                               R   N=           5
 -1.00000000E+00 -5.60000000E+00 -5.60000000E+00 -4.55000000E+00 -5.60000000E+00
Nuclear ZNuc                               R   N=           5
  1.00000000E+00  8.00000000E+00  8.00000000E+00  7.00000000E+00  8.00000000E+00
Nuclear QMom                               R   N=           5
  0.00000000E+00  0.00000000E+00  0.00000000E+00  2.04400000E+00  0.00000000E+00
Nuclear GFac                               R   N=           5
  2.79284600E+00  0.00000000E+00  0.00000000E+00  4.03761000E-01  0.00000000E+00
MicOpt                                     I   N=           5
          -1          -1          -1          -1          -1
Number of residues                         I                0
Number of secondary structures             I                0
SymInf integers                            I   N=          26
           1           2           1           1           1           1
           1          -1           0           0           0           0
           0           0           0           0           0           0
           0           0           0           0           0           0
           0           0
RotTr to input orientation                 R   N=          12
 -9.95181822E-01 -9.84661187E-17 -9.80466263E-02  9.80466263E-02 -7.28149799E-17
 -9.95181822E-01  9.08524283E-17 -1.00000000E+00  8.21184152E-17  2.60052562E+00
  0.00000000E+00  3.44188205E+00
Number of contracted shells                I               65
Number of primitive shells                 I              119
Pure/Cartesian d shells                    I                0
Pure/Cartesian f shells                    I                0
Highest angular momentum                   I                3
Largest degree of contraction              I                7
Shell types                                I   N=          65
           0           0           0           0           1           1
           1          -2          -2           0           0           0
           0           0           1           1           1           1
          -2          -2          -2          -3          -3           0
           0           0           0           0           1           1
           1           1          -2          -2          -2          -3
          -3           0           0           0           0           0
           1           1           1           1          -2          -2
          -2          -3          -3           0           0           0
           0           0           1           1           1           1
          -2          -2          -2          -3          -3
Number of primitives per shell             I   N=          65
           3           1           1           1           1           1
           1           1           1           7           6           1
           1           1           3           1           1           1
           1           1           1           1           1           7
           6           1           1           1           3           1
           1           1           1           1           1           1
           1           7           6           1           1           1
           3           1           1           1           1           1
           1           1           1           7           6           1
           1           1           3           1           1           1
           1           1           1           1           1
Shell to atom map                          I   N=          65
           1           1           1           1           1           1
           1           1           1           2           2           2
           2           2           2           2           2           2
           2           2           2           2           2           3
           3           3           3           3           3           3
           3           3           3           3           3           3
           3           4           4           4           4           4
           4           4           4           4           4           4
           4           4           4           5           5           5
           5           5           5           5           5           5
           5           5           5           5           5
Primitive exponents                        R   N=         119
  3.38700000E+01  5.09500000E+00  1.15900000E+00  3.25800000E-01  1.02700000E-01
  2.52600000E-02  1.40700000E+00  3.88000000E-01  1.02000000E-01  1.05700000E+00
  2.47000000E-01  1.53300000E+04  2.29900000E+03  5.22400000E+02  1.47300000E+02
  4.75500000E+01  1.67600000E+01  6.20700000E+00  5.22400000E+02  1.47300000E+02
  4.75500000E+01  1.67600000E+01  6.20700000E+00  6.88200000E-01  1.75200000E+00
  2.38400000E-01  7.37600000E-02  3.44600000E+01  7.74900000E+00  2.28000000E+00
  7.15600000E-01  2.14000000E-01  5.97400000E-02  2.31400000E+00  6.45000000E-01
  2.14000000E-01  1.42800000E+00  5.00000000E-01  1.53300000E+04  2.29900000E+03
  5.22400000E+02  1.47300000E+02  4.75500000E+01  1.67600000E+01  6.20700000E+00
  5.22400000E+02  1.47300000E+02  4.75500000E+01  1.67600000E+01  6.20700000E+00
  6.88200000E-01  1.75200000E+00  2.38400000E-01  7.37600000E-02  3.44600000E+01
  7.74900000E+00  2.28000000E+00  7.15600000E-01  2.14000000E-01  5.97400000E-02
  2.31400000E+00  6.45000000E-01  2.14000000E-01  1.42800000E+00  5.00000000E-01
  1.14200000E+04  1.71200000E+03  3.89300000E+02  1.10000000E+02  3.55700000E+01
  1.25400000E+01  4.64400000E+00  3.89300000E+02  1.10000000E+02  3.55700000E+01
  1.25400000E+01  4.64400000E+00  5.11800000E-01  1.29300000E+00  1.78700000E-01
  5.76000000E-02  2.66300000E+01  5.94800000E+00  1.74200000E+00  5.55000000E-01
  1.72500000E-01  4.91000000E-02  1.65400000E+00  4.69000000E-01  1.51000000E-01
  1.09300000E+00  3.64000000E-01  1.53300000E+04  2.29900000E+03  5.22400000E+02
  1.47300000E+02  4.75500000E+01  1.67600000E+01  6.20700000E+00  5.22400000E+02
  1.47300000E+02  4.75500000E+01  1.67600000E+01  6.20700000E+00  6.88200000E-01
  1.75200000E+00  2.38400000E-01  7.37600000E-02  3.44600000E+01  7.74900000E+00
  2.28000000E+00  7.15600000E-01  2.14000000E-01  5.97400000E-02  2.31400000E+00
  6.45000000E-01  2.14000000E-01  1.42800000E+00  5.00000000E-01
Contraction coefficients                   R   N=         119
  2.54948632E-02  1.90362766E-01  8.52162022E-01  1.00000000E+00  1.00000000E+00
  1.00000000E+00  1.00000000E+00  1.00000000E+00  1.00000000E+00  1.00000000E+00
  1.00000000E+00  5.19808943E-04  4.02025621E-03  2.07128267E-02  8.10105536E-02
  2.35962985E-01  4.42653446E-01  3.57064423E-01 -4.42115008E-05 -1.22591041E-03
 -1.05517725E-02 -6.74452633E-02 -1.71198607E-01  1.07329856E+00  1.00000000E+00
  1.00000000E+00  1.00000000E+00  4.11634896E-02  2.57762836E-01  8.02419274E-01
  1.00000000E+00  1.00000000E+00  1.00000000E+00  1.00000000E+00  1.00000000E+00
  1.00000000E+00  1.00000000E+00  1.00000000E+00  5.19808943E-04  4.02025621E-03
  2.07128267E-02  8.10105536E-02  2.35962985E-01  4.42653446E-01  3.57064423E-01
 -4.42115008E-05 -1.22591041E-03 -1.05517725E-02 -6.74452633E-02 -1.71198607E-01
  1.07329856E+00  1.00000000E+00  1.00000000E+00  1.00000000E+00  4.11634896E-02
  2.57762836E-01  8.02419274E-01  1.00000000E+00  1.00000000E+00  1.00000000E+00
  1.00000000E+00  1.00000000E+00  1.00000000E+00  1.00000000E+00  1.00000000E+00
  5.34563860E-04  4.13435660E-03  2.12335358E-02  8.25006224E-02  2.38138871E-01
  4.42551547E-01  3.53757422E-01 -4.89867350E-05 -1.19527323E-03 -1.03490714E-02
 -6.48680190E-02 -1.71552477E-01  1.07289568E+00  1.00000000E+00  1.00000000E+00
  1.00000000E+00  3.98072123E-02  2.49002660E-01  8.10479727E-01  1.00000000E+00
  1.00000000E+00  1.00000000E+00  1.00000000E+00  1.00000000E+00  1.00000000E+00
  1.00000000E+00  1.00000000E+00  5.19808943E-04  4.02025621E-03  2.07128267E-02
  8.10105536E-02  2.35962985E-01  4.42653446E-01  3.57064423E-01 -4.42115008E-05
 -1.22591041E-03 -1.05517725E-02 -6.74452633E-02 -1.71198607E-01  1.07329856E+00
  1.00000000E+00  1.00000000E+00  1.00000000E+00  4.11634896E-02  2.57762836E-01
  8.02419274E-01  1.00000000E+00  1.00000000E+00  1.00000000E+00  1.00000000E+00
  1.00000000E+00  1.00000000E+00  1.00000000E+00  1.00000000E+00
Coordinates of each shell                  R   N=         195
  2.92546075E+00  3.17032569E+00  7.84835595E-32  2.92546075E+00  3.17032569E+00
  7.84835595E-32  2.92546075E+00  3.17032569E+00  7.84835595E-32  2.92546075E+00
  3.17032569E+00  7.84835595E-32  2.92546075E+00  3.17032569E+00  7.84835595E-32
  2.92546075E+00  3.17032569E+00  7.84835595E-32  2.92546075E+00  3.17032569E+00
  7.84835595E-32  2.92546075E+00  3.17032569E+00  7.84835595E-32  2.92546075E+00
  3.17032569E+00  7.84835595E-32  2.74777692E+00  1.36681928E+00  5.39558780E-32
  2.74777692E+00  1.36681928E+00  5.39558780E-32  2.74777692E+00  1.36681928E+00
  5.39558780E-32  2.74777692E+00  1.36681928E+00  5.39558780E-32  2.74777692E+00
  1.36681928E+00  5.39558780E-32  2.74777692E+00  1.36681928E+00  5.39558780E-32
  2.74777692E+00  1.36681928E+00  5.39558780E-32  2.74777692E+00  1.36681928E+00
  5.39558780E-32  2.74777692E+00  1.36681928E+00  5.39558780E-32  2.74777692E+00
  1.36681928E+00  5.39558780E-32  2.74777692E+00  1.36681928E+00  5.39558780E-32
  2.74777692E+00  1.36681928E+00  5.39558780E-32  2.74777692E+00  1.36681928E+00
  5.39558780E-32  2.74777692E+00  1.36681928E+00  5.39558780E-32 -6.92058627E-18
  1.27238921E+00  1.56078424E-32 -6.92058627E-18  1.27238921E+00  1.56078424E-32
 -6.92058627E-18  1.27238921E+00  1.56078424E-32 -6.92058627E-18  1.27238921E+00
  1.56078424E-32 -6.92058627E-18  1.27238921E+00  1.56078424E-32 -6.92058627E-18
  1.27238921E+00  1.56078424E-32 -6.92058627E-18  1.27238921E+00  1.56078424E-32
 -6.92058627E-18  1.27238921E+00  1.56078424E-32 -6.92058627E-18  1.27238921E+00
  1.56078424E-32 -6.92058627E-18  1.27238921E+00  1.56078424E-32 -6.92058627E-18
  1.27238921E+00  1.56078424E-32 -6.92058627E-18  1.27238921E+00  1.56078424E-32
 -6.92058627E-18  1.27238921E+00  1.56078424E-32 -6.92058627E-18  1.27238921E+00
  1.56078424E-32 -4.94290153E-01 -1.43963680E+00 -2.43493506E-32 -4.94290153E-01
 -1.43963680E+00 -2.43493506E-32 -4.94290153E-01 -1.43963680E+00 -2.43493506E-32
 -4.94290153E-01 -1.43963680E+00 -2.43493506E-32 -4.94290153E-01 -1.43963680E+00
 -2.43493506E-32 -4.94290153E-01 -1.43963680E+00 -2.43493506E-32 -4.94290153E-01
 -1.43963680E+00 -2.43493506E-32 -4.94290153E-01 -1.43963680E+00 -2.43493506E-32
 -4.94290153E-01 -1.43963680E+00 -2.43493506E-32 -4.94290153E-01 -1.43963680E+00
 -2.43493506E-32 -4.94290153E-01 -1.43963680E+00 -2.43493506E-32 -4.94290153E-01
 -1.43963680E+00 -2.43493506E-32 -4.94290153E-01 -1.43963680E+00 -2.43493506E-32
 -4.94290153E-01 -1.43963680E+00 -2.43493506E-32 -2.68095563E+00 -1.77581700E+00
 -5.80684836E-32 -2.68095563E+00 -1.77581700E+00 -5.80684836E-32 -2.68095563E+00
 -1.77581700E+00 -5.80684836E-32 -2.68095563E+00 -1.77581700E+00 -5.80684836E-32
 -2.68095563E+00 -1.77581700E+00 -5.80684836E-32 -2.68095563E+00 -1.77581700E+00
 -5.80684836E-32 -2.68095563E+00 -1.77581700E+00 -5.80684836E-32 -2.68095563E+00
 -1.77581700E+00 -5.80684836E-32 -2.68095563E+00 -1.77581700E+00 -5.80684836E-32
 -2.68095563E+00 -1.77581700E+00 -5.80684836E-32 -2.68095563E+00 -1.77581700E+00
 -5.80684836E-32 -2.68095563E+00 -1.77581700E+00 -5.80684836E-32 -2.68095563E+00
 -1.77581700E+00 -5.80684836E-32 -2.68095563E+00 -1.77581700E+00 -5.80684836E-32
Num ILSW                                   I              100
ILSW                                       I   N=         100
           0           0           0           0           2           0
           0           0           0           0           0          -1
           5           0           0           0           0           0
           0           0           0           0           0           0
           1           0           0           0           0           0
           0           0      100000           0          -1           0
           0           0           0           0           0           0
           0           0           0           1           0           0
           0 -2000000000           1           0           0           0
           0           0           4          52           0           0
           0           0           0           0           0           0
           0           0           0           5           0           1
           0           0           0           0           0           0
           0           0           0           0           0           0
           0           0           0           0           0           0
           0           0           0           0           0           0
           0           0           0           0
Num RLSW                                   I               52
RLSW                                       R   N=          52
  1.00000000E+00  1.00000000E+00  1.00000000E+00  1.00000000E+00  1.00000000E+00
  0.00000000E+00  0.00000000E+00  1.00000000E+00  0.00000000E+00  0.00000000E+00
  0.00000000E+00  0.00000000E+00  1.00000000E+00  0.00000000E+00  0.00000000E+00
  0.00000000E+00  0.00000000E+00  1.00000000E+00  0.00000000E+00  0.00000000E+00
  0.00000000E+00  0.00000000E+00  1.00000000E+00  0.00000000E+00  0.00000000E+00
  0.00000000E+00  0.00000000E+00  1.00000000E+00  0.00000000E+00  0.00000000E+00
  0.00000000E+00  0.00000000E+00  1.00000000E+00  0.00000000E+00  0.00000000E+00
  0.00000000E+00  0.00000000E+00  0.00000000E+00  1.00000000E+00  1.00000000E+00
  0.00000000E+00  1.00000000E+00  0.00000000E+00  0.00000000E+00  0.00000000E+00
  0.00000000E+00  0.00000000E+00  0.00000000E+00  0.00000000E+00  0.00000000E+00
  0.00000000E+00  0.00000000E+00
MxBond                                     I                2
NBond                                      I   N=           5
           1           2           2           2           1
IBond                                      I   N=          10
           2           0           1           3           2           4
           3           5           4           0
RBond                                      R   N=          10
  1.00000000E+00  0.00000000E+00  1.00000000E+00  1.00000000E+00  1.00000000E+00
  1.00000000E+00  1.00000000E+00  2.00000000E+00  2.00000000E+00  0.00000000E+00
Virial Ratio                               R      2.002286670324943E+00
SCF Energy                                 R     -2.795020707683359E+02
MP2 Energy                                 R     -2.804466415600268E+02
Total Energy                               R     -2.804466415600268E+02
Post-SCF wavefunction norm                 R      1.120050868910869E+00
RMS Density                                R      3.788321073509139E-09
Job Status                                 I                1
Nuclear derivative order                   I                0
External E-field                           R   N=          35
  0.00000000E+00  0.00000000E+00  0.00000000E+00  0.00000000E+00  0.00000000E+00
  0.00000000E+00  0.00000000E+00  0.00000000E+00  0.00000000E+00  0.00000000E+00
  0.00000000E+00  0.00000000E+00  0.00000000E+00  0.00000000E+00  0.00000000E+00
  0.00000000E+00  0.00000000E+00  0.00000000E+00  0.00000000E+00  0.00000000E+00
  0.00000000E+00  0.00000000E+00  0.00000000E+00  0.00000000E+00  0.00000000E+00
  0.00000000E+00  0.00000000E+00  0.00000000E+00  0.00000000E+00  0.00000000E+00
  0.00000000E+00  0.00000000E+00  0.00000000E+00  0.00000000E+00  0.00000000E+00
IOpCl                                      I                0
IROHF                                      I                0
Alpha Orbital Energies                     R   N=         207
 -2.06911538E+01 -2.06844898E+01 -2.06591946E+01 -1.58130418E+01 -1.62426578E+00
 -1.49699747E+00 -1.25638288E+00 -9.48299594E-01 -7.73635955E-01 -7.59975218E-01
 -7.12030444E-01 -6.80885971E-01 -6.20757249E-01 -5.89908529E-01 -4.85569272E-01
 -4.72774696E-01  2.98139395E-02  7.15189972E-02  8.58998461E-02  1.01691300E-01
  1.33882332E-01  1.33932104E-01  1.44481464E-01  1.54911372E-01  1.78112354E-01
  1.94147197E-01  1.99774195E-01  2.06368707E-01  2.20779664E-01  2.35144774E-01
  2.37285692E-01  2.66285084E-01  2.93612385E-01  3.04340325E-01  3.10841808E-01
  3.43350301E-01  3.49191751E-01  3.87346859E-01  4.23153845E-01  4.33060158E-01
  5.27258564E-01  5.29113766E-01  5.58468210E-01  5.81489674E-01  6.25832256E-01
  6.38270604E-01  6.74334242E-01  6.85379165E-01  7.06350360E-01  7.11517388E-01
  7.24941373E-01  7.29447532E-01  7.44867791E-01  7.91283939E-01  7.92184848E-01
  8.10466333E-01  8.12600070E-01  8.30726761E-01  8.68086960E-01  9.08094257E-01
  9.22435169E-01  9.26466626E-01  9.57424688E-01  9.76325413E-01  9.85977010E-01
  1.01852605E+00  1.05153028E+00  1.05485540E+00  1.08326708E+00  1.11920968E+00
  1.14237657E+00  1.18915097E+00  1.22138695E+00  1.23459581E+00  1.33854734E+00
  1.34992758E+00  1.38607900E+00  1.45627609E+00  1.49055897E+00  1.51067432E+00
  1.53775497E+00  1.56697419E+00  1.57911051E+00  1.61443370E+00  1.66327664E+00
  1.66913164E+00  1.70336680E+00  1.79344264E+00  1.83160618E+00  1.83448170E+00
  1.87796544E+00  1.91113580E+00  1.96139902E+00  1.99251817E+00  2.00769056E+00
  2.07780392E+00  2.12215346E+00  2.13189178E+00  2.14983228E+00  2.22497607E+00
  2.26351102E+00  2.26531282E+00  2.28959646E+00  2.31535615E+00  2.34460366E+00
  2.38811428E+00  2.42450610E+00  2.42966554E+00  2.45409701E+00  2.46299798E+00
  2.47721077E+00  2.50199979E+00  2.58574434E+00  2.59698596E+00  2.62049792E+00
  2.62594125E+00  2.63426969E+00  2.66606115E+00  2.75751030E+00  2.82163229E+00
  2.85606534E+00  2.88474202E+00  2.89367418E+00  2.92509389E+00  2.95779699E+00
  3.02680396E+00  3.06880056E+00  3.12028818E+00  3.20439050E+00  3.22745183E+00
  3.31805927E+00  3.34265666E+00  3.51663641E+00  3.64730830E+00  3.83855888E+00
  3.85547747E+00  4.15769492E+00  4.16647895E+00  4.18608351E+00  4.25859745E+00
  4.36029830E+00  4.39537296E+00  4.46659476E+00  4.52289091E+00  4.66285383E+00
  4.71448245E+00  4.80623994E+00  4.82434542E+00  4.84583957E+00  4.89594191E+00
  5.02320931E+00  5.07753720E+00  5.11219685E+00  5.15062220E+00  5.18461801E+00
  5.25717570E+00  5.27509386E+00  5.31047129E+00  5.35404446E+00  5.35780581E+00
  5.61170952E+00  5.67362262E+00  5.77224989E+00  5.83448258E+00  5.95851318E+00
  6.16645027E+00  6.30897352E+00  6.33674593E+00  6.39693242E+00  6.49359574E+00
  6.50540657E+00  6.61535163E+00  6.66703917E+00  6.69969646E+00  6.75724104E+00
  6.76315397E+00  6.83293003E+00  6.89823300E+00  7.01939231E+00  7.05745050E+00
  7.05828736E+00  7.09114573E+00  7.12642237E+00  7.15189128E+00  7.18172923E+00
  7.22758498E+00  7.25939509E+00  7.31723114E+00  7.32555026E+00  7.35065460E+00
  7.39894575E+00  7.43327296E+00  7.48445925E+00  7.60868664E+00  7.62001654E+00
  7.62888974E+00  7.66903261E+00  7.80095716E+00  7.88716587E+00  8.09718065E+00
  8.31758093E+00  8.42198603E+00  8.54784970E+00  1.33937695E+01  1.44031262E+01
  1.53100438E+01  1.61523783E+01
Alpha MO coefficients                      R   N=       42849
  9.30810941E-05 -6.42888443E-04 -7.34057396E-04 -4.81958978E-06 -2.04769205E-05
 -2.60743971E-05  0.00000000E+00 -6.49668808E-05  4.98410653E-05  0.00000000E+00
  7.23890168E-05  3.22982581E-05  0.00000000E+00  3.21146929E-05  0.00000000E+00
  0.00000000E+00 -5.07554376E-05  2.32723664E-05 -6.98140771E-06  0.00000000E+00
  0.00000000E+00 -1.40824702E-04  1.29713556E-04  4.42806792E-03 -2.84427658E-04
  7.41476862E-06  1.55448775E-03  1.83599829E-03  1.06459722E-04  7.34601390E-06
  0.00000000E+00 -6.17246529E-04 -4.05391085E-05  0.00000000E+00 -1.07441472E-03
  8.00895117E-04  0.00000000E+00 -3.98853960E-04  7.24455525E-05  0.00000000E+00
  2.91871613E-05  0.00000000E+00  0.00000000E+00 -5.41676726E-05  5.19301513E-06
 -3.79277213E-04  0.00000000E+00  0.00000000E+00  7.43886277E-04 -2.74292613E-05
 -4.46763857E-04  0.00000000E+00  0.00000000E+00  2.41668487E-04 -6.54835840E-06
  0.00000000E+00  8.04058396E-05  1.28282089E-05  0.00000000E+00  0.00000000E+00
 -1.09436410E-04 -3.13711791E-06  0.00000000E+00  2.53307362E-04 -2.87053997E-05
  0.00000000E+00  0.00000000E+00 -3.58295087E-04  5.23589785E-05  9.76911818E-01
 -9.21699247E-03  4.33188872E-02  2.04358636E-03 -9.21897506E-04  1.49519072E-03
 -1.35469492E-03  0.00000000E+00 -1.43807371E-03  1.38340768E-03  0.00000000E+00
  8.20514283E-05 -1.16277522E-03  0.00000000E+00 -1.44204807E-04 -2.15239488E-05
  0.00000000E+00  4.63105903E-05  0.00000000E+00  0.00000000E+00 -3.52484635E-05
  2.15569399E-05  7.47733412E-04  0.00000000E+00  0.00000000E+00 -2.34384630E-04
 -3.89851482E-04 -3.59313725E-04  0.00000000E+00  0.00000000E+00 -3.13618277E-04
 -3.74529549E-04  0.00000000E+00  4.74613240E-05 -4.90633828E-05  0.00000000E+00
  0.00000000E+00 -3.91161326E-05 -1.56852791E-05  0.00000000E+00  2.40029928E-05
  2.25170455E-05  0.00000000E+00  0.00000000E+00 -3.05853633E-04 -1.40331181E-04
  3.90157084E-05  4.57318256E-05 -2.64198268E-04 -6.99281331E-04 -1.41034662E-04
 -2.67974425E-05 -9.73847625E-05  0.00000000E+00  2.66996221E-04  7.08356454E-04
  0.00000000E+00 -8.33775609E-04 -4.75940151E-04  0.00000000E+00 -1.20900505E-04
 -2.61735558E-05  0.00000000E+00 -1.81450079E-05  0.00000000E+00  0.00000000E+00
 -2.95716384E-05  1.49706519E-05 -3.28679450E-04  0.00000000E+00  0.00000000E+00
 -8.27298368E-04  1.27447485E-04 -3.73020588E-05  0.00000000E+00  0.00000000E+00
  9.76161104E-05 -1.15678496E-04  0.00000000E+00 -2.03726237E-05 -1.19887847E-04
  0.00000000E+00  0.00000000E+00 -6.26670754E-05 -1.38091961E-04  0.00000000E+00
  1.79870877E-06 -1.53289184E-04  0.00000000E+00  0.00000000E+00  4.36116687E-05
 -4.16060289E-04 -2.54401790E-03  1.22105210E-04 -1.21780143E-04 -2.47493530E-04
  1.30350207E-04 -7.77813454E-06 -2.76012396E-05  0.00000000E+00  6.84365054E-05
  1.62750138E-04  0.00000000E+00  2.30847119E-04  1.98297555E-04  0.00000000E+00
  1.25111661E-04  2.14804309E-05  0.00000000E+00 -3.30940145E-06  0.00000000E+00
  0.00000000E+00 -1.78706640E-05  1.29314314E-06  8.58260368E-07  0.00000000E+00
  0.00000000E+00  7.96121997E-05  8.69493847E-05 -9.97034863E-05  0.00000000E+00
  0.00000000E+00  1.65890375E-04  1.60763637E-04  0.00000000E+00  1.59451126E-05
 -3.53085896E-06  0.00000000E+00  0.00000000E+00 -4.38926250E-06 -1.19667043E-05
  0.00000000E+00 -3.36249709E-05  4.54195461E-05  0.00000000E+00  0.00000000E+00
  8.33275396E-05  8.98131704E-05  3.86099209E-05 -1.01111936E-03 -5.03616136E-04
 -1.12503980E-05 -2.24244997E-05  1.71726695E-05  0.00000000E+00 -1.84996663E-06
  2.74713103E-04  0.00000000E+00 -4.28220741E-05  1.35736226E-04  0.00000000E+00
  2.62167313E-05  0.00000000E+00  0.00000000E+00  1.20475608E-05  1.09200631E-05
 -2.86004205E-05  0.00000000E+00  0.00000000E+00  1.06783296E-05  3.62723990E-05
  1.08819424E-04  8.57015628E-05 -2.78890300E-05  7.74554596E-04  6.68383168E-04
  1.02305143E-05  2.50505921E-06  0.00000000E+00 -7.23088290E-05  1.81952124E-05
  0.00000000E+00  3.37146816E-04  9.14396958E-04  0.00000000E+00  2.75522423E-06
  8.31684354E-05  0.00000000E+00 -2.31802636E-06  0.00000000E+00  0.00000000E+00
 -3.23722358E-07 -6.08400798E-06 -3.62223454E-05  0.00000000E+00  0.00000000E+00
 -1.95700626E-05  8.45304066E-05 -2.36135798E-05  0.00000000E+00  0.00000000E+00
 -2.69532645E-04 -1.62752778E-04  0.00000000E+00  9.17045534E-06  5.97954073E-06
  0.00000000E+00  0.00000000E+00  2.58424861E-06 -1.86599671E-05  0.00000000E+00
 -4.04457333E-05 -3.80716430E-05  0.00000000E+00  0.00000000E+00 -7.72265884E-05
  2.06304561E-05  2.58300496E-03  3.94116682E-05  8.99112757E-05 -6.93469982E-05
 -4.69984507E-04  7.31211859E-06  1.58554240E-05  0.00000000E+00 -6.26325543E-05
 -5.56826139E-05  0.00000000E+00  2.34318290E-04 -1.89548444E-04  0.00000000E+00
 -1.88952064E-04 -6.51359306E-05  0.00000000E+00 -8.71478929E-06  0.00000000E+00
  0.00000000E+00  2.24002701E-05  1.98085218E-05  4.49433405E-06  0.00000000E+00
  0.00000000E+00 -1.17654160E-04 -4.67100236E-05 -4.13228103E-06  0.00000000E+00
  0.00000000E+00 -2.22843784E-04 -2.07053986E-04  0.00000000E+00  3.29369580E-06
 -5.34946437E-07  0.00000000E+00  0.00000000E+00  1.72105372E-06 -1.36251878E-05
  0.00000000E+00 -4.65444007E-05  3.47244504E-06  0.00000000E+00  0.00000000E+00
 -7.66022359E-05  1.88005142E-04  2.58700551E-04  1.46524201E-03 -7.79876787E-05
 -1.53920761E-03  3.94296798E-04 -1.44435723E-04  1.51448033E-07  0.00000000E+00
 -2.09021184E-03 -4.04211236E-04  0.00000000E+00  1.03942393E-03  7.62657365E-04
  0.00000000E+00 -1.71296021E-04  5.41385003E-05  0.00000000E+00 -1.23350477E-04
  0.00000000E+00  0.00000000E+00  2.43119937E-04  9.40735988E-05 -4.42387405E-04
  0.00000000E+00  0.00000000E+00  8.99119772E-04 -6.61511956E-05  1.16127069E-05
  0.00000000E+00  0.00000000E+00 -3.38292029E-04 -1.22828100E-04  0.00000000E+00
 -1.25527378E-06  1.52963553E-05  0.00000000E+00  0.00000000E+00  1.88397776E-05
  1.32989570E-05  0.00000000E+00  1.64531504E-04 -7.18627319E-05  0.00000000E+00
  0.00000000E+00 -2.40553823E-04  4.24411066E-05  9.76649441E-01 -9.84826104E-03
  4.35679778E-02  4.50128370E-03 -4.45350935E-04  2.14823429E-03  4.81141628E-04
  0.00000000E+00 -2.38421235E-03 -6.04147840E-04  0.00000000E+00  1.13902433E-03
 -3.25381064E-06  0.00000000E+00  4.99154465E-06 -4.17664298E-05  0.00000000E+00
 -2.32362264E-04  0.00000000E+00  0.00000000E+00  1.02748889E-04  3.18548335E-05
  3.90664957E-04  0.00000000E+00  0.00000000E+00 -8.34166704E-04 -4.19404924E-04
 -1.53495867E-04  0.00000000E+00  0.00000000E+00  2.55725352E-04  1.70292094E-05
  0.00000000E+00  5.22729314E-05  1.77091806E-05  0.00000000E+00  0.00000000E+00
 -2.21256538E-05 -1.32902881E-05  0.00000000E+00  1.38400161E-04  9.24962182E-06
  0.00000000E+00  0.00000000E+00 -1.89854806E-04 -1.40724923E-04  4.96183829E-04
  1.82631771E-03 -3.16775642E-05  8.63134130E-06 -4.05105535E-05 -2.15654170E-04
  0.00000000E+00  1.22290847E-04 -1.16014183E-03  0.00000000E+00  3.16537468E-04
 -2.97185447E-04  0.00000000E+00  1.87457075E-05  0.00000000E+00  0.00000000E+00
  1.13980622E-04  1.09777651E-05 -1.54170014E-04  0.00000000E+00  0.00000000E+00
 -5.28666080E-04 -2.33508611E-05  9.76826385E-01 -9.13213085E-03  4.34603449E-02
  3.56083613E-04 -1.01540528E-03 -1.56115012E-03  1.44362625E-03  0.00000000E+00
  1.58177398E-03 -1.21218915E-03  0.00000000E+00 -5.33173268E-04 -7.29201123E-04
  0.00000000E+00  4.85941165E-05 -1.54037054E-05  0.00000000E+00  2.38192440E-05
  0.00000000E+00  0.00000000E+00 -1.26741056E-04 -1.86983312E-06  7.41049315E-04
  0.00000000E+00  0.00000000E+00 -2.33453865E-04 -2.25385807E-04 -2.78588072E-04
  0.00000000E+00  0.00000000E+00  1.38657397E-04  1.32006627E-04  0.00000000E+00
 -6.48718902E-05 -5.19445798E-06  0.00000000E+00  0.00000000E+00  1.56787632E-05
  1.01767906E-06  0.00000000E+00 -2.95040337E-06  1.23397848E-04  0.00000000E+00
  0.00000000E+00  2.55924176E-04  9.20101827E-05 -4.52149380E-03 -2.15954197E-04