 Entering Gaussian System, Link 0=g16
 Input=hoono_r4_1p178656.gjf
 Output=hoono_r4_1p178656.log
 Initial command:
 /sw/contrib/gaussian/g16/B01/g16/l1.exe "/scr/Gau-9140.inp" -scrdir="/scr/"
 Entering Link 1 = /sw/contrib/gaussian/g16/B01/g16/l1.exe PID=      9141.
  
 Copyright (c) 1988-2017, Gaussian, Inc.  All Rights Reserved.
  
 This is part of the Gaussian(R) 16 program.  It is based on
 the Gaussian(R) 09 system (copyright 2009, Gaussian, Inc.),
 the Gaussian(R) 03 system (copyright 2003, Gaussian, Inc.),
 the Gaussian(R) 98 system (copyright 1998, Gaussian, Inc.),
 the Gaussian(R) 94 system (copyright 1995, Gaussian, Inc.),
 the Gaussian 92(TM) system (copyright 1992, Gaussian, Inc.),
 the Gaussian 90(TM) system (copyright 1990, Gaussian, Inc.),
 the Gaussian 88(TM) system (copyright 1988, Gaussian, Inc.),
 the Gaussian 86(TM) system (copyright 1986, Carnegie Mellon
 University), and the Gaussian 82(TM) system (copyright 1983,
 Carnegie Mellon University). Gaussian is a federally registered
 trademark of Gaussian, Inc.
  
 This software contains proprietary and confidential information,
 including trade secrets, belonging to Gaussian, Inc.
  
 This software is provided under written license and may be
 used, copied, transmitted, or stored only in accord with that
 written license.
  
 The following legend is applicable only to US Government
 contracts under FAR:
  
                    RESTRICTED RIGHTS LEGEND
  
 Use, reproduction and disclosure by the US Government is
 subject to restrictions as set forth in subparagraphs (a)
 and (c) of the Commercial Computer Software - Restricted
 Rights clause in FAR 52.227-19.
  
 Gaussian, Inc.
 340 Quinnipiac St., Bldg. 40, Wallingford CT 06492
  
  
 ---------------------------------------------------------------
 Warning -- This program may not be used in any manner that
 competes with the business of Gaussian, Inc. or will provide
 assistance to any competitor of Gaussian, Inc.  The licensee
 of this program is prohibited from giving any competitor of
 Gaussian, Inc. access to this program.  By using this program,
 the user acknowledges that Gaussian, Inc. is engaged in the
 business of creating and licensing software in the field of
 computational chemistry and represents and warrants to the
 licensee that it is not a competitor of Gaussian, Inc. and that
 it will not use this program in any manner prohibited above.
 ---------------------------------------------------------------
  

 Cite this work as:
 Gaussian 16, Revision B.01,
 M. J. Frisch, G. W. Trucks, H. B. Schlegel, G. E. Scuseria, 
 M. A. Robb, J. R. Cheeseman, G. Scalmani, V. Barone, 
 G. A. Petersson, H. Nakatsuji, X. Li, M. Caricato, A. V. Marenich, 
 J. Bloino, B. G. Janesko, R. Gomperts, B. Mennucci, H. P. Hratchian, 
 J. V. Ortiz, A. F. Izmaylov, J. L. Sonnenberg, D. Williams-Young, 
 F. Ding, F. Lipparini, F. Egidi, J. Goings, B. Peng, A. Petrone, 
 T. Henderson, D. Ranasinghe, V. G. Zakrzewski, J. Gao, N. Rega, 
 G. Zheng, W. Liang, M. Hada, M. Ehara, K. Toyota, R. Fukuda, 
 J. Hasegawa, M. Ishida, T. Nakajima, Y. Honda, O. Kitao, H. Nakai, 
 T. Vreven, K. Throssell, J. A. Montgomery, Jr., J. E. Peralta, 
 F. Ogliaro, M. J. Bearpark, J. J. Heyd, E. N. Brothers, K. N. Kudin, 
 V. N. Staroverov, T. A. Keith, R. Kobayashi, J. Normand, 
 K. Raghavachari, A. P. Rendell, J. C. Burant, S. S. Iyengar, 
 J. Tomasi, M. Cossi, J. M. Millam, M. Klene, C. Adamo, R. Cammi, 
 J. W. Ochterski, R. L. Martin, K. Morokuma, O. Farkas, 
 J. B. Foresman, and D. J. Fox, Gaussian, Inc., Wallingford CT, 2016.
 
 ******************************************
 Gaussian 16:  ES64L-G16RevB.01 20-Dec-2017
                 8-Feb-2022 
 ******************************************
 %nproc=28
 Will use up to   28 processors via shared memory.
 %mem=120GB
 %chk=hoono_r4_1p178656.chk
 -------------------------------------
 #p SP mp2/aug-cc-pvtz density=current
 -------------------------------------
 1/30=1,38=1,172=1/1;
 2/12=2,17=6,18=5,40=1/2;
 3/5=16,6=1,7=10,11=9,25=1,30=1,71=1/1,2,3;
 4//1;
 5/5=2,38=5/2;
 8/6=4,10=1/1;
 9/15=1,16=-3/6;
 10/5=1,13=10/2;
 6/7=2,8=2,9=2,10=2,22=-1/1;
 99/5=1,9=1/99;
 Leave Link    1 at Tue Feb  8 13:25:20 2022, MaxMem= 16106127360 cpu:               2.4 elap:               0.1
 (Enter /sw/contrib/gaussian/g16/B01/g16/l101.exe)
 -----
 title
 -----
 Symbolic Z-matrix:
 Charge =  0 Multiplicity = 1
 H
 O                    1    r1
 O                    2    r2       1    a1
 N                    3    r3       2    a2       1    d1       0
 O                    4    r4       3    a3       2    d2       0
       Variables:
  r1                    0.96898                  
  r2                    1.45492                  
  r3                    1.45878                  
  r4                    1.17866                  
  a1                   97.59495                  
  a2                  102.29752                  
  a3                  109.06955                  
  d1                  180.                       
  d2                  180.                       
 
 ITRead=  0  0  0  0  0
 MicOpt= -1 -1 -1 -1 -1
 NAtoms=      5 NQM=        5 NQMF=       0 NMMI=      0 NMMIF=      0
                NMic=       0 NMicF=      0.
                    Isotopes and Nuclear Properties:
 (Nuclear quadrupole moments (NQMom) in fm**2, nuclear magnetic moments (NMagM)
  in nuclear magnetons)

  Atom         1           2           3           4           5
 IAtWgt=           1          16          16          14          16
 AtmWgt=   1.0078250  15.9949146  15.9949146  14.0030740  15.9949146
 NucSpn=           1           0           0           2           0
 AtZEff=  -0.0000000  -0.0000000  -0.0000000  -0.0000000  -0.0000000
 NQMom=    0.0000000   0.0000000   0.0000000   2.0440000   0.0000000
 NMagM=    2.7928460   0.0000000   0.0000000   0.4037610   0.0000000
 AtZNuc=   1.0000000   8.0000000   8.0000000   7.0000000   8.0000000
 Leave Link  101 at Tue Feb  8 13:25:21 2022, MaxMem= 16106127360 cpu:               3.0 elap:               0.1
 (Enter /sw/contrib/gaussian/g16/B01/g16/l202.exe)
                          Input orientation:                          
 ---------------------------------------------------------------------
 Center     Atomic      Atomic             Coordinates (Angstroms)
 Number     Number       Type             X           Y           Z
 ---------------------------------------------------------------------
      1          1           0        0.000000    0.000000    0.000000
      2          8           0        0.000000    0.000000    0.968976
      3          8           0        1.442156    0.000000    1.161271
      4          7           0        1.561752    0.000000    2.615144
      5          8           0        2.703547    0.000000    2.907606
 ---------------------------------------------------------------------
                    Distance matrix (angstroms):
                    1          2          3          4          5
     1  H    0.000000
     2  O    0.968976   0.000000
     3  O    1.851584   1.454919   0.000000
     4  N    3.045989   2.269127   1.458784   0.000000
     5  O    3.970307   3.326778   2.154250   1.178656   0.000000
 Stoichiometry    HNO3
 Framework group  CS[SG(HNO3)]
 Deg. of freedom     7
 Full point group                 CS      NOp   2
 Largest Abelian subgroup         CS      NOp   2
 Largest concise Abelian subgroup C1      NOp   1
                         Standard orientation:                         
 ---------------------------------------------------------------------
 Center     Atomic      Atomic             Coordinates (Angstroms)
 Number     Number       Type             X           Y           Z
 ---------------------------------------------------------------------
      1          1           0        1.546155    1.692022    0.000000
      2          8           0        1.453912    0.727447    0.000000
      3          8           0        0.000000    0.673313    0.000000
      4          7           0       -0.257456   -0.762573   -0.000000
      5          8           0       -1.421907   -0.945012   -0.000000
 ---------------------------------------------------------------------
 Rotational constants (GHZ):          54.9012879           4.9924941           4.5763407
 Leave Link  202 at Tue Feb  8 13:25:21 2022, MaxMem= 16106127360 cpu:               1.0 elap:               0.1
 (Enter /sw/contrib/gaussian/g16/B01/g16/l301.exe)
 Standard basis: Aug-CC-pVTZ (5D, 7F)
 Ernie: Thresh=  0.10000D-02 Tol=  0.10000D-05 Strict=F.
 Ernie:  12 primitive shells out of 131 were deleted.
 There are   166 symmetry adapted cartesian basis functions of A'  symmetry.
 There are    79 symmetry adapted cartesian basis functions of A"  symmetry.
 There are   136 symmetry adapted basis functions of A'  symmetry.
 There are    71 symmetry adapted basis functions of A"  symmetry.
   207 basis functions,   315 primitive gaussians,   245 cartesian basis functions
    16 alpha electrons       16 beta electrons
       nuclear repulsion energy       116.6327815351 Hartrees.
 IExCor=    0 DFT=F Ex=HF Corr=None ExCW=0 ScaHFX=  1.000000
 ScaDFX=  1.000000  1.000000  1.000000  1.000000 ScalE2=  1.000000  1.000000
 IRadAn=      5 IRanWt=     -1 IRanGd=            0 ICorTp=0 IEmpDi=  4
 NAtoms=    5 NActive=    5 NUniq=    5 SFac= 1.00D+00 NAtFMM=   60 NAOKFM=F Big=F
 Integral buffers will be    131072 words long.
 Raffenetti 1 integral format.
 Two-electron integral symmetry is turned on.
 Leave Link  301 at Tue Feb  8 13:25:21 2022, MaxMem= 16106127360 cpu:               1.2 elap:               0.1
 (Enter /sw/contrib/gaussian/g16/B01/g16/l302.exe)
 NPDir=0 NMtPBC=     1 NCelOv=     1 NCel=       1 NClECP=     1 NCelD=      1
         NCelK=      1 NCelE2=     1 NClLst=     1 CellRange=     0.0.
 One-electron integrals computed using PRISM.
 One-electron integral symmetry used in STVInt
 NBasis=   207 RedAO= T EigKep=  1.83D-04  NBF=   136    71
 NBsUse=   207 1.00D-06 EigRej= -1.00D+00 NBFU=   136    71
 Leave Link  302 at Tue Feb  8 13:25:21 2022, MaxMem= 16106127360 cpu:               4.6 elap:               0.2
 (Enter /sw/contrib/gaussian/g16/B01/g16/l303.exe)
 DipDrv:  MaxL=1.
 Leave Link  303 at Tue Feb  8 13:25:21 2022, MaxMem= 16106127360 cpu:               1.5 elap:               0.1
 (Enter /sw/contrib/gaussian/g16/B01/g16/l401.exe)
 ExpMin= 2.53D-02 ExpMax= 1.53D+04 ExpMxC= 5.22D+02 IAcc=3 IRadAn=         5 AccDes= 0.00D+00
 Harris functional with IExCor=  205 and IRadAn=       5 diagonalized for initial guess.
 HarFok:  IExCor=  205 AccDes= 0.00D+00 IRadAn=         5 IDoV= 1 UseB2=F ITyADJ=14
 ICtDFT=  3500011 ScaDFX=  1.000000  1.000000  1.000000  1.000000
 FoFCou: FMM=F IPFlag=           0 FMFlag=      100000 FMFlg1=           0
         NFxFlg=           0 DoJE=T BraDBF=F KetDBF=T FulRan=T
         wScrn=  0.000000 ICntrl=       500 IOpCl=  0 I1Cent=   200000004 NGrid=           0
         NMat0=    1 NMatS0=      1 NMatT0=    0 NMatD0=    1 NMtDS0=    0 NMtDT0=    0
 Petite list used in FoFCou.
 Harris En= -279.628740037373    
 JPrj=0 DoOrth=F DoCkMO=F.
 Initial guess orbital symmetries:
       Occupied  (A') (A') (A') (A') (A') (A') (A') (A') (A') (A')
                 (A") (A') (A') (A") (A") (A')
       Virtual   (A") (A') (A') (A') (A') (A') (A") (A') (A') (A')
                 (A") (A') (A") (A') (A') (A") (A') (A") (A') (A')
                 (A') (A') (A') (A') (A') (A") (A') (A") (A') (A')
                 (A") (A') (A") (A') (A') (A") (A') (A") (A') (A')
                 (A") (A') (A") (A') (A") (A') (A') (A') (A") (A")
                 (A') (A') (A') (A') (A") (A') (A") (A') (A") (A')
                 (A') (A') (A") (A') (A') (A") (A') (A") (A') (A')
                 (A") (A') (A') (A") (A") (A') (A') (A") (A') (A')
                 (A') (A") (A') (A") (A') (A") (A') (A") (A') (A')
                 (A') (A") (A') (A") (A') (A") (A") (A') (A') (A')
                 (A") (A') (A") (A') (A') (A') (A') (A") (A") (A')
                 (A") (A') (A') (A') (A") (A') (A') (A') (A") (A')
                 (A") (A') (A') (A") (A") (A') (A") (A') (A") (A')
                 (A') (A') (A') (A") (A") (A') (A") (A') (A') (A')
                 (A') (A") (A") (A') (A') (A") (A') (A') (A') (A')
                 (A") (A') (A') (A") (A') (A") (A') (A") (A') (A")
                 (A') (A") (A') (A") (A') (A") (A") (A") (A') (A')
                 (A") (A') (A") (A') (A") (A') (A") (A") (A') (A')
                 (A') (A') (A') (A') (A') (A') (A') (A') (A') (A')
                 (A')
 The electronic state of the initial guess is 1-A'.
 Leave Link  401 at Tue Feb  8 13:25:21 2022, MaxMem= 16106127360 cpu:               6.6 elap:               0.3
 (Enter /sw/contrib/gaussian/g16/B01/g16/l502.exe)
 Keep R1 ints in memory in symmetry-blocked form, NReq=348887737.
 FoFCou: FMM=F IPFlag=           0 FMFlag=           0 FMFlg1=           0
         NFxFlg=           0 DoJE=F BraDBF=F KetDBF=F FulRan=T
         wScrn=  0.000000 ICntrl=       600 IOpCl=  0 I1Cent=           0 NGrid=           0
         NMat0=    1 NMatS0=  21528 NMatT0=    0 NMatD0=    1 NMtDS0=    0 NMtDT0=    0
 Petite list used in FoFCou.
 Closed shell SCF:
 Using DIIS extrapolation, IDIIS=  1040.
 NGot= 16106127360 LenX= 15988850015 LenY= 15988789549
 Requested convergence on RMS density matrix=1.00D-08 within 128 cycles.
 Requested convergence on MAX density matrix=1.00D-06.
 Requested convergence on             energy=1.00D-06.
 No special actions if energy rises.

 Cycle   1  Pass 1  IDiag  1:
 E= -279.367382915045    
 DIIS: error= 2.67D-02 at cycle   1 NSaved=   1.
 NSaved= 1 IEnMin= 1 EnMin= -279.367382915045     IErMin= 1 ErrMin= 2.67D-02
 ErrMax= 2.67D-02  0.00D+00 EMaxC= 1.00D-01 BMatC= 4.40D-01 BMatP= 4.40D-01
 IDIUse=3 WtCom= 7.33D-01 WtEn= 2.67D-01
 Coeff-Com:  0.100D+01
 Coeff-En:   0.100D+01
 Coeff:      0.100D+01
 Gap=     0.510 Goal=   None    Shift=    0.000
 GapD=    0.510 DampG=2.000 DampE=0.500 DampFc=1.0000 IDamp=-1.
 RMSDP=1.63D-03 MaxDP=9.96D-02              OVMax= 1.16D-01

 Cycle   2  Pass 1  IDiag  1:
 E= -279.448564407532     Delta-E=       -0.081181492486 Rises=F Damp=F
 DIIS: error= 1.82D-02 at cycle   2 NSaved=   2.
 NSaved= 2 IEnMin= 2 EnMin= -279.448564407532     IErMin= 2 ErrMin= 1.82D-02
 ErrMax= 1.82D-02  0.00D+00 EMaxC= 1.00D-01 BMatC= 7.52D-02 BMatP= 4.40D-01
 IDIUse=3 WtCom= 8.18D-01 WtEn= 1.82D-01
 Coeff-Com:  0.201D+00 0.799D+00
 Coeff-En:   0.191D-01 0.981D+00
 Coeff:      0.168D+00 0.832D+00
 Gap=     0.533 Goal=   None    Shift=    0.000
 RMSDP=9.14D-04 MaxDP=3.78D-02 DE=-8.12D-02 OVMax= 7.02D-02

 Cycle   3  Pass 1  IDiag  1:
 E= -279.479517846361     Delta-E=       -0.030953438829 Rises=F Damp=F
 DIIS: error= 1.05D-02 at cycle   3 NSaved=   3.
 NSaved= 3 IEnMin= 3 EnMin= -279.479517846361     IErMin= 3 ErrMin= 1.05D-02
 ErrMax= 1.05D-02  0.00D+00 EMaxC= 1.00D-01 BMatC= 2.94D-02 BMatP= 7.52D-02
 IDIUse=3 WtCom= 8.95D-01 WtEn= 1.05D-01
 Coeff-Com: -0.332D-01 0.375D+00 0.658D+00
 Coeff-En:   0.000D+00 0.237D+00 0.763D+00
 Coeff:     -0.297D-01 0.361D+00 0.669D+00
 Gap=     0.512 Goal=   None    Shift=    0.000
 RMSDP=3.82D-04 MaxDP=1.58D-02 DE=-3.10D-02 OVMax= 3.94D-02

 Cycle   4  Pass 1  IDiag  1:
 E= -279.499129463433     Delta-E=       -0.019611617072 Rises=F Damp=F
 DIIS: error= 1.31D-03 at cycle   4 NSaved=   4.
 NSaved= 4 IEnMin= 4 EnMin= -279.499129463433     IErMin= 4 ErrMin= 1.31D-03
 ErrMax= 1.31D-03  0.00D+00 EMaxC= 1.00D-01 BMatC= 5.06D-04 BMatP= 2.94D-02
 IDIUse=3 WtCom= 9.87D-01 WtEn= 1.31D-02
 Coeff-Com: -0.117D-01 0.555D-01 0.157D+00 0.799D+00
 Coeff-En:   0.000D+00 0.000D+00 0.000D+00 0.100D+01
 Coeff:     -0.116D-01 0.548D-01 0.155D+00 0.801D+00
 Gap=     0.503 Goal=   None    Shift=    0.000
 RMSDP=9.15D-05 MaxDP=2.78D-03 DE=-1.96D-02 OVMax= 1.13D-02

 Cycle   5  Pass 1  IDiag  1:
 E= -279.499828541098     Delta-E=       -0.000699077664 Rises=F Damp=F
 DIIS: error= 7.46D-04 at cycle   5 NSaved=   5.
 NSaved= 5 IEnMin= 5 EnMin= -279.499828541098     IErMin= 5 ErrMin= 7.46D-04
 ErrMax= 7.46D-04  0.00D+00 EMaxC= 1.00D-01 BMatC= 8.94D-05 BMatP= 5.06D-04
 IDIUse=3 WtCom= 9.93D-01 WtEn= 7.46D-03
 Coeff-Com:  0.623D-02-0.723D-01-0.119D+00 0.177D-01 0.117D+01
 Coeff-En:   0.000D+00 0.000D+00 0.000D+00 0.000D+00 0.100D+01
 Coeff:      0.619D-02-0.717D-01-0.118D+00 0.176D-01 0.117D+01
 Gap=     0.503 Goal=   None    Shift=    0.000
 RMSDP=7.77D-05 MaxDP=2.15D-03 DE=-6.99D-04 OVMax= 1.14D-02

 Cycle   6  Pass 1  IDiag  1:
 E= -279.500154978154     Delta-E=       -0.000326437056 Rises=F Damp=F
 DIIS: error= 2.92D-04 at cycle   6 NSaved=   6.
 NSaved= 6 IEnMin= 6 EnMin= -279.500154978154     IErMin= 6 ErrMin= 2.92D-04
 ErrMax= 2.92D-04  0.00D+00 EMaxC= 1.00D-01 BMatC= 1.72D-05 BMatP= 8.94D-05
 IDIUse=3 WtCom= 9.97D-01 WtEn= 2.92D-03
 Coeff-Com:  0.447D-03 0.347D-02 0.792D-02-0.132D+00-0.256D+00 0.138D+01
 Coeff-En:   0.000D+00 0.000D+00 0.000D+00 0.000D+00 0.000D+00 0.100D+01
 Coeff:      0.446D-03 0.346D-02 0.790D-02-0.131D+00-0.256D+00 0.138D+01
 Gap=     0.504 Goal=   None    Shift=    0.000
 RMSDP=4.65D-05 MaxDP=1.28D-03 DE=-3.26D-04 OVMax= 5.74D-03

 Cycle   7  Pass 1  IDiag  1:
 E= -279.500230723642     Delta-E=       -0.000075745489 Rises=F Damp=F
 DIIS: error= 1.22D-04 at cycle   7 NSaved=   7.
 NSaved= 7 IEnMin= 7 EnMin= -279.500230723642     IErMin= 7 ErrMin= 1.22D-04
 ErrMax= 1.22D-04  0.00D+00 EMaxC= 1.00D-01 BMatC= 4.27D-06 BMatP= 1.72D-05
 IDIUse=3 WtCom= 9.99D-01 WtEn= 1.22D-03
 Coeff-Com: -0.962D-03 0.133D-01 0.264D-01-0.201D-01-0.276D+00 0.350D+00
 Coeff-Com:  0.908D+00
 Coeff-En:   0.000D+00 0.000D+00 0.000D+00 0.000D+00 0.000D+00 0.000D+00
 Coeff-En:   0.100D+01
 Coeff:     -0.961D-03 0.133D-01 0.264D-01-0.201D-01-0.276D+00 0.349D+00
 Coeff:      0.908D+00
 Gap=     0.504 Goal=   None    Shift=    0.000
 RMSDP=1.33D-05 MaxDP=3.81D-04 DE=-7.57D-05 OVMax= 1.57D-03

 Cycle   8  Pass 1  IDiag  1:
 E= -279.500239499466     Delta-E=       -0.000008775824 Rises=F Damp=F
 DIIS: error= 6.03D-05 at cycle   8 NSaved=   8.
 NSaved= 8 IEnMin= 8 EnMin= -279.500239499466     IErMin= 8 ErrMin= 6.03D-05
 ErrMax= 6.03D-05  0.00D+00 EMaxC= 1.00D-01 BMatC= 6.43D-07 BMatP= 4.27D-06
 IDIUse=1 WtCom= 1.00D+00 WtEn= 0.00D+00
 Coeff-Com: -0.447D-03 0.329D-02 0.741D-02 0.277D-01-0.381D-01-0.207D+00
 Coeff-Com:  0.215D+00 0.992D+00
 Coeff:     -0.447D-03 0.329D-02 0.741D-02 0.277D-01-0.381D-01-0.207D+00
 Coeff:      0.215D+00 0.992D+00
 Gap=     0.503 Goal=   None    Shift=    0.000
 RMSDP=6.80D-06 MaxDP=2.04D-04 DE=-8.78D-06 OVMax= 7.31D-04

 Cycle   9  Pass 1  IDiag  1:
 E= -279.500241297221     Delta-E=       -0.000001797755 Rises=F Damp=F
 DIIS: error= 1.70D-05 at cycle   9 NSaved=   9.
 NSaved= 9 IEnMin= 9 EnMin= -279.500241297221     IErMin= 9 ErrMin= 1.70D-05
 ErrMax= 1.70D-05  0.00D+00 EMaxC= 1.00D-01 BMatC= 7.74D-08 BMatP= 6.43D-07
 IDIUse=1 WtCom= 1.00D+00 WtEn= 0.00D+00
 Coeff-Com:  0.133D-03-0.178D-02-0.321D-02-0.257D-02 0.353D-01 0.275D-02
 Coeff-Com: -0.186D+00-0.948D-01 0.125D+01
 Coeff:      0.133D-03-0.178D-02-0.321D-02-0.257D-02 0.353D-01 0.275D-02
 Coeff:     -0.186D+00-0.948D-01 0.125D+01
 Gap=     0.503 Goal=   None    Shift=    0.000
 RMSDP=2.05D-06 MaxDP=7.16D-05 DE=-1.80D-06 OVMax= 1.91D-04

 Cycle  10  Pass 1  IDiag  1:
 E= -279.500241477398     Delta-E=       -0.000000180177 Rises=F Damp=F
 DIIS: error= 4.31D-06 at cycle  10 NSaved=  10.
 NSaved=10 IEnMin=10 EnMin= -279.500241477398     IErMin=10 ErrMin= 4.31D-06
 ErrMax= 4.31D-06  0.00D+00 EMaxC= 1.00D-01 BMatC= 6.20D-09 BMatP= 7.74D-08
 IDIUse=1 WtCom= 1.00D+00 WtEn= 0.00D+00
 Coeff-Com:  0.282D-04-0.199D-03-0.236D-03-0.274D-02 0.745D-03 0.203D-01
 Coeff-Com: -0.124D-01-0.692D-01-0.106D+00 0.117D+01
 Coeff:      0.282D-04-0.199D-03-0.236D-03-0.274D-02 0.745D-03 0.203D-01
 Coeff:     -0.124D-01-0.692D-01-0.106D+00 0.117D+01
 Gap=     0.503 Goal=   None    Shift=    0.000
 RMSDP=5.38D-07 MaxDP=2.26D-05 DE=-1.80D-07 OVMax= 4.71D-05

 Cycle  11  Pass 1  IDiag  1:
 E= -279.500241491926     Delta-E=       -0.000000014527 Rises=F Damp=F
 DIIS: error= 2.20D-06 at cycle  11 NSaved=  11.
 NSaved=11 IEnMin=11 EnMin= -279.500241491926     IErMin=11 ErrMin= 2.20D-06
 ErrMax= 2.20D-06  0.00D+00 EMaxC= 1.00D-01 BMatC= 7.60D-10 BMatP= 6.20D-09
 IDIUse=1 WtCom= 1.00D+00 WtEn= 0.00D+00
 Coeff-Com: -0.227D-04 0.254D-03 0.510D-03 0.595D-03-0.443D-02-0.411D-02
 Coeff-Com:  0.246D-01 0.298D-01-0.143D+00-0.178D+00 0.127D+01
 Coeff:     -0.227D-04 0.254D-03 0.510D-03 0.595D-03-0.443D-02-0.411D-02
 Coeff:      0.246D-01 0.298D-01-0.143D+00-0.178D+00 0.127D+01
 Gap=     0.503 Goal=   None    Shift=    0.000
 RMSDP=1.94D-07 MaxDP=7.12D-06 DE=-1.45D-08 OVMax= 1.87D-05

 Cycle  12  Pass 1  IDiag  1:
 E= -279.500241494065     Delta-E=       -0.000000002139 Rises=F Damp=F
 DIIS: error= 6.21D-07 at cycle  12 NSaved=  12.
 NSaved=12 IEnMin=12 EnMin= -279.500241494065     IErMin=12 ErrMin= 6.21D-07
 ErrMax= 6.21D-07  0.00D+00 EMaxC= 1.00D-01 BMatC= 8.26D-11 BMatP= 7.60D-10
 IDIUse=1 WtCom= 1.00D+00 WtEn= 0.00D+00
 Coeff-Com:  0.149D-05-0.323D-04-0.696D-04 0.198D-03 0.117D-02-0.250D-02
 Coeff-Com: -0.440D-02 0.596D-02 0.435D-01-0.124D+00-0.255D+00 0.134D+01
 Coeff:      0.149D-05-0.323D-04-0.696D-04 0.198D-03 0.117D-02-0.250D-02
 Coeff:     -0.440D-02 0.596D-02 0.435D-01-0.124D+00-0.255D+00 0.134D+01
 Gap=     0.503 Goal=   None    Shift=    0.000
 RMSDP=7.78D-08 MaxDP=3.05D-06 DE=-2.14D-09 OVMax= 7.13D-06

 Cycle  13  Pass 1  IDiag  1:
 E= -279.500241494332     Delta-E=       -0.000000000267 Rises=F Damp=F
 DIIS: error= 1.84D-07 at cycle  13 NSaved=  13.
 NSaved=13 IEnMin=13 EnMin= -279.500241494332     IErMin=13 ErrMin= 1.84D-07
 ErrMax= 1.84D-07  0.00D+00 EMaxC= 1.00D-01 BMatC= 4.62D-12 BMatP= 8.26D-11
 IDIUse=1 WtCom= 1.00D+00 WtEn= 0.00D+00
 Coeff-Com:  0.134D-05-0.144D-04-0.233D-04-0.968D-04 0.124D-03 0.826D-03
 Coeff-Com: -0.107D-02-0.322D-02 0.764D-03 0.429D-01-0.444D-01-0.312D+00
 Coeff-Com:  0.132D+01
 Coeff:      0.134D-05-0.144D-04-0.233D-04-0.968D-04 0.124D-03 0.826D-03
 Coeff:     -0.107D-02-0.322D-02 0.764D-03 0.429D-01-0.444D-01-0.312D+00
 Coeff:      0.132D+01
 Gap=     0.503 Goal=   None    Shift=    0.000
 RMSDP=2.04D-08 MaxDP=6.03D-07 DE=-2.67D-10 OVMax= 1.64D-06

 Cycle  14  Pass 1  IDiag  1:
 E= -279.500241494345     Delta-E=       -0.000000000013 Rises=F Damp=F
 DIIS: error= 2.60D-08 at cycle  14 NSaved=  14.
 NSaved=14 IEnMin=14 EnMin= -279.500241494345     IErMin=14 ErrMin= 2.60D-08
 ErrMax= 2.60D-08  0.00D+00 EMaxC= 1.00D-01 BMatC= 2.25D-13 BMatP= 4.62D-12
 IDIUse=1 WtCom= 1.00D+00 WtEn= 0.00D+00
 Coeff-Com: -0.197D-06 0.320D-05 0.572D-05 0.455D-05-0.852D-04 0.496D-04
 Coeff-Com:  0.309D-03 0.201D-03-0.251D-02 0.179D-02 0.164D-01-0.260D-01
 Coeff-Com: -0.196D+00 0.121D+01
 Coeff:     -0.197D-06 0.320D-05 0.572D-05 0.455D-05-0.852D-04 0.496D-04
 Coeff:      0.309D-03 0.201D-03-0.251D-02 0.179D-02 0.164D-01-0.260D-01
 Coeff:     -0.196D+00 0.121D+01
 Gap=     0.503 Goal=   None    Shift=    0.000
 RMSDP=4.01D-09 MaxDP=9.71D-08 DE=-1.32D-11 OVMax= 3.63D-07

 SCF Done:  E(RHF) =  -279.500241494     A.U. after   14 cycles
            NFock= 14  Conv=0.40D-08     -V/T= 2.0025
 KE= 2.788072608548D+02 PE=-8.945620358362D+02 EE= 2.196217519519D+02
 Leave Link  502 at Tue Feb  8 13:25:25 2022, MaxMem= 16106127360 cpu:              53.8 elap:               3.5
 (Enter /sw/contrib/gaussian/g16/B01/g16/l801.exe)
 ExpMin= 2.53D-02 ExpMax= 1.53D+04 ExpMxC= 5.22D+02 IAcc=3 IRadAn=         5 AccDes= 0.00D+00
 HarFok:  IExCor=  205 AccDes= 0.00D+00 IRadAn=         5 IDoV=-2 UseB2=F ITyADJ=14
 ICtDFT= 12500011 ScaDFX=  1.000000  1.000000  1.000000  1.000000
 Largest valence mixing into a core orbital is  2.09D-04
 Largest core mixing into a valence orbital is  3.66D-05
 Range of M.O.s used for correlation:     5   207
 NBasis=   207 NAE=    16 NBE=    16 NFC=     4 NFV=     0
 NROrb=    203 NOA=    12 NOB=    12 NVA=   191 NVB=   191

 **** Warning!!: The largest alpha MO coefficient is  0.17669655D+02

 Leave Link  801 at Tue Feb  8 13:25:25 2022, MaxMem= 16106127360 cpu:               2.0 elap:               0.1
 (Enter /sw/contrib/gaussian/g16/B01/g16/l906.exe)
 Frozen-core derivative calculation, NFC=   4 NFV=   0.
 FulOut=F Deriv=T AODrv=F NAtomX=     5
   MMem=          76  MDisk=          12 MDiskD=          12
  W3Min=      811440 MinDsk=     1524655 NBas6D=         245
 NBas2D=       30762    NTT=       30135    LW2=     3500000
    MDV= 16105579927 MDiskM=      328644 NBas2p=       30466
 Fully in-core method, ICMem=   960157634.
 IMap=   1   2   3   4   5   6   7   8   9  10  11  12  13  14  15  16
 JobTyp=1 Pass  1 fully in-core, NPsUse= 28.
 Compute canonical integrals.
 FoFCou: FMM=F IPFlag=           0 FMFlag=           0 FMFlg1=           0
         NFxFlg=           0 DoJE=F BraDBF=F KetDBF=F FulRan=T
         wScrn=  0.000000 ICntrl=       600 IOpCl=  1 I1Cent=           0 NGrid=           0
         NMat0=    1 NMatS0=  30762 NMatT0=    0 NMatD0=    1 NMtDS0=    0 NMtDT0=    0
 Symmetry not used in FoFCou.
 Spin components of T(2) and E(2):
     alpha-alpha T2 =       0.3419072002D-01 E2=     -0.1225782958D+00
     alpha-beta  T2 =       0.1877726123D+00 E2=     -0.7012531623D+00
     beta-beta   T2 =       0.3419072002D-01 E2=     -0.1225782958D+00
 The integrals were generated   1 times.
 ANorm=    0.1120782786D+01
 E2 =    -0.9464097538D+00 EUMP2 =    -0.28044665124817D+03
 Leave Link  906 at Tue Feb  8 13:25:34 2022, MaxMem= 16106127360 cpu:             243.9 elap:               8.7
 (Enter /sw/contrib/gaussian/g16/B01/g16/l1002.exe)
 Minotr:  Closed shell wavefunction.
          Computing MP2/KS-MP2 derivatives.
          Using Z-Vector for PSCF gradient.
          Skipping F1 and S1 gradient terms here.
          Frozen-core window.
          Direct CPHF calculation.
          Differentiating once with respect to electric field.
                with respect to dipole field.
          Electric field/nuclear overlap derivatives assumed to be zero.
          Using symmetry in CPHF.
          Requested convergence is 1.0D-10 RMS, and 1.0D-09 maximum.
          NewPWx=F KeepS1=T KeepF1=T KeepIn=T MapXYZ=F SortEE=F KeepMc=T.
 Keep R1 ints in memory in symmetry-blocked form, NReq=348888868.
 FoFCou: FMM=F IPFlag=           0 FMFlag=           0 FMFlg1=           0
         NFxFlg=           0 DoJE=F BraDBF=F KetDBF=F FulRan=T
         wScrn=  0.000000 ICntrl=       600 IOpCl=  0 I1Cent=           0 NGrid=           0
         NMat0=    1 NMatS0=  21528 NMatT0=    0 NMatD0=    1 NMtDS0=    0 NMtDT0=    0
 Petite list used in FoFCou.
          MDV=   16106127360 using IRadAn=       5.
          Solving linear equations separately, MaxMat=       0.
          There are     1 degrees of freedom in the 1st order CPHF.  IDoFFX=0 NUNeed=     1.
 LinEq1:  Iter=  0 NonCon=     1 RMS=6.00D-03 Max=1.35D-01 NDo=     1
 AX will form     1 AO Fock derivatives at one time.
 LinEq1:  Iter=  1 NonCon=     1 RMS=1.93D-03 Max=3.93D-02 NDo=     1
 LinEq1:  Iter=  2 NonCon=     1 RMS=8.84D-04 Max=1.44D-02 NDo=     1
 LinEq1:  Iter=  3 NonCon=     1 RMS=3.96D-04 Max=8.19D-03 NDo=     1
 LinEq1:  Iter=  4 NonCon=     1 RMS=1.22D-04 Max=1.96D-03 NDo=     1
 LinEq1:  Iter=  5 NonCon=     1 RMS=4.81D-05 Max=7.67D-04 NDo=     1
 LinEq1:  Iter=  6 NonCon=     1 RMS=2.14D-05 Max=2.42D-04 NDo=     1
 LinEq1:  Iter=  7 NonCon=     1 RMS=8.60D-06 Max=1.63D-04 NDo=     1
 LinEq1:  Iter=  8 NonCon=     1 RMS=3.66D-06 Max=3.56D-05 NDo=     1
 LinEq1:  Iter=  9 NonCon=     1 RMS=9.93D-07 Max=1.35D-05 NDo=     1
 LinEq1:  Iter= 10 NonCon=     1 RMS=1.95D-07 Max=2.11D-06 NDo=     1
 LinEq1:  Iter= 11 NonCon=     1 RMS=3.60D-08 Max=3.71D-07 NDo=     1
 LinEq1:  Iter= 12 NonCon=     1 RMS=8.71D-09 Max=1.34D-07 NDo=     1
 LinEq1:  Iter= 13 NonCon=     1 RMS=1.58D-09 Max=2.69D-08 NDo=     1
 LinEq1:  Iter= 14 NonCon=     1 RMS=2.85D-10 Max=3.98D-09 NDo=     1
 LinEq1:  Iter= 15 NonCon=     0 RMS=5.05D-11 Max=5.58D-10 NDo=     1
 Linear equations converged to 1.000D-10 1.000D-09 after    15 iterations.
 End of Minotr F.D. properties file   721 does not exist.
 End of Minotr F.D. properties file   722 does not exist.
 End of Minotr F.D. properties file   788 does not exist.
 Leave Link 1002 at Tue Feb  8 13:25:38 2022, MaxMem= 16106127360 cpu:              54.6 elap:               4.0
 (Enter /sw/contrib/gaussian/g16/B01/g16/l601.exe)
 Copying SCF densities to generalized density rwf, IOpCl= 0 IROHF=0.

 **********************************************************************

            Population analysis using the MP2 Density.

 **********************************************************************

 Orbital symmetries:
       Occupied  (A') (A') (A') (A') (A') (A') (A') (A') (A') (A')
                 (A") (A') (A") (A') (A") (A')
       Virtual   (A') (A") (A') (A') (A') (A") (A') (A') (A") (A')
                 (A") (A') (A') (A') (A") (A') (A') (A") (A') (A')
                 (A') (A') (A') (A') (A") (A') (A') (A") (A') (A')
                 (A") (A') (A") (A') (A') (A") (A') (A') (A") (A')
                 (A") (A') (A") (A') (A') (A") (A') (A') (A") (A')
                 (A") (A') (A') (A') (A") (A') (A") (A') (A") (A')
                 (A') (A') (A") (A') (A') (A") (A') (A") (A') (A')
                 (A") (A') (A') (A") (A") (A') (A') (A") (A') (A')
                 (A') (A") (A') (A") (A') (A") (A') (A") (A') (A')
                 (A") (A') (A') (A") (A') (A") (A') (A") (A') (A')
                 (A") (A') (A") (A') (A') (A") (A') (A') (A") (A')
                 (A") (A') (A') (A') (A") (A') (A') (A') (A") (A')
                 (A") (A') (A") (A') (A') (A") (A") (A') (A") (A')
                 (A') (A') (A') (A") (A") (A") (A') (A') (A') (A')
                 (A") (A') (A") (A') (A') (A") (A') (A') (A') (A')
                 (A") (A') (A') (A") (A') (A") (A') (A") (A') (A")
                 (A') (A") (A') (A') (A") (A") (A") (A') (A") (A')
                 (A") (A') (A") (A') (A") (A') (A") (A') (A") (A')
                 (A') (A') (A') (A') (A') (A') (A') (A') (A') (A')
                 (A')
 The electronic state is 1-A'.
 Alpha  occ. eigenvalues --  -20.69272 -20.68397 -20.66099 -15.81399  -1.61774
 Alpha  occ. eigenvalues --   -1.49555  -1.25520  -0.94916  -0.77192  -0.75711
 Alpha  occ. eigenvalues --   -0.71029  -0.67838  -0.61879  -0.58993  -0.48587
 Alpha  occ. eigenvalues --   -0.47404
 Alpha virt. eigenvalues --    0.02941   0.06923   0.08607   0.10172   0.13384
 Alpha virt. eigenvalues --    0.13411   0.14391   0.15434   0.17812   0.19426
 Alpha virt. eigenvalues --    0.19952   0.20635   0.22055   0.23477   0.23733
 Alpha virt. eigenvalues --    0.26596   0.29263   0.30357   0.31009   0.34352
 Alpha virt. eigenvalues --    0.34947   0.38691   0.42162   0.43153   0.52749
 Alpha virt. eigenvalues --    0.52799   0.55798   0.58146   0.62159   0.63867
 Alpha virt. eigenvalues --    0.67691   0.68394   0.70632   0.71095   0.72384
 Alpha virt. eigenvalues --    0.72893   0.74469   0.79112   0.79155   0.81060
 Alpha virt. eigenvalues --    0.81198   0.82854   0.86756   0.90755   0.92122
 Alpha virt. eigenvalues --    0.92558   0.95618   0.97581   0.98395   1.01608
 Alpha virt. eigenvalues --    1.05148   1.05426   1.08084   1.11657   1.14043
 Alpha virt. eigenvalues --    1.18902   1.21964   1.23149   1.33825   1.34994
 Alpha virt. eigenvalues --    1.38496   1.45303   1.48738   1.50799   1.53779
 Alpha virt. eigenvalues --    1.56693   1.57990   1.61266   1.66227   1.66930
 Alpha virt. eigenvalues --    1.70354   1.79275   1.83195   1.83440   1.87617
 Alpha virt. eigenvalues --    1.91006   1.95827   1.99011   2.00609   2.07739
 Alpha virt. eigenvalues --    2.12073   2.13123   2.14905   2.22402   2.26370
 Alpha virt. eigenvalues --    2.26419   2.28882   2.31338   2.34153   2.38541
 Alpha virt. eigenvalues --    2.42264   2.42691   2.45399   2.46177   2.47547
 Alpha virt. eigenvalues --    2.49970   2.58835   2.59505   2.61935   2.62149
 Alpha virt. eigenvalues --    2.63352   2.66517   2.75439   2.82126   2.85190
 Alpha virt. eigenvalues --    2.88050   2.89219   2.92125   2.95607   3.02331
 Alpha virt. eigenvalues --    3.06934   3.11906   3.20392   3.22448   3.31510
 Alpha virt. eigenvalues --    3.34049   3.51355   3.64267   3.83721   3.84188
 Alpha virt. eigenvalues --    4.14769   4.16178   4.18246   4.23875   4.35068
 Alpha virt. eigenvalues --    4.39197   4.46108   4.51755   4.65212   4.70908
 Alpha virt. eigenvalues --    4.80080   4.82314   4.82707   4.89623   5.02442
 Alpha virt. eigenvalues --    5.07677   5.10025   5.14782   5.17633   5.23936
 Alpha virt. eigenvalues --    5.27140   5.30846   5.32822   5.34878   5.60441
 Alpha virt. eigenvalues --    5.66061   5.76207   5.82562   5.96055   6.16647
 Alpha virt. eigenvalues --    6.30718   6.33747   6.39323   6.49361   6.50528
 Alpha virt. eigenvalues --    6.61256   6.66690   6.69627   6.75642   6.76194
 Alpha virt. eigenvalues --    6.82778   6.89526   7.01083   7.05393   7.05551
 Alpha virt. eigenvalues --    7.08886   7.12049   7.14755   7.18038   7.21921
 Alpha virt. eigenvalues --    7.23987   7.30280   7.30834   7.34230   7.39346
 Alpha virt. eigenvalues --    7.43004   7.48342   7.60380   7.60620   7.61853
 Alpha virt. eigenvalues --    7.66360   7.78227   7.87381   8.08950   8.31148
 Alpha virt. eigenvalues --    8.40819   8.54238  13.37454  14.32847  15.15793
 Alpha virt. eigenvalues --   15.91743
          Condensed to atoms (all electrons):
               1          2          3          4          5
     1  H    0.589331   0.128385   0.020066   0.012336  -0.000649
     2  O    0.128385   8.320947  -0.173442  -0.090401   0.015467
     3  O    0.020066  -0.173442   8.462756  -0.126794  -0.037156
     4  N    0.012336  -0.090401  -0.126794   6.968762  -0.054753
     5  O   -0.000649   0.015467  -0.037156  -0.054753   8.272085
 Mulliken charges:
               1
     1  H    0.250531
     2  O   -0.200956
     3  O   -0.145430
     4  N    0.290850
     5  O   -0.194995
 Sum of Mulliken charges =  -0.00000
 Mulliken charges with hydrogens summed into heavy atoms:
               1
     2  O    0.049575
     3  O   -0.145430
     4  N    0.290850
     5  O   -0.194995
 Electronic spatial extent (au):  <R**2>=            253.6366
 Charge=             -0.0000 electrons
 Dipole moment (field-independent basis, Debye):
    X=              0.5376    Y=              1.3955    Z=              0.0000  Tot=              1.4955
 Quadrupole moment (field-independent basis, Debye-Ang):
   XX=            -22.5098   YY=            -18.6157   ZZ=            -22.0235
   XY=              3.2297   XZ=             -0.0000   YZ=              0.0000
 Traceless Quadrupole moment (field-independent basis, Debye-Ang):
   XX=             -1.4601   YY=              2.4340   ZZ=             -0.9738
   XY=              3.2297   XZ=             -0.0000   YZ=              0.0000
 Octapole moment (field-independent basis, Debye-Ang**2):
  XXX=              2.9210  YYY=             11.4936  ZZZ=             -0.0000  XYY=              7.9819
  XXY=              6.6055  XXZ=              0.0000  XZZ=             -1.5526  YZZ=             -0.8280
  YYZ=              0.0000  XYZ=              0.0000
 Hexadecapole moment (field-independent basis, Debye-Ang**3):
 XXXX=           -158.7735 YYYY=            -90.2713 ZZZZ=            -18.2538 XXXY=            -36.9766
 XXXZ=             -0.0000 YYYX=            -30.9741 YYYZ=             -0.0000 ZZZX=             -0.0000
 ZZZY=             -0.0000 XXYY=            -34.1271 XXZZ=            -30.9181 YYZZ=            -20.7876
 XXYZ=             -0.0000 YYXZ=             -0.0000 ZZXY=            -15.1554
 N-N= 1.166327815351D+02 E-N=-8.953556947060D+02  KE= 2.801645197026D+02
 Symmetry A'   KE= 2.661963889388D+02
 Symmetry A"   KE= 1.396813076384D+01
 No NMR shielding tensors so no spin-rotation constants.
 Leave Link  601 at Tue Feb  8 13:25:38 2022, MaxMem= 16106127360 cpu:               4.7 elap:               0.2
 (Enter /sw/contrib/gaussian/g16/B01/g16/l9999.exe)
 1\1\GINC-N2177\SP\RMP2-FC\Aug-CC-pVTZ\H1N1O3\CGAVINH\08-Feb-2022\0\\#p
  SP mp2/aug-cc-pvtz density=current\\title\\0,1\H\O,1,0.96897556\O,2,1
 .45491931,1,97.59494903\N,3,1.45878406,2,102.29752444,1,180.,0\O,4,1.1
 786564152,3,109.06955123,2,180.,0\\Version=ES64L-G16RevB.01\State=1-A'
 \HF=-279.5002415\MP2=-280.4466512\RMSD=4.007e-09\Dipole=-0.1582875,0.,
 -0.5666667\Quadrupole=-1.5144319,-0.72401,2.2384419,0.,2.0833141,0.\PG
 =CS [SG(H1N1O3)]\\@


 You don't have to suffer to be a poet.
 Adolescence is enough suffering for anyone.
                             -- John Ciardi
 Job cpu time:       0 days  0 hours  6 minutes 20.3 seconds.
 Elapsed time:       0 days  0 hours  0 minutes 17.5 seconds.
 File lengths (MBytes):  RWF=     22 Int=      0 D2E=      0 Chk=      8 Scr=      1
 Normal termination of Gaussian 16 at Tue Feb  8 13:25:38 2022.
