title                                                                   
SP        RMP2-FC                                                     Aug-CC-pVTZ         
Number of atoms                            I                5
Info1-9                                    I   N=           9
          33          24           0           0           0         110
           1           2           1
Full Title                                 C   N=           1
title       
Route                                      C   N=           4
#p SP mp2/aug-cc-pvtz density=current           
Charge                                     I                0
Multiplicity                               I                1
Number of electrons                        I               32
Number of alpha electrons                  I               16
Number of beta electrons                   I               16
Number of basis functions                  I              207
Number of independent functions            I              207
Number of point charges in /Mol/           I                0
Number of translation vectors              I                0
Atomic numbers                             I   N=           5
           1           8           8           7           8
Nuclear charges                            R   N=           5
  1.00000000E+00  8.00000000E+00  8.00000000E+00  7.00000000E+00  8.00000000E+00
Current cartesian coordinates              R   N=          15
  2.93245504E+00  3.16244758E+00 -7.30358669E-31  2.74802098E+00  1.34066122E+00
 -9.88969911E-31  7.63511154E-17  1.25362265E+00  1.18850272E-30 -4.94408542E-01
 -1.41828942E+00 -1.11875613E-30 -2.68197039E+00 -1.74858657E+00  1.58981039E-30
Number of symbols in /Mol/                 I                0
Force Field                                I                0
Atom Types                                 C   N=           5
                                                            
Int Atom Types                             I   N=           5
           0           0           0           0           0
MM charges                                 R   N=           5
  0.00000000E+00  0.00000000E+00  0.00000000E+00  0.00000000E+00  0.00000000E+00
Integer atomic weights                     I   N=           5
           1          16          16          14          16
Real atomic weights                        R   N=           5
  1.00782504E+00  1.59949146E+01  1.59949146E+01  1.40030740E+01  1.59949146E+01
Atom fragment info                         I   N=           5
           0           0           0           0           0
Atom residue num                           I   N=           5
           0           0           0           0           0
Nuclear spins                              I   N=           5
           1           0           0           2           0
Nuclear ZEff                               R   N=           5
 -1.00000000E+00 -5.60000000E+00 -5.60000000E+00 -4.55000000E+00 -5.60000000E+00
Nuclear ZNuc                               R   N=           5
  1.00000000E+00  8.00000000E+00  8.00000000E+00  7.00000000E+00  8.00000000E+00
Nuclear QMom                               R   N=           5
  0.00000000E+00  0.00000000E+00  0.00000000E+00  2.04400000E+00  0.00000000E+00
Nuclear GFac                               R   N=           5
  2.79284600E+00  0.00000000E+00  0.00000000E+00  4.03761000E-01  0.00000000E+00
MicOpt                                     I   N=           5
          -1          -1          -1          -1          -1
Number of residues                         I                0
Number of secondary structures             I                0
SymInf integers                            I   N=          26
           1           2           1           1           1           1
           1          -1           0           0           0           0
           0           0           0           0           0           0
           0           0           0           0           0           0
           0           0
RotTr to input orientation                 R   N=          12
 -9.94914489E-01  1.48526536E-15 -1.00723179E-01  1.00723179E-01 -1.62791956E-15
 -9.94914489E-01 -1.64168126E-15 -1.00000000E+00  1.47004011E-15  2.59901023E+00
  0.00000000E+00  3.44173111E+00
Number of contracted shells                I               65
Number of primitive shells                 I              119
Pure/Cartesian d shells                    I                0
Pure/Cartesian f shells                    I                0
Highest angular momentum                   I                3
Largest degree of contraction              I                7
Shell types                                I   N=          65
           0           0           0           0           1           1
           1          -2          -2           0           0           0
           0           0           1           1           1           1
          -2          -2          -2          -3          -3           0
           0           0           0           0           1           1
           1           1          -2          -2          -2          -3
          -3           0           0           0           0           0
           1           1           1           1          -2          -2
          -2          -3          -3           0           0           0
           0           0           1           1           1           1
          -2          -2          -2          -3          -3
Number of primitives per shell             I   N=          65
           3           1           1           1           1           1
           1           1           1           7           6           1
           1           1           3           1           1           1
           1           1           1           1           1           7
           6           1           1           1           3           1
           1           1           1           1           1           1
           1           7           6           1           1           1
           3           1           1           1           1           1
           1           1           1           7           6           1
           1           1           3           1           1           1
           1           1           1           1           1
Shell to atom map                          I   N=          65
           1           1           1           1           1           1
           1           1           1           2           2           2
           2           2           2           2           2           2
           2           2           2           2           2           3
           3           3           3           3           3           3
           3           3           3           3           3           3
           3           4           4           4           4           4
           4           4           4           4           4           4
           4           4           4           5           5           5
           5           5           5           5           5           5
           5           5           5           5           5
Primitive exponents                        R   N=         119
  3.38700000E+01  5.09500000E+00  1.15900000E+00  3.25800000E-01  1.02700000E-01
  2.52600000E-02  1.40700000E+00  3.88000000E-01  1.02000000E-01  1.05700000E+00
  2.47000000E-01  1.53300000E+04  2.29900000E+03  5.22400000E+02  1.47300000E+02
  4.75500000E+01  1.67600000E+01  6.20700000E+00  5.22400000E+02  1.47300000E+02
  4.75500000E+01  1.67600000E+01  6.20700000E+00  6.88200000E-01  1.75200000E+00
  2.38400000E-01  7.37600000E-02  3.44600000E+01  7.74900000E+00  2.28000000E+00
  7.15600000E-01  2.14000000E-01  5.97400000E-02  2.31400000E+00  6.45000000E-01
  2.14000000E-01  1.42800000E+00  5.00000000E-01  1.53300000E+04  2.29900000E+03
  5.22400000E+02  1.47300000E+02  4.75500000E+01  1.67600000E+01  6.20700000E+00
  5.22400000E+02  1.47300000E+02  4.75500000E+01  1.67600000E+01  6.20700000E+00
  6.88200000E-01  1.75200000E+00  2.38400000E-01  7.37600000E-02  3.44600000E+01
  7.74900000E+00  2.28000000E+00  7.15600000E-01  2.14000000E-01  5.97400000E-02
  2.31400000E+00  6.45000000E-01  2.14000000E-01  1.42800000E+00  5.00000000E-01
  1.14200000E+04  1.71200000E+03  3.89300000E+02  1.10000000E+02  3.55700000E+01
  1.25400000E+01  4.64400000E+00  3.89300000E+02  1.10000000E+02  3.55700000E+01
  1.25400000E+01  4.64400000E+00  5.11800000E-01  1.29300000E+00  1.78700000E-01
  5.76000000E-02  2.66300000E+01  5.94800000E+00  1.74200000E+00  5.55000000E-01
  1.72500000E-01  4.91000000E-02  1.65400000E+00  4.69000000E-01  1.51000000E-01
  1.09300000E+00  3.64000000E-01  1.53300000E+04  2.29900000E+03  5.22400000E+02
  1.47300000E+02  4.75500000E+01  1.67600000E+01  6.20700000E+00  5.22400000E+02
  1.47300000E+02  4.75500000E+01  1.67600000E+01  6.20700000E+00  6.88200000E-01
  1.75200000E+00  2.38400000E-01  7.37600000E-02  3.44600000E+01  7.74900000E+00
  2.28000000E+00  7.15600000E-01  2.14000000E-01  5.97400000E-02  2.31400000E+00
  6.45000000E-01  2.14000000E-01  1.42800000E+00  5.00000000E-01
Contraction coefficients                   R   N=         119
  2.54948632E-02  1.90362766E-01  8.52162022E-01  1.00000000E+00  1.00000000E+00
  1.00000000E+00  1.00000000E+00  1.00000000E+00  1.00000000E+00  1.00000000E+00
  1.00000000E+00  5.19808943E-04  4.02025621E-03  2.07128267E-02  8.10105536E-02
  2.35962985E-01  4.42653446E-01  3.57064423E-01 -4.42115008E-05 -1.22591041E-03
 -1.05517725E-02 -6.74452633E-02 -1.71198607E-01  1.07329856E+00  1.00000000E+00
  1.00000000E+00  1.00000000E+00  4.11634896E-02  2.57762836E-01  8.02419274E-01
  1.00000000E+00  1.00000000E+00  1.00000000E+00  1.00000000E+00  1.00000000E+00
  1.00000000E+00  1.00000000E+00  1.00000000E+00  5.19808943E-04  4.02025621E-03
  2.07128267E-02  8.10105536E-02  2.35962985E-01  4.42653446E-01  3.57064423E-01
 -4.42115008E-05 -1.22591041E-03 -1.05517725E-02 -6.74452633E-02 -1.71198607E-01
  1.07329856E+00  1.00000000E+00  1.00000000E+00  1.00000000E+00  4.11634896E-02
  2.57762836E-01  8.02419274E-01  1.00000000E+00  1.00000000E+00  1.00000000E+00
  1.00000000E+00  1.00000000E+00  1.00000000E+00  1.00000000E+00  1.00000000E+00
  5.34563860E-04  4.13435660E-03  2.12335358E-02  8.25006224E-02  2.38138871E-01
  4.42551547E-01  3.53757422E-01 -4.89867350E-05 -1.19527323E-03 -1.03490714E-02
 -6.48680190E-02 -1.71552477E-01  1.07289568E+00  1.00000000E+00  1.00000000E+00
  1.00000000E+00  3.98072123E-02  2.49002660E-01  8.10479727E-01  1.00000000E+00
  1.00000000E+00  1.00000000E+00  1.00000000E+00  1.00000000E+00  1.00000000E+00
  1.00000000E+00  1.00000000E+00  5.19808943E-04  4.02025621E-03  2.07128267E-02
  8.10105536E-02  2.35962985E-01  4.42653446E-01  3.57064423E-01 -4.42115008E-05
 -1.22591041E-03 -1.05517725E-02 -6.74452633E-02 -1.71198607E-01  1.07329856E+00
  1.00000000E+00  1.00000000E+00  1.00000000E+00  4.11634896E-02  2.57762836E-01
  8.02419274E-01  1.00000000E+00  1.00000000E+00  1.00000000E+00  1.00000000E+00
  1.00000000E+00  1.00000000E+00  1.00000000E+00  1.00000000E+00
Coordinates of each shell                  R   N=         195
  2.93245504E+00  3.16244758E+00  1.00436996E-31  2.93245504E+00  3.16244758E+00
  1.00436996E-31  2.93245504E+00  3.16244758E+00  1.00436996E-31  2.93245504E+00
  3.16244758E+00  1.00436996E-31  2.93245504E+00  3.16244758E+00  1.00436996E-31
  2.93245504E+00  3.16244758E+00  1.00436996E-31  2.93245504E+00  3.16244758E+00
  1.00436996E-31  2.93245504E+00  3.16244758E+00  1.00436996E-31  2.93245504E+00
  3.16244758E+00  1.00436996E-31  2.74802098E+00  1.34066122E+00 -2.24310291E-31
  2.74802098E+00  1.34066122E+00 -2.24310291E-31  2.74802098E+00  1.34066122E+00
 -2.24310291E-31  2.74802098E+00  1.34066122E+00 -2.24310291E-31  2.74802098E+00
  1.34066122E+00 -2.24310291E-31  2.74802098E+00  1.34066122E+00 -2.24310291E-31
  2.74802098E+00  1.34066122E+00 -2.24310291E-31  2.74802098E+00  1.34066122E+00
 -2.24310291E-31  2.74802098E+00  1.34066122E+00 -2.24310291E-31  2.74802098E+00
  1.34066122E+00 -2.24310291E-31  2.74802098E+00  1.34066122E+00 -2.24310291E-31
  2.74802098E+00  1.34066122E+00 -2.24310291E-31  2.74802098E+00  1.34066122E+00
 -2.24310291E-31  2.74802098E+00  1.34066122E+00 -2.24310291E-31 -9.36304996E-18
  1.25362265E+00  2.45976166E-31 -9.36304996E-18  1.25362265E+00  2.45976166E-31
 -9.36304996E-18  1.25362265E+00  2.45976166E-31 -9.36304996E-18  1.25362265E+00
  2.45976166E-31 -9.36304996E-18  1.25362265E+00  2.45976166E-31 -9.36304996E-18
  1.25362265E+00  2.45976166E-31 -9.36304996E-18  1.25362265E+00  2.45976166E-31
 -9.36304996E-18  1.25362265E+00  2.45976166E-31 -9.36304996E-18  1.25362265E+00
  2.45976166E-31 -9.36304996E-18  1.25362265E+00  2.45976166E-31 -9.36304996E-18
  1.25362265E+00  2.45976166E-31 -9.36304996E-18  1.25362265E+00  2.45976166E-31
 -9.36304996E-18  1.25362265E+00  2.45976166E-31 -9.36304996E-18  1.25362265E+00
  2.45976166E-31 -4.94408542E-01 -1.41828942E+00 -1.90601921E-31 -4.94408542E-01
 -1.41828942E+00 -1.90601921E-31 -4.94408542E-01 -1.41828942E+00 -1.90601921E-31
 -4.94408542E-01 -1.41828942E+00 -1.90601921E-31 -4.94408542E-01 -1.41828942E+00
 -1.90601921E-31 -4.94408542E-01 -1.41828942E+00 -1.90601921E-31 -4.94408542E-01
 -1.41828942E+00 -1.90601921E-31 -4.94408542E-01 -1.41828942E+00 -1.90601921E-31
 -4.94408542E-01 -1.41828942E+00 -1.90601921E-31 -4.94408542E-01 -1.41828942E+00
 -1.90601921E-31 -4.94408542E-01 -1.41828942E+00 -1.90601921E-31 -4.94408542E-01
 -1.41828942E+00 -1.90601921E-31 -4.94408542E-01 -1.41828942E+00 -1.90601921E-31
 -4.94408542E-01 -1.41828942E+00 -1.90601921E-31 -2.68197039E+00 -1.74858657E+00
  1.32556181E-31 -2.68197039E+00 -1.74858657E+00  1.32556181E-31 -2.68197039E+00
 -1.74858657E+00  1.32556181E-31 -2.68197039E+00 -1.74858657E+00  1.32556181E-31
 -2.68197039E+00 -1.74858657E+00  1.32556181E-31 -2.68197039E+00 -1.74858657E+00
  1.32556181E-31 -2.68197039E+00 -1.74858657E+00  1.32556181E-31 -2.68197039E+00
 -1.74858657E+00  1.32556181E-31 -2.68197039E+00 -1.74858657E+00  1.32556181E-31
 -2.68197039E+00 -1.74858657E+00  1.32556181E-31 -2.68197039E+00 -1.74858657E+00
  1.32556181E-31 -2.68197039E+00 -1.74858657E+00  1.32556181E-31 -2.68197039E+00
 -1.74858657E+00  1.32556181E-31 -2.68197039E+00 -1.74858657E+00  1.32556181E-31
Num ILSW                                   I              100
ILSW                                       I   N=         100
           0           0           0           0           2           0
           0           0           0           0           0          -1
           5           0           0           0           0           0
           0           0           0           0           0           0
           1           0           0           0           0           0
           0           0      100000           0          -1           0
           0           0           0           0           0           0
           0           0           0           1           0           0
           0 -2000000000           1           0           0           0
           0           0           4          52           0           0
           0           0           0           0           0           0
           0           0           0           5           0           1
           0           0           0           0           0           0
           0           0           0           0           0           0
           0           0           0           0           0           0
           0           0           0           0           0           0
           0           0           0           0
Num RLSW                                   I               52
RLSW                                       R   N=          52
  1.00000000E+00  1.00000000E+00  1.00000000E+00  1.00000000E+00  1.00000000E+00
  0.00000000E+00  0.00000000E+00  1.00000000E+00  0.00000000E+00  0.00000000E+00
  0.00000000E+00  0.00000000E+00  1.00000000E+00  0.00000000E+00  0.00000000E+00
  0.00000000E+00  0.00000000E+00  1.00000000E+00  0.00000000E+00  0.00000000E+00
  0.00000000E+00  0.00000000E+00  1.00000000E+00  0.00000000E+00  0.00000000E+00
  0.00000000E+00  0.00000000E+00  1.00000000E+00  0.00000000E+00  0.00000000E+00
  0.00000000E+00  0.00000000E+00  1.00000000E+00  0.00000000E+00  0.00000000E+00
  0.00000000E+00  0.00000000E+00  0.00000000E+00  1.00000000E+00  1.00000000E+00
  0.00000000E+00  1.00000000E+00  0.00000000E+00  0.00000000E+00  0.00000000E+00
  0.00000000E+00  0.00000000E+00  0.00000000E+00  0.00000000E+00  0.00000000E+00
  0.00000000E+00  0.00000000E+00
MxBond                                     I                2
NBond                                      I   N=           5
           1           2           2           2           1
IBond                                      I   N=          10
           2           0           1           3           2           4
           3           5           4           0
RBond                                      R   N=          10
  1.00000000E+00  0.00000000E+00  1.00000000E+00  1.00000000E+00  1.00000000E+00
  1.00000000E+00  1.00000000E+00  2.00000000E+00  2.00000000E+00  0.00000000E+00
Virial Ratio                               R      2.002234371669916E+00
SCF Energy                                 R     -2.795035828432582E+02
MP2 Energy                                 R     -2.804466420512580E+02
Total Energy                               R     -2.804466420512580E+02
Post-SCF wavefunction norm                 R      1.119356005183633E+00
RMS Density                                R      3.523215263582754E-09
Job Status                                 I                1
Nuclear derivative order                   I                0
External E-field                           R   N=          35
  0.00000000E+00  0.00000000E+00  0.00000000E+00  0.00000000E+00  0.00000000E+00
  0.00000000E+00  0.00000000E+00  0.00000000E+00  0.00000000E+00  0.00000000E+00
  0.00000000E+00  0.00000000E+00  0.00000000E+00  0.00000000E+00  0.00000000E+00
  0.00000000E+00  0.00000000E+00  0.00000000E+00  0.00000000E+00  0.00000000E+00
  0.00000000E+00  0.00000000E+00  0.00000000E+00  0.00000000E+00  0.00000000E+00
  0.00000000E+00  0.00000000E+00  0.00000000E+00  0.00000000E+00  0.00000000E+00
  0.00000000E+00  0.00000000E+00  0.00000000E+00  0.00000000E+00  0.00000000E+00
IOpCl                                      I                0
IROHF                                      I                0
Alpha Orbital Energies                     R   N=         207
 -2.06944144E+01 -2.06793145E+01 -2.06625278E+01 -1.58094955E+01 -1.62544618E+00
 -1.49857039E+00 -1.26071936E+00 -9.46568350E-01 -7.74492044E-01 -7.61730278E-01
 -7.15546674E-01 -6.78294981E-01 -6.19354453E-01 -5.90500536E-01 -4.87319544E-01
 -4.73264604E-01  2.90531896E-02  7.43736522E-02  8.63127924E-02  1.01940288E-01
  1.33773960E-01  1.34048015E-01  1.43655378E-01  1.54122062E-01  1.77798569E-01
  1.94204963E-01  1.99917885E-01  2.08907039E-01  2.20179415E-01  2.34485445E-01
  2.37642261E-01  2.66145364E-01  3.00569802E-01  3.03431287E-01  3.12677081E-01
  3.44997567E-01  3.50691252E-01  3.88332649E-01  4.21210293E-01  4.30961732E-01
  5.28336155E-01  5.30115313E-01  5.60839216E-01  5.82771496E-01  6.27462001E-01
  6.39534989E-01  6.75063270E-01  6.84379976E-01  7.05598711E-01  7.10676193E-01
  7.23879647E-01  7.27989331E-01  7.43986980E-01  7.91294932E-01  7.92906449E-01
  8.11152211E-01  8.11272653E-01  8.31656100E-01  8.69776173E-01  9.08367804E-01
  9.21165594E-01  9.27854243E-01  9.54627082E-01  9.80451370E-01  9.83817577E-01
  1.01476325E+00  1.05296797E+00  1.05585632E+00  1.08434191E+00  1.11925415E+00
  1.14336740E+00  1.19057967E+00  1.22134183E+00  1.23323104E+00  1.34123163E+00
  1.35437667E+00  1.38385466E+00  1.45667196E+00  1.48791275E+00  1.50799223E+00
  1.53939262E+00  1.56936345E+00  1.58381294E+00  1.61432628E+00  1.66560581E+00
  1.66999075E+00  1.70524011E+00  1.79329958E+00  1.83242852E+00  1.83830915E+00
  1.87783092E+00  1.91271480E+00  1.95634983E+00  1.99636920E+00  2.00750529E+00
  2.08449600E+00  2.12324258E+00  2.13493931E+00  2.14707829E+00  2.22852555E+00
  2.26312418E+00  2.26472188E+00  2.29314943E+00  2.31493359E+00  2.34931977E+00
  2.38597877E+00  2.42745815E+00  2.43362232E+00  2.45696646E+00  2.46537510E+00
  2.48006217E+00  2.50451220E+00  2.58761584E+00  2.59832073E+00  2.62599068E+00
  2.62645580E+00  2.63299593E+00  2.67007982E+00  2.76103440E+00  2.83404145E+00
  2.86479578E+00  2.89195087E+00  2.89273186E+00  2.94109563E+00  2.95908420E+00
  3.03319690E+00  3.07611446E+00  3.12842987E+00  3.20167282E+00  3.23164043E+00
  3.32039476E+00  3.34779221E+00  3.52030298E+00  3.65131142E+00  3.84833256E+00
  3.84997873E+00  4.14881657E+00  4.15871711E+00  4.18714834E+00  4.26696435E+00
  4.35148245E+00  4.39407881E+00  4.46214619E+00  4.52175916E+00  4.66936156E+00
  4.71333772E+00  4.80905452E+00  4.82608581E+00  4.84138794E+00  4.89783142E+00
  5.03022299E+00  5.08376182E+00  5.11098539E+00  5.14373813E+00  5.18492152E+00
  5.24804288E+00  5.27946338E+00  5.31277782E+00  5.33184756E+00  5.36395869E+00
  5.61103705E+00  5.67744167E+00  5.78148391E+00  5.82763349E+00  5.96304195E+00
  6.17761631E+00  6.30906331E+00  6.34659688E+00  6.39933439E+00  6.49855959E+00
  6.50989337E+00  6.61457934E+00  6.66693614E+00  6.70739071E+00  6.75563132E+00
  6.76305772E+00  6.83839516E+00  6.90540163E+00  7.01918144E+00  7.05517201E+00
  7.05993323E+00  7.08986459E+00  7.13086473E+00  7.15562360E+00  7.18245995E+00
  7.23436871E+00  7.24039954E+00  7.30368216E+00  7.32878743E+00  7.35302289E+00
  7.40568993E+00  7.44128790E+00  7.49018145E+00  7.61178227E+00  7.62684218E+00
  7.64520181E+00  7.67820238E+00  7.79733258E+00  7.89292079E+00  8.11800953E+00
  8.32367226E+00  8.40909612E+00  8.55454971E+00  1.34487290E+01  1.45110721E+01
  1.51800172E+01  1.61943831E+01
Alpha MO coefficients                      R   N=       42849
  9.06139285E-05 -6.08928420E-04 -6.93200369E-04 -4.14178029E-06 -2.01212013E-05
 -2.70170178E-05  0.00000000E+00 -3.83401064E-05  5.04658619E-05  0.00000000E+00
  8.53520340E-05  2.53598258E-05  0.00000000E+00  3.11729971E-05  0.00000000E+00
  0.00000000E+00 -5.06897832E-05  2.01246847E-05 -5.80937347E-06  0.00000000E+00
  0.00000000E+00 -1.37374810E-04  1.18612008E-04  4.44114623E-03 -2.84099984E-04
  9.19939336E-06  1.57156231E-03  1.81973636E-03  1.06247166E-04  6.96511665E-06
  0.00000000E+00 -6.19129014E-04 -3.58150019E-05  0.00000000E+00 -1.14031108E-03
  7.76055261E-04  0.00000000E+00 -4.07046005E-04  6.13955089E-05  0.00000000E+00
  2.89347032E-05  0.00000000E+00  0.00000000E+00 -5.36296597E-05  6.78424576E-06
 -3.77953563E-04  0.00000000E+00  0.00000000E+00  7.39920203E-04 -4.15612198E-05
 -4.45312114E-04  0.00000000E+00  0.00000000E+00  2.57037968E-04 -2.46890803E-05
  0.00000000E+00  7.98591025E-05  1.24477861E-05  0.00000000E+00  0.00000000E+00
 -1.09379756E-04 -2.53390834E-06  0.00000000E+00  2.54859832E-04 -2.83765333E-05
  0.00000000E+00  0.00000000E+00 -3.48042627E-04  5.63165796E-05  9.76901055E-01
 -9.23006915E-03  4.33469584E-02  1.86741659E-03 -9.95820779E-04  1.47978571E-03
 -1.40375315E-03  0.00000000E+00 -1.41061021E-03  1.45688495E-03  0.00000000E+00
  5.24386972E-05 -1.10388162E-03  0.00000000E+00 -1.34153530E-04  3.32349417E-07
  0.00000000E+00  4.04986461E-05  0.00000000E+00  0.00000000E+00 -4.07848059E-05
  2.32311554E-05  7.66187199E-04  0.00000000E+00  0.00000000E+00 -2.02007861E-04
 -4.03164902E-04 -3.44179882E-04  0.00000000E+00  0.00000000E+00 -3.13150510E-04
 -3.79307840E-04  0.00000000E+00  4.55155582E-05 -5.11111090E-05  0.00000000E+00
  0.00000000E+00 -4.01250289E-05 -1.66001526E-05  0.00000000E+00  2.65400030E-05
  1.26825610E-05  0.00000000E+00  0.00000000E+00 -3.10950992E-04 -1.51729310E-04
  4.77107246E-05  1.00241298E-04 -2.81841270E-04 -6.46209901E-04 -1.21267773E-04
 -2.72858730E-05 -1.00362053E-04  0.00000000E+00  2.83777961E-04  8.13097080E-04
  0.00000000E+00 -8.10129989E-04 -3.65156994E-04  0.00000000E+00 -1.23864134E-04
 -1.68980458E-05  0.00000000E+00 -2.69710275E-05  0.00000000E+00  0.00000000E+00
 -4.55841926E-05  2.01785099E-05 -3.50509176E-04  0.00000000E+00  0.00000000E+00
 -8.62092050E-04  1.33556302E-04 -4.45629175E-05  0.00000000E+00  0.00000000E+00
  8.49446504E-05 -1.27542737E-04  0.00000000E+00 -2.13860950E-05 -1.22769752E-04
  0.00000000E+00  0.00000000E+00 -6.71932582E-05 -1.37844010E-04  0.00000000E+00
 -3.26885686E-06 -1.61023572E-04  0.00000000E+00  0.00000000E+00  2.41615541E-05
 -4.08532670E-04 -1.14125175E-03  1.01334272E-04 -5.80007898E-05 -2.05199947E-04
  1.65979852E-04 -5.48849982E-06 -2.44641718E-05  0.00000000E+00  6.93067576E-05
  1.50587117E-04  0.00000000E+00  2.62656021E-04  1.63484790E-04  0.00000000E+00
  1.36123008E-04  2.44833561E-05  0.00000000E+00 -2.78652670E-06  0.00000000E+00
  0.00000000E+00 -1.81739818E-05  1.99868401E-06 -2.08599350E-06  0.00000000E+00
  0.00000000E+00  8.61214764E-05  7.43980082E-05 -1.05162284E-04  0.00000000E+00
  0.00000000E+00  1.74856416E-04  1.47622986E-04  0.00000000E+00  1.66286626E-05
 -1.97368628E-06  0.00000000E+00  0.00000000E+00 -1.50911067E-06 -1.38366391E-05
  0.00000000E+00 -3.74567095E-05  4.36201107E-05  0.00000000E+00  0.00000000E+00
  8.38983846E-05  8.52002659E-05  3.98299466E-05 -9.98526632E-04 -4.84631286E-04
 -8.99965771E-06 -2.13850521E-05  1.55283625E-05  0.00000000E+00 -3.09217146E-06
  2.73485198E-04  0.00000000E+00 -4.42678210E-05  1.32982353E-04  0.00000000E+00
  2.60898468E-05  0.00000000E+00  0.00000000E+00  1.17992229E-05  1.15494796E-05
 -3.03108925E-05  0.00000000E+00  0.00000000E+00  1.41406782E-05  3.80641439E-05
  1.48366083E-04  8.37907359E-05 -2.65896465E-05  7.80713840E-04  6.64629060E-04
  1.05536276E-05  2.64312766E-06  0.00000000E+00 -7.62239348E-05  1.32324197E-05
  0.00000000E+00  3.31087990E-04  9.32428967E-04  0.00000000E+00  1.61619023E-06
  8.48306561E-05  0.00000000E+00 -2.32290390E-06  0.00000000E+00  0.00000000E+00
 -2.10469351E-07 -5.31840300E-06 -3.59287008E-05  0.00000000E+00  0.00000000E+00
 -1.69267104E-05  8.05822540E-05 -2.30269472E-05  0.00000000E+00  0.00000000E+00
 -2.70772936E-04 -1.77030513E-04  0.00000000E+00  9.26334512E-06  6.32444130E-06
  0.00000000E+00  0.00000000E+00  2.31445075E-06 -1.89201194E-05  0.00000000E+00
 -4.05376608E-05 -3.99268871E-05  0.00000000E+00  0.00000000E+00 -7.84447893E-05
  2.53341701E-05  1.17837958E-03  5.26536690E-05  2.85055376E-05 -4.54348249E-05
 -4.47378903E-04  3.31655541E-06  1.76748678E-05  0.00000000E+00 -5.58660651E-05
 -6.15810961E-05  0.00000000E+00  2.15210184E-04 -2.72094298E-04  0.00000000E+00
 -1.98134972E-04 -7.86686807E-05  0.00000000E+00 -9.20296974E-06  0.00000000E+00
  0.00000000E+00  2.42395475E-05  2.12832391E-05  3.91001101E-06  0.00000000E+00
  0.00000000E+00 -1.31930719E-04 -5.60566234E-05 -7.46922252E-06  0.00000000E+00
  0.00000000E+00 -2.55248094E-04 -2.20921645E-04  0.00000000E+00  1.16933017E-06
 -1.82421589E-06  0.00000000E+00  0.00000000E+00 -9.70684521E-07 -9.86327659E-06
  0.00000000E+00 -4.39392180E-05  8.15505909E-06  0.00000000E+00  0.00000000E+00
 -7.58197640E-05  1.90380511E-04  2.57117627E-04  1.46160560E-03 -7.37757280E-05
 -1.61747064E-03  3.66758329E-04 -1.42825084E-04  1.54733990E-06  0.00000000E+00
 -2.11332844E-03 -4.15198463E-04  0.00000000E+00  1.05775426E-03  7.48870422E-04
  0.00000000E+00 -1.67844753E-04  5.33761567E-05  0.00000000E+00 -1.23176467E-04
  0.00000000E+00  0.00000000E+00  2.45436278E-04  9.38305771E-05 -4.38344389E-04
  0.00000000E+00  0.00000000E+00  9.04437902E-04 -9.17800802E-05  1.73535188E-05
  0.00000000E+00  0.00000000E+00 -3.42587929E-04 -1.32158876E-04  0.00000000E+00
 -3.85052202E-08  1.60174077E-05  0.00000000E+00  0.00000000E+00  2.06887357E-05
  1.36218612E-05  0.00000000E+00  1.60873517E-04 -7.51205618E-05  0.00000000E+00
  0.00000000E+00 -2.32501117E-04  5.42831464E-05  9.76647142E-01 -9.84381990E-03
  4.35798603E-02  4.52796399E-03 -4.39747768E-04  2.15303881E-03  4.79332073E-04
  0.00000000E+00 -2.38687662E-03 -6.04813015E-04  0.00000000E+00  1.13468331E-03
 -1.53447453E-05  0.00000000E+00  4.93729038E-06 -4.51690783E-05  0.00000000E+00
 -2.32569597E-04  0.00000000E+00  0.00000000E+00  1.01564791E-04  3.25767987E-05
  3.94451930E-04  0.00000000E+00  0.00000000E+00 -8.40553152E-04 -4.21603427E-04
 -1.49995907E-04  0.00000000E+00  0.00000000E+00  2.49419637E-04  9.38230723E-06
  0.00000000E+00  5.25803298E-05  1.77158468E-05  0.00000000E+00  0.00000000E+00
 -2.17976801E-05 -1.30039491E-05  0.00000000E+00  1.41053228E-04  9.22784628E-06
  0.00000000E+00  0.00000000E+00 -1.92338042E-04 -1.42918822E-04  4.74492765E-04
  2.09459612E-03  1.41733208E-04  1.61014571E-05 -4.12626671E-05 -2.47727043E-04
  0.00000000E+00  1.05825447E-04 -1.28712342E-03  0.00000000E+00  3.11828082E-04
 -3.48961628E-04  0.00000000E+00 -3.54559047E-06  0.00000000E+00  0.00000000E+00
  7.53119567E-05  1.52328326E-05 -1.60786266E-04  0.00000000E+00  0.00000000E+00
 -5.37674243E-04 -2.05062641E-05  9.76830604E-01 -9.16676443E-03  4.34506207E-02
  1.40975821E-04 -1.17621668E-03 -1.56060578E-03  1.44991726E-03  0.00000000E+00
  1.57430204E-03 -1.29500251E-03  0.00000000E+00 -5.77648911E-04 -8.93138489E-04
  0.00000000E+00  5.73139475E-05 -3.84632418E-05  0.00000000E+00  2.96370911E-05
  0.00000000E+00  0.00000000E+00 -1.18713014E-04 -1.72778516E-06  7.60578308E-04
  0.00000000E+00  0.00000000E+00 -2.04604196E-04 -2.35083381E-04 -2.61708607E-04
  0.00000000E+00  0.00000000E+00  1.71958901E-04  1.27591546E-04  0.00000000E+00
 -6.41146320E-05  1.50035926E-06  0.00000000E+00  0.00000000E+00  1.88238305E-05
  9.55135953E-06  0.00000000E+00 -2.11693382E-06  1.23873793E-04  0.00000000E+00
  0.00000000E+00  2.61344723E-04  9.11959294E-05 -4.53539727E-03 -2.21179573E-04