title                                                                   
SP        RMP2-FC                                                     Aug-CC-pVTZ         
Number of atoms                            I                5
Info1-9                                    I   N=           9
          33          24           0           0           0         110
           1           2           1
Full Title                                 C   N=           1
title       
Route                                      C   N=           4
#p SP mp2/aug-cc-pvtz density=current           
Charge                                     I                0
Multiplicity                               I                1
Number of electrons                        I               32
Number of alpha electrons                  I               16
Number of beta electrons                   I               16
Number of basis functions                  I              207
Number of independent functions            I              207
Number of point charges in /Mol/           I                0
Number of translation vectors              I                0
Atomic numbers                             I   N=           5
           1           8           8           7           8
Nuclear charges                            R   N=           5
  1.00000000E+00  8.00000000E+00  8.00000000E+00  7.00000000E+00  8.00000000E+00
Current cartesian coordinates              R   N=          15
  2.98262858E+00  3.17872536E+00  1.97959670E-31  2.74790113E+00  1.36273404E+00
  7.65528177E-32 -1.18861528E-16  1.27199041E+00  5.40973298E-32 -4.97928098E-01
 -1.43937003E+00 -5.29427918E-32 -2.68504262E+00 -1.77261635E+00 -1.60626117E-31
Number of symbols in /Mol/                 I                0
Force Field                                I                0
Atom Types                                 C   N=           5
                                                            
Int Atom Types                             I   N=           5
           0           0           0           0           0
MM charges                                 R   N=           5
  0.00000000E+00  0.00000000E+00  0.00000000E+00  0.00000000E+00  0.00000000E+00
Integer atomic weights                     I   N=           5
           1          16          16          14          16
Real atomic weights                        R   N=           5
  1.00782504E+00  1.59949146E+01  1.59949146E+01  1.40030740E+01  1.59949146E+01
Atom fragment info                         I   N=           5
           0           0           0           0           0
Atom residue num                           I   N=           5
           0           0           0           0           0
Nuclear spins                              I   N=           5
           1           0           0           2           0
Nuclear ZEff                               R   N=           5
 -1.00000000E+00 -5.60000000E+00 -5.60000000E+00 -4.55000000E+00 -5.60000000E+00
Nuclear ZNuc                               R   N=           5
  1.00000000E+00  8.00000000E+00  8.00000000E+00  7.00000000E+00  8.00000000E+00
Nuclear QMom                               R   N=           5
  0.00000000E+00  0.00000000E+00  0.00000000E+00  2.04400000E+00  0.00000000E+00
Nuclear GFac                               R   N=           5
  2.79284600E+00  0.00000000E+00  0.00000000E+00  4.03761000E-01  0.00000000E+00
MicOpt                                     I   N=           5
          -1          -1          -1          -1          -1
Number of residues                         I                0
Number of secondary structures             I                0
SymInf integers                            I   N=          26
           1           2           1           1           1           1
           1          -1           0           0           0           0
           0           0           0           0           0           0
           0           0           0           0           0           0
           0           0
RotTr to input orientation                 R   N=          12
 -9.91749702E-01 -9.85861590E-17 -1.28189422E-01  1.28189422E-01 -7.26523714E-17
 -9.91749702E-01  8.84595284E-17 -1.00000000E+00  8.46906705E-17  2.55054204E+00
  0.00000000E+00  3.53484137E+00
Number of contracted shells                I               65
Number of primitive shells                 I              119
Pure/Cartesian d shells                    I                0
Pure/Cartesian f shells                    I                0
Highest angular momentum                   I                3
Largest degree of contraction              I                7
Shell types                                I   N=          65
           0           0           0           0           1           1
           1          -2          -2           0           0           0
           0           0           1           1           1           1
          -2          -2          -2          -3          -3           0
           0           0           0           0           1           1
           1           1          -2          -2          -2          -3
          -3           0           0           0           0           0
           1           1           1           1          -2          -2
          -2          -3          -3           0           0           0
           0           0           1           1           1           1
          -2          -2          -2          -3          -3
Number of primitives per shell             I   N=          65
           3           1           1           1           1           1
           1           1           1           7           6           1
           1           1           3           1           1           1
           1           1           1           1           1           7
           6           1           1           1           3           1
           1           1           1           1           1           1
           1           7           6           1           1           1
           3           1           1           1           1           1
           1           1           1           7           6           1
           1           1           3           1           1           1
           1           1           1           1           1
Shell to atom map                          I   N=          65
           1           1           1           1           1           1
           1           1           1           2           2           2
           2           2           2           2           2           2
           2           2           2           2           2           3
           3           3           3           3           3           3
           3           3           3           3           3           3
           3           4           4           4           4           4
           4           4           4           4           4           4
           4           4           4           5           5           5
           5           5           5           5           5           5
           5           5           5           5           5
Primitive exponents                        R   N=         119
  3.38700000E+01  5.09500000E+00  1.15900000E+00  3.25800000E-01  1.02700000E-01
  2.52600000E-02  1.40700000E+00  3.88000000E-01  1.02000000E-01  1.05700000E+00
  2.47000000E-01  1.53300000E+04  2.29900000E+03  5.22400000E+02  1.47300000E+02
  4.75500000E+01  1.67600000E+01  6.20700000E+00  5.22400000E+02  1.47300000E+02
  4.75500000E+01  1.67600000E+01  6.20700000E+00  6.88200000E-01  1.75200000E+00
  2.38400000E-01  7.37600000E-02  3.44600000E+01  7.74900000E+00  2.28000000E+00
  7.15600000E-01  2.14000000E-01  5.97400000E-02  2.31400000E+00  6.45000000E-01
  2.14000000E-01  1.42800000E+00  5.00000000E-01  1.53300000E+04  2.29900000E+03
  5.22400000E+02  1.47300000E+02  4.75500000E+01  1.67600000E+01  6.20700000E+00
  5.22400000E+02  1.47300000E+02  4.75500000E+01  1.67600000E+01  6.20700000E+00
  6.88200000E-01  1.75200000E+00  2.38400000E-01  7.37600000E-02  3.44600000E+01
  7.74900000E+00  2.28000000E+00  7.15600000E-01  2.14000000E-01  5.97400000E-02
  2.31400000E+00  6.45000000E-01  2.14000000E-01  1.42800000E+00  5.00000000E-01
  1.14200000E+04  1.71200000E+03  3.89300000E+02  1.10000000E+02  3.55700000E+01
  1.25400000E+01  4.64400000E+00  3.89300000E+02  1.10000000E+02  3.55700000E+01
  1.25400000E+01  4.64400000E+00  5.11800000E-01  1.29300000E+00  1.78700000E-01
  5.76000000E-02  2.66300000E+01  5.94800000E+00  1.74200000E+00  5.55000000E-01
  1.72500000E-01  4.91000000E-02  1.65400000E+00  4.69000000E-01  1.51000000E-01
  1.09300000E+00  3.64000000E-01  1.53300000E+04  2.29900000E+03  5.22400000E+02
  1.47300000E+02  4.75500000E+01  1.67600000E+01  6.20700000E+00  5.22400000E+02
  1.47300000E+02  4.75500000E+01  1.67600000E+01  6.20700000E+00  6.88200000E-01
  1.75200000E+00  2.38400000E-01  7.37600000E-02  3.44600000E+01  7.74900000E+00
  2.28000000E+00  7.15600000E-01  2.14000000E-01  5.97400000E-02  2.31400000E+00
  6.45000000E-01  2.14000000E-01  1.42800000E+00  5.00000000E-01
Contraction coefficients                   R   N=         119
  2.54948632E-02  1.90362766E-01  8.52162022E-01  1.00000000E+00  1.00000000E+00
  1.00000000E+00  1.00000000E+00  1.00000000E+00  1.00000000E+00  1.00000000E+00
  1.00000000E+00  5.19808943E-04  4.02025621E-03  2.07128267E-02  8.10105536E-02
  2.35962985E-01  4.42653446E-01  3.57064423E-01 -4.42115008E-05 -1.22591041E-03
 -1.05517725E-02 -6.74452633E-02 -1.71198607E-01  1.07329856E+00  1.00000000E+00
  1.00000000E+00  1.00000000E+00  4.11634896E-02  2.57762836E-01  8.02419274E-01
  1.00000000E+00  1.00000000E+00  1.00000000E+00  1.00000000E+00  1.00000000E+00
  1.00000000E+00  1.00000000E+00  1.00000000E+00  5.19808943E-04  4.02025621E-03
  2.07128267E-02  8.10105536E-02  2.35962985E-01  4.42653446E-01  3.57064423E-01
 -4.42115008E-05 -1.22591041E-03 -1.05517725E-02 -6.74452633E-02 -1.71198607E-01
  1.07329856E+00  1.00000000E+00  1.00000000E+00  1.00000000E+00  4.11634896E-02
  2.57762836E-01  8.02419274E-01  1.00000000E+00  1.00000000E+00  1.00000000E+00
  1.00000000E+00  1.00000000E+00  1.00000000E+00  1.00000000E+00  1.00000000E+00
  5.34563860E-04  4.13435660E-03  2.12335358E-02  8.25006224E-02  2.38138871E-01
  4.42551547E-01  3.53757422E-01 -4.89867350E-05 -1.19527323E-03 -1.03490714E-02
 -6.48680190E-02 -1.71552477E-01  1.07289568E+00  1.00000000E+00  1.00000000E+00
  1.00000000E+00  3.98072123E-02  2.49002660E-01  8.10479727E-01  1.00000000E+00
  1.00000000E+00  1.00000000E+00  1.00000000E+00  1.00000000E+00  1.00000000E+00
  1.00000000E+00  1.00000000E+00  5.19808943E-04  4.02025621E-03  2.07128267E-02
  8.10105536E-02  2.35962985E-01  4.42653446E-01  3.57064423E-01 -4.42115008E-05
 -1.22591041E-03 -1.05517725E-02 -6.74452633E-02 -1.71198607E-01  1.07329856E+00
  1.00000000E+00  1.00000000E+00  1.00000000E+00  4.11634896E-02  2.57762836E-01
  8.02419274E-01  1.00000000E+00  1.00000000E+00  1.00000000E+00  1.00000000E+00
  1.00000000E+00  1.00000000E+00  1.00000000E+00  1.00000000E+00
Coordinates of each shell                  R   N=         195
  2.98262858E+00  3.17872536E+00  6.87586997E-32  2.98262858E+00  3.17872536E+00
  6.87586997E-32  2.98262858E+00  3.17872536E+00  6.87586997E-32  2.98262858E+00
  3.17872536E+00  6.87586997E-32  2.98262858E+00  3.17872536E+00  6.87586997E-32
  2.98262858E+00  3.17872536E+00  6.87586997E-32  2.98262858E+00  3.17872536E+00
  6.87586997E-32  2.98262858E+00  3.17872536E+00  6.87586997E-32  2.98262858E+00
  3.17872536E+00  6.87586997E-32  2.74790113E+00  1.36273404E+00  2.50652579E-32
  2.74790113E+00  1.36273404E+00  2.50652579E-32  2.74790113E+00  1.36273404E+00
  2.50652579E-32  2.74790113E+00  1.36273404E+00  2.50652579E-32  2.74790113E+00
  1.36273404E+00  2.50652579E-32  2.74790113E+00  1.36273404E+00  2.50652579E-32
  2.74790113E+00  1.36273404E+00  2.50652579E-32  2.74790113E+00  1.36273404E+00
  2.50652579E-32  2.74790113E+00  1.36273404E+00  2.50652579E-32  2.74790113E+00
  1.36273404E+00  2.50652579E-32  2.74790113E+00  1.36273404E+00  2.50652579E-32
  2.74790113E+00  1.36273404E+00  2.50652579E-32  2.74790113E+00  1.36273404E+00
  2.50652579E-32  2.74790113E+00  1.36273404E+00  2.50652579E-32 -1.96510571E-17
  1.27199041E+00  3.10982802E-32 -1.96510571E-17  1.27199041E+00  3.10982802E-32
 -1.96510571E-17  1.27199041E+00  3.10982802E-32 -1.96510571E-17  1.27199041E+00
  3.10982802E-32 -1.96510571E-17  1.27199041E+00  3.10982802E-32 -1.96510571E-17
  1.27199041E+00  3.10982802E-32 -1.96510571E-17  1.27199041E+00  3.10982802E-32
 -1.96510571E-17  1.27199041E+00  3.10982802E-32 -1.96510571E-17  1.27199041E+00
  3.10982802E-32 -1.96510571E-17  1.27199041E+00  3.10982802E-32 -1.96510571E-17
  1.27199041E+00  3.10982802E-32 -1.96510571E-17  1.27199041E+00  3.10982802E-32
 -1.96510571E-17  1.27199041E+00  3.10982802E-32 -1.96510571E-17  1.27199041E+00
  3.10982802E-32 -4.97928098E-01 -1.43937003E+00 -3.36952541E-32 -4.97928098E-01
 -1.43937003E+00 -3.36952541E-32 -4.97928098E-01 -1.43937003E+00 -3.36952541E-32
 -4.97928098E-01 -1.43937003E+00 -3.36952541E-32 -4.97928098E-01 -1.43937003E+00
 -3.36952541E-32 -4.97928098E-01 -1.43937003E+00 -3.36952541E-32 -4.97928098E-01
 -1.43937003E+00 -3.36952541E-32 -4.97928098E-01 -1.43937003E+00 -3.36952541E-32
 -4.97928098E-01 -1.43937003E+00 -3.36952541E-32 -4.97928098E-01 -1.43937003E+00
 -3.36952541E-32 -4.97928098E-01 -1.43937003E+00 -3.36952541E-32 -4.97928098E-01
 -1.43937003E+00 -3.36952541E-32 -4.97928098E-01 -1.43937003E+00 -3.36952541E-32
 -4.97928098E-01 -1.43937003E+00 -3.36952541E-32 -2.68504262E+00 -1.77261635E+00
 -3.52750282E-32 -2.68504262E+00 -1.77261635E+00 -3.52750282E-32 -2.68504262E+00
 -1.77261635E+00 -3.52750282E-32 -2.68504262E+00 -1.77261635E+00 -3.52750282E-32
 -2.68504262E+00 -1.77261635E+00 -3.52750282E-32 -2.68504262E+00 -1.77261635E+00
 -3.52750282E-32 -2.68504262E+00 -1.77261635E+00 -3.52750282E-32 -2.68504262E+00
 -1.77261635E+00 -3.52750282E-32 -2.68504262E+00 -1.77261635E+00 -3.52750282E-32
 -2.68504262E+00 -1.77261635E+00 -3.52750282E-32 -2.68504262E+00 -1.77261635E+00
 -3.52750282E-32 -2.68504262E+00 -1.77261635E+00 -3.52750282E-32 -2.68504262E+00
 -1.77261635E+00 -3.52750282E-32 -2.68504262E+00 -1.77261635E+00 -3.52750282E-32
Num ILSW                                   I              100
ILSW                                       I   N=         100
           0           0           0           0           2           0
           0           0           0           0           0          -1
           5           0           0           0           0           0
           0           0           0           0           0           0
           1           0           0           0           0           0
           0           0      100000           0          -1           0
           0           0           0           0           0           0
           0           0           0           1           0           0
           0 -2000000000           1           0           0           0
           0           0           4          52           0           0
           0           0           0           0           0           0
           0           0           0           5           0           1
           0           0           0           0           0           0
           0           0           0           0           0           0
           0           0           0           0           0           0
           0           0           0           0           0           0
           0           0           0           0
Num RLSW                                   I               52
RLSW                                       R   N=          52
  1.00000000E+00  1.00000000E+00  1.00000000E+00  1.00000000E+00  1.00000000E+00
  0.00000000E+00  0.00000000E+00  1.00000000E+00  0.00000000E+00  0.00000000E+00
  0.00000000E+00  0.00000000E+00  1.00000000E+00  0.00000000E+00  0.00000000E+00
  0.00000000E+00  0.00000000E+00  1.00000000E+00  0.00000000E+00  0.00000000E+00
  0.00000000E+00  0.00000000E+00  1.00000000E+00  0.00000000E+00  0.00000000E+00
  0.00000000E+00  0.00000000E+00  1.00000000E+00  0.00000000E+00  0.00000000E+00
  0.00000000E+00  0.00000000E+00  1.00000000E+00  0.00000000E+00  0.00000000E+00
  0.00000000E+00  0.00000000E+00  0.00000000E+00  1.00000000E+00  1.00000000E+00
  0.00000000E+00  1.00000000E+00  0.00000000E+00  0.00000000E+00  0.00000000E+00
  0.00000000E+00  0.00000000E+00  0.00000000E+00  0.00000000E+00  0.00000000E+00
  0.00000000E+00  0.00000000E+00
MxBond                                     I                2
NBond                                      I   N=           5
           1           2           2           2           1
IBond                                      I   N=          10
           2           0           1           3           2           4
           3           5           4           0
RBond                                      R   N=          10
  1.00000000E+00  0.00000000E+00  1.00000000E+00  1.00000000E+00  1.00000000E+00
  1.00000000E+00  1.00000000E+00  2.00000000E+00  2.00000000E+00  0.00000000E+00
Virial Ratio                               R      2.002375576126957E+00
SCF Energy                                 R     -2.795018079297437E+02
MP2 Energy                                 R     -2.804466407379036E+02
Total Energy                               R     -2.804466407379036E+02
Post-SCF wavefunction norm                 R      1.120181354249580E+00
RMS Density                                R      3.808347091623112E-09
Job Status                                 I                1
Nuclear derivative order                   I                0
External E-field                           R   N=          35
  0.00000000E+00  0.00000000E+00  0.00000000E+00  0.00000000E+00  0.00000000E+00
  0.00000000E+00  0.00000000E+00  0.00000000E+00  0.00000000E+00  0.00000000E+00
  0.00000000E+00  0.00000000E+00  0.00000000E+00  0.00000000E+00  0.00000000E+00
  0.00000000E+00  0.00000000E+00  0.00000000E+00  0.00000000E+00  0.00000000E+00
  0.00000000E+00  0.00000000E+00  0.00000000E+00  0.00000000E+00  0.00000000E+00
  0.00000000E+00  0.00000000E+00  0.00000000E+00  0.00000000E+00  0.00000000E+00
  0.00000000E+00  0.00000000E+00  0.00000000E+00  0.00000000E+00  0.00000000E+00
IOpCl                                      I                0
IROHF                                      I                0
Alpha Orbital Energies                     R   N=         207
 -2.06911083E+01 -2.06843519E+01 -2.06592713E+01 -1.58128960E+01 -1.62398289E+00
 -1.49473593E+00 -1.25464268E+00 -9.48016001E-01 -7.72003858E-01 -7.60242811E-01
 -7.11630312E-01 -6.79776829E-01 -6.20161341E-01 -5.87840199E-01 -4.85015959E-01
 -4.72498233E-01  2.94484455E-02  7.17229662E-02  8.59508505E-02  1.01774556E-01
  1.33794061E-01  1.34038071E-01  1.44093843E-01  1.54447976E-01  1.78309513E-01
  1.94337092E-01  1.99950187E-01  2.06284937E-01  2.20879413E-01  2.35415578E-01
  2.37395926E-01  2.66793778E-01  2.93425799E-01  3.04114939E-01  3.09976919E-01
  3.43577515E-01  3.49423359E-01  3.87157976E-01  4.20672815E-01  4.32221329E-01
  5.27055781E-01  5.29152000E-01  5.58804638E-01  5.82081503E-01  6.25784199E-01
  6.38448010E-01  6.74290461E-01  6.84139400E-01  7.06258659E-01  7.11975947E-01
  7.21011195E-01  7.30240600E-01  7.44984627E-01  7.89988143E-01  7.89996158E-01
  8.09374759E-01  8.13206328E-01  8.31596719E-01  8.68716424E-01  9.07537428E-01
  9.23120601E-01  9.25491739E-01  9.58527203E-01  9.78154589E-01  9.83413814E-01
  1.01559385E+00  1.05242152E+00  1.05518162E+00  1.08208763E+00  1.11752907E+00
  1.13890790E+00  1.18900174E+00  1.22084325E+00  1.23115491E+00  1.33839879E+00
  1.34833538E+00  1.38718201E+00  1.45152619E+00  1.48849372E+00  1.51191365E+00
  1.53871672E+00  1.56719131E+00  1.57990879E+00  1.61553935E+00  1.66492464E+00
  1.66918716E+00  1.70352104E+00  1.78909644E+00  1.83185593E+00  1.83357148E+00
  1.87912765E+00  1.90923993E+00  1.95722925E+00  1.99069511E+00  2.00719300E+00
  2.07636447E+00  2.11685020E+00  2.13197225E+00  2.15030549E+00  2.22256832E+00
  2.26515509E+00  2.26635804E+00  2.28825020E+00  2.31477162E+00  2.34593623E+00
  2.38517090E+00  2.42152214E+00  2.42479623E+00  2.45486546E+00  2.46323928E+00
  2.47454510E+00  2.50312652E+00  2.58877296E+00  2.59452773E+00  2.61751427E+00
  2.62795409E+00  2.63398088E+00  2.66951895E+00  2.75677495E+00  2.82185952E+00
  2.86389437E+00  2.88883135E+00  2.89465473E+00  2.92141861E+00  2.96113911E+00
  3.02674750E+00  3.06757585E+00  3.12294616E+00  3.20021456E+00  3.22968759E+00
  3.31873596E+00  3.34070615E+00  3.51360371E+00  3.65133001E+00  3.83945672E+00
  3.84796450E+00  4.15202476E+00  4.15696062E+00  4.18405064E+00  4.25652916E+00
  4.35992160E+00  4.39073590E+00  4.46484211E+00  4.51138487E+00  4.66426590E+00
  4.69260214E+00  4.80652324E+00  4.82424821E+00  4.83213040E+00  4.89591441E+00
  5.02190536E+00  5.07787759E+00  5.10368954E+00  5.14873458E+00  5.18660816E+00
  5.23583871E+00  5.27376232E+00  5.31067131E+00  5.33145668E+00  5.35337857E+00
  5.60993115E+00  5.67373939E+00  5.77381727E+00  5.81682893E+00  5.95695994E+00
  6.16430316E+00  6.30644208E+00  6.34159650E+00  6.39672723E+00  6.49344729E+00
  6.50566695E+00  6.61238926E+00  6.66739168E+00  6.69711740E+00  6.75456735E+00
  6.76529436E+00  6.83081768E+00  6.89784269E+00  7.00194264E+00  7.05743415E+00
  7.06239914E+00  7.09118591E+00  7.12357053E+00  7.15603233E+00  7.18113315E+00
  7.22388642E+00  7.24177021E+00  7.31040927E+00  7.32568707E+00  7.34671948E+00
  7.39870062E+00  7.41715881E+00  7.48422860E+00  7.60872365E+00  7.61447274E+00
  7.62760279E+00  7.66560748E+00  7.78481505E+00  7.88650462E+00  8.09143742E+00
  8.31071068E+00  8.42113161E+00  8.54553806E+00  1.33953469E+01  1.43970428E+01
  1.51407526E+01  1.61511316E+01
Alpha MO coefficients                      R   N=       42849
  9.20526183E-05 -7.36760839E-04 -7.91034276E-04 -5.90291613E-06 -3.37009547E-05
 -2.34033032E-05  0.00000000E+00 -3.25699269E-05  1.18909363E-04  0.00000000E+00
  9.96684296E-05  6.18543204E-05  0.00000000E+00  3.46872693E-05  0.00000000E+00
  0.00000000E+00 -3.92347771E-05  2.51669660E-05 -1.10611531E-06  0.00000000E+00
  0.00000000E+00 -1.21416627E-04  1.11062900E-04  4.44808513E-03 -2.72310941E-04
  5.20288280E-06  1.70864241E-03  1.91307358E-03  1.06738961E-04  5.16631881E-06
  0.00000000E+00 -6.16472083E-04 -7.77435187E-06  0.00000000E+00 -1.12157465E-03
  8.66185487E-04  0.00000000E+00 -4.15517293E-04  6.69828004E-05  0.00000000E+00
  2.90757243E-05  0.00000000E+00  0.00000000E+00 -5.55415717E-05  4.94269952E-06
 -3.86635120E-04  0.00000000E+00  0.00000000E+00  7.36680211E-04 -2.85830936E-05
 -4.55733963E-04  0.00000000E+00  0.00000000E+00  2.46060661E-04 -2.23509332E-05
  0.00000000E+00  8.03697357E-05  1.17786745E-05  0.00000000E+00  0.00000000E+00
 -1.09899481E-04 -4.53355917E-06  0.00000000E+00  2.54007699E-04 -2.80116597E-05
  0.00000000E+00  0.00000000E+00 -3.60410572E-04  5.69228739E-05  9.76914030E-01
 -9.21364222E-03  4.33155174E-02  2.03864264E-03 -9.60471152E-04  1.50086940E-03
 -1.35693733E-03  0.00000000E+00 -1.44415931E-03  1.38558342E-03  0.00000000E+00
  5.00254083E-05 -1.20649299E-03  0.00000000E+00 -1.45646972E-04 -1.67838388E-05
  0.00000000E+00  4.71814740E-05  0.00000000E+00  0.00000000E+00 -3.44600010E-05
  1.98777897E-05  7.45781252E-04  0.00000000E+00  0.00000000E+00 -2.41113477E-04
 -3.87415243E-04 -3.49203575E-04  0.00000000E+00  0.00000000E+00 -3.20571538E-04
 -3.98167930E-04  0.00000000E+00  4.77348833E-05 -4.95102829E-05  0.00000000E+00
  0.00000000E+00 -3.98356324E-05 -1.49559208E-05  0.00000000E+00  2.34836985E-05
  2.43289129E-05  0.00000000E+00  0.00000000E+00 -3.06041565E-04 -1.39704510E-04
  3.88796670E-05  4.52292799E-05 -2.63211934E-04 -7.20044782E-04 -1.47041626E-04
 -2.70283304E-05 -9.66748945E-05  0.00000000E+00  2.69427880E-04  7.04654032E-04
  0.00000000E+00 -8.57131305E-04 -5.19482361E-04  0.00000000E+00 -1.30901170E-04
 -3.07514513E-05  0.00000000E+00 -1.82394352E-05  0.00000000E+00  0.00000000E+00
 -2.97081777E-05  1.50848491E-05 -3.26346749E-04  0.00000000E+00  0.00000000E+00
 -8.24271806E-04  1.30504518E-04 -3.60758793E-05  0.00000000E+00  0.00000000E+00
  1.10172072E-04 -1.11598688E-04  0.00000000E+00 -2.07498462E-05 -1.19640294E-04
  0.00000000E+00  0.00000000E+00 -6.32086460E-05 -1.37142118E-04  0.00000000E+00
  2.78649360E-06 -1.50777576E-04  0.00000000E+00  0.00000000E+00  4.39730063E-05
 -4.18364897E-04 -2.50127558E-03  1.20961807E-04 -1.19992774E-04 -2.61361298E-04
  1.28371913E-04 -7.74716010E-06 -2.74887268E-05  0.00000000E+00  6.84173576E-05
  1.62337283E-04  0.00000000E+00  2.30531208E-04  2.18663583E-04  0.00000000E+00
  1.28338457E-04  2.55079528E-05  0.00000000E+00 -3.33425431E-06  0.00000000E+00
  0.00000000E+00 -1.77975363E-05  9.98324705E-07  7.40404211E-07  0.00000000E+00
  0.00000000E+00  7.97961104E-05  8.86746508E-05 -1.02616316E-04  0.00000000E+00
  0.00000000E+00  1.64066168E-04  1.69054168E-04  0.00000000E+00  1.58732891E-05
 -3.54321559E-06  0.00000000E+00  0.00000000E+00 -4.27716359E-06 -1.20381915E-05
  0.00000000E+00 -3.37542821E-05  4.49436841E-05  0.00000000E+00  0.00000000E+00
  8.30542503E-05  9.04983314E-05  3.53153073E-05 -9.87510224E-04 -4.93797431E-04
 -1.15925101E-05 -2.34667367E-05  1.67259320E-05  0.00000000E+00 -1.75575031E-06
  2.71497793E-04  0.00000000E+00 -4.61018567E-05  1.34893421E-04  0.00000000E+00
  2.42555827E-05  0.00000000E+00  0.00000000E+00  1.39636437E-05  1.25670829E-05
 -2.93660572E-05  0.00000000E+00  0.00000000E+00  1.34146782E-05  3.88794755E-05
  1.08818948E-04  8.39839524E-05 -2.86464577E-05  7.46373468E-04  6.60853083E-04
  9.98944115E-06  2.61904086E-06  0.00000000E+00 -7.12842045E-05  1.34929981E-05
  0.00000000E+00  3.73365348E-04  9.04172542E-04  0.00000000E+00  9.35215391E-06
  8.51268919E-05  0.00000000E+00 -2.14195701E-06  0.00000000E+00  0.00000000E+00
 -3.55923475E-07 -6.59066314E-06 -3.61321197E-05  0.00000000E+00  0.00000000E+00
 -1.58346181E-05  8.92590183E-05 -2.24075218E-05  0.00000000E+00  0.00000000E+00
 -2.72210530E-04 -1.45244865E-04  0.00000000E+00  9.47897204E-06  6.09754422E-06
  0.00000000E+00  0.00000000E+00  2.55821414E-06 -1.81965380E-05  0.00000000E+00
 -4.26900765E-05 -3.83457385E-05  0.00000000E+00  0.00000000E+00 -8.19718743E-05
  2.23012062E-05  2.54005353E-03  3.92721919E-05  8.78581619E-05 -4.55837999E-05
 -4.77320366E-04  7.31432790E-06  1.57815020E-05  0.00000000E+00 -6.25399032E-05
 -5.45524913E-05  0.00000000E+00  2.41034360E-04 -1.96381997E-04  0.00000000E+00
 -1.91150198E-04 -6.54707041E-05  0.00000000E+00 -8.57801699E-06  0.00000000E+00
  0.00000000E+00  2.26779183E-05  1.96754214E-05  3.75002998E-06  0.00000000E+00
  0.00000000E+00 -1.19298850E-04 -4.54661755E-05 -7.70466587E-07  0.00000000E+00
  0.00000000E+00 -2.23785905E-04 -2.13919763E-04  0.00000000E+00  3.06799269E-06
 -8.54178061E-07  0.00000000E+00  0.00000000E+00  1.45188888E-06 -1.32023888E-05
  0.00000000E+00 -4.53009569E-05  5.06940766E-06  0.00000000E+00  0.00000000E+00
 -7.59499282E-05  1.86780704E-04  2.58751490E-04  1.46568972E-03 -7.78686921E-05
 -1.53459131E-03  4.07473456E-04 -1.44379927E-04  5.80346624E-07  0.00000000E+00
 -2.09152859E-03 -4.02464231E-04  0.00000000E+00  1.02258741E-03  7.51525675E-04
  0.00000000E+00 -1.71058153E-04  5.74407036E-05  0.00000000E+00 -1.23384139E-04
  0.00000000E+00  0.00000000E+00  2.43341930E-04  9.33948389E-05 -4.41872694E-04
  0.00000000E+00  0.00000000E+00  9.00611124E-04 -6.88424940E-05  1.15735279E-05
  0.00000000E+00  0.00000000E+00 -3.34361635E-04 -1.24227515E-04  0.00000000E+00
 -1.17191153E-06  1.55058904E-05  0.00000000E+00  0.00000000E+00  1.88135483E-05
  1.33637687E-05  0.00000000E+00  1.64368949E-04 -7.18647703E-05  0.00000000E+00
  0.00000000E+00 -2.40792557E-04  4.31052027E-05  9.76649739E-01 -9.84785106E-03
  4.35677566E-02  4.48649871E-03 -4.54555234E-04  2.14921302E-03  4.79230103E-04
  0.00000000E+00 -2.38605103E-03 -6.01977315E-04  0.00000000E+00  1.13449146E-03
 -2.78437419E-06  0.00000000E+00  3.55022633E-06 -4.33604273E-05  0.00000000E+00
 -2.32220438E-04  0.00000000E+00  0.00000000E+00  1.02924267E-04  3.14170316E-05
  3.90969169E-04  0.00000000E+00  0.00000000E+00 -8.35594055E-04 -4.17429130E-04
 -1.54786609E-04  0.00000000E+00  0.00000000E+00  2.54648323E-04  1.76482690E-05
  0.00000000E+00  5.24203849E-05  1.76429432E-05  0.00000000E+00  0.00000000E+00
 -2.22022058E-05 -1.32628808E-05  0.00000000E+00  1.37997366E-04  8.99311231E-06
  0.00000000E+00  0.00000000E+00 -1.90671759E-04 -1.39955805E-04  4.79409526E-04
  2.17263261E-03  1.37356647E-04  1.14667612E-05 -4.40158468E-05 -2.45182657E-04
  0.00000000E+00  7.08849739E-05 -1.29812446E-03  0.00000000E+00  2.74047838E-04
 -3.43583018E-04  0.00000000E+00 -8.22699708E-07  0.00000000E+00  0.00000000E+00
  7.64225198E-05  5.10517675E-06 -1.51308641E-04  0.00000000E+00  0.00000000E+00
 -5.37419933E-04  6.93660011E-06  9.76829500E-01 -9.15232715E-03  4.34565010E-02
  5.04439419E-05 -1.08688262E-03 -1.54105916E-03  1.46416412E-03  0.00000000E+00
  1.54965637E-03 -1.29592828E-03  0.00000000E+00 -6.04812167E-04 -9.59632294E-04
  0.00000000E+00  5.96214483E-05 -7.51043343E-06  0.00000000E+00  2.69312247E-05
  0.00000000E+00  0.00000000E+00 -1.17638420E-04  6.64675920E-06  7.65690546E-04
  0.00000000E+00  0.00000000E+00 -2.09695896E-04 -2.67834610E-04 -2.63215340E-04
  0.00000000E+00  0.00000000E+00  1.95163491E-04  1.43109299E-04  0.00000000E+00
 -6.41380237E-05 -1.29974424E-07  0.00000000E+00  0.00000000E+00  2.00881721E-05
  1.00645135E-05  0.00000000E+00  4.30959797E-06  1.29382794E-04  0.00000000E+00
  0.00000000E+00  2.76080605E-04  8.64026285E-05 -4.53866170E-03 -2.11410460E-04