title                                                                   
SP        RMP2-FC                                                     Aug-CC-pVTZ         
Number of atoms                            I                5
Info1-9                                    I   N=           9
          33          24           0           0           0         110
           1           2           1
Full Title                                 C   N=           1
title       
Route                                      C   N=           4
#p SP mp2/aug-cc-pvtz density=current           
Charge                                     I                0
Multiplicity                               I                1
Number of electrons                        I               32
Number of alpha electrons                  I               16
Number of beta electrons                   I               16
Number of basis functions                  I              207
Number of independent functions            I              207
Number of point charges in /Mol/           I                0
Number of translation vectors              I                0
Atomic numbers                             I   N=           5
           1           8           8           7           8
Nuclear charges                            R   N=           5
  1.00000000E+00  8.00000000E+00  8.00000000E+00  7.00000000E+00  8.00000000E+00
Current cartesian coordinates              R   N=          15
  2.89113941E+00  3.20405899E+00  9.68478626E-32  2.72177514E+00  1.38080991E+00
  8.59518035E-32  6.64339073E-17  1.27206832E+00 -1.13887105E-32 -4.79152840E-01
 -1.44267299E+00 -5.69404770E-32 -2.66390883E+00 -1.79104674E+00  3.00242792E-32
Number of symbols in /Mol/                 I                0
Force Field                                I                0
Atom Types                                 C   N=           5
                                                            
Int Atom Types                             I   N=           5
           0           0           0           0           0
MM charges                                 R   N=           5
  0.00000000E+00  0.00000000E+00  0.00000000E+00  0.00000000E+00  0.00000000E+00
Integer atomic weights                     I   N=           5
           1          16          16          14          16
Real atomic weights                        R   N=           5
  1.00782504E+00  1.59949146E+01  1.59949146E+01  1.40030740E+01  1.59949146E+01
Atom fragment info                         I   N=           5
           0           0           0           0           0
Atom residue num                           I   N=           5
           0           0           0           0           0
Nuclear spins                              I   N=           5
           1           0           0           2           0
Nuclear ZEff                               R   N=           5
 -1.00000000E+00 -5.60000000E+00 -5.60000000E+00 -4.55000000E+00 -5.60000000E+00
Nuclear ZNuc                               R   N=           5
  1.00000000E+00  8.00000000E+00  8.00000000E+00  7.00000000E+00  8.00000000E+00
Nuclear QMom                               R   N=           5
  0.00000000E+00  0.00000000E+00  0.00000000E+00  2.04400000E+00  0.00000000E+00
Nuclear GFac                               R   N=           5
  2.79284600E+00  0.00000000E+00  0.00000000E+00  4.03761000E-01  0.00000000E+00
MicOpt                                     I   N=           5
          -1          -1          -1          -1          -1
Number of residues                         I                0
Number of secondary structures             I                0
SymInf integers                            I   N=          26
           1           2           1           1           1           1
           1          -1           0           0           0           0
           0           0           0           0           0           0
           0           0           0           0           0           0
           0           0
RotTr to input orientation                 R   N=          12
 -9.95713310E-01 -9.78222888E-17 -9.24932644E-02  9.24932644E-02 -7.36776604E-17
 -9.95713310E-01  9.05882677E-17 -1.00000000E+00  8.24097299E-17  2.58239212E+00
  0.00000000E+00  3.45773510E+00
Number of contracted shells                I               65
Number of primitive shells                 I              119
Pure/Cartesian d shells                    I                0
Pure/Cartesian f shells                    I                0
Highest angular momentum                   I                3
Largest degree of contraction              I                7
Shell types                                I   N=          65
           0           0           0           0           1           1
           1          -2          -2           0           0           0
           0           0           1           1           1           1
          -2          -2          -2          -3          -3           0
           0           0           0           0           1           1
           1           1          -2          -2          -2          -3
          -3           0           0           0           0           0
           1           1           1           1          -2          -2
          -2          -3          -3           0           0           0
           0           0           1           1           1           1
          -2          -2          -2          -3          -3
Number of primitives per shell             I   N=          65
           3           1           1           1           1           1
           1           1           1           7           6           1
           1           1           3           1           1           1
           1           1           1           1           1           7
           6           1           1           1           3           1
           1           1           1           1           1           1
           1           7           6           1           1           1
           3           1           1           1           1           1
           1           1           1           7           6           1
           1           1           3           1           1           1
           1           1           1           1           1
Shell to atom map                          I   N=          65
           1           1           1           1           1           1
           1           1           1           2           2           2
           2           2           2           2           2           2
           2           2           2           2           2           3
           3           3           3           3           3           3
           3           3           3           3           3           3
           3           4           4           4           4           4
           4           4           4           4           4           4
           4           4           4           5           5           5
           5           5           5           5           5           5
           5           5           5           5           5
Primitive exponents                        R   N=         119
  3.38700000E+01  5.09500000E+00  1.15900000E+00  3.25800000E-01  1.02700000E-01
  2.52600000E-02  1.40700000E+00  3.88000000E-01  1.02000000E-01  1.05700000E+00
  2.47000000E-01  1.53300000E+04  2.29900000E+03  5.22400000E+02  1.47300000E+02
  4.75500000E+01  1.67600000E+01  6.20700000E+00  5.22400000E+02  1.47300000E+02
  4.75500000E+01  1.67600000E+01  6.20700000E+00  6.88200000E-01  1.75200000E+00
  2.38400000E-01  7.37600000E-02  3.44600000E+01  7.74900000E+00  2.28000000E+00
  7.15600000E-01  2.14000000E-01  5.97400000E-02  2.31400000E+00  6.45000000E-01
  2.14000000E-01  1.42800000E+00  5.00000000E-01  1.53300000E+04  2.29900000E+03
  5.22400000E+02  1.47300000E+02  4.75500000E+01  1.67600000E+01  6.20700000E+00
  5.22400000E+02  1.47300000E+02  4.75500000E+01  1.67600000E+01  6.20700000E+00
  6.88200000E-01  1.75200000E+00  2.38400000E-01  7.37600000E-02  3.44600000E+01
  7.74900000E+00  2.28000000E+00  7.15600000E-01  2.14000000E-01  5.97400000E-02
  2.31400000E+00  6.45000000E-01  2.14000000E-01  1.42800000E+00  5.00000000E-01
  1.14200000E+04  1.71200000E+03  3.89300000E+02  1.10000000E+02  3.55700000E+01
  1.25400000E+01  4.64400000E+00  3.89300000E+02  1.10000000E+02  3.55700000E+01
  1.25400000E+01  4.64400000E+00  5.11800000E-01  1.29300000E+00  1.78700000E-01
  5.76000000E-02  2.66300000E+01  5.94800000E+00  1.74200000E+00  5.55000000E-01
  1.72500000E-01  4.91000000E-02  1.65400000E+00  4.69000000E-01  1.51000000E-01
  1.09300000E+00  3.64000000E-01  1.53300000E+04  2.29900000E+03  5.22400000E+02
  1.47300000E+02  4.75500000E+01  1.67600000E+01  6.20700000E+00  5.22400000E+02
  1.47300000E+02  4.75500000E+01  1.67600000E+01  6.20700000E+00  6.88200000E-01
  1.75200000E+00  2.38400000E-01  7.37600000E-02  3.44600000E+01  7.74900000E+00
  2.28000000E+00  7.15600000E-01  2.14000000E-01  5.97400000E-02  2.31400000E+00
  6.45000000E-01  2.14000000E-01  1.42800000E+00  5.00000000E-01
Contraction coefficients                   R   N=         119
  2.54948632E-02  1.90362766E-01  8.52162022E-01  1.00000000E+00  1.00000000E+00
  1.00000000E+00  1.00000000E+00  1.00000000E+00  1.00000000E+00  1.00000000E+00
  1.00000000E+00  5.19808943E-04  4.02025621E-03  2.07128267E-02  8.10105536E-02
  2.35962985E-01  4.42653446E-01  3.57064423E-01 -4.42115008E-05 -1.22591041E-03
 -1.05517725E-02 -6.74452633E-02 -1.71198607E-01  1.07329856E+00  1.00000000E+00
  1.00000000E+00  1.00000000E+00  4.11634896E-02  2.57762836E-01  8.02419274E-01
  1.00000000E+00  1.00000000E+00  1.00000000E+00  1.00000000E+00  1.00000000E+00
  1.00000000E+00  1.00000000E+00  1.00000000E+00  5.19808943E-04  4.02025621E-03
  2.07128267E-02  8.10105536E-02  2.35962985E-01  4.42653446E-01  3.57064423E-01
 -4.42115008E-05 -1.22591041E-03 -1.05517725E-02 -6.74452633E-02 -1.71198607E-01
  1.07329856E+00  1.00000000E+00  1.00000000E+00  1.00000000E+00  4.11634896E-02
  2.57762836E-01  8.02419274E-01  1.00000000E+00  1.00000000E+00  1.00000000E+00
  1.00000000E+00  1.00000000E+00  1.00000000E+00  1.00000000E+00  1.00000000E+00
  5.34563860E-04  4.13435660E-03  2.12335358E-02  8.25006224E-02  2.38138871E-01
  4.42551547E-01  3.53757422E-01 -4.89867350E-05 -1.19527323E-03 -1.03490714E-02
 -6.48680190E-02 -1.71552477E-01  1.07289568E+00  1.00000000E+00  1.00000000E+00
  1.00000000E+00  3.98072123E-02  2.49002660E-01  8.10479727E-01  1.00000000E+00
  1.00000000E+00  1.00000000E+00  1.00000000E+00  1.00000000E+00  1.00000000E+00
  1.00000000E+00  1.00000000E+00  5.19808943E-04  4.02025621E-03  2.07128267E-02
  8.10105536E-02  2.35962985E-01  4.42653446E-01  3.57064423E-01 -4.42115008E-05
 -1.22591041E-03 -1.05517725E-02 -6.74452633E-02 -1.71198607E-01  1.07329856E+00
  1.00000000E+00  1.00000000E+00  1.00000000E+00  4.11634896E-02  2.57762836E-01
  8.02419274E-01  1.00000000E+00  1.00000000E+00  1.00000000E+00  1.00000000E+00
  1.00000000E+00  1.00000000E+00  1.00000000E+00  1.00000000E+00
Coordinates of each shell                  R   N=         195
  2.89113941E+00  3.20405899E+00  7.82559203E-32  2.89113941E+00  3.20405899E+00
  7.82559203E-32  2.89113941E+00  3.20405899E+00  7.82559203E-32  2.89113941E+00
  3.20405899E+00  7.82559203E-32  2.89113941E+00  3.20405899E+00  7.82559203E-32
  2.89113941E+00  3.20405899E+00  7.82559203E-32  2.89113941E+00  3.20405899E+00
  7.82559203E-32  2.89113941E+00  3.20405899E+00  7.82559203E-32  2.89113941E+00
  3.20405899E+00  7.82559203E-32  2.72177514E+00  1.38080991E+00  5.35983137E-32
  2.72177514E+00  1.38080991E+00  5.35983137E-32  2.72177514E+00  1.38080991E+00
  5.35983137E-32  2.72177514E+00  1.38080991E+00  5.35983137E-32  2.72177514E+00
  1.38080991E+00  5.35983137E-32  2.72177514E+00  1.38080991E+00  5.35983137E-32
  2.72177514E+00  1.38080991E+00  5.35983137E-32  2.72177514E+00  1.38080991E+00
  5.35983137E-32  2.72177514E+00  1.38080991E+00  5.35983137E-32  2.72177514E+00
  1.38080991E+00  5.35983137E-32  2.72177514E+00  1.38080991E+00  5.35983137E-32
  2.72177514E+00  1.38080991E+00  5.35983137E-32  2.72177514E+00  1.38080991E+00
  5.35983137E-32  2.72177514E+00  1.38080991E+00  5.35983137E-32 -1.19200567E-17
  1.27206832E+00  1.56122397E-32 -1.19200567E-17  1.27206832E+00  1.56122397E-32
 -1.19200567E-17  1.27206832E+00  1.56122397E-32 -1.19200567E-17  1.27206832E+00
  1.56122397E-32 -1.19200567E-17  1.27206832E+00  1.56122397E-32 -1.19200567E-17
  1.27206832E+00  1.56122397E-32 -1.19200567E-17  1.27206832E+00  1.56122397E-32
 -1.19200567E-17  1.27206832E+00  1.56122397E-32 -1.19200567E-17  1.27206832E+00
  1.56122397E-32 -1.19200567E-17  1.27206832E+00  1.56122397E-32 -1.19200567E-17
  1.27206832E+00  1.56122397E-32 -1.19200567E-17  1.27206832E+00  1.56122397E-32
 -1.19200567E-17  1.27206832E+00  1.56122397E-32 -1.19200567E-17  1.27206832E+00
  1.56122397E-32 -4.79152840E-01 -1.44267299E+00 -2.41583715E-32 -4.79152840E-01
 -1.44267299E+00 -2.41583715E-32 -4.79152840E-01 -1.44267299E+00 -2.41583715E-32
 -4.79152840E-01 -1.44267299E+00 -2.41583715E-32 -4.79152840E-01 -1.44267299E+00
 -2.41583715E-32 -4.79152840E-01 -1.44267299E+00 -2.41583715E-32 -4.79152840E-01
 -1.44267299E+00 -2.41583715E-32 -4.79152840E-01 -1.44267299E+00 -2.41583715E-32
 -4.79152840E-01 -1.44267299E+00 -2.41583715E-32 -4.79152840E-01 -1.44267299E+00
 -2.41583715E-32 -4.79152840E-01 -1.44267299E+00 -2.41583715E-32 -4.79152840E-01
 -1.44267299E+00 -2.41583715E-32 -4.79152840E-01 -1.44267299E+00 -2.41583715E-32
 -4.79152840E-01 -1.44267299E+00 -2.41583715E-32 -2.66390883E+00 -1.79104674E+00
 -5.78539684E-32 -2.66390883E+00 -1.79104674E+00 -5.78539684E-32 -2.66390883E+00
 -1.79104674E+00 -5.78539684E-32 -2.66390883E+00 -1.79104674E+00 -5.78539684E-32
 -2.66390883E+00 -1.79104674E+00 -5.78539684E-32 -2.66390883E+00 -1.79104674E+00
 -5.78539684E-32 -2.66390883E+00 -1.79104674E+00 -5.78539684E-32 -2.66390883E+00
 -1.79104674E+00 -5.78539684E-32 -2.66390883E+00 -1.79104674E+00 -5.78539684E-32
 -2.66390883E+00 -1.79104674E+00 -5.78539684E-32 -2.66390883E+00 -1.79104674E+00
 -5.78539684E-32 -2.66390883E+00 -1.79104674E+00 -5.78539684E-32 -2.66390883E+00
 -1.79104674E+00 -5.78539684E-32 -2.66390883E+00 -1.79104674E+00 -5.78539684E-32
Num ILSW                                   I              100
ILSW                                       I   N=         100
           0           0           0           0           2           0
           0           0           0           0           0          -1
           5           0           0           0           0           0
           0           0           0           0           0           0
           1           0           0           0           0           0
           0           0      100000           0          -1           0
           0           0           0           0           0           0
           0           0           0           1           0           0
           0 -2000000000           1           0           0           0
           0           0           4          52           0           0
           0           0           0           0           0           0
           0           0           0           5           0           1
           0           0           0           0           0           0
           0           0           0           0           0           0
           0           0           0           0           0           0
           0           0           0           0           0           0
           0           0           0           0
Num RLSW                                   I               52
RLSW                                       R   N=          52
  1.00000000E+00  1.00000000E+00  1.00000000E+00  1.00000000E+00  1.00000000E+00
  0.00000000E+00  0.00000000E+00  1.00000000E+00  0.00000000E+00  0.00000000E+00
  0.00000000E+00  0.00000000E+00  1.00000000E+00  0.00000000E+00  0.00000000E+00
  0.00000000E+00  0.00000000E+00  1.00000000E+00  0.00000000E+00  0.00000000E+00
  0.00000000E+00  0.00000000E+00  1.00000000E+00  0.00000000E+00  0.00000000E+00
  0.00000000E+00  0.00000000E+00  1.00000000E+00  0.00000000E+00  0.00000000E+00
  0.00000000E+00  0.00000000E+00  1.00000000E+00  0.00000000E+00  0.00000000E+00
  0.00000000E+00  0.00000000E+00  0.00000000E+00  1.00000000E+00  1.00000000E+00
  0.00000000E+00  1.00000000E+00  0.00000000E+00  0.00000000E+00  0.00000000E+00
  0.00000000E+00  0.00000000E+00  0.00000000E+00  0.00000000E+00  0.00000000E+00
  0.00000000E+00  0.00000000E+00
MxBond                                     I                2
NBond                                      I   N=           5
           1           2           2           2           1
IBond                                      I   N=          10
           2           0           1           3           2           4
           3           5           4           0
RBond                                      R   N=          10
  1.00000000E+00  0.00000000E+00  1.00000000E+00  1.00000000E+00  1.00000000E+00
  1.00000000E+00  1.00000000E+00  2.00000000E+00  2.00000000E+00  0.00000000E+00
Virial Ratio                               R      2.002272056967600E+00
SCF Energy                                 R     -2.795026947903535E+02
MP2 Energy                                 R     -2.804466474823381E+02
Total Energy                               R     -2.804466474823381E+02
Post-SCF wavefunction norm                 R      1.119681381014790E+00
RMS Density                                R      3.667221312589988E-09
Job Status                                 I                1
Nuclear derivative order                   I                0
External E-field                           R   N=          35
  0.00000000E+00  0.00000000E+00  0.00000000E+00  0.00000000E+00  0.00000000E+00
  0.00000000E+00  0.00000000E+00  0.00000000E+00  0.00000000E+00  0.00000000E+00
  0.00000000E+00  0.00000000E+00  0.00000000E+00  0.00000000E+00  0.00000000E+00
  0.00000000E+00  0.00000000E+00  0.00000000E+00  0.00000000E+00  0.00000000E+00
  0.00000000E+00  0.00000000E+00  0.00000000E+00  0.00000000E+00  0.00000000E+00
  0.00000000E+00  0.00000000E+00  0.00000000E+00  0.00000000E+00  0.00000000E+00
  0.00000000E+00  0.00000000E+00  0.00000000E+00  0.00000000E+00  0.00000000E+00
IOpCl                                      I                0
IROHF                                      I                0
Alpha Orbital Energies                     R   N=         207
 -2.06901141E+01 -2.06840544E+01 -2.06588189E+01 -1.58125550E+01 -1.62447633E+00
 -1.50118113E+00 -1.25199233E+00 -9.48257902E-01 -7.74252192E-01 -7.60288449E-01
 -7.13069869E-01 -6.79428516E-01 -6.21744058E-01 -5.91212195E-01 -4.82767872E-01
 -4.72177189E-01  2.96488003E-02  7.16924757E-02  8.62588068E-02  1.01770085E-01
  1.33944269E-01  1.34542537E-01  1.44150247E-01  1.54590390E-01  1.78223511E-01
  1.94049375E-01  1.99753181E-01  2.06479350E-01  2.22051252E-01  2.37490102E-01
  2.41627223E-01  2.66169885E-01  2.93543073E-01  3.03993962E-01  3.10797045E-01
  3.44323940E-01  3.50263551E-01  3.87483748E-01  4.22718173E-01  4.31868895E-01
  5.27558012E-01  5.29531821E-01  5.58725704E-01  5.82018918E-01  6.26212235E-01
  6.38199098E-01  6.74398747E-01  6.84289768E-01  7.07483682E-01  7.10750138E-01
  7.24841455E-01  7.29065281E-01  7.44551074E-01  7.92175497E-01  7.92504375E-01
  8.10313254E-01  8.12953387E-01  8.31562549E-01  8.68375081E-01  9.09647650E-01
  9.22198144E-01  9.27460888E-01  9.56050192E-01  9.78218018E-01  9.85501039E-01
  1.01652509E+00  1.05292518E+00  1.05452386E+00  1.08366284E+00  1.11912291E+00
  1.14321609E+00  1.19042679E+00  1.22076433E+00  1.23364999E+00  1.33918719E+00
  1.35125476E+00  1.38636812E+00  1.45391447E+00  1.48758040E+00  1.50800213E+00
  1.53881775E+00  1.56800215E+00  1.58058050E+00  1.61407943E+00  1.66571093E+00
  1.67122259E+00  1.70351213E+00  1.79474831E+00  1.83229213E+00  1.83499961E+00
  1.87967252E+00  1.91128419E+00  1.95632011E+00  1.99383593E+00  2.00438117E+00
  2.07844519E+00  2.12358654E+00  2.13224953E+00  2.15316087E+00  2.22510481E+00
  2.26569024E+00  2.26739067E+00  2.29038366E+00  2.31585876E+00  2.34798369E+00
  2.38455379E+00  2.42654292E+00  2.43088919E+00  2.45505545E+00  2.46266330E+00
  2.47840140E+00  2.50284931E+00  2.59118528E+00  2.59819361E+00  2.62313958E+00
  2.62804493E+00  2.63860764E+00  2.67291184E+00  2.75842821E+00  2.82559389E+00
  2.85938597E+00  2.89097254E+00  2.90028161E+00  2.92856448E+00  2.96128442E+00
  3.03343931E+00  3.06801850E+00  3.11880687E+00  3.21904697E+00  3.23477237E+00
  3.32102744E+00  3.33666598E+00  3.52230503E+00  3.64577882E+00  3.83857688E+00
  3.84772443E+00  4.15118258E+00  4.16780551E+00  4.18579307E+00  4.25930347E+00
  4.35504169E+00  4.39625903E+00  4.47682200E+00  4.51728441E+00  4.66391641E+00
  4.71774531E+00  4.80616506E+00  4.82330800E+00  4.83016099E+00  4.89694132E+00
  5.02435899E+00  5.07802018E+00  5.10602216E+00  5.14438149E+00  5.17965916E+00
  5.24438308E+00  5.27233490E+00  5.30867685E+00  5.33156112E+00  5.35856626E+00
  5.61387269E+00  5.67387240E+00  5.77333639E+00  5.85085823E+00  5.96347246E+00
  6.17182225E+00  6.28779541E+00  6.34037096E+00  6.39144020E+00  6.49267546E+00
  6.50521707E+00  6.61003710E+00  6.65930337E+00  6.69791610E+00  6.75674054E+00
  6.76978759E+00  6.83295547E+00  6.89962253E+00  7.02458308E+00  7.06546075E+00
  7.07264859E+00  7.10140529E+00  7.12653837E+00  7.16014062E+00  7.18685984E+00
  7.22860181E+00  7.24650513E+00  7.30897242E+00  7.32561103E+00  7.34777775E+00
  7.40271405E+00  7.44850763E+00  7.48595210E+00  7.61772075E+00  7.62284163E+00
  7.63308969E+00  7.67050694E+00  7.80330450E+00  7.89040830E+00  8.11481091E+00
  8.33182535E+00  8.42256976E+00  8.54590544E+00  1.34321776E+01  1.44112683E+01
  1.51801258E+01  1.61542662E+01
Alpha MO coefficients                      R   N=       42849
  8.78596983E-05 -6.27316711E-04 -7.01003531E-04 -1.41507629E-06 -1.74684588E-05
 -2.59642394E-05  0.00000000E+00 -3.90688075E-05  4.18382675E-05  0.00000000E+00
  8.42204176E-05  2.46232249E-05  0.00000000E+00  2.88756976E-05  0.00000000E+00
  0.00000000E+00 -5.18000234E-05  1.91069148E-05 -9.10735007E-06  0.00000000E+00
  0.00000000E+00 -1.44159447E-04  1.17296366E-04  4.70186615E-03 -2.63547504E-04
  5.15672268E-06  1.66551704E-03  1.89595146E-03  1.12060113E-04  8.42818218E-06
  0.00000000E+00 -6.82698041E-04 -4.54905173E-05  0.00000000E+00 -1.20049121E-03
  7.78057900E-04  0.00000000E+00 -4.21161268E-04  5.68018940E-05  0.00000000E+00
  2.52540535E-05  0.00000000E+00  0.00000000E+00 -4.72929583E-05  5.55053572E-06
 -3.93944201E-04  0.00000000E+00  0.00000000E+00  7.70178338E-04 -2.40987668E-05
 -4.58162574E-04  0.00000000E+00  0.00000000E+00  2.53430805E-04 -1.09255239E-05
  0.00000000E+00  8.36656854E-05  1.31658395E-05  0.00000000E+00  0.00000000E+00
 -1.14470135E-04 -5.34980785E-06  0.00000000E+00  2.55171166E-04 -2.55249989E-05
  0.00000000E+00  0.00000000E+00 -3.49061011E-04  3.73293818E-05  9.76899813E-01
 -9.21984973E-03  4.33422964E-02  1.89459512E-03 -9.96899134E-04  1.53331852E-03
 -1.34283076E-03  0.00000000E+00 -1.49358784E-03  1.36843257E-03  0.00000000E+00
  8.30144596E-06 -1.16559906E-03  0.00000000E+00 -1.53272302E-04 -1.44747511E-05
  0.00000000E+00  4.30322945E-05  0.00000000E+00  0.00000000E+00 -2.96318757E-05
  2.15447051E-05  7.63710264E-04  0.00000000E+00  0.00000000E+00 -2.58264742E-04
 -3.96862869E-04 -3.48050936E-04  0.00000000E+00  0.00000000E+00 -3.29850198E-04
 -3.83228095E-04  0.00000000E+00  5.00512131E-05 -4.79303800E-05  0.00000000E+00
  0.00000000E+00 -4.13396480E-05 -1.70889323E-05  0.00000000E+00  3.13254046E-05
  2.10072873E-05  0.00000000E+00  0.00000000E+00 -3.16025867E-04 -1.42543644E-04
  3.90013382E-05  4.60765820E-05 -2.63003785E-04 -7.16935773E-04 -1.63769508E-04
 -2.59134168E-05 -9.74536163E-05  0.00000000E+00  2.64246002E-04  7.12181642E-04
  0.00000000E+00 -8.31187300E-04 -4.72109899E-04  0.00000000E+00 -1.24217540E-04
 -2.94268146E-05  0.00000000E+00 -1.79181078E-05  0.00000000E+00  0.00000000E+00
 -2.98538615E-05  1.54793606E-05 -3.27405764E-04  0.00000000E+00  0.00000000E+00
 -8.29400372E-04  1.07147818E-04 -3.30992451E-05  0.00000000E+00  0.00000000E+00
  9.29888389E-05 -1.25950044E-04  0.00000000E+00 -1.97937999E-05 -1.19832716E-04
  0.00000000E+00  0.00000000E+00 -5.91739845E-05 -1.37955033E-04  0.00000000E+00
  4.12648862E-06 -1.53250187E-04  0.00000000E+00  0.00000000E+00  5.47863247E-05
 -4.13359563E-04 -2.81214391E-03  1.25600462E-04 -1.33494746E-04 -2.30847857E-04
  1.49419665E-04 -8.38187275E-06 -2.73691795E-05  0.00000000E+00  7.07614057E-05
  1.61107933E-04  0.00000000E+00  2.36681069E-04  1.91431818E-04  0.00000000E+00
  1.30481601E-04  2.36976617E-05  0.00000000E+00 -3.39220337E-06  0.00000000E+00
  0.00000000E+00 -1.79759607E-05  1.29095167E-06  1.06288658E-06  0.00000000E+00
  0.00000000E+00  8.13863926E-05  8.53790079E-05 -9.97012693E-05  0.00000000E+00
  0.00000000E+00  1.65691505E-04  1.59901063E-04  0.00000000E+00  1.58945758E-05
 -3.21253736E-06  0.00000000E+00  0.00000000E+00 -3.69690782E-06 -1.23392934E-05
  0.00000000E+00 -3.36602722E-05  4.49925483E-05  0.00000000E+00  0.00000000E+00
  8.28353460E-05  9.06830521E-05  4.00474264E-05 -1.00187781E-03 -4.90467340E-04
 -1.15282596E-05 -2.23145413E-05  1.54126198E-05  0.00000000E+00 -1.42626696E-06
  2.76222593E-04  0.00000000E+00 -4.29265456E-05  1.34074119E-04  0.00000000E+00
  2.63172180E-05  0.00000000E+00  0.00000000E+00  1.14708199E-05  1.11797052E-05
 -2.88028970E-05  0.00000000E+00  0.00000000E+00  1.12266186E-05  3.61733499E-05
  1.12407766E-04  8.74347400E-05 -2.83404985E-05  7.52366812E-04  6.50150851E-04
  1.01994161E-05  2.83445140E-06  0.00000000E+00 -7.50708095E-05  1.17263776E-05
  0.00000000E+00  3.39218649E-04  9.31900984E-04  0.00000000E+00  5.48551718E-06
  8.44609921E-05  0.00000000E+00 -2.54618419E-06  0.00000000E+00  0.00000000E+00
  8.90720543E-08 -5.49990762E-06 -3.52034888E-05  0.00000000E+00  0.00000000E+00
 -1.94089998E-05  8.26782275E-05 -2.25138110E-05  0.00000000E+00  0.00000000E+00
 -2.68307812E-04 -1.76492401E-04  0.00000000E+00  9.02774069E-06  6.37114661E-06
  0.00000000E+00  0.00000000E+00  3.20752322E-06 -1.86784986E-05  0.00000000E+00
 -4.03304758E-05 -3.99178232E-05  0.00000000E+00  0.00000000E+00 -8.03071559E-05
  2.03623994E-05  2.85093072E-03  3.54027173E-05  1.02313677E-04 -6.40556694E-05
 -4.70971348E-04  8.22512421E-06  1.55123024E-05  0.00000000E+00 -6.54333100E-05
 -5.59021928E-05  0.00000000E+00  2.40475332E-04 -2.01780268E-04  0.00000000E+00
 -1.86547029E-04 -6.62652296E-05  0.00000000E+00 -8.64093283E-06  0.00000000E+00
  0.00000000E+00  2.24103156E-05  2.00506928E-05  4.90287780E-06  0.00000000E+00
  0.00000000E+00 -1.19108456E-04 -4.84575938E-05 -4.69753205E-06  0.00000000E+00
  0.00000000E+00 -2.21550807E-04 -2.18600168E-04  0.00000000E+00  3.72455155E-06
 -4.78118312E-07  0.00000000E+00  0.00000000E+00  2.00677061E-06 -1.35919056E-05
  0.00000000E+00 -4.76200861E-05  3.04864808E-06  0.00000000E+00  0.00000000E+00
 -8.18513389E-05  1.87119223E-04  2.58580385E-04  1.46477946E-03 -7.76720357E-05
 -1.53744926E-03  4.03179498E-04 -1.44171890E-04 -6.07621917E-07  0.00000000E+00
 -2.09148955E-03 -4.17231956E-04  0.00000000E+00  1.04261004E-03  7.77793830E-04
  0.00000000E+00 -1.69284468E-04  5.66464931E-05  0.00000000E+00 -1.23282665E-04
  0.00000000E+00  0.00000000E+00  2.42124439E-04  9.68423735E-05 -4.42820987E-04
  0.00000000E+00  0.00000000E+00  8.99964405E-04 -5.76469473E-05  1.06691029E-05
  0.00000000E+00  0.00000000E+00 -3.38676020E-04 -1.26772246E-04  0.00000000E+00
 -1.04297382E-06  1.54229925E-05  0.00000000E+00  0.00000000E+00  1.86723277E-05
  1.32311356E-05  0.00000000E+00  1.63497531E-04 -7.22133907E-05  0.00000000E+00
  0.00000000E+00 -2.40824586E-04  4.08255369E-05  9.76648431E-01 -9.84778950E-03
  4.35688789E-02  4.50603143E-03 -4.45619271E-04  2.14565106E-03  4.92126288E-04
  0.00000000E+00 -2.38103725E-03 -6.17978442E-04  0.00000000E+00  1.13826191E-03
  6.33086367E-07  0.00000000E+00  4.26234126E-06 -4.25513622E-05  0.00000000E+00
 -2.32432755E-04  0.00000000E+00  0.00000000E+00  1.02282208E-04  3.31977831E-05
  3.90802633E-04  0.00000000E+00  0.00000000E+00 -8.30122198E-04 -4.29345263E-04
 -1.52766155E-04  0.00000000E+00  0.00000000E+00  2.54284325E-04  1.83163260E-05
  0.00000000E+00  5.22235619E-05  1.80230518E-05  0.00000000E+00  0.00000000E+00
 -2.18713689E-05 -1.35953635E-05  0.00000000E+00  1.38519116E-04  1.00251634E-05
  0.00000000E+00  0.00000000E+00 -1.87966981E-04 -1.44321459E-04  4.72208522E-04
  2.02954922E-03  9.01856375E-05  1.37053866E-05 -3.88778722E-05 -2.42488413E-04
  0.00000000E+00  1.22890098E-04 -1.26075037E-03  0.00000000E+00  3.23556706E-04
 -3.29585847E-04  0.00000000E+00 -2.21105736E-06  0.00000000E+00  0.00000000E+00
  7.96649759E-05  1.54778516E-05 -1.58837292E-04  0.00000000E+00  0.00000000E+00
 -5.36154371E-04 -3.41894026E-05  9.76819573E-01 -9.16261364E-03  4.34737082E-02
  4.88148373E-05 -1.21095246E-03 -1.60068345E-03  1.42697782E-03  0.00000000E+00
  1.63003046E-03 -1.26051367E-03  0.00000000E+00 -4.68119034E-04 -8.56813219E-04
  0.00000000E+00  6.75641843E-05 -3.74403679E-05  0.00000000E+00  2.59524567E-05
  0.00000000E+00  0.00000000E+00 -1.12065282E-04 -4.60363692E-06  7.71710510E-04
  0.00000000E+00  0.00000000E+00 -2.33152091E-04 -2.37691321E-04 -2.54151358E-04
  0.00000000E+00  0.00000000E+00  1.34804995E-04  1.29678167E-04  0.00000000E+00
 -6.63811589E-05 -3.73405228E-07  0.00000000E+00  0.00000000E+00  2.12324392E-05
  8.94517317E-06  0.00000000E+00 -1.14018137E-05  1.23603298E-04  0.00000000E+00
  0.00000000E+00  2.67632949E-04  9.36715147E-05 -4.78869266E-03 -1.90595461E-04