 Entering Gaussian System, Link 0=g16
 Input=hoono_a2_103p7522.gjf
 Output=hoono_a2_103p7522.log
 Initial command:
 /sw/contrib/gaussian/g16/B01/g16/l1.exe "/scr/Gau-30404.inp" -scrdir="/scr/"
 Entering Link 1 = /sw/contrib/gaussian/g16/B01/g16/l1.exe PID=     30405.
  
 Copyright (c) 1988-2017, Gaussian, Inc.  All Rights Reserved.
  
 This is part of the Gaussian(R) 16 program.  It is based on
 the Gaussian(R) 09 system (copyright 2009, Gaussian, Inc.),
 the Gaussian(R) 03 system (copyright 2003, Gaussian, Inc.),
 the Gaussian(R) 98 system (copyright 1998, Gaussian, Inc.),
 the Gaussian(R) 94 system (copyright 1995, Gaussian, Inc.),
 the Gaussian 92(TM) system (copyright 1992, Gaussian, Inc.),
 the Gaussian 90(TM) system (copyright 1990, Gaussian, Inc.),
 the Gaussian 88(TM) system (copyright 1988, Gaussian, Inc.),
 the Gaussian 86(TM) system (copyright 1986, Carnegie Mellon
 University), and the Gaussian 82(TM) system (copyright 1983,
 Carnegie Mellon University). Gaussian is a federally registered
 trademark of Gaussian, Inc.
  
 This software contains proprietary and confidential information,
 including trade secrets, belonging to Gaussian, Inc.
  
 This software is provided under written license and may be
 used, copied, transmitted, or stored only in accord with that
 written license.
  
 The following legend is applicable only to US Government
 contracts under FAR:
  
                    RESTRICTED RIGHTS LEGEND
  
 Use, reproduction and disclosure by the US Government is
 subject to restrictions as set forth in subparagraphs (a)
 and (c) of the Commercial Computer Software - Restricted
 Rights clause in FAR 52.227-19.
  
 Gaussian, Inc.
 340 Quinnipiac St., Bldg. 40, Wallingford CT 06492
  
  
 ---------------------------------------------------------------
 Warning -- This program may not be used in any manner that
 competes with the business of Gaussian, Inc. or will provide
 assistance to any competitor of Gaussian, Inc.  The licensee
 of this program is prohibited from giving any competitor of
 Gaussian, Inc. access to this program.  By using this program,
 the user acknowledges that Gaussian, Inc. is engaged in the
 business of creating and licensing software in the field of
 computational chemistry and represents and warrants to the
 licensee that it is not a competitor of Gaussian, Inc. and that
 it will not use this program in any manner prohibited above.
 ---------------------------------------------------------------
  

 Cite this work as:
 Gaussian 16, Revision B.01,
 M. J. Frisch, G. W. Trucks, H. B. Schlegel, G. E. Scuseria, 
 M. A. Robb, J. R. Cheeseman, G. Scalmani, V. Barone, 
 G. A. Petersson, H. Nakatsuji, X. Li, M. Caricato, A. V. Marenich, 
 J. Bloino, B. G. Janesko, R. Gomperts, B. Mennucci, H. P. Hratchian, 
 J. V. Ortiz, A. F. Izmaylov, J. L. Sonnenberg, D. Williams-Young, 
 F. Ding, F. Lipparini, F. Egidi, J. Goings, B. Peng, A. Petrone, 
 T. Henderson, D. Ranasinghe, V. G. Zakrzewski, J. Gao, N. Rega, 
 G. Zheng, W. Liang, M. Hada, M. Ehara, K. Toyota, R. Fukuda, 
 J. Hasegawa, M. Ishida, T. Nakajima, Y. Honda, O. Kitao, H. Nakai, 
 T. Vreven, K. Throssell, J. A. Montgomery, Jr., J. E. Peralta, 
 F. Ogliaro, M. J. Bearpark, J. J. Heyd, E. N. Brothers, K. N. Kudin, 
 V. N. Staroverov, T. A. Keith, R. Kobayashi, J. Normand, 
 K. Raghavachari, A. P. Rendell, J. C. Burant, S. S. Iyengar, 
 J. Tomasi, M. Cossi, J. M. Millam, M. Klene, C. Adamo, R. Cammi, 
 J. W. Ochterski, R. L. Martin, K. Morokuma, O. Farkas, 
 J. B. Foresman, and D. J. Fox, Gaussian, Inc., Wallingford CT, 2016.
 
 ******************************************
 Gaussian 16:  ES64L-G16RevB.01 20-Dec-2017
                14-Feb-2022 
 ******************************************
 %nproc=28
 Will use up to   28 processors via shared memory.
 %mem=120GB
 %chk=hoono_a2_103p7522.chk
 -------------------------------------
 #p SP mp2/aug-cc-pvtz density=current
 -------------------------------------
 1/30=1,38=1,172=1/1;
 2/12=2,17=6,18=5,40=1/2;
 3/5=16,6=1,7=10,11=9,25=1,30=1,71=1/1,2,3;
 4//1;
 5/5=2,38=5/2;
 8/6=4,10=1/1;
 9/15=1,16=-3/6;
 10/5=1,13=10/2;
 6/7=2,8=2,9=2,10=2,22=-1/1;
 99/5=1,9=1/99;
 Leave Link    1 at Mon Feb 14 12:37:12 2022, MaxMem= 16106127360 cpu:               2.2 elap:               0.1
 (Enter /sw/contrib/gaussian/g16/B01/g16/l101.exe)
 -----
 title
 -----
 Symbolic Z-matrix:
 Charge =  0 Multiplicity = 1
 H
 O                    1    r1
 O                    2    r2       1    a1
 N                    3    r3       2    a2       1    d1       0
 O                    4    r4       3    a3       2    d2       0
       Variables:
  r1                    0.96898                  
  r2                    1.45492                  
  r3                    1.45878                  
  r4                    1.17073                  
  a1                   97.59495                  
  a2                  103.75223                  
  a3                  109.06955                  
  d1                  180.                       
  d2                  180.                       
 
 ITRead=  0  0  0  0  0
 MicOpt= -1 -1 -1 -1 -1
 NAtoms=      5 NQM=        5 NQMF=       0 NMMI=      0 NMMIF=      0
                NMic=       0 NMicF=      0.
                    Isotopes and Nuclear Properties:
 (Nuclear quadrupole moments (NQMom) in fm**2, nuclear magnetic moments (NMagM)
  in nuclear magnetons)

  Atom         1           2           3           4           5
 IAtWgt=           1          16          16          14          16
 AtmWgt=   1.0078250  15.9949146  15.9949146  14.0030740  15.9949146
 NucSpn=           1           0           0           2           0
 AtZEff=  -0.0000000  -0.0000000  -0.0000000  -0.0000000  -0.0000000
 NQMom=    0.0000000   0.0000000   0.0000000   2.0440000   0.0000000
 NMagM=    2.7928460   0.0000000   0.0000000   0.4037610   0.0000000
 AtZNuc=   1.0000000   8.0000000   8.0000000   7.0000000   8.0000000
 Leave Link  101 at Mon Feb 14 12:37:12 2022, MaxMem= 16106127360 cpu:               3.3 elap:               0.2
 (Enter /sw/contrib/gaussian/g16/B01/g16/l202.exe)
                          Input orientation:                          
 ---------------------------------------------------------------------
 Center     Atomic      Atomic             Coordinates (Angstroms)
 Number     Number       Type             X           Y           Z
 ---------------------------------------------------------------------
      1          1           0        0.000000    0.000000    0.000000
      2          8           0        0.000000    0.000000    0.968976
      3          8           0        1.442156    0.000000    1.161271
      4          7           0        1.598622    0.000000    2.611639
      5          8           0        2.739747    0.000000    2.873249
 ---------------------------------------------------------------------
                    Distance matrix (angstroms):
                    1          2          3          4          5
     1  H    0.000000
     2  O    0.968976   0.000000
     3  O    1.851584   1.454919   0.000000
     4  N    3.062067   2.292147   1.458784   0.000000
     5  O    3.970110   3.336536   2.148165   1.170729   0.000000
 Stoichiometry    HNO3
 Framework group  CS[SG(HNO3)]
 Deg. of freedom     7
 Full point group                 CS      NOp   2
 Largest Abelian subgroup         CS      NOp   2
 Largest concise Abelian subgroup C1      NOp   1
                         Standard orientation:                         
 ---------------------------------------------------------------------
 Center     Atomic      Atomic             Coordinates (Angstroms)
 Number     Number       Type             X           Y           Z
 ---------------------------------------------------------------------
      1          1           0        1.520869    1.718654   -0.000000
      2          8           0        1.452161    0.752118   -0.000000
      3          8           0       -0.000000    0.662567    0.000000
      4          7           0       -0.258915   -0.773056    0.000000
      5          8           0       -1.415718   -0.953092    0.000000
 ---------------------------------------------------------------------
 Rotational constants (GHZ):          56.2216338           4.9580814           4.5562722
 Leave Link  202 at Mon Feb 14 12:37:12 2022, MaxMem= 16106127360 cpu:               1.7 elap:               0.1
 (Enter /sw/contrib/gaussian/g16/B01/g16/l301.exe)
 Standard basis: Aug-CC-pVTZ (5D, 7F)
 Ernie: Thresh=  0.10000D-02 Tol=  0.10000D-05 Strict=F.
 Ernie:  12 primitive shells out of 131 were deleted.
 There are   166 symmetry adapted cartesian basis functions of A'  symmetry.
 There are    79 symmetry adapted cartesian basis functions of A"  symmetry.
 There are   136 symmetry adapted basis functions of A'  symmetry.
 There are    71 symmetry adapted basis functions of A"  symmetry.
   207 basis functions,   315 primitive gaussians,   245 cartesian basis functions
    16 alpha electrons       16 beta electrons
       nuclear repulsion energy       116.6803081001 Hartrees.
 IExCor=    0 DFT=F Ex=HF Corr=None ExCW=0 ScaHFX=  1.000000
 ScaDFX=  1.000000  1.000000  1.000000  1.000000 ScalE2=  1.000000  1.000000
 IRadAn=      5 IRanWt=     -1 IRanGd=            0 ICorTp=0 IEmpDi=  4
 NAtoms=    5 NActive=    5 NUniq=    5 SFac= 1.00D+00 NAtFMM=   60 NAOKFM=F Big=F
 Integral buffers will be    131072 words long.
 Raffenetti 1 integral format.
 Two-electron integral symmetry is turned on.
 Leave Link  301 at Mon Feb 14 12:37:12 2022, MaxMem= 16106127360 cpu:               2.2 elap:               0.1
 (Enter /sw/contrib/gaussian/g16/B01/g16/l302.exe)
 NPDir=0 NMtPBC=     1 NCelOv=     1 NCel=       1 NClECP=     1 NCelD=      1
         NCelK=      1 NCelE2=     1 NClLst=     1 CellRange=     0.0.
 One-electron integrals computed using PRISM.
 One-electron integral symmetry used in STVInt
 NBasis=   207 RedAO= T EigKep=  1.81D-04  NBF=   136    71
 NBsUse=   207 1.00D-06 EigRej= -1.00D+00 NBFU=   136    71
 Leave Link  302 at Mon Feb 14 12:37:12 2022, MaxMem= 16106127360 cpu:               4.6 elap:               0.2
 (Enter /sw/contrib/gaussian/g16/B01/g16/l303.exe)
 DipDrv:  MaxL=1.
 Leave Link  303 at Mon Feb 14 12:37:13 2022, MaxMem= 16106127360 cpu:               1.7 elap:               0.1
 (Enter /sw/contrib/gaussian/g16/B01/g16/l401.exe)
 ExpMin= 2.53D-02 ExpMax= 1.53D+04 ExpMxC= 5.22D+02 IAcc=3 IRadAn=         5 AccDes= 0.00D+00
 Harris functional with IExCor=  205 and IRadAn=       5 diagonalized for initial guess.
 HarFok:  IExCor=  205 AccDes= 0.00D+00 IRadAn=         5 IDoV= 1 UseB2=F ITyADJ=14
 ICtDFT=  3500011 ScaDFX=  1.000000  1.000000  1.000000  1.000000
 FoFCou: FMM=F IPFlag=           0 FMFlag=      100000 FMFlg1=           0
         NFxFlg=           0 DoJE=T BraDBF=F KetDBF=T FulRan=T
         wScrn=  0.000000 ICntrl=       500 IOpCl=  0 I1Cent=   200000004 NGrid=           0
         NMat0=    1 NMatS0=      1 NMatT0=    0 NMatD0=    1 NMtDS0=    0 NMtDT0=    0
 Petite list used in FoFCou.
 Harris En= -279.628869087743    
 JPrj=0 DoOrth=F DoCkMO=F.
 Initial guess orbital symmetries:
       Occupied  (A') (A') (A') (A') (A') (A') (A') (A') (A') (A')
                 (A") (A') (A') (A") (A") (A')
       Virtual   (A") (A') (A') (A') (A') (A') (A") (A') (A') (A')
                 (A") (A') (A") (A') (A') (A") (A') (A") (A') (A')
                 (A') (A') (A') (A') (A') (A") (A') (A") (A') (A')
                 (A") (A') (A") (A') (A') (A") (A') (A") (A') (A')
                 (A") (A') (A") (A') (A") (A') (A') (A') (A") (A")
                 (A') (A') (A') (A') (A") (A') (A") (A') (A") (A')
                 (A') (A') (A") (A') (A') (A") (A') (A") (A') (A')
                 (A") (A') (A') (A") (A") (A') (A') (A") (A') (A')
                 (A') (A") (A') (A") (A') (A") (A') (A") (A') (A')
                 (A') (A") (A') (A") (A') (A") (A") (A') (A') (A')
                 (A") (A') (A") (A') (A') (A') (A") (A') (A") (A')
                 (A") (A') (A') (A') (A") (A') (A') (A') (A") (A')
                 (A") (A') (A') (A") (A") (A') (A") (A') (A") (A')
                 (A') (A') (A') (A") (A") (A') (A") (A') (A') (A')
                 (A') (A") (A") (A') (A') (A") (A') (A') (A') (A')
                 (A") (A') (A') (A") (A') (A") (A') (A") (A') (A")
                 (A') (A") (A') (A") (A') (A") (A") (A") (A') (A')
                 (A") (A') (A") (A') (A") (A') (A") (A") (A') (A')
                 (A') (A') (A') (A') (A') (A') (A') (A') (A') (A')
                 (A')
 The electronic state of the initial guess is 1-A'.
 Leave Link  401 at Mon Feb 14 12:37:13 2022, MaxMem= 16106127360 cpu:               7.4 elap:               0.3
 (Enter /sw/contrib/gaussian/g16/B01/g16/l502.exe)
 Keep R1 ints in memory in symmetry-blocked form, NReq=348887737.
 FoFCou: FMM=F IPFlag=           0 FMFlag=           0 FMFlg1=           0
         NFxFlg=           0 DoJE=F BraDBF=F KetDBF=F FulRan=T
         wScrn=  0.000000 ICntrl=       600 IOpCl=  0 I1Cent=           0 NGrid=           0
         NMat0=    1 NMatS0=  21528 NMatT0=    0 NMatD0=    1 NMtDS0=    0 NMtDT0=    0
 Petite list used in FoFCou.
 Closed shell SCF:
 Using DIIS extrapolation, IDIIS=  1040.
 NGot= 16106127360 LenX= 15988850015 LenY= 15988789549
 Requested convergence on RMS density matrix=1.00D-08 within 128 cycles.
 Requested convergence on MAX density matrix=1.00D-06.
 Requested convergence on             energy=1.00D-06.
 No special actions if energy rises.

 Cycle   1  Pass 1  IDiag  1:
 E= -279.370672331318    
 DIIS: error= 2.47D-02 at cycle   1 NSaved=   1.
 NSaved= 1 IEnMin= 1 EnMin= -279.370672331318     IErMin= 1 ErrMin= 2.47D-02
 ErrMax= 2.47D-02  0.00D+00 EMaxC= 1.00D-01 BMatC= 4.38D-01 BMatP= 4.38D-01
 IDIUse=3 WtCom= 7.53D-01 WtEn= 2.47D-01
 Coeff-Com:  0.100D+01
 Coeff-En:   0.100D+01
 Coeff:      0.100D+01
 Gap=     0.512 Goal=   None    Shift=    0.000
 GapD=    0.512 DampG=2.000 DampE=0.500 DampFc=1.0000 IDamp=-1.
 RMSDP=1.62D-03 MaxDP=9.95D-02              OVMax= 1.12D-01

 Cycle   2  Pass 1  IDiag  1:
 E= -279.452582818875     Delta-E=       -0.081910487557 Rises=F Damp=F
 DIIS: error= 1.78D-02 at cycle   2 NSaved=   2.
 NSaved= 2 IEnMin= 2 EnMin= -279.452582818875     IErMin= 2 ErrMin= 1.78D-02
 ErrMax= 1.78D-02  0.00D+00 EMaxC= 1.00D-01 BMatC= 7.15D-02 BMatP= 4.38D-01
 IDIUse=3 WtCom= 8.22D-01 WtEn= 1.78D-01
 Coeff-Com:  0.194D+00 0.806D+00
 Coeff-En:   0.000D+00 0.100D+01
 Coeff:      0.160D+00 0.840D+00
 Gap=     0.529 Goal=   None    Shift=    0.000
 RMSDP=8.99D-04 MaxDP=3.73D-02 DE=-8.19D-02 OVMax= 6.93D-02

 Cycle   3  Pass 1  IDiag  1:
 E= -279.481541023170     Delta-E=       -0.028958204295 Rises=F Damp=F
 DIIS: error= 1.04D-02 at cycle   3 NSaved=   3.
 NSaved= 3 IEnMin= 3 EnMin= -279.481541023170     IErMin= 3 ErrMin= 1.04D-02
 ErrMax= 1.04D-02  0.00D+00 EMaxC= 1.00D-01 BMatC= 2.87D-02 BMatP= 7.15D-02
 IDIUse=3 WtCom= 8.96D-01 WtEn= 1.04D-01
 Coeff-Com: -0.330D-01 0.379D+00 0.654D+00
 Coeff-En:   0.000D+00 0.242D+00 0.758D+00
 Coeff:     -0.296D-01 0.364D+00 0.665D+00
 Gap=     0.510 Goal=   None    Shift=    0.000
 RMSDP=3.77D-04 MaxDP=1.55D-02 DE=-2.90D-02 OVMax= 3.81D-02

 Cycle   4  Pass 1  IDiag  1:
 E= -279.500617207557     Delta-E=       -0.019076184387 Rises=F Damp=F
 DIIS: error= 1.34D-03 at cycle   4 NSaved=   4.
 NSaved= 4 IEnMin= 4 EnMin= -279.500617207557     IErMin= 4 ErrMin= 1.34D-03
 ErrMax= 1.34D-03  0.00D+00 EMaxC= 1.00D-01 BMatC= 4.95D-04 BMatP= 2.87D-02
 IDIUse=3 WtCom= 9.87D-01 WtEn= 1.34D-02
 Coeff-Com: -0.117D-01 0.577D-01 0.159D+00 0.795D+00
 Coeff-En:   0.000D+00 0.000D+00 0.000D+00 0.100D+01
 Coeff:     -0.115D-01 0.569D-01 0.156D+00 0.798D+00
 Gap=     0.502 Goal=   None    Shift=    0.000
 RMSDP=9.05D-05 MaxDP=2.78D-03 DE=-1.91D-02 OVMax= 1.12D-02

 Cycle   5  Pass 1  IDiag  1:
 E= -279.501295867519     Delta-E=       -0.000678659962 Rises=F Damp=F
 DIIS: error= 7.50D-04 at cycle   5 NSaved=   5.
 NSaved= 5 IEnMin= 5 EnMin= -279.501295867519     IErMin= 5 ErrMin= 7.50D-04
 ErrMax= 7.50D-04  0.00D+00 EMaxC= 1.00D-01 BMatC= 8.76D-05 BMatP= 4.95D-04
 IDIUse=3 WtCom= 9.92D-01 WtEn= 7.50D-03
 Coeff-Com:  0.615D-02-0.727D-01-0.118D+00 0.212D-01 0.116D+01
 Coeff-En:   0.000D+00 0.000D+00 0.000D+00 0.000D+00 0.100D+01
 Coeff:      0.610D-02-0.722D-01-0.117D+00 0.211D-01 0.116D+01
 Gap=     0.502 Goal=   None    Shift=    0.000
 RMSDP=7.66D-05 MaxDP=2.11D-03 DE=-6.79D-04 OVMax= 1.12D-02

 Cycle   6  Pass 1  IDiag  1:
 E= -279.501613475927     Delta-E=       -0.000317608408 Rises=F Damp=F
 DIIS: error= 2.86D-04 at cycle   6 NSaved=   6.
 NSaved= 6 IEnMin= 6 EnMin= -279.501613475927     IErMin= 6 ErrMin= 2.86D-04
 ErrMax= 2.86D-04  0.00D+00 EMaxC= 1.00D-01 BMatC= 1.69D-05 BMatP= 8.76D-05
 IDIUse=3 WtCom= 9.97D-01 WtEn= 2.86D-03
 Coeff-Com:  0.578D-03 0.187D-02 0.495D-02-0.131D+00-0.233D+00 0.136D+01
 Coeff-En:   0.000D+00 0.000D+00 0.000D+00 0.000D+00 0.000D+00 0.100D+01
 Coeff:      0.576D-03 0.187D-02 0.494D-02-0.131D+00-0.233D+00 0.136D+01
 Gap=     0.502 Goal=   None    Shift=    0.000
 RMSDP=4.57D-05 MaxDP=1.26D-03 DE=-3.18D-04 OVMax= 5.60D-03

 Cycle   7  Pass 1  IDiag  1:
 E= -279.501687119906     Delta-E=       -0.000073643979 Rises=F Damp=F
 DIIS: error= 1.23D-04 at cycle   7 NSaved=   7.
 NSaved= 7 IEnMin= 7 EnMin= -279.501687119906     IErMin= 7 ErrMin= 1.23D-04
 ErrMax= 1.23D-04  0.00D+00 EMaxC= 1.00D-01 BMatC= 4.49D-06 BMatP= 1.69D-05
 IDIUse=3 WtCom= 9.99D-01 WtEn= 1.23D-03
 Coeff-Com: -0.949D-03 0.137D-01 0.266D-01-0.238D-01-0.285D+00 0.382D+00
 Coeff-Com:  0.888D+00
 Coeff-En:   0.000D+00 0.000D+00 0.000D+00 0.000D+00 0.000D+00 0.000D+00
 Coeff-En:   0.100D+01
 Coeff:     -0.948D-03 0.136D-01 0.266D-01-0.237D-01-0.285D+00 0.381D+00
 Coeff:      0.888D+00
 Gap=     0.502 Goal=   None    Shift=    0.000
 RMSDP=1.34D-05 MaxDP=3.82D-04 DE=-7.36D-05 OVMax= 1.56D-03

 Cycle   8  Pass 1  IDiag  1:
 E= -279.501696093406     Delta-E=       -0.000008973500 Rises=F Damp=F
 DIIS: error= 5.91D-05 at cycle   8 NSaved=   8.
 NSaved= 8 IEnMin= 8 EnMin= -279.501696093406     IErMin= 8 ErrMin= 5.91D-05
 ErrMax= 5.91D-05  0.00D+00 EMaxC= 1.00D-01 BMatC= 6.14D-07 BMatP= 4.49D-06
 IDIUse=1 WtCom= 1.00D+00 WtEn= 0.00D+00
 Coeff-Com: -0.451D-03 0.347D-02 0.763D-02 0.275D-01-0.411D-01-0.198D+00
 Coeff-Com:  0.178D+00 0.102D+01
 Coeff:     -0.451D-03 0.347D-02 0.763D-02 0.275D-01-0.411D-01-0.198D+00
 Coeff:      0.178D+00 0.102D+01
 Gap=     0.502 Goal=   None    Shift=    0.000
 RMSDP=6.96D-06 MaxDP=2.04D-04 DE=-8.97D-06 OVMax= 7.53D-04

 Cycle   9  Pass 1  IDiag  1:
 E= -279.501697889299     Delta-E=       -0.000001795893 Rises=F Damp=F
 DIIS: error= 1.50D-05 at cycle   9 NSaved=   9.
 NSaved= 9 IEnMin= 9 EnMin= -279.501697889299     IErMin= 9 ErrMin= 1.50D-05
 ErrMax= 1.50D-05  0.00D+00 EMaxC= 1.00D-01 BMatC= 7.11D-08 BMatP= 6.14D-07
 IDIUse=1 WtCom= 1.00D+00 WtEn= 0.00D+00
 Coeff-Com:  0.122D-03-0.173D-02-0.308D-02-0.189D-02 0.342D-01-0.863D-03
 Coeff-Com: -0.169D+00-0.934D-01 0.124D+01
 Coeff:      0.122D-03-0.173D-02-0.308D-02-0.189D-02 0.342D-01-0.863D-03
 Coeff:     -0.169D+00-0.934D-01 0.124D+01
 Gap=     0.502 Goal=   None    Shift=    0.000
 RMSDP=1.96D-06 MaxDP=6.66D-05 DE=-1.80D-06 OVMax= 1.76D-04

 Cycle  10  Pass 1  IDiag  1:
 E= -279.501698052792     Delta-E=       -0.000000163493 Rises=F Damp=F
 DIIS: error= 3.99D-06 at cycle  10 NSaved=  10.
 NSaved=10 IEnMin=10 EnMin= -279.501698052792     IErMin=10 ErrMin= 3.99D-06
 ErrMax= 3.99D-06  0.00D+00 EMaxC= 1.00D-01 BMatC= 5.64D-09 BMatP= 7.11D-08
 IDIUse=1 WtCom= 1.00D+00 WtEn= 0.00D+00
 Coeff-Com:  0.320D-04-0.253D-03-0.344D-03-0.275D-02 0.180D-02 0.199D-01
 Coeff-Com: -0.143D-01-0.749D-01-0.765D-01 0.115D+01
 Coeff:      0.320D-04-0.253D-03-0.344D-03-0.275D-02 0.180D-02 0.199D-01
 Coeff:     -0.143D-01-0.749D-01-0.765D-01 0.115D+01
 Gap=     0.502 Goal=   None    Shift=    0.000
 RMSDP=5.12D-07 MaxDP=2.13D-05 DE=-1.63D-07 OVMax= 4.19D-05

 Cycle  11  Pass 1  IDiag  1:
 E= -279.501698065587     Delta-E=       -0.000000012796 Rises=F Damp=F
 DIIS: error= 2.04D-06 at cycle  11 NSaved=  11.
 NSaved=11 IEnMin=11 EnMin= -279.501698065587     IErMin=11 ErrMin= 2.04D-06
 ErrMax= 2.04D-06  0.00D+00 EMaxC= 1.00D-01 BMatC= 6.71D-10 BMatP= 5.64D-09
 IDIUse=1 WtCom= 1.00D+00 WtEn= 0.00D+00
 Coeff-Com: -0.214D-04 0.246D-03 0.490D-03 0.530D-03-0.429D-02-0.362D-02
 Coeff-Com:  0.215D-01 0.304D-01-0.138D+00-0.182D+00 0.127D+01
 Coeff:     -0.214D-04 0.246D-03 0.490D-03 0.530D-03-0.429D-02-0.362D-02
 Coeff:      0.215D-01 0.304D-01-0.138D+00-0.182D+00 0.127D+01
 Gap=     0.502 Goal=   None    Shift=    0.000
 RMSDP=1.80D-07 MaxDP=6.68D-06 DE=-1.28D-08 OVMax= 1.75D-05

 Cycle  12  Pass 1  IDiag  1:
 E= -279.501698067431     Delta-E=       -0.000000001844 Rises=F Damp=F
 DIIS: error= 6.01D-07 at cycle  12 NSaved=  12.
 NSaved=12 IEnMin=12 EnMin= -279.501698067431     IErMin=12 ErrMin= 6.01D-07
 ErrMax= 6.01D-07  0.00D+00 EMaxC= 1.00D-01 BMatC= 7.31D-11 BMatP= 6.71D-10
 IDIUse=1 WtCom= 1.00D+00 WtEn= 0.00D+00
 Coeff-Com:  0.126D-05-0.295D-04-0.636D-04 0.183D-03 0.109D-02-0.230D-02
 Coeff-Com: -0.416D-02 0.552D-02 0.417D-01-0.111D+00-0.288D+00 0.136D+01
 Coeff:      0.126D-05-0.295D-04-0.636D-04 0.183D-03 0.109D-02-0.230D-02
 Coeff:     -0.416D-02 0.552D-02 0.417D-01-0.111D+00-0.288D+00 0.136D+01
 Gap=     0.502 Goal=   None    Shift=    0.000
 RMSDP=7.31D-08 MaxDP=2.90D-06 DE=-1.84D-09 OVMax= 6.73D-06

 Cycle  13  Pass 1  IDiag  1:
 E= -279.501698067667     Delta-E=       -0.000000000236 Rises=F Damp=F
 DIIS: error= 1.71D-07 at cycle  13 NSaved=  13.
 NSaved=13 IEnMin=13 EnMin= -279.501698067667     IErMin=13 ErrMin= 1.71D-07
 ErrMax= 1.71D-07  0.00D+00 EMaxC= 1.00D-01 BMatC= 4.09D-12 BMatP= 7.31D-11
 IDIUse=1 WtCom= 1.00D+00 WtEn= 0.00D+00
 Coeff-Com:  0.129D-05-0.141D-04-0.226D-04-0.897D-04 0.122D-03 0.768D-03
 Coeff-Com: -0.863D-03-0.324D-02 0.509D-03 0.408D-01-0.336D-01-0.329D+00
 Coeff-Com:  0.132D+01
 Coeff:      0.129D-05-0.141D-04-0.226D-04-0.897D-04 0.122D-03 0.768D-03
 Coeff:     -0.863D-03-0.324D-02 0.509D-03 0.408D-01-0.336D-01-0.329D+00
 Coeff:      0.132D+01
 Gap=     0.502 Goal=   None    Shift=    0.000
 RMSDP=1.94D-08 MaxDP=5.64D-07 DE=-2.36D-10 OVMax= 1.57D-06

 Cycle  14  Pass 1  IDiag  1:
 E= -279.501698067680     Delta-E=       -0.000000000013 Rises=F Damp=F
 DIIS: error= 2.46D-08 at cycle  14 NSaved=  14.
 NSaved=14 IEnMin=14 EnMin= -279.501698067680     IErMin=14 ErrMin= 2.46D-08
 ErrMax= 2.46D-08  0.00D+00 EMaxC= 1.00D-01 BMatC= 1.96D-13 BMatP= 4.09D-12
 IDIUse=1 WtCom= 1.00D+00 WtEn= 0.00D+00
 Coeff-Com: -0.188D-06 0.310D-05 0.554D-05 0.448D-05-0.820D-04 0.455D-04
 Coeff-Com:  0.284D-03 0.213D-03-0.241D-02 0.135D-02 0.171D-01-0.257D-01
 Coeff-Com: -0.198D+00 0.121D+01
 Coeff:     -0.188D-06 0.310D-05 0.554D-05 0.448D-05-0.820D-04 0.455D-04
 Coeff:      0.284D-03 0.213D-03-0.241D-02 0.135D-02 0.171D-01-0.257D-01
 Coeff:     -0.198D+00 0.121D+01
 Gap=     0.502 Goal=   None    Shift=    0.000
 RMSDP=3.80D-09 MaxDP=9.29D-08 DE=-1.26D-11 OVMax= 3.41D-07

 SCF Done:  E(RHF) =  -279.501698068     A.U. after   14 cycles
            NFock= 14  Conv=0.38D-08     -V/T= 2.0024
 KE= 2.788372483083D+02 PE=-8.946771717811D+02 EE= 2.196579173050D+02
 Leave Link  502 at Mon Feb 14 12:37:17 2022, MaxMem= 16106127360 cpu:              57.1 elap:               3.6
 (Enter /sw/contrib/gaussian/g16/B01/g16/l801.exe)
 ExpMin= 2.53D-02 ExpMax= 1.53D+04 ExpMxC= 5.22D+02 IAcc=3 IRadAn=         5 AccDes= 0.00D+00
 HarFok:  IExCor=  205 AccDes= 0.00D+00 IRadAn=         5 IDoV=-2 UseB2=F ITyADJ=14
 ICtDFT= 12500011 ScaDFX=  1.000000  1.000000  1.000000  1.000000
 DSYEVD-2 returned Info=          93 IAlg= 4 N=    46 NDim=    46 NE2=   350130240 trying  DSYEV.
 Largest valence mixing into a core orbital is  2.08D-04
 Largest core mixing into a valence orbital is  3.62D-05
 Range of M.O.s used for correlation:     5   207
 NBasis=   207 NAE=    16 NBE=    16 NFC=     4 NFV=     0
 NROrb=    203 NOA=    12 NOB=    12 NVA=   191 NVB=   191

 **** Warning!!: The largest alpha MO coefficient is  0.17252253D+02

 Leave Link  801 at Mon Feb 14 12:37:17 2022, MaxMem= 16106127360 cpu:               4.1 elap:               0.2
 (Enter /sw/contrib/gaussian/g16/B01/g16/l906.exe)
 Frozen-core derivative calculation, NFC=   4 NFV=   0.
 FulOut=F Deriv=T AODrv=F NAtomX=     5
   MMem=          76  MDisk=          12 MDiskD=          12
  W3Min=      811440 MinDsk=     1524655 NBas6D=         245
 NBas2D=       30762    NTT=       30135    LW2=     3500000
    MDV= 16105579927 MDiskM=      328644 NBas2p=       30466
 Fully in-core method, ICMem=   960157634.
 IMap=   1   2   3   4   5   6   7   8   9  10  11  12  13  14  15  16
 JobTyp=1 Pass  1 fully in-core, NPsUse= 28.
 Compute canonical integrals.
 FoFCou: FMM=F IPFlag=           0 FMFlag=           0 FMFlg1=           0
         NFxFlg=           0 DoJE=F BraDBF=F KetDBF=F FulRan=T
         wScrn=  0.000000 ICntrl=       600 IOpCl=  1 I1Cent=           0 NGrid=           0
         NMat0=    1 NMatS0=  30762 NMatT0=    0 NMatD0=    1 NMtDS0=    0 NMtDT0=    0
 Symmetry not used in FoFCou.
 Spin components of T(2) and E(2):
     alpha-alpha T2 =       0.3403164280D-01 E2=     -0.1223901711D+00
     alpha-beta  T2 =       0.1868520056D+00 E2=     -0.7001658750D+00
     beta-beta   T2 =       0.3403164280D-01 E2=     -0.1223901711D+00
 The integrals were generated   1 times.
 ANorm=    0.1120230017D+01
 E2 =    -0.9449462172D+00 EUMP2 =    -0.28044664428484D+03
 Leave Link  906 at Mon Feb 14 12:37:25 2022, MaxMem= 16106127360 cpu:             244.2 elap:               8.8
 (Enter /sw/contrib/gaussian/g16/B01/g16/l1002.exe)
 Minotr:  Closed shell wavefunction.
          Computing MP2/KS-MP2 derivatives.
          Using Z-Vector for PSCF gradient.
          Skipping F1 and S1 gradient terms here.
          Frozen-core window.
          Direct CPHF calculation.
          Differentiating once with respect to electric field.
                with respect to dipole field.
          Electric field/nuclear overlap derivatives assumed to be zero.
          Using symmetry in CPHF.
          Requested convergence is 1.0D-10 RMS, and 1.0D-09 maximum.
          NewPWx=F KeepS1=T KeepF1=T KeepIn=T MapXYZ=F SortEE=F KeepMc=T.
 Keep R1 ints in memory in symmetry-blocked form, NReq=348888868.
 FoFCou: FMM=F IPFlag=           0 FMFlag=           0 FMFlg1=           0
         NFxFlg=           0 DoJE=F BraDBF=F KetDBF=F FulRan=T
         wScrn=  0.000000 ICntrl=       600 IOpCl=  0 I1Cent=           0 NGrid=           0
         NMat0=    1 NMatS0=  21528 NMatT0=    0 NMatD0=    1 NMtDS0=    0 NMtDT0=    0
 Petite list used in FoFCou.
          MDV=   16106127360 using IRadAn=       5.
          Solving linear equations separately, MaxMat=       0.
          There are     1 degrees of freedom in the 1st order CPHF.  IDoFFX=0 NUNeed=     1.
 LinEq1:  Iter=  0 NonCon=     1 RMS=5.98D-03 Max=1.33D-01 NDo=     1
 AX will form     1 AO Fock derivatives at one time.
 LinEq1:  Iter=  1 NonCon=     1 RMS=1.91D-03 Max=3.83D-02 NDo=     1
 LinEq1:  Iter=  2 NonCon=     1 RMS=8.71D-04 Max=1.36D-02 NDo=     1
 LinEq1:  Iter=  3 NonCon=     1 RMS=3.88D-04 Max=7.87D-03 NDo=     1
 LinEq1:  Iter=  4 NonCon=     1 RMS=1.21D-04 Max=1.93D-03 NDo=     1
 LinEq1:  Iter=  5 NonCon=     1 RMS=4.70D-05 Max=7.45D-04 NDo=     1
 LinEq1:  Iter=  6 NonCon=     1 RMS=2.09D-05 Max=2.50D-04 NDo=     1
 LinEq1:  Iter=  7 NonCon=     1 RMS=8.29D-06 Max=1.58D-04 NDo=     1
 LinEq1:  Iter=  8 NonCon=     1 RMS=3.52D-06 Max=3.47D-05 NDo=     1
 LinEq1:  Iter=  9 NonCon=     1 RMS=9.51D-07 Max=1.31D-05 NDo=     1
 LinEq1:  Iter= 10 NonCon=     1 RMS=1.87D-07 Max=2.00D-06 NDo=     1
 LinEq1:  Iter= 11 NonCon=     1 RMS=3.44D-08 Max=3.43D-07 NDo=     1
 LinEq1:  Iter= 12 NonCon=     1 RMS=8.27D-09 Max=1.23D-07 NDo=     1
 LinEq1:  Iter= 13 NonCon=     1 RMS=1.49D-09 Max=2.57D-08 NDo=     1
 LinEq1:  Iter= 14 NonCon=     1 RMS=2.72D-10 Max=3.66D-09 NDo=     1
 LinEq1:  Iter= 15 NonCon=     0 RMS=4.94D-11 Max=5.67D-10 NDo=     1
 Linear equations converged to 1.000D-10 1.000D-09 after    15 iterations.
 End of Minotr F.D. properties file   721 does not exist.
 End of Minotr F.D. properties file   722 does not exist.
 End of Minotr F.D. properties file   788 does not exist.
 Leave Link 1002 at Mon Feb 14 12:37:29 2022, MaxMem= 16106127360 cpu:              52.8 elap:               3.9
 (Enter /sw/contrib/gaussian/g16/B01/g16/l601.exe)
 Copying SCF densities to generalized density rwf, IOpCl= 0 IROHF=0.

 **********************************************************************

            Population analysis using the MP2 Density.

 **********************************************************************

 Orbital symmetries:
       Occupied  (A') (A') (A') (A') (A') (A') (A') (A') (A') (A')
                 (A") (A') (A") (A') (A") (A')
       Virtual   (A') (A") (A') (A') (A") (A') (A') (A') (A") (A')
                 (A") (A') (A') (A') (A") (A') (A') (A") (A') (A')
                 (A') (A') (A') (A') (A") (A') (A') (A") (A') (A')
                 (A") (A') (A") (A') (A') (A") (A') (A") (A') (A')
                 (A") (A') (A") (A') (A') (A") (A') (A') (A") (A')
                 (A") (A') (A') (A') (A") (A') (A") (A') (A") (A')
                 (A') (A') (A") (A') (A') (A") (A') (A") (A') (A')
                 (A") (A') (A') (A") (A") (A') (A') (A") (A') (A')
                 (A') (A") (A') (A") (A") (A') (A') (A") (A') (A')
                 (A") (A') (A') (A") (A') (A") (A') (A") (A') (A')
                 (A") (A') (A") (A') (A') (A") (A') (A') (A") (A')
                 (A") (A') (A') (A') (A") (A') (A') (A') (A") (A')
                 (A") (A') (A") (A') (A') (A") (A") (A') (A") (A')
                 (A') (A') (A') (A") (A") (A") (A') (A') (A') (A')
                 (A") (A') (A") (A') (A') (A") (A') (A') (A') (A')
                 (A") (A') (A') (A") (A') (A") (A') (A") (A') (A")
                 (A') (A") (A') (A") (A') (A") (A") (A') (A") (A')
                 (A") (A') (A") (A') (A") (A') (A") (A") (A') (A')
                 (A') (A') (A') (A') (A') (A') (A') (A') (A') (A')
                 (A')
 The electronic state is 1-A'.
 Alpha  occ. eigenvalues --  -20.69045 -20.68463 -20.66047 -15.81328  -1.62398
 Alpha  occ. eigenvalues --   -1.49533  -1.25509  -0.94780  -0.77168  -0.75976
 Alpha  occ. eigenvalues --   -0.71158  -0.68153  -0.62084  -0.58833  -0.48510
 Alpha  occ. eigenvalues --   -0.47221
 Alpha virt. eigenvalues --    0.02963   0.07150   0.08597   0.10211   0.13378
 Alpha virt. eigenvalues --    0.13380   0.14389   0.15403   0.17832   0.19432
 Alpha virt. eigenvalues --    0.19996   0.20613   0.22066   0.23523   0.23726
 Alpha virt. eigenvalues --    0.26713   0.29364   0.30310   0.31084   0.34380
 Alpha virt. eigenvalues --    0.34926   0.38658   0.42242   0.43275   0.52755
 Alpha virt. eigenvalues --    0.52799   0.55682   0.57944   0.62558   0.63943
 Alpha virt. eigenvalues --    0.67479   0.68456   0.70722   0.71020   0.72456
 Alpha virt. eigenvalues --    0.72861   0.74464   0.79213   0.79313   0.81116
 Alpha virt. eigenvalues --    0.81262   0.82918   0.86821   0.90856   0.92167
 Alpha virt. eigenvalues --    0.92673   0.95425   0.97253   0.98340   1.01638
 Alpha virt. eigenvalues --    1.05086   1.05591   1.07837   1.11412   1.13880
 Alpha virt. eigenvalues --    1.19128   1.21938   1.23454   1.34014   1.35149
 Alpha virt. eigenvalues --    1.38443   1.45471   1.48816   1.50877   1.53633
 Alpha virt. eigenvalues --    1.56551   1.57869   1.61134   1.66053   1.67244
 Alpha virt. eigenvalues --    1.70329   1.79190   1.83541   1.83668   1.87715
 Alpha virt. eigenvalues --    1.90757   1.95377   1.99103   2.00588   2.07853
 Alpha virt. eigenvalues --    2.12440   2.13298   2.14953   2.22328   2.26406
 Alpha virt. eigenvalues --    2.26533   2.29094   2.31220   2.33611   2.38438
 Alpha virt. eigenvalues --    2.42179   2.42943   2.45516   2.46117   2.47658
 Alpha virt. eigenvalues --    2.49706   2.58795   2.59787   2.61934   2.62737
 Alpha virt. eigenvalues --    2.63818   2.66500   2.75395   2.81860   2.84088
 Alpha virt. eigenvalues --    2.87561   2.89496   2.92687   2.96178   3.01605
 Alpha virt. eigenvalues --    3.06449   3.11808   3.20293   3.22323   3.31825
 Alpha virt. eigenvalues --    3.34888   3.52744   3.63495   3.83680   3.84360
 Alpha virt. eigenvalues --    4.14694   4.16371   4.18222   4.25469   4.35565
 Alpha virt. eigenvalues --    4.39017   4.46295   4.52062   4.65315   4.70953
 Alpha virt. eigenvalues --    4.79999   4.82395   4.83115   4.89459   5.02485
 Alpha virt. eigenvalues --    5.07773   5.10392   5.15084   5.17362   5.23895
 Alpha virt. eigenvalues --    5.27326   5.30803   5.32575   5.34821   5.59397
 Alpha virt. eigenvalues --    5.67338   5.76495   5.83118   5.95751   6.16374
 Alpha virt. eigenvalues --    6.30893   6.33980   6.39595   6.49423   6.50668
 Alpha virt. eigenvalues --    6.61094   6.67064   6.70107   6.75285   6.76316
 Alpha virt. eigenvalues --    6.83153   6.90038   7.01711   7.05594   7.06077
 Alpha virt. eigenvalues --    7.08979   7.12293   7.14690   7.18070   7.22676
 Alpha virt. eigenvalues --    7.23984   7.30608   7.32565   7.33850   7.39587
 Alpha virt. eigenvalues --    7.43382   7.48200   7.61272   7.61639   7.62041
 Alpha virt. eigenvalues --    7.66160   7.78652   7.87988   8.09571   8.31390
 Alpha virt. eigenvalues --    8.40943   8.54559  13.37798  14.42180  15.14619
 Alpha virt. eigenvalues --   16.15020
          Condensed to atoms (all electrons):
               1          2          3          4          5
     1  H    0.586857   0.128654   0.021321   0.011491  -0.000537
     2  O    0.128654   8.322534  -0.176349  -0.085340   0.015045
     3  O    0.021321  -0.176349   8.469439  -0.132195  -0.037181
     4  N    0.011491  -0.085340  -0.132195   6.972441  -0.055616
     5  O   -0.000537   0.015045  -0.037181  -0.055616   8.270146
 Mulliken charges:
               1
     1  H    0.252214
     2  O   -0.204544
     3  O   -0.145034
     4  N    0.289219
     5  O   -0.191856
 Sum of Mulliken charges =  -0.00000
 Mulliken charges with hydrogens summed into heavy atoms:
               1
     2  O    0.047671
     3  O   -0.145034
     4  N    0.289219
     5  O   -0.191856
 Electronic spatial extent (au):  <R**2>=            254.4953
 Charge=             -0.0000 electrons
 Dipole moment (field-independent basis, Debye):
    X=              0.4712    Y=              1.3715    Z=              0.0000  Tot=              1.4501
 Quadrupole moment (field-independent basis, Debye-Ang):
   XX=            -22.6222   YY=            -18.4683   ZZ=            -22.0132
   XY=              3.2028   XZ=              0.0000   YZ=             -0.0000
 Traceless Quadrupole moment (field-independent basis, Debye-Ang):
   XX=             -1.5876   YY=              2.5662   ZZ=             -0.9786
   XY=              3.2028   XZ=              0.0000   YZ=             -0.0000
 Octapole moment (field-independent basis, Debye-Ang**2):
  XXX=              2.4446  YYY=             11.8411  ZZZ=              0.0000  XYY=              7.9587
  XXY=              6.3314  XXZ=             -0.0000  XZZ=             -1.5748  YZZ=             -0.8697
  YYZ=             -0.0000  XYZ=             -0.0000
 Hexadecapole moment (field-independent basis, Debye-Ang**3):
 XXXX=           -158.5621 YYYY=            -91.0760 ZZZZ=            -18.2468 XXXY=            -38.1337
 XXXZ=              0.0000 YYYX=            -31.1861 YYYZ=              0.0000 ZZZX=              0.0000
 ZZZY=              0.0000 XXYY=            -34.3946 XXZZ=            -30.7482 YYZZ=            -21.1086
 XXYZ=              0.0000 YYXZ=              0.0000 ZZXY=            -15.3942
 N-N= 1.166803081001D+02 E-N=-8.954593670809D+02  KE= 2.801894419537D+02
 Symmetry A'   KE= 2.662191425298D+02
 Symmetry A"   KE= 1.397029942388D+01
 No NMR shielding tensors so no spin-rotation constants.
 Leave Link  601 at Mon Feb 14 12:37:30 2022, MaxMem= 16106127360 cpu:               4.5 elap:               0.2
 (Enter /sw/contrib/gaussian/g16/B01/g16/l9999.exe)
 1\1\GINC-N2115\SP\RMP2-FC\Aug-CC-pVTZ\H1N1O3\CGAVINH\14-Feb-2022\0\\#p
  SP mp2/aug-cc-pvtz density=current\\title\\0,1\H\O,1,0.96897556\O,2,1
 .45491931,1,97.59494903\N,3,1.45878406,2,103.75222548,1,180.,0\O,4,1.1
 7072885,3,109.06955123,2,180.,0\\Version=ES64L-G16RevB.01\State=1-A'\H
 F=-279.5016981\MP2=-280.4466443\RMSD=3.805e-09\Dipole=-0.1466549,0.,-0
 .5513618\Quadrupole=-1.5016593,-0.7275721,2.2292315,0.,2.138806,0.\PG=
 CS [SG(H1N1O3)]\\@


 A great many people think they are thinking when they
 are merely rearranging their prejudices.
                               -- William James
 Job cpu time:       0 days  0 hours  6 minutes 27.5 seconds.
 Elapsed time:       0 days  0 hours  0 minutes 17.8 seconds.
 File lengths (MBytes):  RWF=     22 Int=      0 D2E=      0 Chk=      8 Scr=      1
 Normal termination of Gaussian 16 at Mon Feb 14 12:37:30 2022.
