title                                                                   
SP        RMP2-FC                                                     Aug-CC-pVTZ         
Number of atoms                            I                5
Info1-9                                    I   N=           9
          33          24           0           0           0         110
           1           2           1
Full Title                                 C   N=           1
title       
Route                                      C   N=           4
#p SP mp2/aug-cc-pvtz density=current           
Charge                                     I                0
Multiplicity                               I                1
Number of electrons                        I               32
Number of alpha electrons                  I               16
Number of beta electrons                   I               16
Number of basis functions                  I              207
Number of independent functions            I              207
Number of point charges in /Mol/           I                0
Number of translation vectors              I                0
Atomic numbers                             I   N=           5
           1           8           8           7           8
Nuclear charges                            R   N=           5
  1.00000000E+00  8.00000000E+00  8.00000000E+00  7.00000000E+00  8.00000000E+00
Current cartesian coordinates              R   N=          15
  2.92933509E+00  3.20642521E+00  3.83913252E-31  2.74778549E+00  1.36539637E+00
  2.15595490E-32  7.09143566E-17  1.27121612E+00  1.03478482E-33 -4.94536719E-01
 -1.44076494E+00 -2.09313870E-31 -2.68123275E+00 -1.77674633E+00 -6.82492562E-31
Number of symbols in /Mol/                 I                0
Force Field                                I                0
Atom Types                                 C   N=           5
                                                            
Int Atom Types                             I   N=           5
           0           0           0           0           0
MM charges                                 R   N=           5
  0.00000000E+00  0.00000000E+00  0.00000000E+00  0.00000000E+00  0.00000000E+00
Integer atomic weights                     I   N=           5
           1          16          16          14          16
Real atomic weights                        R   N=           5
  1.00782504E+00  1.59949146E+01  1.59949146E+01  1.40030740E+01  1.59949146E+01
Atom fragment info                         I   N=           5
           0           0           0           0           0
Atom residue num                           I   N=           5
           0           0           0           0           0
Nuclear spins                              I   N=           5
           1           0           0           2           0
Nuclear ZEff                               R   N=           5
 -1.00000000E+00 -5.60000000E+00 -5.60000000E+00 -4.55000000E+00 -5.60000000E+00
Nuclear ZNuc                               R   N=           5
  1.00000000E+00  8.00000000E+00  8.00000000E+00  7.00000000E+00  8.00000000E+00
Nuclear QMom                               R   N=           5
  0.00000000E+00  0.00000000E+00  0.00000000E+00  2.04400000E+00  0.00000000E+00
Nuclear GFac                               R   N=           5
  2.79284600E+00  0.00000000E+00  0.00000000E+00  4.03761000E-01  0.00000000E+00
MicOpt                                     I   N=           5
          -1          -1          -1          -1          -1
Number of residues                         I                0
Number of secondary structures             I                0
SymInf integers                            I   N=          26
           1           2           1           1           1           1
           1          -1           0           0           0           0
           0           0           0           0           0           0
           0           0           0           0           0           0
           0           0
RotTr to input orientation                 R   N=          12
 -9.95172904E-01 -8.63427655E-16 -9.81371043E-02  9.81371043E-02  7.73068643E-16
 -9.95172904E-01  9.35126525E-16 -1.00000000E+00 -6.84602677E-16  2.60052562E+00
  0.00000000E+00  3.47842395E+00
Number of contracted shells                I               65
Number of primitive shells                 I              119
Pure/Cartesian d shells                    I                0
Pure/Cartesian f shells                    I                0
Highest angular momentum                   I                3
Largest degree of contraction              I                7
Shell types                                I   N=          65
           0           0           0           0           1           1
           1          -2          -2           0           0           0
           0           0           1           1           1           1
          -2          -2          -2          -3          -3           0
           0           0           0           0           1           1
           1           1          -2          -2          -2          -3
          -3           0           0           0           0           0
           1           1           1           1          -2          -2
          -2          -3          -3           0           0           0
           0           0           1           1           1           1
          -2          -2          -2          -3          -3
Number of primitives per shell             I   N=          65
           3           1           1           1           1           1
           1           1           1           7           6           1
           1           1           3           1           1           1
           1           1           1           1           1           7
           6           1           1           1           3           1
           1           1           1           1           1           1
           1           7           6           1           1           1
           3           1           1           1           1           1
           1           1           1           7           6           1
           1           1           3           1           1           1
           1           1           1           1           1
Shell to atom map                          I   N=          65
           1           1           1           1           1           1
           1           1           1           2           2           2
           2           2           2           2           2           2
           2           2           2           2           2           3
           3           3           3           3           3           3
           3           3           3           3           3           3
           3           4           4           4           4           4
           4           4           4           4           4           4
           4           4           4           5           5           5
           5           5           5           5           5           5
           5           5           5           5           5
Primitive exponents                        R   N=         119
  3.38700000E+01  5.09500000E+00  1.15900000E+00  3.25800000E-01  1.02700000E-01
  2.52600000E-02  1.40700000E+00  3.88000000E-01  1.02000000E-01  1.05700000E+00
  2.47000000E-01  1.53300000E+04  2.29900000E+03  5.22400000E+02  1.47300000E+02
  4.75500000E+01  1.67600000E+01  6.20700000E+00  5.22400000E+02  1.47300000E+02
  4.75500000E+01  1.67600000E+01  6.20700000E+00  6.88200000E-01  1.75200000E+00
  2.38400000E-01  7.37600000E-02  3.44600000E+01  7.74900000E+00  2.28000000E+00
  7.15600000E-01  2.14000000E-01  5.97400000E-02  2.31400000E+00  6.45000000E-01
  2.14000000E-01  1.42800000E+00  5.00000000E-01  1.53300000E+04  2.29900000E+03
  5.22400000E+02  1.47300000E+02  4.75500000E+01  1.67600000E+01  6.20700000E+00
  5.22400000E+02  1.47300000E+02  4.75500000E+01  1.67600000E+01  6.20700000E+00
  6.88200000E-01  1.75200000E+00  2.38400000E-01  7.37600000E-02  3.44600000E+01
  7.74900000E+00  2.28000000E+00  7.15600000E-01  2.14000000E-01  5.97400000E-02
  2.31400000E+00  6.45000000E-01  2.14000000E-01  1.42800000E+00  5.00000000E-01
  1.14200000E+04  1.71200000E+03  3.89300000E+02  1.10000000E+02  3.55700000E+01
  1.25400000E+01  4.64400000E+00  3.89300000E+02  1.10000000E+02  3.55700000E+01
  1.25400000E+01  4.64400000E+00  5.11800000E-01  1.29300000E+00  1.78700000E-01
  5.76000000E-02  2.66300000E+01  5.94800000E+00  1.74200000E+00  5.55000000E-01
  1.72500000E-01  4.91000000E-02  1.65400000E+00  4.69000000E-01  1.51000000E-01
  1.09300000E+00  3.64000000E-01  1.53300000E+04  2.29900000E+03  5.22400000E+02
  1.47300000E+02  4.75500000E+01  1.67600000E+01  6.20700000E+00  5.22400000E+02
  1.47300000E+02  4.75500000E+01  1.67600000E+01  6.20700000E+00  6.88200000E-01
  1.75200000E+00  2.38400000E-01  7.37600000E-02  3.44600000E+01  7.74900000E+00
  2.28000000E+00  7.15600000E-01  2.14000000E-01  5.97400000E-02  2.31400000E+00
  6.45000000E-01  2.14000000E-01  1.42800000E+00  5.00000000E-01
Contraction coefficients                   R   N=         119
  2.54948632E-02  1.90362766E-01  8.52162022E-01  1.00000000E+00  1.00000000E+00
  1.00000000E+00  1.00000000E+00  1.00000000E+00  1.00000000E+00  1.00000000E+00
  1.00000000E+00  5.19808943E-04  4.02025621E-03  2.07128267E-02  8.10105536E-02
  2.35962985E-01  4.42653446E-01  3.57064423E-01 -4.42115008E-05 -1.22591041E-03
 -1.05517725E-02 -6.74452633E-02 -1.71198607E-01  1.07329856E+00  1.00000000E+00
  1.00000000E+00  1.00000000E+00  4.11634896E-02  2.57762836E-01  8.02419274E-01
  1.00000000E+00  1.00000000E+00  1.00000000E+00  1.00000000E+00  1.00000000E+00
  1.00000000E+00  1.00000000E+00  1.00000000E+00  5.19808943E-04  4.02025621E-03
  2.07128267E-02  8.10105536E-02  2.35962985E-01  4.42653446E-01  3.57064423E-01
 -4.42115008E-05 -1.22591041E-03 -1.05517725E-02 -6.74452633E-02 -1.71198607E-01
  1.07329856E+00  1.00000000E+00  1.00000000E+00  1.00000000E+00  4.11634896E-02
  2.57762836E-01  8.02419274E-01  1.00000000E+00  1.00000000E+00  1.00000000E+00
  1.00000000E+00  1.00000000E+00  1.00000000E+00  1.00000000E+00  1.00000000E+00
  5.34563860E-04  4.13435660E-03  2.12335358E-02  8.25006224E-02  2.38138871E-01
  4.42551547E-01  3.53757422E-01 -4.89867350E-05 -1.19527323E-03 -1.03490714E-02
 -6.48680190E-02 -1.71552477E-01  1.07289568E+00  1.00000000E+00  1.00000000E+00
  1.00000000E+00  3.98072123E-02  2.49002660E-01  8.10479727E-01  1.00000000E+00
  1.00000000E+00  1.00000000E+00  1.00000000E+00  1.00000000E+00  1.00000000E+00
  1.00000000E+00  1.00000000E+00  5.19808943E-04  4.02025621E-03  2.07128267E-02
  8.10105536E-02  2.35962985E-01  4.42653446E-01  3.57064423E-01 -4.42115008E-05
 -1.22591041E-03 -1.05517725E-02 -6.74452633E-02 -1.71198607E-01  1.07329856E+00
  1.00000000E+00  1.00000000E+00  1.00000000E+00  4.11634896E-02  2.57762836E-01
  8.02419274E-01  1.00000000E+00  1.00000000E+00  1.00000000E+00  1.00000000E+00
  1.00000000E+00  1.00000000E+00  1.00000000E+00  1.00000000E+00
Coordinates of each shell                  R   N=         195
  2.92933509E+00  3.20642521E+00  1.71499542E-31  2.92933509E+00  3.20642521E+00
  1.71499542E-31  2.92933509E+00  3.20642521E+00  1.71499542E-31  2.92933509E+00
  3.20642521E+00  1.71499542E-31  2.92933509E+00  3.20642521E+00  1.71499542E-31
  2.92933509E+00  3.20642521E+00  1.71499542E-31  2.92933509E+00  3.20642521E+00
  1.71499542E-31  2.92933509E+00  3.20642521E+00  1.71499542E-31  2.92933509E+00
  3.20642521E+00  1.71499542E-31  2.74778549E+00  1.36539637E+00  8.02895325E-32
  2.74778549E+00  1.36539637E+00  8.02895325E-32  2.74778549E+00  1.36539637E+00
  8.02895325E-32  2.74778549E+00  1.36539637E+00  8.02895325E-32  2.74778549E+00
  1.36539637E+00  8.02895325E-32  2.74778549E+00  1.36539637E+00  8.02895325E-32
  2.74778549E+00  1.36539637E+00  8.02895325E-32  2.74778549E+00  1.36539637E+00
  8.02895325E-32  2.74778549E+00  1.36539637E+00  8.02895325E-32  2.74778549E+00
  1.36539637E+00  8.02895325E-32  2.74778549E+00  1.36539637E+00  8.02895325E-32
  2.74778549E+00  1.36539637E+00  8.02895325E-32  2.74778549E+00  1.36539637E+00
  8.02895325E-32  2.74778549E+00  1.36539637E+00  8.02895325E-32 -1.40137352E-19
  1.27121612E+00  6.23732519E-32 -1.40137352E-19  1.27121612E+00  6.23732519E-32
 -1.40137352E-19  1.27121612E+00  6.23732519E-32 -1.40137352E-19  1.27121612E+00
  6.23732519E-32 -1.40137352E-19  1.27121612E+00  6.23732519E-32 -1.40137352E-19
  1.27121612E+00  6.23732519E-32 -1.40137352E-19  1.27121612E+00  6.23732519E-32
 -1.40137352E-19  1.27121612E+00  6.23732519E-32 -1.40137352E-19  1.27121612E+00
  6.23732519E-32 -1.40137352E-19  1.27121612E+00  6.23732519E-32 -1.40137352E-19
  1.27121612E+00  6.23732519E-32 -1.40137352E-19  1.27121612E+00  6.23732519E-32
 -1.40137352E-19  1.27121612E+00  6.23732519E-32 -1.40137352E-19  1.27121612E+00
  6.23732519E-32 -4.94536719E-01 -1.44076494E+00 -7.30851341E-32 -4.94536719E-01
 -1.44076494E+00 -7.30851341E-32 -4.94536719E-01 -1.44076494E+00 -7.30851341E-32
 -4.94536719E-01 -1.44076494E+00 -7.30851341E-32 -4.94536719E-01 -1.44076494E+00
 -7.30851341E-32 -4.94536719E-01 -1.44076494E+00 -7.30851341E-32 -4.94536719E-01
 -1.44076494E+00 -7.30851341E-32 -4.94536719E-01 -1.44076494E+00 -7.30851341E-32
 -4.94536719E-01 -1.44076494E+00 -7.30851341E-32 -4.94536719E-01 -1.44076494E+00
 -7.30851341E-32 -4.94536719E-01 -1.44076494E+00 -7.30851341E-32 -4.94536719E-01
 -1.44076494E+00 -7.30851341E-32 -4.94536719E-01 -1.44076494E+00 -7.30851341E-32
 -4.94536719E-01 -1.44076494E+00 -7.30851341E-32 -2.68123275E+00 -1.77674633E+00
 -1.00150735E-31 -2.68123275E+00 -1.77674633E+00 -1.00150735E-31 -2.68123275E+00
 -1.77674633E+00 -1.00150735E-31 -2.68123275E+00 -1.77674633E+00 -1.00150735E-31
 -2.68123275E+00 -1.77674633E+00 -1.00150735E-31 -2.68123275E+00 -1.77674633E+00
 -1.00150735E-31 -2.68123275E+00 -1.77674633E+00 -1.00150735E-31 -2.68123275E+00
 -1.77674633E+00 -1.00150735E-31 -2.68123275E+00 -1.77674633E+00 -1.00150735E-31
 -2.68123275E+00 -1.77674633E+00 -1.00150735E-31 -2.68123275E+00 -1.77674633E+00
 -1.00150735E-31 -2.68123275E+00 -1.77674633E+00 -1.00150735E-31 -2.68123275E+00
 -1.77674633E+00 -1.00150735E-31 -2.68123275E+00 -1.77674633E+00 -1.00150735E-31
Num ILSW                                   I              100
ILSW                                       I   N=         100
           0           0           0           0           2           0
           0           0           0           0           0          -1
           5           0           0           0           0           0
           0           0           0           0           0           0
           1           0           0           0           0           0
           0           0      100000           0          -1           0
           0           0           0           0           0           0
           0           0           0           1           0           0
           0 -2000000000           1           0           0           0
           0           0           4          52           0           0
           0           0           0           0           0           0
           0           0           0           5           0           1
           0           0           0           0           0           0
           0           0           0           0           0           0
           0           0           0           0           0           0
           0           0           0           0           0           0
           0           0           0           0
Num RLSW                                   I               52
RLSW                                       R   N=          52
  1.00000000E+00  1.00000000E+00  1.00000000E+00  1.00000000E+00  1.00000000E+00
  0.00000000E+00  0.00000000E+00  1.00000000E+00  0.00000000E+00  0.00000000E+00
  0.00000000E+00  0.00000000E+00  1.00000000E+00  0.00000000E+00  0.00000000E+00
  0.00000000E+00  0.00000000E+00  1.00000000E+00  0.00000000E+00  0.00000000E+00
  0.00000000E+00  0.00000000E+00  1.00000000E+00  0.00000000E+00  0.00000000E+00
  0.00000000E+00  0.00000000E+00  1.00000000E+00  0.00000000E+00  0.00000000E+00
  0.00000000E+00  0.00000000E+00  1.00000000E+00  0.00000000E+00  0.00000000E+00
  0.00000000E+00  0.00000000E+00  0.00000000E+00  1.00000000E+00  1.00000000E+00
  0.00000000E+00  1.00000000E+00  0.00000000E+00  0.00000000E+00  0.00000000E+00
  0.00000000E+00  0.00000000E+00  0.00000000E+00  0.00000000E+00  0.00000000E+00
  0.00000000E+00  0.00000000E+00
MxBond                                     I                2
NBond                                      I   N=           5
           1           2           2           2           1
IBond                                      I   N=          10
           2           0           1           3           2           4
           3           5           4           0
RBond                                      R   N=          10
  1.00000000E+00  0.00000000E+00  1.00000000E+00  1.00000000E+00  1.00000000E+00
  1.00000000E+00  1.00000000E+00  2.00000000E+00  2.00000000E+00  0.00000000E+00
Virial Ratio                               R      2.002417861755239E+00
SCF Energy                                 R     -2.795011209979963E+02
MP2 Energy                                 R     -2.804466456372759E+02
Total Energy                               R     -2.804466456372759E+02
Post-SCF wavefunction norm                 R      1.120396897076650E+00
RMS Density                                R      3.792365112576429E-09
Job Status                                 I                1
Nuclear derivative order                   I                0
External E-field                           R   N=          35
  0.00000000E+00  0.00000000E+00  0.00000000E+00  0.00000000E+00  0.00000000E+00
  0.00000000E+00  0.00000000E+00  0.00000000E+00  0.00000000E+00  0.00000000E+00
  0.00000000E+00  0.00000000E+00  0.00000000E+00  0.00000000E+00  0.00000000E+00
  0.00000000E+00  0.00000000E+00  0.00000000E+00  0.00000000E+00  0.00000000E+00
  0.00000000E+00  0.00000000E+00  0.00000000E+00  0.00000000E+00  0.00000000E+00
  0.00000000E+00  0.00000000E+00  0.00000000E+00  0.00000000E+00  0.00000000E+00
  0.00000000E+00  0.00000000E+00  0.00000000E+00  0.00000000E+00  0.00000000E+00
IOpCl                                      I                0
IROHF                                      I                0
Alpha Orbital Energies                     R   N=         207
 -2.06906173E+01 -2.06841056E+01 -2.06607484E+01 -1.58126289E+01 -1.62380164E+00
 -1.49453750E+00 -1.25248166E+00 -9.47837319E-01 -7.71994102E-01 -7.58365653E-01
 -7.11560090E-01 -6.77826858E-01 -6.20161470E-01 -5.88949699E-01 -4.84884935E-01
 -4.72229261E-01  2.94356129E-02  7.18257969E-02  8.59878643E-02  1.01744438E-01
  1.33959617E-01  1.34030703E-01  1.43643439E-01  1.54166989E-01  1.78396884E-01
  1.94201080E-01  1.99839829E-01  2.06360020E-01  2.20848897E-01  2.35698358E-01
  2.37472734E-01  2.65793497E-01  2.93234852E-01  3.03445132E-01  3.10086468E-01
  3.43519963E-01  3.50277452E-01  3.87058826E-01  4.20639510E-01  4.30477372E-01
  5.27415410E-01  5.29377097E-01  5.58540129E-01  5.81804539E-01  6.26069782E-01
  6.38312973E-01  6.74595328E-01  6.83532481E-01  7.06429747E-01  7.10723139E-01
  7.23320803E-01  7.29405290E-01  7.44480810E-01  7.91821785E-01  7.91929674E-01
  8.10176598E-01  8.12831307E-01  8.30459283E-01  8.68376413E-01  9.08330531E-01
  9.21631992E-01  9.26159592E-01  9.55741969E-01  9.78674934E-01  9.83265025E-01
  1.01464708E+00  1.05244766E+00  1.05482576E+00  1.08146792E+00  1.11616020E+00
  1.14001223E+00  1.18981882E+00  1.22014953E+00  1.23074029E+00  1.33913647E+00
  1.35102769E+00  1.38637872E+00  1.45072995E+00  1.48498873E+00  1.50733248E+00
  1.53832027E+00  1.56689340E+00  1.58035075E+00  1.61217951E+00  1.66493728E+00
  1.67035490E+00  1.70320590E+00  1.79273897E+00  1.83099597E+00  1.83494599E+00
  1.87862735E+00  1.90884038E+00  1.95065087E+00  1.99181418E+00  2.00411287E+00
  2.07761588E+00  2.11973332E+00  2.13214513E+00  2.15019470E+00  2.22390844E+00
  2.26399725E+00  2.26565832E+00  2.28956303E+00  2.31338426E+00  2.34336720E+00
  2.38440725E+00  2.42439888E+00  2.42797935E+00  2.45422491E+00  2.46265463E+00
  2.47620765E+00  2.50063029E+00  2.59287847E+00  2.59620606E+00  2.62136702E+00
  2.62369021E+00  2.63491564E+00  2.66943399E+00  2.75742188E+00  2.82846043E+00
  2.85529191E+00  2.88376461E+00  2.89442250E+00  2.92316049E+00  2.95816883E+00
  3.02336517E+00  3.06751107E+00  3.12323551E+00  3.20490084E+00  3.22589938E+00
  3.31532866E+00  3.34068444E+00  3.51747029E+00  3.63918546E+00  3.83372777E+00
  3.83830379E+00  4.13984447E+00  4.15952895E+00  4.18168823E+00  4.25664922E+00
  4.34308025E+00  4.39099032E+00  4.46027392E+00  4.51537707E+00  4.66084623E+00
  4.70661515E+00  4.80212987E+00  4.81235046E+00  4.82565547E+00  4.89559360E+00
  5.02330366E+00  5.07745960E+00  5.09296480E+00  5.13688437E+00  5.17383036E+00
  5.23064588E+00  5.26541662E+00  5.30664618E+00  5.30902539E+00  5.35307845E+00
  5.60140374E+00  5.67368225E+00  5.76682723E+00  5.82396261E+00  5.95637439E+00
  6.17087830E+00  6.30852776E+00  6.34012639E+00  6.39215376E+00  6.49363585E+00
  6.50540019E+00  6.61221190E+00  6.66896796E+00  6.69934994E+00  6.75824085E+00
  6.76365985E+00  6.83242661E+00  6.89838226E+00  7.00697499E+00  7.05496007E+00
  7.05593703E+00  7.08863312E+00  7.12183028E+00  7.14758089E+00  7.17978259E+00
  7.22256210E+00  7.22747629E+00  7.29746833E+00  7.32513550E+00  7.34521357E+00
  7.39983379E+00  7.42965624E+00  7.48457485E+00  7.60723537E+00  7.61620586E+00
  7.62504802E+00  7.66295450E+00  7.77929582E+00  7.88677832E+00  8.08817327E+00
  8.31103285E+00  8.39690968E+00  8.54109405E+00  1.33882292E+01  1.43798288E+01
  1.50237915E+01  1.61525621E+01
Alpha MO coefficients                      R   N=       42849
  9.08380861E-05 -6.36019888E-04 -7.21006765E-04 -4.32279340E-06 -2.22959390E-05
 -2.77937739E-05  0.00000000E+00 -2.32033546E-05  7.07026576E-05  0.00000000E+00
  1.01356670E-04  4.02002213E-05  0.00000000E+00  3.16141916E-05  0.00000000E+00
  0.00000000E+00 -4.86653228E-05  1.88656872E-05 -3.22380699E-06  0.00000000E+00
  0.00000000E+00 -1.36789355E-04  1.06122911E-04  4.74569731E-03 -2.79712395E-04
  2.18667291E-05  1.55972052E-03  1.81340011E-03  1.06004856E-04  7.60716148E-06
  0.00000000E+00 -6.16834330E-04 -3.12134128E-05  0.00000000E+00 -1.13010297E-03
  7.85011498E-04  0.00000000E+00 -4.07635408E-04  5.45898801E-05  0.00000000E+00
  2.85225259E-05  0.00000000E+00  0.00000000E+00 -5.41392997E-05  6.38829347E-06
 -3.77631312E-04  0.00000000E+00  0.00000000E+00  7.36937728E-04 -3.64186882E-05
 -4.46936011E-04  0.00000000E+00  0.00000000E+00  2.44204763E-04 -2.37300270E-05
  0.00000000E+00  7.97383046E-05  1.25708088E-05  0.00000000E+00  0.00000000E+00
 -1.09807685E-04 -3.59714233E-06  0.00000000E+00  2.56519412E-04 -2.66447485E-05
  0.00000000E+00  0.00000000E+00 -3.48650106E-04  4.78228053E-05  9.76910549E-01
 -9.21508492E-03  4.33179997E-02  2.03313000E-03 -9.16186682E-04  1.49325221E-03
 -1.35542000E-03  0.00000000E+00 -1.43418763E-03  1.38417042E-03  0.00000000E+00
  8.00001025E-05 -1.16047847E-03  0.00000000E+00 -1.26560148E-04 -3.25098292E-06
  0.00000000E+00  4.62092903E-05  0.00000000E+00  0.00000000E+00 -3.52174614E-05
  2.12095621E-05  7.46865699E-04  0.00000000E+00  0.00000000E+00 -2.30992272E-04
 -3.89491926E-04 -3.59909367E-04  0.00000000E+00  0.00000000E+00 -3.12242889E-04
 -3.73964305E-04  0.00000000E+00  4.74322050E-05 -4.88545828E-05  0.00000000E+00
  0.00000000E+00 -3.88733492E-05 -1.58135265E-05  0.00000000E+00  2.29407083E-05
  2.14576805E-05  0.00000000E+00  0.00000000E+00 -3.04640690E-04 -1.39016295E-04
  3.90873804E-05  4.58175095E-05 -2.64621307E-04 -7.05387958E-04 -1.44880972E-04
 -2.72182956E-05 -9.75491200E-05  0.00000000E+00  2.72533474E-04  7.10422242E-04
  0.00000000E+00 -8.39073104E-04 -4.81356427E-04  0.00000000E+00 -1.29634043E-04
 -2.85110485E-05  0.00000000E+00 -1.81105378E-05  0.00000000E+00  0.00000000E+00
 -2.96690552E-05  1.51863395E-05 -3.28667084E-04  0.00000000E+00  0.00000000E+00
 -8.29279836E-04  1.27940752E-04 -3.54143589E-05  0.00000000E+00  0.00000000E+00
  9.60378291E-05 -1.17825247E-04  0.00000000E+00 -2.09421917E-05 -1.20246621E-04
  0.00000000E+00  0.00000000E+00 -6.25787870E-05 -1.37524320E-04  0.00000000E+00
  4.10491382E-06 -1.52009646E-04  0.00000000E+00  0.00000000E+00  4.45728530E-05
 -4.20014843E-04 -2.60498260E-03  1.21653129E-04 -1.24884581E-04 -2.43117643E-04
  1.40468404E-04 -8.12003742E-06 -2.79066468E-05  0.00000000E+00  6.98589827E-05
  1.64562377E-04  0.00000000E+00  2.35410527E-04  2.02097106E-04  0.00000000E+00
  1.28458250E-04  2.62053644E-05  0.00000000E+00 -3.37778717E-06  0.00000000E+00
  0.00000000E+00 -1.79147113E-05  1.16218006E-06  5.43975212E-07  0.00000000E+00
  0.00000000E+00  8.09583483E-05  8.83907400E-05 -1.00608382E-04  0.00000000E+00
  0.00000000E+00  1.67105602E-04  1.62607852E-04  0.00000000E+00  1.57874328E-05
 -3.52679258E-06  0.00000000E+00  0.00000000E+00 -4.25379649E-06 -1.19445189E-05
  0.00000000E+00 -3.35519028E-05  4.53559726E-05  0.00000000E+00  0.00000000E+00
  8.39021047E-05  9.01824579E-05  3.95178784E-05 -9.68638250E-04 -4.71717894E-04
 -1.04733999E-05 -2.18564866E-05  1.49183200E-05  0.00000000E+00  2.52854622E-06
  2.74964992E-04  0.00000000E+00 -4.06935185E-05  1.31877525E-04  0.00000000E+00
  2.57712518E-05  0.00000000E+00  0.00000000E+00  1.29013228E-05  1.10226960E-05
 -2.63980099E-05  0.00000000E+00  0.00000000E+00  1.19735979E-05  3.33178299E-05
  1.16046483E-04  8.25368777E-05 -2.81823216E-05  7.31378054E-04  6.37743136E-04
  1.02514405E-05  2.49203146E-06  0.00000000E+00 -7.34622329E-05  1.39711146E-05
  0.00000000E+00  3.30086270E-04  8.89498053E-04  0.00000000E+00  4.23573514E-06
  7.98740484E-05  0.00000000E+00 -2.23068164E-06  0.00000000E+00  0.00000000E+00
  8.00656889E-08 -6.03877486E-06 -3.55722904E-05  0.00000000E+00  0.00000000E+00
 -2.03801131E-05  8.25655881E-05 -2.26574050E-05  0.00000000E+00  0.00000000E+00
 -2.66127565E-04 -1.62202498E-04  0.00000000E+00  9.20607843E-06  6.04116170E-06
  0.00000000E+00  0.00000000E+00  2.76652817E-06 -1.88077864E-05  0.00000000E+00
 -4.02359265E-05 -3.82913209E-05  0.00000000E+00  0.00000000E+00 -7.61809976E-05
  1.90471925E-05  2.64384654E-03  3.92335291E-05  9.23968784E-05 -6.90768080E-05
 -4.67437055E-04  7.26677545E-06  1.57199267E-05  0.00000000E+00 -6.18329366E-05
 -5.52573090E-05  0.00000000E+00  2.35786941E-04 -1.87056002E-04  0.00000000E+00
 -1.87034964E-04 -6.35814095E-05  0.00000000E+00 -8.71881588E-06  0.00000000E+00
  0.00000000E+00  2.23915313E-05  1.97647666E-05  4.35770767E-06  0.00000000E+00
  0.00000000E+00 -1.17270394E-04 -4.63756514E-05 -4.35124614E-06  0.00000000E+00
  0.00000000E+00 -2.21494634E-04 -2.05947287E-04  0.00000000E+00  3.22871173E-06
 -5.56259214E-07  0.00000000E+00  0.00000000E+00  1.71979811E-06 -1.35469611E-05
  0.00000000E+00 -4.63655845E-05  3.57550541E-06  0.00000000E+00  0.00000000E+00
 -7.61935360E-05  1.87882170E-04  2.58680103E-04  1.46509891E-03 -7.80801552E-05
 -1.53918798E-03  4.00926409E-04 -1.44528726E-04  1.33967370E-07  0.00000000E+00
 -2.08886800E-03 -4.03636978E-04  0.00000000E+00  1.03618565E-03  7.62551023E-04
  0.00000000E+00 -1.70073262E-04  5.72606367E-05  0.00000000E+00 -1.23345924E-04
  0.00000000E+00  0.00000000E+00  2.43086312E-04  9.40542609E-05 -4.42140847E-04
  0.00000000E+00  0.00000000E+00  8.98870834E-04 -6.62670636E-05  1.16812993E-05
  0.00000000E+00  0.00000000E+00 -3.38302738E-04 -1.23742106E-04  0.00000000E+00
 -1.34482924E-06  1.52777551E-05  0.00000000E+00  0.00000000E+00  1.88918047E-05
  1.34338651E-05  0.00000000E+00  1.64791940E-04 -7.16930639E-05  0.00000000E+00
  0.00000000E+00 -2.40791303E-04  4.16143762E-05  9.76649133E-01 -9.84825861E-03
  4.35680894E-02  4.50032825E-03 -4.46787106E-04  2.14805139E-03  4.80658451E-04
  0.00000000E+00 -2.38388446E-03 -6.03303274E-04  0.00000000E+00  1.13946827E-03
 -4.14057525E-06  0.00000000E+00  4.27995648E-06 -4.30816786E-05  0.00000000E+00
 -2.32325145E-04  0.00000000E+00  0.00000000E+00  1.02718094E-04  3.18339897E-05
  3.90505611E-04  0.00000000E+00  0.00000000E+00 -8.33991589E-04 -4.18984376E-04
 -1.53823121E-04  0.00000000E+00  0.00000000E+00  2.56366781E-04  1.66931272E-05
  0.00000000E+00  5.22717905E-05  1.76784810E-05  0.00000000E+00  0.00000000E+00
 -2.21067542E-05 -1.32749972E-05  0.00000000E+00  1.38219889E-04  9.30965730E-06
  0.00000000E+00  0.00000000E+00 -1.89686955E-04 -1.40640648E-04  4.51900968E-04
  2.27634703E-03  2.52100075E-04  2.09913592E-05 -4.16548397E-05 -2.74719827E-04
  0.00000000E+00  1.01094890E-04 -1.38234933E-03  0.00000000E+00  3.05041830E-04
 -3.76767472E-04  0.00000000E+00 -2.33934468E-05  0.00000000E+00  0.00000000E+00
  3.90803589E-05  1.96823916E-05 -1.65666816E-04  0.00000000E+00  0.00000000E+00
 -5.44936255E-04 -2.38618273E-05  9.76834299E-01 -9.18853988E-03  4.34402843E-02
 -6.33905368E-06 -1.25465980E-03 -1.56276118E-03  1.44192599E-03  0.00000000E+00
  1.56756159E-03 -1.35162299E-03  0.00000000E+00 -6.08323472E-04 -9.96461803E-04
  0.00000000E+00  6.18786031E-05 -4.73514389E-05  0.00000000E+00  3.46537320E-05
  0.00000000E+00  0.00000000E+00 -1.10399890E-04 -3.65289160E-06  7.73493124E-04
  0.00000000E+00  0.00000000E+00 -1.71563625E-04 -2.44935160E-04 -2.54704736E-04
  0.00000000E+00  0.00000000E+00  1.99442957E-04  1.23401610E-04  0.00000000E+00
 -6.34797314E-05  7.37901909E-06  0.00000000E+00  0.00000000E+00  2.18260091E-05
  1.82266754E-05  0.00000000E+00  8.17034787E-07  1.22832872E-04  0.00000000E+00
  0.00000000E+00  2.58651704E-04  9.17934412E-05 -4.83689686E-03 -2.06652685E-04