title                                                                   
SP        RMP2-FC                                                     Aug-CC-pVTZ         
Number of atoms                            I                5
Info1-9                                    I   N=           9
          33          24           0           0           0         110
           1           2           1
Full Title                                 C   N=           1
title       
Route                                      C   N=           4
#p SP mp2/aug-cc-pvtz density=current           
Charge                                     I                0
Multiplicity                               I                1
Number of electrons                        I               32
Number of alpha electrons                  I               16
Number of beta electrons                   I               16
Number of basis functions                  I              207
Number of independent functions            I              207
Number of point charges in /Mol/           I                0
Number of translation vectors              I                0
Atomic numbers                             I   N=           5
           1           8           8           7           8
Nuclear charges                            R   N=           5
  1.00000000E+00  8.00000000E+00  8.00000000E+00  7.00000000E+00  8.00000000E+00
Current cartesian coordinates              R   N=          15
  2.96357599E+00  3.17237926E+00  2.06236028E-31  2.77371034E+00  1.35115096E+00
  1.97853397E-32 -2.05442526E-16  1.27157725E+00 -4.20596669E-31 -5.09664164E-01
 -1.43760164E+00  2.84942245E-31 -2.69820120E+00 -1.76137419E+00 -4.85210184E-31
Number of symbols in /Mol/                 I                0
Force Field                                I                0
Atom Types                                 C   N=           5
                                                            
Int Atom Types                             I   N=           5
           0           0           0           0           0
MM charges                                 R   N=           5
  0.00000000E+00  0.00000000E+00  0.00000000E+00  0.00000000E+00  0.00000000E+00
Integer atomic weights                     I   N=           5
           1          16          16          14          16
Real atomic weights                        R   N=           5
  1.00782504E+00  1.59949146E+01  1.59949146E+01  1.40030740E+01  1.59949146E+01
Atom fragment info                         I   N=           5
           0           0           0           0           0
Atom residue num                           I   N=           5
           0           0           0           0           0
Nuclear spins                              I   N=           5
           1           0           0           2           0
Nuclear ZEff                               R   N=           5
 -1.00000000E+00 -5.60000000E+00 -5.60000000E+00 -4.55000000E+00 -5.60000000E+00
Nuclear ZNuc                               R   N=           5
  1.00000000E+00  8.00000000E+00  8.00000000E+00  7.00000000E+00  8.00000000E+00
Nuclear QMom                               R   N=           5
  0.00000000E+00  0.00000000E+00  0.00000000E+00  2.04400000E+00  0.00000000E+00
Nuclear GFac                               R   N=           5
  2.79284600E+00  0.00000000E+00  0.00000000E+00  4.03761000E-01  0.00000000E+00
MicOpt                                     I   N=           5
          -1          -1          -1          -1          -1
Number of residues                         I                0
Number of secondary structures             I                0
SymInf integers                            I   N=          26
           1           2           1           1           1           1
           1          -1           0           0           0           0
           0           0           0           0           0           0
           0           0           0           0           0           0
           0           0
RotTr to input orientation                 R   N=          12
 -9.94609718E-01  6.52853790E-16 -1.03689482E-01  1.03689482E-01 -9.17421265E-16
 -9.94609718E-01 -7.44461660E-16 -1.00000000E+00  8.44782034E-16  2.61865912E+00
  0.00000000E+00  3.46257090E+00
Number of contracted shells                I               65
Number of primitive shells                 I              119
Pure/Cartesian d shells                    I                0
Pure/Cartesian f shells                    I                0
Highest angular momentum                   I                3
Largest degree of contraction              I                7
Shell types                                I   N=          65
           0           0           0           0           1           1
           1          -2          -2           0           0           0
           0           0           1           1           1           1
          -2          -2          -2          -3          -3           0
           0           0           0           0           1           1
           1           1          -2          -2          -2          -3
          -3           0           0           0           0           0
           1           1           1           1          -2          -2
          -2          -3          -3           0           0           0
           0           0           1           1           1           1
          -2          -2          -2          -3          -3
Number of primitives per shell             I   N=          65
           3           1           1           1           1           1
           1           1           1           7           6           1
           1           1           3           1           1           1
           1           1           1           1           1           7
           6           1           1           1           3           1
           1           1           1           1           1           1
           1           7           6           1           1           1
           3           1           1           1           1           1
           1           1           1           7           6           1
           1           1           3           1           1           1
           1           1           1           1           1
Shell to atom map                          I   N=          65
           1           1           1           1           1           1
           1           1           1           2           2           2
           2           2           2           2           2           2
           2           2           2           2           2           3
           3           3           3           3           3           3
           3           3           3           3           3           3
           3           4           4           4           4           4
           4           4           4           4           4           4
           4           4           4           5           5           5
           5           5           5           5           5           5
           5           5           5           5           5
Primitive exponents                        R   N=         119
  3.38700000E+01  5.09500000E+00  1.15900000E+00  3.25800000E-01  1.02700000E-01
  2.52600000E-02  1.40700000E+00  3.88000000E-01  1.02000000E-01  1.05700000E+00
  2.47000000E-01  1.53300000E+04  2.29900000E+03  5.22400000E+02  1.47300000E+02
  4.75500000E+01  1.67600000E+01  6.20700000E+00  5.22400000E+02  1.47300000E+02
  4.75500000E+01  1.67600000E+01  6.20700000E+00  6.88200000E-01  1.75200000E+00
  2.38400000E-01  7.37600000E-02  3.44600000E+01  7.74900000E+00  2.28000000E+00
  7.15600000E-01  2.14000000E-01  5.97400000E-02  2.31400000E+00  6.45000000E-01
  2.14000000E-01  1.42800000E+00  5.00000000E-01  1.53300000E+04  2.29900000E+03
  5.22400000E+02  1.47300000E+02  4.75500000E+01  1.67600000E+01  6.20700000E+00
  5.22400000E+02  1.47300000E+02  4.75500000E+01  1.67600000E+01  6.20700000E+00
  6.88200000E-01  1.75200000E+00  2.38400000E-01  7.37600000E-02  3.44600000E+01
  7.74900000E+00  2.28000000E+00  7.15600000E-01  2.14000000E-01  5.97400000E-02
  2.31400000E+00  6.45000000E-01  2.14000000E-01  1.42800000E+00  5.00000000E-01
  1.14200000E+04  1.71200000E+03  3.89300000E+02  1.10000000E+02  3.55700000E+01
  1.25400000E+01  4.64400000E+00  3.89300000E+02  1.10000000E+02  3.55700000E+01
  1.25400000E+01  4.64400000E+00  5.11800000E-01  1.29300000E+00  1.78700000E-01
  5.76000000E-02  2.66300000E+01  5.94800000E+00  1.74200000E+00  5.55000000E-01
  1.72500000E-01  4.91000000E-02  1.65400000E+00  4.69000000E-01  1.51000000E-01
  1.09300000E+00  3.64000000E-01  1.53300000E+04  2.29900000E+03  5.22400000E+02
  1.47300000E+02  4.75500000E+01  1.67600000E+01  6.20700000E+00  5.22400000E+02
  1.47300000E+02  4.75500000E+01  1.67600000E+01  6.20700000E+00  6.88200000E-01
  1.75200000E+00  2.38400000E-01  7.37600000E-02  3.44600000E+01  7.74900000E+00
  2.28000000E+00  7.15600000E-01  2.14000000E-01  5.97400000E-02  2.31400000E+00
  6.45000000E-01  2.14000000E-01  1.42800000E+00  5.00000000E-01
Contraction coefficients                   R   N=         119
  2.54948632E-02  1.90362766E-01  8.52162022E-01  1.00000000E+00  1.00000000E+00
  1.00000000E+00  1.00000000E+00  1.00000000E+00  1.00000000E+00  1.00000000E+00
  1.00000000E+00  5.19808943E-04  4.02025621E-03  2.07128267E-02  8.10105536E-02
  2.35962985E-01  4.42653446E-01  3.57064423E-01 -4.42115008E-05 -1.22591041E-03
 -1.05517725E-02 -6.74452633E-02 -1.71198607E-01  1.07329856E+00  1.00000000E+00
  1.00000000E+00  1.00000000E+00  4.11634896E-02  2.57762836E-01  8.02419274E-01
  1.00000000E+00  1.00000000E+00  1.00000000E+00  1.00000000E+00  1.00000000E+00
  1.00000000E+00  1.00000000E+00  1.00000000E+00  5.19808943E-04  4.02025621E-03
  2.07128267E-02  8.10105536E-02  2.35962985E-01  4.42653446E-01  3.57064423E-01
 -4.42115008E-05 -1.22591041E-03 -1.05517725E-02 -6.74452633E-02 -1.71198607E-01
  1.07329856E+00  1.00000000E+00  1.00000000E+00  1.00000000E+00  4.11634896E-02
  2.57762836E-01  8.02419274E-01  1.00000000E+00  1.00000000E+00  1.00000000E+00
  1.00000000E+00  1.00000000E+00  1.00000000E+00  1.00000000E+00  1.00000000E+00
  5.34563860E-04  4.13435660E-03  2.12335358E-02  8.25006224E-02  2.38138871E-01
  4.42551547E-01  3.53757422E-01 -4.89867350E-05 -1.19527323E-03 -1.03490714E-02
 -6.48680190E-02 -1.71552477E-01  1.07289568E+00  1.00000000E+00  1.00000000E+00
  1.00000000E+00  3.98072123E-02  2.49002660E-01  8.10479727E-01  1.00000000E+00
  1.00000000E+00  1.00000000E+00  1.00000000E+00  1.00000000E+00  1.00000000E+00
  1.00000000E+00  1.00000000E+00  5.19808943E-04  4.02025621E-03  2.07128267E-02
  8.10105536E-02  2.35962985E-01  4.42653446E-01  3.57064423E-01 -4.42115008E-05
 -1.22591041E-03 -1.05517725E-02 -6.74452633E-02 -1.71198607E-01  1.07329856E+00
  1.00000000E+00  1.00000000E+00  1.00000000E+00  4.11634896E-02  2.57762836E-01
  8.02419274E-01  1.00000000E+00  1.00000000E+00  1.00000000E+00  1.00000000E+00
  1.00000000E+00  1.00000000E+00  1.00000000E+00  1.00000000E+00
Coordinates of each shell                  R   N=         195
  2.96357599E+00  3.17237926E+00 -4.92046966E-32  2.96357599E+00  3.17237926E+00
 -4.92046966E-32  2.96357599E+00  3.17237926E+00 -4.92046966E-32  2.96357599E+00
  3.17237926E+00 -4.92046966E-32  2.96357599E+00  3.17237926E+00 -4.92046966E-32
  2.96357599E+00  3.17237926E+00 -4.92046966E-32  2.96357599E+00  3.17237926E+00
 -4.92046966E-32  2.96357599E+00  3.17237926E+00 -4.92046966E-32  2.96357599E+00
  3.17237926E+00 -4.92046966E-32  2.77371034E+00  1.35115096E+00  1.12633351E-31
  2.77371034E+00  1.35115096E+00  1.12633351E-31  2.77371034E+00  1.35115096E+00
  1.12633351E-31  2.77371034E+00  1.35115096E+00  1.12633351E-31  2.77371034E+00
  1.35115096E+00  1.12633351E-31  2.77371034E+00  1.35115096E+00  1.12633351E-31
  2.77371034E+00  1.35115096E+00  1.12633351E-31  2.77371034E+00  1.35115096E+00
  1.12633351E-31  2.77371034E+00  1.35115096E+00  1.12633351E-31  2.77371034E+00
  1.35115096E+00  1.12633351E-31  2.77371034E+00  1.35115096E+00  1.12633351E-31
  2.77371034E+00  1.35115096E+00  1.12633351E-31  2.77371034E+00  1.35115096E+00
  1.12633351E-31  2.77371034E+00  1.35115096E+00  1.12633351E-31 -7.20710591E-19
  1.27157725E+00 -1.24711326E-31 -7.20710591E-19  1.27157725E+00 -1.24711326E-31
 -7.20710591E-19  1.27157725E+00 -1.24711326E-31 -7.20710591E-19  1.27157725E+00
 -1.24711326E-31 -7.20710591E-19  1.27157725E+00 -1.24711326E-31 -7.20710591E-19
  1.27157725E+00 -1.24711326E-31 -7.20710591E-19  1.27157725E+00 -1.24711326E-31
 -7.20710591E-19  1.27157725E+00 -1.24711326E-31 -7.20710591E-19  1.27157725E+00
 -1.24711326E-31 -7.20710591E-19  1.27157725E+00 -1.24711326E-31 -7.20710591E-19
  1.27157725E+00 -1.24711326E-31 -7.20710591E-19  1.27157725E+00 -1.24711326E-31
 -7.20710591E-19  1.27157725E+00 -1.24711326E-31 -7.20710591E-19  1.27157725E+00
 -1.24711326E-31 -5.09664164E-01 -1.43760164E+00  9.59486796E-32 -5.09664164E-01
 -1.43760164E+00  9.59486796E-32 -5.09664164E-01 -1.43760164E+00  9.59486796E-32
 -5.09664164E-01 -1.43760164E+00  9.59486796E-32 -5.09664164E-01 -1.43760164E+00
  9.59486796E-32 -5.09664164E-01 -1.43760164E+00  9.59486796E-32 -5.09664164E-01
 -1.43760164E+00  9.59486796E-32 -5.09664164E-01 -1.43760164E+00  9.59486796E-32
 -5.09664164E-01 -1.43760164E+00  9.59486796E-32 -5.09664164E-01 -1.43760164E+00
  9.59486796E-32 -5.09664164E-01 -1.43760164E+00  9.59486796E-32 -5.09664164E-01
 -1.43760164E+00  9.59486796E-32 -5.09664164E-01 -1.43760164E+00  9.59486796E-32
 -5.09664164E-01 -1.43760164E+00  9.59486796E-32 -2.69820120E+00 -1.76137419E+00
 -6.57265327E-32 -2.69820120E+00 -1.76137419E+00 -6.57265327E-32 -2.69820120E+00
 -1.76137419E+00 -6.57265327E-32 -2.69820120E+00 -1.76137419E+00 -6.57265327E-32
 -2.69820120E+00 -1.76137419E+00 -6.57265327E-32 -2.69820120E+00 -1.76137419E+00
 -6.57265327E-32 -2.69820120E+00 -1.76137419E+00 -6.57265327E-32 -2.69820120E+00
 -1.76137419E+00 -6.57265327E-32 -2.69820120E+00 -1.76137419E+00 -6.57265327E-32
 -2.69820120E+00 -1.76137419E+00 -6.57265327E-32 -2.69820120E+00 -1.76137419E+00
 -6.57265327E-32 -2.69820120E+00 -1.76137419E+00 -6.57265327E-32 -2.69820120E+00
 -1.76137419E+00 -6.57265327E-32 -2.69820120E+00 -1.76137419E+00 -6.57265327E-32
Num ILSW                                   I              100
ILSW                                       I   N=         100
           0           0           0           0           2           0
           0           0           0           0           0          -1
           5           0           0           0           0           0
           0           0           0           0           0           0
           1           0           0           0           0           0
           0           0      100000           0          -1           0
           0           0           0           0           0           0
           0           0           0           1           0           0
           0 -2000000000           1           0           0           0
           0           0           4          52           0           0
           0           0           0           0           0           0
           0           0           0           5           0           1
           0           0           0           0           0           0
           0           0           0           0           0           0
           0           0           0           0           0           0
           0           0           0           0           0           0
           0           0           0           0
Num RLSW                                   I               52
RLSW                                       R   N=          52
  1.00000000E+00  1.00000000E+00  1.00000000E+00  1.00000000E+00  1.00000000E+00
  0.00000000E+00  0.00000000E+00  1.00000000E+00  0.00000000E+00  0.00000000E+00
  0.00000000E+00  0.00000000E+00  1.00000000E+00  0.00000000E+00  0.00000000E+00
  0.00000000E+00  0.00000000E+00  1.00000000E+00  0.00000000E+00  0.00000000E+00
  0.00000000E+00  0.00000000E+00  1.00000000E+00  0.00000000E+00  0.00000000E+00
  0.00000000E+00  0.00000000E+00  1.00000000E+00  0.00000000E+00  0.00000000E+00
  0.00000000E+00  0.00000000E+00  1.00000000E+00  0.00000000E+00  0.00000000E+00
  0.00000000E+00  0.00000000E+00  0.00000000E+00  1.00000000E+00  1.00000000E+00
  0.00000000E+00  1.00000000E+00  0.00000000E+00  0.00000000E+00  0.00000000E+00
  0.00000000E+00  0.00000000E+00  0.00000000E+00  0.00000000E+00  0.00000000E+00
  0.00000000E+00  0.00000000E+00
MxBond                                     I                2
NBond                                      I   N=           5
           1           2           2           2           1
IBond                                      I   N=          10
           2           0           1           3           2           4
           3           5           4           0
RBond                                      R   N=          10
  1.00000000E+00  0.00000000E+00  1.00000000E+00  1.00000000E+00  1.00000000E+00
  1.00000000E+00  1.00000000E+00  2.00000000E+00  2.00000000E+00  0.00000000E+00
Virial Ratio                               R      2.002430748374922E+00
SCF Energy                                 R     -2.795004842679190E+02
MP2 Energy                                 R     -2.804466397032907E+02
Total Energy                               R     -2.804466397032907E+02
Post-SCF wavefunction norm                 R      1.120775005118134E+00
RMS Density                                R      3.925139360849874E-09
Job Status                                 I                1
Nuclear derivative order                   I                0
External E-field                           R   N=          35
  0.00000000E+00  0.00000000E+00  0.00000000E+00  0.00000000E+00  0.00000000E+00
  0.00000000E+00  0.00000000E+00  0.00000000E+00  0.00000000E+00  0.00000000E+00
  0.00000000E+00  0.00000000E+00  0.00000000E+00  0.00000000E+00  0.00000000E+00
  0.00000000E+00  0.00000000E+00  0.00000000E+00  0.00000000E+00  0.00000000E+00
  0.00000000E+00  0.00000000E+00  0.00000000E+00  0.00000000E+00  0.00000000E+00
  0.00000000E+00  0.00000000E+00  0.00000000E+00  0.00000000E+00  0.00000000E+00
  0.00000000E+00  0.00000000E+00  0.00000000E+00  0.00000000E+00  0.00000000E+00
IOpCl                                      I                0
IROHF                                      I                0
Alpha Orbital Energies                     R   N=         207
 -2.06916381E+01 -2.06845280E+01 -2.06611373E+01 -1.58130974E+01 -1.62365866E+00
 -1.49046649E+00 -1.25679546E+00 -9.47883464E-01 -7.71395474E-01 -7.58116651E-01
 -7.10617631E-01 -6.79370714E-01 -6.19174665E-01 -5.87539471E-01 -4.87608685E-01
 -4.72798493E-01  2.96010047E-02  7.16565315E-02  8.55948723E-02  1.01654694E-01
  1.33253698E-01  1.33969348E-01  1.44008607E-01  1.54472589E-01  1.78286295E-01
  1.94298527E-01  1.99862179E-01  2.06208342E-01  2.18322400E-01  2.30618440E-01
  2.37269920E-01  2.65955407E-01  2.93326172E-01  3.03770189E-01  3.10148756E-01
  3.42661112E-01  3.49220660E-01  3.87029565E-01  4.21353175E-01  4.31422656E-01
  5.27118263E-01  5.28977745E-01  5.58278139E-01  5.81269638E-01  6.25696568E-01
  6.38386666E-01  6.74538639E-01  6.84612234E-01  7.05292599E-01  7.11530467E-01
  7.23388414E-01  7.29731319E-01  7.44787515E-01  7.90607917E-01  7.91899979E-01
  8.10322690E-01  8.12476742E-01  8.29664629E-01  8.68093108E-01  9.06936637E-01
  9.21716058E-01  9.25181544E-01  9.57134940E-01  9.76826683E-01  9.83752857E-01
  1.01641462E+00  1.05104248E+00  1.05512064E+00  1.08110640E+00  1.11620464E+00
  1.13919763E+00  1.18856489E+00  1.22076585E+00  1.23168591E+00  1.33847119E+00
  1.34962640E+00  1.38608526E+00  1.45304965E+00  1.48801768E+00  1.50989112E+00
  1.53723648E+00  1.56586313E+00  1.57888318E+00  1.61242962E+00  1.66179483E+00
  1.66894004E+00  1.70307001E+00  1.79145777E+00  1.83034695E+00  1.83442486E+00
  1.87695755E+00  1.90897531E+00  1.95599509E+00  1.99051914E+00  2.00711352E+00
  2.07694141E+00  2.11794572E+00  2.13180760E+00  2.14723918E+00  2.22380339E+00
  2.26168403E+00  2.26375427E+00  2.28876038E+00  2.31287059E+00  2.34022856E+00
  2.38766525E+00  2.42223606E+00  2.42669221E+00  2.45317494E+00  2.46302781E+00
  2.47511009E+00  2.49991467E+00  2.58775109E+00  2.59476839E+00  2.61663527E+00
  2.62261721E+00  2.63081603E+00  2.66342441E+00  2.75665760E+00  2.82391736E+00
  2.85191498E+00  2.87760762E+00  2.88727377E+00  2.91974815E+00  2.95477132E+00
  3.01595383E+00  3.06830255E+00  3.12443807E+00  3.18814537E+00  3.22258541E+00
  3.31177467E+00  3.34645727E+00  3.51231598E+00  3.64122614E+00  3.83827284E+00
  3.84124734E+00  4.14630416E+00  4.15864183E+00  4.18168124E+00  4.25596484E+00
  4.34845200E+00  4.39018699E+00  4.45072495E+00  4.52124873E+00  4.65982668E+00
  4.70351503E+00  4.80373992E+00  4.82398980E+00  4.83025552E+00  4.89460989E+00
  5.02220079E+00  5.07699605E+00  5.10061009E+00  5.14467651E+00  5.17854569E+00
  5.24068860E+00  5.27204573E+00  5.30783640E+00  5.32775085E+00  5.35192384E+00
  5.59862408E+00  5.67341839E+00  5.76566265E+00  5.80523794E+00  5.95268043E+00
  6.16575994E+00  6.32986933E+00  6.33621858E+00  6.39752861E+00  6.49469943E+00
  6.50557682E+00  6.61678044E+00  6.67673642E+00  6.70114188E+00  6.75755107E+00
  6.75865624E+00  6.83218814E+00  6.89708423E+00  7.00268259E+00  7.03774821E+00
  7.04628404E+00  7.08054604E+00  7.12275434E+00  7.14093643E+00  7.17732463E+00
  7.22155223E+00  7.23827678E+00  7.30484355E+00  7.32468336E+00  7.34744009E+00
  7.39612882E+00  7.41502742E+00  7.48318064E+00  7.59801397E+00  7.61313563E+00
  7.62034056E+00  7.66084944E+00  7.77584935E+00  7.88359349E+00  8.07067948E+00
  8.29690858E+00  8.39449338E+00  8.54465537E+00  1.33517485E+01  1.43770639E+01
  1.51472616E+01  1.61507228E+01
Alpha MO coefficients                      R   N=       42849
  9.56563480E-05 -6.52165862E-04 -7.53587987E-04 -7.61068935E-06 -2.50493353E-05
 -2.77899764E-05  0.00000000E+00 -4.75877309E-05  7.84117397E-05  0.00000000E+00
  9.01274135E-05  4.76594746E-05  0.00000000E+00  3.45915241E-05  0.00000000E+00
  0.00000000E+00 -4.75576890E-05  2.26907306E-05 -1.24192829E-06  0.00000000E+00
  0.00000000E+00 -1.33798755E-04  1.18069062E-04  4.47351866E-03 -2.97071858E-04
  2.43311860E-05  1.45268359E-03  1.75567499E-03  9.99665552E-05  6.63289132E-06
  0.00000000E+00 -5.54763193E-04 -2.71867165E-05  0.00000000E+00 -1.00502650E-03
  8.06249121E-04  0.00000000E+00 -3.85674291E-04  6.99347560E-05  0.00000000E+00
  3.20562136E-05  0.00000000E+00  0.00000000E+00 -6.02578175E-05  6.22004340E-06
 -3.62617756E-04  0.00000000E+00  0.00000000E+00  7.09823547E-04 -3.93648309E-05
 -4.35373283E-04  0.00000000E+00  0.00000000E+00  2.30981070E-04 -1.86781303E-05
  0.00000000E+00  7.61275995E-05  1.22946784E-05  0.00000000E+00  0.00000000E+00
 -1.04214646E-04 -1.53915957E-06  0.00000000E+00  2.54243091E-04 -2.97849799E-05
  0.00000000E+00  0.00000000E+00 -3.56536318E-04  6.24336751E-05  9.76921827E-01
 -9.21324389E-03  4.32955594E-02  2.17791438E-03 -8.43493270E-04  1.45560744E-03
 -1.36682352E-03  0.00000000E+00 -1.38005196E-03  1.39852144E-03  0.00000000E+00
  1.51531205E-04 -1.15769090E-03  0.00000000E+00 -1.18011548E-04 -1.05495662E-05
  0.00000000E+00  4.94646929E-05  0.00000000E+00  0.00000000E+00 -4.08057455E-05
  2.12958693E-05  7.31288405E-04  0.00000000E+00  0.00000000E+00 -2.07638611E-04
 -3.82777331E-04 -3.70897542E-04  0.00000000E+00  0.00000000E+00 -2.96095480E-04
 -3.64911234E-04  0.00000000E+00  4.49117945E-05 -4.99372609E-05  0.00000000E+00
  0.00000000E+00 -3.67536359E-05 -1.45099037E-05  0.00000000E+00  1.58424626E-05
  2.29617717E-05  0.00000000E+00  0.00000000E+00 -2.94480342E-04 -1.36956560E-04
  3.91010625E-05  4.54308718E-05 -2.65834131E-04 -6.88175025E-04 -1.23039608E-04
 -2.81141848E-05 -9.74649247E-05  0.00000000E+00  2.75514458E-04  7.06506531E-04
  0.00000000E+00 -8.41720892E-04 -4.85511780E-04  0.00000000E+00 -1.26058815E-04
 -2.53796606E-05  0.00000000E+00 -1.83196658E-05  0.00000000E+00  0.00000000E+00
 -2.94231938E-05  1.46585300E-05 -3.29926528E-04  0.00000000E+00  0.00000000E+00
 -8.26715183E-04  1.48322980E-04 -3.95032534E-05  0.00000000E+00  0.00000000E+00
  1.00807763E-04 -1.07526009E-04  0.00000000E+00 -2.15514410E-05 -1.20304724E-04
  0.00000000E+00  0.00000000E+00 -6.60771520E-05 -1.37537966E-04  0.00000000E+00
  1.87871685E-06 -1.51997929E-04  0.00000000E+00  0.00000000E+00  3.31592275E-05
 -4.22495544E-04 -2.37379138E-03  1.18354088E-04 -1.14828711E-04 -2.59653395E-04
  1.21945159E-04 -7.61220320E-06 -2.81592674E-05  0.00000000E+00  6.76461852E-05
  1.66216375E-04  0.00000000E+00  2.29844414E-04  2.09188742E-04  0.00000000E+00
  1.23124979E-04  2.40517162E-05  0.00000000E+00 -3.28269335E-06  0.00000000E+00
  0.00000000E+00 -1.78178583E-05  1.15275004E-06  2.95477349E-07  0.00000000E+00
  0.00000000E+00  7.93188711E-05  9.00378436E-05 -1.00630467E-04  0.00000000E+00
  0.00000000E+00  1.67402605E-04  1.63549855E-04  0.00000000E+00  1.58233997E-05
 -3.84041697E-06  0.00000000E+00  0.00000000E+00 -4.91857799E-06 -1.15581995E-05
  0.00000000E+00 -3.35291469E-05  4.57595307E-05  0.00000000E+00  0.00000000E+00
  8.43856754E-05  8.93447340E-05  3.80960114E-05 -9.78365013E-04 -4.84463511E-04
 -1.01758777E-05 -2.19321556E-05  1.66638220E-05  0.00000000E+00  2.20051904E-06
  2.73703382E-04  0.00000000E+00 -4.05961520E-05  1.33493534E-04  0.00000000E+00
  2.56749353E-05  0.00000000E+00  0.00000000E+00  1.34981559E-05  1.07366298E-05
 -2.62642146E-05  0.00000000E+00  0.00000000E+00  1.14052100E-05  3.34257027E-05
  1.12683548E-04  8.07746758E-05 -2.77193787E-05  7.53217897E-04  6.55809598E-04
  1.02587133E-05  2.12760311E-06  0.00000000E+00 -7.07107165E-05  2.04574118E-05
  0.00000000E+00  3.27679776E-04  8.73568378E-04  0.00000000E+00  1.41637515E-06
  7.86404257E-05  0.00000000E+00 -2.00669031E-06  0.00000000E+00  0.00000000E+00
 -3.44227289E-07 -6.59765908E-06 -3.65997420E-05  0.00000000E+00  0.00000000E+00
 -2.04597359E-05  8.42892529E-05 -2.39138815E-05  0.00000000E+00  0.00000000E+00
 -2.67135591E-04 -1.48881387E-04  0.00000000E+00  9.32404990E-06  5.64407737E-06
  0.00000000E+00  0.00000000E+00  2.13160279E-06 -1.87277581E-05  0.00000000E+00
 -4.02792703E-05 -3.64897983E-05  0.00000000E+00  0.00000000E+00 -7.32481018E-05
  1.91344596E-05  2.41279616E-03  4.26914003E-05  8.16563292E-05 -7.41191576E-05
 -4.66471741E-04  6.44112724E-06  1.60266286E-05  0.00000000E+00 -5.93073930E-05
 -5.50729869E-05  0.00000000E+00  2.30002616E-04 -1.75735112E-04  0.00000000E+00
 -1.89394538E-04 -6.24913349E-05  0.00000000E+00 -8.77651018E-06  0.00000000E+00
  0.00000000E+00  2.23702457E-05  1.95274311E-05  3.95537516E-06  0.00000000E+00
  0.00000000E+00 -1.15871039E-04 -4.47095060E-05 -3.82716341E-06  0.00000000E+00
  0.00000000E+00 -2.22531566E-04 -1.94898517E-04  0.00000000E+00  2.81188151E-06
 -6.09063649E-07  0.00000000E+00  0.00000000E+00  1.42195501E-06 -1.35656310E-05
  0.00000000E+00 -4.53466365E-05  3.97843906E-06  0.00000000E+00  0.00000000E+00
 -7.09983442E-05  1.88633499E-04  2.58797196E-04  1.46552938E-03 -7.84142046E-05
 -1.54072467E-03  3.92096358E-04 -1.44788314E-04  8.90845289E-07  0.00000000E+00
 -2.08753877E-03 -3.90643320E-04  0.00000000E+00  1.03287051E-03  7.47667956E-04
  0.00000000E+00 -1.72130185E-04  5.47776024E-05  0.00000000E+00 -1.23407858E-04
  0.00000000E+00  0.00000000E+00  2.44043260E-04  9.12736792E-05 -4.41760659E-04
  0.00000000E+00  0.00000000E+00  8.97964532E-04 -7.47526380E-05  1.26136982E-05
  0.00000000E+00  0.00000000E+00 -3.37926878E-04 -1.19851794E-04  0.00000000E+00
 -1.56049748E-06  1.51504039E-05  0.00000000E+00  0.00000000E+00  1.90714065E-05
  1.34948124E-05  0.00000000E+00  1.65837702E-04 -7.13779098E-05  0.00000000E+00
  0.00000000E+00 -2.40556728E-04  4.32631921E-05  9.76649984E-01 -9.84876009E-03
  4.35671984E-02  4.49559763E-03 -4.46570146E-04  2.15057124E-03  4.69627806E-04
  0.00000000E+00 -2.38698853E-03 -5.89451950E-04  0.00000000E+00  1.14018293E-03
 -8.07852363E-06  0.00000000E+00  5.00589376E-06 -4.22980873E-05  0.00000000E+00
 -2.32251306E-04  0.00000000E+00  0.00000000E+00  1.03168747E-04  3.04884824E-05
  3.90372466E-04  0.00000000E+00  0.00000000E+00 -8.37921388E-04 -4.09009344E-04
 -1.54545579E-04  0.00000000E+00  0.00000000E+00  2.57785942E-04  1.53571596E-05
  0.00000000E+00  5.23181048E-05  1.73657655E-05  0.00000000E+00  0.00000000E+00
 -2.23521460E-05 -1.29652682E-05  0.00000000E+00  1.38099767E-04  8.53318049E-06
  0.00000000E+00  0.00000000E+00 -1.91516163E-04 -1.37024926E-04  4.77425154E-04
  2.09243242E-03  1.39700208E-04  1.61874919E-05 -4.35946714E-05 -2.51132847E-04
  0.00000000E+00  9.92889131E-05 -1.28918343E-03  0.00000000E+00  2.97966707E-04
 -3.46815253E-04  0.00000000E+00 -3.13025406E-06  0.00000000E+00  0.00000000E+00
  7.23350211E-05  1.55618338E-05 -1.61381855E-04  0.00000000E+00  0.00000000E+00
 -5.38296812E-04 -1.29114451E-05  9.76839975E-01 -9.16475103E-03  4.34269070E-02
  2.74101397E-04 -1.07217487E-03 -1.52365771E-03  1.45781656E-03  0.00000000E+00
  1.51988173E-03 -1.30945186E-03  0.00000000E+00 -6.68242291E-04 -8.74744509E-04
  0.00000000E+00  4.42522475E-05 -2.57302127E-05  0.00000000E+00  3.30752681E-05
  0.00000000E+00  0.00000000E+00 -1.24028860E-04 -1.04077845E-06  7.43760435E-04
  0.00000000E+00  0.00000000E+00 -1.71932721E-04 -2.33195542E-04 -2.78029356E-04
  0.00000000E+00  0.00000000E+00  2.02460017E-04  1.25611504E-04  0.00000000E+00
 -6.19624863E-05  2.90582036E-06  0.00000000E+00  0.00000000E+00  1.66396789E-05
  1.08441188E-05  0.00000000E+00  8.86902167E-06  1.21997279E-04  0.00000000E+00
  0.00000000E+00  2.46665474E-04  8.95638976E-05 -4.57052197E-03 -2.28727242E-04