title                                                                   
SP        RMP2-FC                                                     Aug-CC-pVTZ         
Number of atoms                            I                5
Info1-9                                    I   N=           9
          33          24           0           0           0         110
           1           2           1
Full Title                                 C   N=           1
title       
Route                                      C   N=           4
#p SP mp2/aug-cc-pvtz density=current           
Charge                                     I                0
Multiplicity                               I                1
Number of electrons                        I               32
Number of alpha electrons                  I               16
Number of beta electrons                   I               16
Number of basis functions                  I              207
Number of independent functions            I              207
Number of point charges in /Mol/           I                0
Number of translation vectors              I                0
Atomic numbers                             I   N=           5
           1           8           8           7           8
Nuclear charges                            R   N=           5
  1.00000000E+00  8.00000000E+00  8.00000000E+00  7.00000000E+00  8.00000000E+00
Current cartesian coordinates              R   N=          15
 -4.24929587E+00  8.20616216E-01 -3.64543301E-02 -3.02043762E+00 -5.36867266E-01
 -2.82404003E-02 -7.56804013E-01  1.02247667E+00  3.17962869E-02  1.25449955E+00
 -8.62668180E-01  4.89642359E-02  3.21071652E+00  1.66648231E-01 -4.18428018E-02
Number of symbols in /Mol/                 I                0
Force Field                                I                0
Atom Types                                 C   N=           5
                                                            
Int Atom Types                             I   N=           5
           0           0           0           0           0
MM charges                                 R   N=           5
  0.00000000E+00  0.00000000E+00  0.00000000E+00  0.00000000E+00  0.00000000E+00
Integer atomic weights                     I   N=           5
           1          16          16          14          16
Real atomic weights                        R   N=           5
  1.00782504E+00  1.59949146E+01  1.59949146E+01  1.40030740E+01  1.59949146E+01
Atom fragment info                         I   N=           5
           0           0           0           0           0
Atom residue num                           I   N=           5
           0           0           0           0           0
Nuclear spins                              I   N=           5
           1           0           0           2           0
Nuclear ZEff                               R   N=           5
 -1.00000000E+00 -5.60000000E+00 -5.60000000E+00 -4.55000000E+00 -5.60000000E+00
Nuclear ZNuc                               R   N=           5
  1.00000000E+00  8.00000000E+00  8.00000000E+00  7.00000000E+00  8.00000000E+00
Nuclear QMom                               R   N=           5
  0.00000000E+00  0.00000000E+00  0.00000000E+00  2.04400000E+00  0.00000000E+00
Nuclear GFac                               R   N=           5
  2.79284600E+00  0.00000000E+00  0.00000000E+00  4.03761000E-01  0.00000000E+00
MicOpt                                     I   N=           5
          -1          -1          -1          -1          -1
Number of residues                         I                0
Number of secondary structures             I                0
SymInf integers                            I   N=          26
           1           1           1           1           1           0
           0           0           0           0           0           0
           0           0           0           0           0           0
           0           0           0           0           0           0
           0           0
RotTr to input orientation                 R   N=          12
  7.41121931E-01 -1.88982661E-02  6.71104417E-01  6.71028298E-01 -1.10582042E-02
 -7.41349269E-01  2.14314254E-02  9.99760257E-01  4.48579366E-03  2.59937092E+00
 -3.47841918E-02  3.46024799E+00
Number of contracted shells                I               65
Number of primitive shells                 I              119
Pure/Cartesian d shells                    I                0
Pure/Cartesian f shells                    I                0
Highest angular momentum                   I                3
Largest degree of contraction              I                7
Shell types                                I   N=          65
           0           0           0           0           1           1
           1          -2          -2           0           0           0
           0           0           1           1           1           1
          -2          -2          -2          -3          -3           0
           0           0           0           0           1           1
           1           1          -2          -2          -2          -3
          -3           0           0           0           0           0
           1           1           1           1          -2          -2
          -2          -3          -3           0           0           0
           0           0           1           1           1           1
          -2          -2          -2          -3          -3
Number of primitives per shell             I   N=          65
           3           1           1           1           1           1
           1           1           1           7           6           1
           1           1           3           1           1           1
           1           1           1           1           1           7
           6           1           1           1           3           1
           1           1           1           1           1           1
           1           7           6           1           1           1
           3           1           1           1           1           1
           1           1           1           7           6           1
           1           1           3           1           1           1
           1           1           1           1           1
Shell to atom map                          I   N=          65
           1           1           1           1           1           1
           1           1           1           2           2           2
           2           2           2           2           2           2
           2           2           2           2           2           3
           3           3           3           3           3           3
           3           3           3           3           3           3
           3           4           4           4           4           4
           4           4           4           4           4           4
           4           4           4           5           5           5
           5           5           5           5           5           5
           5           5           5           5           5
Primitive exponents                        R   N=         119
  3.38700000E+01  5.09500000E+00  1.15900000E+00  3.25800000E-01  1.02700000E-01
  2.52600000E-02  1.40700000E+00  3.88000000E-01  1.02000000E-01  1.05700000E+00
  2.47000000E-01  1.53300000E+04  2.29900000E+03  5.22400000E+02  1.47300000E+02
  4.75500000E+01  1.67600000E+01  6.20700000E+00  5.22400000E+02  1.47300000E+02
  4.75500000E+01  1.67600000E+01  6.20700000E+00  6.88200000E-01  1.75200000E+00
  2.38400000E-01  7.37600000E-02  3.44600000E+01  7.74900000E+00  2.28000000E+00
  7.15600000E-01  2.14000000E-01  5.97400000E-02  2.31400000E+00  6.45000000E-01
  2.14000000E-01  1.42800000E+00  5.00000000E-01  1.53300000E+04  2.29900000E+03
  5.22400000E+02  1.47300000E+02  4.75500000E+01  1.67600000E+01  6.20700000E+00
  5.22400000E+02  1.47300000E+02  4.75500000E+01  1.67600000E+01  6.20700000E+00
  6.88200000E-01  1.75200000E+00  2.38400000E-01  7.37600000E-02  3.44600000E+01
  7.74900000E+00  2.28000000E+00  7.15600000E-01  2.14000000E-01  5.97400000E-02
  2.31400000E+00  6.45000000E-01  2.14000000E-01  1.42800000E+00  5.00000000E-01
  1.14200000E+04  1.71200000E+03  3.89300000E+02  1.10000000E+02  3.55700000E+01
  1.25400000E+01  4.64400000E+00  3.89300000E+02  1.10000000E+02  3.55700000E+01
  1.25400000E+01  4.64400000E+00  5.11800000E-01  1.29300000E+00  1.78700000E-01
  5.76000000E-02  2.66300000E+01  5.94800000E+00  1.74200000E+00  5.55000000E-01
  1.72500000E-01  4.91000000E-02  1.65400000E+00  4.69000000E-01  1.51000000E-01
  1.09300000E+00  3.64000000E-01  1.53300000E+04  2.29900000E+03  5.22400000E+02
  1.47300000E+02  4.75500000E+01  1.67600000E+01  6.20700000E+00  5.22400000E+02
  1.47300000E+02  4.75500000E+01  1.67600000E+01  6.20700000E+00  6.88200000E-01
  1.75200000E+00  2.38400000E-01  7.37600000E-02  3.44600000E+01  7.74900000E+00
  2.28000000E+00  7.15600000E-01  2.14000000E-01  5.97400000E-02  2.31400000E+00
  6.45000000E-01  2.14000000E-01  1.42800000E+00  5.00000000E-01
Contraction coefficients                   R   N=         119
  2.54948632E-02  1.90362766E-01  8.52162022E-01  1.00000000E+00  1.00000000E+00
  1.00000000E+00  1.00000000E+00  1.00000000E+00  1.00000000E+00  1.00000000E+00
  1.00000000E+00  5.19808943E-04  4.02025621E-03  2.07128267E-02  8.10105536E-02
  2.35962985E-01  4.42653446E-01  3.57064423E-01 -4.42115008E-05 -1.22591041E-03
 -1.05517725E-02 -6.74452633E-02 -1.71198607E-01  1.07329856E+00  1.00000000E+00
  1.00000000E+00  1.00000000E+00  4.11634896E-02  2.57762836E-01  8.02419274E-01
  1.00000000E+00  1.00000000E+00  1.00000000E+00  1.00000000E+00  1.00000000E+00
  1.00000000E+00  1.00000000E+00  1.00000000E+00  5.19808943E-04  4.02025621E-03
  2.07128267E-02  8.10105536E-02  2.35962985E-01  4.42653446E-01  3.57064423E-01
 -4.42115008E-05 -1.22591041E-03 -1.05517725E-02 -6.74452633E-02 -1.71198607E-01
  1.07329856E+00  1.00000000E+00  1.00000000E+00  1.00000000E+00  4.11634896E-02
  2.57762836E-01  8.02419274E-01  1.00000000E+00  1.00000000E+00  1.00000000E+00
  1.00000000E+00  1.00000000E+00  1.00000000E+00  1.00000000E+00  1.00000000E+00
  5.34563860E-04  4.13435660E-03  2.12335358E-02  8.25006224E-02  2.38138871E-01
  4.42551547E-01  3.53757422E-01 -4.89867350E-05 -1.19527323E-03 -1.03490714E-02
 -6.48680190E-02 -1.71552477E-01  1.07289568E+00  1.00000000E+00  1.00000000E+00
  1.00000000E+00  3.98072123E-02  2.49002660E-01  8.10479727E-01  1.00000000E+00
  1.00000000E+00  1.00000000E+00  1.00000000E+00  1.00000000E+00  1.00000000E+00
  1.00000000E+00  1.00000000E+00  5.19808943E-04  4.02025621E-03  2.07128267E-02
  8.10105536E-02  2.35962985E-01  4.42653446E-01  3.57064423E-01 -4.42115008E-05
 -1.22591041E-03 -1.05517725E-02 -6.74452633E-02 -1.71198607E-01  1.07329856E+00
  1.00000000E+00  1.00000000E+00  1.00000000E+00  4.11634896E-02  2.57762836E-01
  8.02419274E-01  1.00000000E+00  1.00000000E+00  1.00000000E+00  1.00000000E+00
  1.00000000E+00  1.00000000E+00  1.00000000E+00  1.00000000E+00
Coordinates of each shell                  R   N=         195
 -4.24929587E+00  8.20616216E-01 -3.64543301E-02 -4.24929587E+00  8.20616216E-01
 -3.64543301E-02 -4.24929587E+00  8.20616216E-01 -3.64543301E-02 -4.24929587E+00
  8.20616216E-01 -3.64543301E-02 -4.24929587E+00  8.20616216E-01 -3.64543301E-02
 -4.24929587E+00  8.20616216E-01 -3.64543301E-02 -4.24929587E+00  8.20616216E-01
 -3.64543301E-02 -4.24929587E+00  8.20616216E-01 -3.64543301E-02 -4.24929587E+00
  8.20616216E-01 -3.64543301E-02 -3.02043762E+00 -5.36867266E-01 -2.82404003E-02
 -3.02043762E+00 -5.36867266E-01 -2.82404003E-02 -3.02043762E+00 -5.36867266E-01
 -2.82404003E-02 -3.02043762E+00 -5.36867266E-01 -2.82404003E-02 -3.02043762E+00
 -5.36867266E-01 -2.82404003E-02 -3.02043762E+00 -5.36867266E-01 -2.82404003E-02
 -3.02043762E+00 -5.36867266E-01 -2.82404003E-02 -3.02043762E+00 -5.36867266E-01
 -2.82404003E-02 -3.02043762E+00 -5.36867266E-01 -2.82404003E-02 -3.02043762E+00
 -5.36867266E-01 -2.82404003E-02 -3.02043762E+00 -5.36867266E-01 -2.82404003E-02
 -3.02043762E+00 -5.36867266E-01 -2.82404003E-02 -3.02043762E+00 -5.36867266E-01
 -2.82404003E-02 -3.02043762E+00 -5.36867266E-01 -2.82404003E-02 -7.56804013E-01
  1.02247667E+00  3.17962869E-02 -7.56804013E-01  1.02247667E+00  3.17962869E-02
 -7.56804013E-01  1.02247667E+00  3.17962869E-02 -7.56804013E-01  1.02247667E+00
  3.17962869E-02 -7.56804013E-01  1.02247667E+00  3.17962869E-02 -7.56804013E-01
  1.02247667E+00  3.17962869E-02 -7.56804013E-01  1.02247667E+00  3.17962869E-02
 -7.56804013E-01  1.02247667E+00  3.17962869E-02 -7.56804013E-01  1.02247667E+00
  3.17962869E-02 -7.56804013E-01  1.02247667E+00  3.17962869E-02 -7.56804013E-01
  1.02247667E+00  3.17962869E-02 -7.56804013E-01  1.02247667E+00  3.17962869E-02
 -7.56804013E-01  1.02247667E+00  3.17962869E-02 -7.56804013E-01  1.02247667E+00
  3.17962869E-02  1.25449955E+00 -8.62668180E-01  4.89642359E-02  1.25449955E+00
 -8.62668180E-01  4.89642359E-02  1.25449955E+00 -8.62668180E-01  4.89642359E-02
  1.25449955E+00 -8.62668180E-01  4.89642359E-02  1.25449955E+00 -8.62668180E-01
  4.89642359E-02  1.25449955E+00 -8.62668180E-01  4.89642359E-02  1.25449955E+00
 -8.62668180E-01  4.89642359E-02  1.25449955E+00 -8.62668180E-01  4.89642359E-02
  1.25449955E+00 -8.62668180E-01  4.89642359E-02  1.25449955E+00 -8.62668180E-01
  4.89642359E-02  1.25449955E+00 -8.62668180E-01  4.89642359E-02  1.25449955E+00
 -8.62668180E-01  4.89642359E-02  1.25449955E+00 -8.62668180E-01  4.89642359E-02
  1.25449955E+00 -8.62668180E-01  4.89642359E-02  3.21071652E+00  1.66648231E-01
 -4.18428018E-02  3.21071652E+00  1.66648231E-01 -4.18428018E-02  3.21071652E+00
  1.66648231E-01 -4.18428018E-02  3.21071652E+00  1.66648231E-01 -4.18428018E-02
  3.21071652E+00  1.66648231E-01 -4.18428018E-02  3.21071652E+00  1.66648231E-01
 -4.18428018E-02  3.21071652E+00  1.66648231E-01 -4.18428018E-02  3.21071652E+00
  1.66648231E-01 -4.18428018E-02  3.21071652E+00  1.66648231E-01 -4.18428018E-02
  3.21071652E+00  1.66648231E-01 -4.18428018E-02  3.21071652E+00  1.66648231E-01
 -4.18428018E-02  3.21071652E+00  1.66648231E-01 -4.18428018E-02  3.21071652E+00
  1.66648231E-01 -4.18428018E-02  3.21071652E+00  1.66648231E-01 -4.18428018E-02
Num ILSW                                   I              100
ILSW                                       I   N=         100
           0           0           0           0           2           0
           0           0           0           0           0          -1
           5           0           0           0           0           0
           0           0           0           0           0           0
           1           0           0           0           0           0
           0           0      100000           0          -1           0
           0           0           0           0           0           0
           0           0           0           1           0           0
           0 -2000000000           1           0           0           0
           0           0           4          52           0           0
           0           0           0           0           0           0
           0           0           0           5           0           1
           0           0           0           0           0           0
           0           0           0           0           0           0
           0           0           0           0           0           0
           0           0           0           0           0           0
           0           0           0           0
Num RLSW                                   I               52
RLSW                                       R   N=          52
  1.00000000E+00  1.00000000E+00  1.00000000E+00  1.00000000E+00  1.00000000E+00
  0.00000000E+00  0.00000000E+00  1.00000000E+00  0.00000000E+00  0.00000000E+00
  0.00000000E+00  0.00000000E+00  1.00000000E+00  0.00000000E+00  0.00000000E+00
  0.00000000E+00  0.00000000E+00  1.00000000E+00  0.00000000E+00  0.00000000E+00
  0.00000000E+00  0.00000000E+00  1.00000000E+00  0.00000000E+00  0.00000000E+00
  0.00000000E+00  0.00000000E+00  1.00000000E+00  0.00000000E+00  0.00000000E+00
  0.00000000E+00  0.00000000E+00  1.00000000E+00  0.00000000E+00  0.00000000E+00
  0.00000000E+00  0.00000000E+00  0.00000000E+00  1.00000000E+00  1.00000000E+00
  0.00000000E+00  1.00000000E+00  0.00000000E+00  0.00000000E+00  0.00000000E+00
  0.00000000E+00  0.00000000E+00  0.00000000E+00  0.00000000E+00  0.00000000E+00
  0.00000000E+00  0.00000000E+00
MxBond                                     I                2
NBond                                      I   N=           5
           1           2           2           2           1
IBond                                      I   N=          10
           2           0           1           3           2           4
           3           5           4           0
RBond                                      R   N=          10
  1.00000000E+00  0.00000000E+00  1.00000000E+00  1.00000000E+00  1.00000000E+00
  1.00000000E+00  1.00000000E+00  2.00000000E+00  2.00000000E+00  0.00000000E+00
Virial Ratio                               R      2.002352658060235E+00
SCF Energy                                 R     -2.795016277016385E+02
MP2 Energy                                 R     -2.804466437300102E+02
Total Energy                               R     -2.804466437300102E+02
Post-SCF wavefunction norm                 R      1.120214640498019E+00
RMS Density                                R      8.750938380596676E-09
Job Status                                 I                1
Nuclear derivative order                   I                0
External E-field                           R   N=          35
  0.00000000E+00  0.00000000E+00  0.00000000E+00  0.00000000E+00  0.00000000E+00
  0.00000000E+00  0.00000000E+00  0.00000000E+00  0.00000000E+00  0.00000000E+00
  0.00000000E+00  0.00000000E+00  0.00000000E+00  0.00000000E+00  0.00000000E+00
  0.00000000E+00  0.00000000E+00  0.00000000E+00  0.00000000E+00  0.00000000E+00
  0.00000000E+00  0.00000000E+00  0.00000000E+00  0.00000000E+00  0.00000000E+00
  0.00000000E+00  0.00000000E+00  0.00000000E+00  0.00000000E+00  0.00000000E+00
  0.00000000E+00  0.00000000E+00  0.00000000E+00  0.00000000E+00  0.00000000E+00
IOpCl                                      I                0
IROHF                                      I                0
Alpha Orbital Energies                     R   N=         207
 -2.06908097E+01 -2.06843450E+01 -2.06599884E+01 -1.58128016E+01 -1.62404007E+00
 -1.49572772E+00 -1.25440014E+00 -9.48064763E-01 -7.72770048E-01 -7.59168420E-01
 -7.11943176E-01 -6.79210754E-01 -6.20506236E-01 -5.89392897E-01 -4.85222728E-01
 -4.72493158E-01  2.96282637E-02  7.16079949E-02  8.59808364E-02  1.01717350E-01
  1.32788478E-01  1.35062830E-01  1.44088178E-01  1.54538656E-01  1.78160291E-01
  1.94143981E-01  1.99662248E-01  2.06500308E-01  2.20864473E-01  2.34836345E-01
  2.38073239E-01  2.65777626E-01  2.93428638E-01  3.03511455E-01  3.11046969E-01
  3.43419556E-01  3.49812300E-01  3.87209821E-01  4.21650145E-01  4.31172706E-01
  5.26176158E-01  5.30475127E-01  5.58416543E-01  5.81457461E-01  6.25986130E-01
  6.38377970E-01  6.73135807E-01  6.85916761E-01  7.06428598E-01  7.11252567E-01
  7.24600498E-01  7.29592359E-01  7.44710570E-01  7.90350412E-01  7.93476634E-01
  8.08686789E-01  8.14429363E-01  8.30372589E-01  8.68155803E-01  9.08079672E-01
  9.21934813E-01  9.26329283E-01  9.56372484E-01  9.76783817E-01  9.85045957E-01
  1.01629657E+00  1.05071882E+00  1.05512282E+00  1.08379879E+00  1.11729372E+00
  1.14053386E+00  1.19000452E+00  1.22123118E+00  1.23240484E+00  1.33858242E+00
  1.35081112E+00  1.38707285E+00  1.45262973E+00  1.48764816E+00  1.50877328E+00
  1.53806142E+00  1.56608435E+00  1.58071758E+00  1.61324173E+00  1.66372349E+00
  1.66929926E+00  1.70361310E+00  1.79232447E+00  1.82967863E+00  1.83642475E+00
  1.87909600E+00  1.91050658E+00  1.95609524E+00  1.99153248E+00  2.00676159E+00
  2.07760734E+00  2.12046144E+00  2.13135269E+00  2.15060715E+00  2.22495533E+00
  2.26413557E+00  2.26530573E+00  2.28978064E+00  2.31416987E+00  2.34453772E+00
  2.38630087E+00  2.42105645E+00  2.43139554E+00  2.45404783E+00  2.46277253E+00
  2.47709023E+00  2.50192915E+00  2.58995208E+00  2.59654925E+00  2.61976670E+00
  2.62459743E+00  2.63505309E+00  2.66714059E+00  2.75633055E+00  2.82300268E+00
  2.85454437E+00  2.88499271E+00  2.89758808E+00  2.92317437E+00  2.95989191E+00
  3.02594365E+00  3.06857689E+00  3.12175502E+00  3.20487985E+00  3.22620687E+00
  3.31598468E+00  3.34188517E+00  3.51614444E+00  3.64195614E+00  3.83760171E+00
  3.84571808E+00  4.14880542E+00  4.16251923E+00  4.18391883E+00  4.25716991E+00
  4.35172192E+00  4.39337664E+00  4.46377564E+00  4.51919553E+00  4.66029494E+00
  4.71020620E+00  4.80545035E+00  4.82451781E+00  4.82808851E+00  4.89721319E+00
  5.02300040E+00  5.07629443E+00  5.10401344E+00  5.14530194E+00  5.17907480E+00
  5.24304372E+00  5.27248993E+00  5.30706045E+00  5.32945255E+00  5.35516946E+00
  5.60622140E+00  5.67389043E+00  5.76917338E+00  5.82891789E+00  5.95768021E+00
  6.16878470E+00  6.30919300E+00  6.33784260E+00  6.39428627E+00  6.49354051E+00
  6.50539635E+00  6.61409906E+00  6.66769277E+00  6.69916010E+00  6.75727571E+00
  6.76366587E+00  6.83253653E+00  6.89821251E+00  7.01394664E+00  7.05501787E+00
  7.05798989E+00  7.09017450E+00  7.12469593E+00  7.15084198E+00  7.18155407E+00
  7.22519380E+00  7.24183718E+00  7.30753656E+00  7.32563102E+00  7.34777400E+00
  7.39936232E+00  7.43171898E+00  7.48407292E+00  7.59833149E+00  7.62475567E+00
  7.62779938E+00  7.66716965E+00  7.78953167E+00  7.88662004E+00  8.09249044E+00
  8.31397329E+00  8.40896829E+00  8.54390489E+00  1.33920077E+01  1.43920283E+01
  1.51623991E+01  1.61511770E+01
Alpha MO coefficients                      R   N=       42849
  9.19740404E-05 -6.43114660E-04 -7.28876453E-04 -4.63161472E-06  3.32324916E-05
 -8.89310527E-06  1.50402251E-07 -1.21882708E-06  7.50845251E-05 -1.64437745E-06
 -9.17825652E-05 -2.27327350E-05 -1.38678679E-06  3.18441207E-05 -2.08074559E-06
 -1.57520204E-06  5.69310465E-06 -5.36732455E-05 -5.35259979E-06  9.15207868E-07
 -2.70139022E-06  7.22268591E-05 -1.67140567E-04  4.59492335E-03 -2.81939092E-04
  1.50345690E-05  1.55834193E-03  1.82585637E-03 -8.98075562E-05 -5.71517849E-05
 -2.73352628E-06  5.17145589E-04  3.38295845E-04  1.52054913E-05  4.10347620E-04
  1.29530006E-03  2.06173287E-05  2.86310175E-04  2.91332378E-04  5.65415131E-06
  2.87820240E-05 -1.98104042E-06 -1.74142447E-06 -1.02482951E-05 -5.34296773E-05
 -3.77725116E-04  2.49499608E-05  2.05591147E-05  1.85186838E-04  7.16899015E-04
 -4.46649206E-04  1.33823707E-05  1.38410444E-05  5.51502241E-05  2.35415667E-04
 -3.94676126E-06 -7.18003023E-05 -3.72961628E-05  2.10598137E-06  5.48970570E-06
 -3.35079985E-05  1.04282859E-04 -1.57903786E-05 -1.87492046E-04 -1.73501173E-04
  2.21129620E-06  1.79877797E-05 -1.65458969E-04  3.16177981E-04  9.76910772E-01
 -9.21655345E-03  4.33187348E-02  2.04255704E-03 -9.19084620E-04 -3.93955737E-04
 -1.97827981E-03 -1.99891182E-05  3.30127322E-04  1.96681901E-03  2.41545205E-05
  6.26507822E-04 -9.83397375E-04  9.52120511E-06  1.15755080E-04  7.09665282E-05
  3.25068416E-06  4.63426111E-05 -2.06610317E-06 -1.85377265E-06  1.01353036E-05
 -3.99028628E-05  7.46620470E-04 -3.36899607E-05 -1.43763407E-05 -4.39896109E-04
 -1.08516209E-04 -3.59146406E-04  3.35297752E-06  9.41048794E-07 -4.50338305E-04
 -1.90267796E-04 -2.13681700E-06 -8.95351863E-06 -6.74754235E-05  1.96785571E-06
  3.72814690E-06  1.87079935E-06  4.19669633E-05 -1.40295014E-06 -3.15740692E-05
  3.71105367E-06 -1.42112569E-06  5.95252332E-06  2.90774798E-05  3.34217294E-04
  3.91896264E-05  4.66139900E-05 -2.64300505E-04 -7.05757537E-04 -1.45816817E-04
  7.96520979E-05 -6.22439917E-05 -1.27000786E-06 -6.38431141E-04  4.09549786E-04
  9.16232724E-06  9.57702098E-04  1.08292561E-04  1.43719539E-05  1.16858156E-04
  5.13831985E-05  8.70656674E-06 -1.80891895E-05  1.82428361E-06 -9.46607779E-07
  5.70219911E-06 -3.27186054E-05 -3.29097488E-04  5.52580622E-06  4.56181632E-06
 -1.18886107E-04 -8.29883036E-04 -3.62850431E-05 -1.27826619E-05  7.51675228E-06
 -8.17085431E-05  1.26043888E-04  3.64418263E-07  8.80182121E-05 -8.41605417E-05
  1.35867466E-06  3.58067144E-06  1.08976400E-04  1.05134127E-04  8.31415897E-06
  8.86584004E-05 -1.24740285E-04 -1.18123177E-05  8.40874744E-06  4.08510805E-04
  9.83776208E-05 -2.62282143E-03  1.21176857E-04 -1.25444194E-04 -2.42054150E-04
  1.38309201E-04  2.30050483E-05 -1.75417399E-05 -1.44570614E-06 -1.52761563E-04
  9.05054724E-05  1.06825466E-05 -3.10117265E-04  2.52456131E-05 -1.02872540E-05
 -1.16578034E-04 -5.56312543E-05 -6.33205625E-06 -3.40157649E-06  9.07253554E-07
  1.97906802E-07 -4.12176267E-06 -1.73834644E-05  1.01210534E-06 -8.44786179E-06
  1.70455214E-06  1.07740126E-04  5.07563592E-05 -1.00328692E-04  3.20069000E-06
 -5.94603379E-06  2.04577378E-04  1.10462299E-04  9.27848458E-07 -1.05451747E-05
 -1.20737295E-05  8.10532617E-07 -1.72196930E-06  9.80775339E-06  7.94238705E-06
 -1.61488434E-06 -2.03616963E-07  5.57836771E-05 -2.08982956E-06  5.82404384E-06
 -5.73290061E-05 -1.08400532E-04  3.86595645E-05 -9.79086106E-04 -4.83173591E-04
 -1.06431133E-05  8.43546518E-06  2.58146586E-05  2.57513244E-07 -1.61534237E-04
  2.18592349E-04 -2.20434558E-06 -4.61652858E-05  1.31442016E-04  1.07511748E-06
  2.57496937E-05 -2.61441220E-08  4.10937723E-07  1.41082963E-05  8.43648846E-06
 -2.71637448E-05  2.68607567E-07  8.30949422E-07  3.64127878E-05  4.59356078E-07
  1.12342066E-04  8.38770277E-05 -2.77881470E-05  7.41561516E-04  6.45120125E-04
 -9.63385259E-06 -3.98077315E-06  3.88437158E-08  4.90627811E-05  5.52531295E-05
 -1.04431889E-06 -8.00368296E-04  5.20789845E-04  1.67740391E-05 -5.07557911E-05
  6.22239859E-05  8.32772848E-06 -2.28184683E-06 -6.63855109E-07  4.61252574E-08
 -5.73171267E-06  1.60455919E-06 -3.53684368E-05  3.79885480E-06 -2.38996501E-07
  7.34328155E-05 -4.26624345E-05 -2.17398553E-05  1.27770742E-05  1.30826663E-06
 -2.31652535E-04 -2.06172406E-04  3.39482004E-07 -1.10324930E-05 -5.68809615E-07
 -3.28009064E-07  4.40866927E-07  1.83409536E-05  3.57912725E-06 -2.42789241E-06
  5.53649282E-05 -6.76370488E-06  5.61874859E-06  4.83475026E-07 -4.44633763E-05
  6.59260476E-05  2.66146086E-03  3.84402060E-05  9.33827575E-05 -7.23527862E-05
 -4.63884040E-04 -1.52990470E-05  8.18197376E-06 -4.64312049E-07  8.32366407E-05
 -7.02086285E-06  1.50172543E-06 -7.87551923E-05 -2.89097201E-04 -1.77727679E-05
  1.87072715E-04  5.90763826E-05 -5.11007961E-06 -8.69375656E-06 -1.42601482E-06
 -4.48416406E-08  2.54380437E-05  1.55582816E-05  4.54356944E-06  5.19713137E-06
  8.56709205E-08 -7.86788962E-05 -9.85223121E-05 -4.73614400E-06  8.05811833E-06
  1.39362787E-05 -2.60648065E-04 -1.51222872E-04 -1.13908115E-06 -2.26877930E-06
 -2.40229738E-06 -1.03466150E-06  3.43606924E-07  1.32886669E-05  2.93887079E-06
  2.90798601E-07  3.50350897E-05  3.04647084E-05  7.89572592E-06 -4.86663810E-06
 -2.02045972E-04  9.14424578E-06  2.58629160E-04  1.46478657E-03 -7.80315676E-05
 -1.53840333E-03  3.98015414E-04  1.15947187E-04  8.59276702E-05 -6.84814821E-06
  1.91800854E-03  9.17202477E-04 -8.10917491E-05 -1.28980689E-03 -4.39896546E-06
  2.46106563E-05  1.03939223E-04  1.46207092E-04 -4.79414285E-06 -1.22682797E-04
 -1.73640156E-05 -7.92025328E-06  1.60779118E-04  2.04633374E-04 -4.39509595E-04
 -6.48291756E-05 -4.04073442E-05  1.99374702E-04  8.76707478E-04  1.08928246E-05
  1.83739038E-05  2.93858567E-06 -2.15309100E-04 -2.87887475E-04 -2.22778665E-06
 -8.07284526E-06  1.30165899E-05  2.19896004E-06  6.88477391E-07 -6.20460276E-06
 -2.22314130E-05  2.63252621E-05 -8.80759199E-05 -1.54373946E-04 -1.28565573E-05
 -2.78772143E-05 -1.19414937E-04  2.12509340E-04  9.76649077E-01 -9.84905765E-03
  4.35678519E-02  4.50230180E-03 -4.45454198E-04 -2.01092810E-03 -8.90005587E-04
  9.25374898E-05  2.27351871E-03  9.31962823E-04 -9.50085246E-05 -9.13373360E-04
 -6.79762227E-04  6.22829713E-05  2.14375289E-05 -3.65116705E-05 -3.11120578E-06
 -2.31672113E-04 -1.41432908E-05 -1.53696466E-05  6.05360905E-05  8.84982571E-05
  3.88685090E-04  6.09203900E-05  1.49042791E-05 -6.43335994E-04 -6.74064013E-04
 -1.52221552E-04 -2.25903242E-05 -1.69126245E-05  9.08789024E-05  2.39597897E-04
  5.36588696E-06 -5.20599732E-05 -1.65275225E-05 -2.39695437E-06 -4.94815986E-06
  5.14883070E-06  2.51192072E-05  1.35748514E-05 -1.15754425E-04 -7.46567219E-05
 -1.53884221E-05 -1.24656116E-05  6.90507036E-05  2.25213592E-04  4.74840480E-04
  2.05983012E-03  1.16263567E-04  1.49475499E-05  1.79917021E-04 -1.73789820E-04
  1.81427075E-06  6.69271997E-04 -1.09073795E-03 -2.14761795E-06 -4.75032665E-05
 -4.56495371E-04 -8.69438852E-06 -2.59953928E-06  1.61986181E-06  8.40169970E-07
  3.68833373E-05  6.81780835E-05 -1.60233347E-04 -3.38363123E-06 -2.80689380E-06
 -1.79019031E-04 -5.06979541E-04  9.76830039E-01 -9.16322319E-03  4.34497226E-02
  1.66075958E-04 -1.13929870E-03  3.96276070E-04  2.08860836E-03  3.34586880E-05
 -4.99709655E-04 -1.96922631E-03 -3.28578751E-05  9.73563082E-04 -3.56206008E-04
  1.41212139E-05 -2.64267767E-05 -5.83147044E-05 -2.38344164E-06  2.94252584E-05
 -3.66096589E-06 -2.39445140E-06 -3.71458364E-05 -1.12050853E-04  7.56669937E-04
 -3.24359243E-05 -1.51210241E-05 -2.83778099E-04 -1.24479543E-04 -2.66441641E-04
  6.94984079E-06  7.93137512E-06  1.71399529E-04  1.24182607E-04  3.50818235E-06
  5.06606161E-05  3.91191023E-05 -1.06064521E-06 -2.28245246E-06 -2.97816795E-06
 -2.10201017E-05 -3.64639879E-07 -7.22857462E-05  9.91679999E-05 -1.72266610E-07
 -9.52582705E-06 -1.15681515E-07 -2.72863861E-04 -4.68718933E-03 -2.11094280E-04