title                                                                   
SP        RMP2-FC                                                     Aug-CC-pVTZ         
Number of atoms                            I                5
Info1-9                                    I   N=           9
          33          24           0           0           0         110
           1           2           1
Full Title                                 C   N=           1
title       
Route                                      C   N=           4
#p SP mp2/aug-cc-pvtz density=current           
Charge                                     I                0
Multiplicity                               I                1
Number of electrons                        I               32
Number of alpha electrons                  I               16
Number of beta electrons                   I               16
Number of basis functions                  I              207
Number of independent functions            I              207
Number of point charges in /Mol/           I                0
Number of translation vectors              I                0
Atomic numbers                             I   N=           5
           1           8           8           7           8
Nuclear charges                            R   N=           5
  1.00000000E+00  8.00000000E+00  8.00000000E+00  7.00000000E+00  8.00000000E+00
Current cartesian coordinates              R   N=          15
  2.85406904E+00  3.19866555E+00 -4.12130913E-33  2.74761487E+00  1.37066419E+00
  4.84920710E-32  3.13803815E-17  1.27163118E+00 -7.50737242E-33 -4.89746275E-01
 -1.44121906E+00 -2.01549071E-32 -2.67584551E+00 -1.78106189E+00  7.50842603E-33
Number of symbols in /Mol/                 I                0
Force Field                                I                0
Atom Types                                 C   N=           5
                                                            
Int Atom Types                             I   N=           5
           0           0           0           0           0
MM charges                                 R   N=           5
  0.00000000E+00  0.00000000E+00  0.00000000E+00  0.00000000E+00  0.00000000E+00
Integer atomic weights                     I   N=           5
           1          16          16          14          16
Real atomic weights                        R   N=           5
  1.00782504E+00  1.59949146E+01  1.59949146E+01  1.40030740E+01  1.59949146E+01
Atom fragment info                         I   N=           5
           0           0           0           0           0
Atom residue num                           I   N=           5
           0           0           0           0           0
Nuclear spins                              I   N=           5
           1           0           0           2           0
Nuclear ZEff                               R   N=           5
 -1.00000000E+00 -5.60000000E+00 -5.60000000E+00 -4.55000000E+00 -5.60000000E+00
Nuclear ZNuc                               R   N=           5
  1.00000000E+00  8.00000000E+00  8.00000000E+00  7.00000000E+00  8.00000000E+00
Nuclear QMom                               R   N=           5
  0.00000000E+00  0.00000000E+00  0.00000000E+00  2.04400000E+00  0.00000000E+00
Nuclear GFac                               R   N=           5
  2.79284600E+00  0.00000000E+00  0.00000000E+00  4.03761000E-01  0.00000000E+00
MicOpt                                     I   N=           5
          -1          -1          -1          -1          -1
Number of residues                         I                0
Number of secondary structures             I                0
SymInf integers                            I   N=          26
           1           2           1           1           1           1
           1          -1           0           0           0           0
           0           0           0           0           0           0
           0           0           0           0           0           0
           0           0
RotTr to input orientation                 R   N=          12
 -9.98308627E-01 -9.82507087E-17 -5.81367796E-02  5.81367796E-02 -7.31053764E-17
 -9.98308627E-01  9.38344190E-17 -1.00000000E+00  7.86937077E-17  2.66328163E+00
  0.00000000E+00  3.35918180E+00
Number of contracted shells                I               65
Number of primitive shells                 I              119
Pure/Cartesian d shells                    I                0
Pure/Cartesian f shells                    I                0
Highest angular momentum                   I                3
Largest degree of contraction              I                7
Shell types                                I   N=          65
           0           0           0           0           1           1
           1          -2          -2           0           0           0
           0           0           1           1           1           1
          -2          -2          -2          -3          -3           0
           0           0           0           0           1           1
           1           1          -2          -2          -2          -3
          -3           0           0           0           0           0
           1           1           1           1          -2          -2
          -2          -3          -3           0           0           0
           0           0           1           1           1           1
          -2          -2          -2          -3          -3
Number of primitives per shell             I   N=          65
           3           1           1           1           1           1
           1           1           1           7           6           1
           1           1           3           1           1           1
           1           1           1           1           1           7
           6           1           1           1           3           1
           1           1           1           1           1           1
           1           7           6           1           1           1
           3           1           1           1           1           1
           1           1           1           7           6           1
           1           1           3           1           1           1
           1           1           1           1           1
Shell to atom map                          I   N=          65
           1           1           1           1           1           1
           1           1           1           2           2           2
           2           2           2           2           2           2
           2           2           2           2           2           3
           3           3           3           3           3           3
           3           3           3           3           3           3
           3           4           4           4           4           4
           4           4           4           4           4           4
           4           4           4           5           5           5
           5           5           5           5           5           5
           5           5           5           5           5
Primitive exponents                        R   N=         119
  3.38700000E+01  5.09500000E+00  1.15900000E+00  3.25800000E-01  1.02700000E-01
  2.52600000E-02  1.40700000E+00  3.88000000E-01  1.02000000E-01  1.05700000E+00
  2.47000000E-01  1.53300000E+04  2.29900000E+03  5.22400000E+02  1.47300000E+02
  4.75500000E+01  1.67600000E+01  6.20700000E+00  5.22400000E+02  1.47300000E+02
  4.75500000E+01  1.67600000E+01  6.20700000E+00  6.88200000E-01  1.75200000E+00
  2.38400000E-01  7.37600000E-02  3.44600000E+01  7.74900000E+00  2.28000000E+00
  7.15600000E-01  2.14000000E-01  5.97400000E-02  2.31400000E+00  6.45000000E-01
  2.14000000E-01  1.42800000E+00  5.00000000E-01  1.53300000E+04  2.29900000E+03
  5.22400000E+02  1.47300000E+02  4.75500000E+01  1.67600000E+01  6.20700000E+00
  5.22400000E+02  1.47300000E+02  4.75500000E+01  1.67600000E+01  6.20700000E+00
  6.88200000E-01  1.75200000E+00  2.38400000E-01  7.37600000E-02  3.44600000E+01
  7.74900000E+00  2.28000000E+00  7.15600000E-01  2.14000000E-01  5.97400000E-02
  2.31400000E+00  6.45000000E-01  2.14000000E-01  1.42800000E+00  5.00000000E-01
  1.14200000E+04  1.71200000E+03  3.89300000E+02  1.10000000E+02  3.55700000E+01
  1.25400000E+01  4.64400000E+00  3.89300000E+02  1.10000000E+02  3.55700000E+01
  1.25400000E+01  4.64400000E+00  5.11800000E-01  1.29300000E+00  1.78700000E-01
  5.76000000E-02  2.66300000E+01  5.94800000E+00  1.74200000E+00  5.55000000E-01
  1.72500000E-01  4.91000000E-02  1.65400000E+00  4.69000000E-01  1.51000000E-01
  1.09300000E+00  3.64000000E-01  1.53300000E+04  2.29900000E+03  5.22400000E+02
  1.47300000E+02  4.75500000E+01  1.67600000E+01  6.20700000E+00  5.22400000E+02
  1.47300000E+02  4.75500000E+01  1.67600000E+01  6.20700000E+00  6.88200000E-01
  1.75200000E+00  2.38400000E-01  7.37600000E-02  3.44600000E+01  7.74900000E+00
  2.28000000E+00  7.15600000E-01  2.14000000E-01  5.97400000E-02  2.31400000E+00
  6.45000000E-01  2.14000000E-01  1.42800000E+00  5.00000000E-01
Contraction coefficients                   R   N=         119
  2.54948632E-02  1.90362766E-01  8.52162022E-01  1.00000000E+00  1.00000000E+00
  1.00000000E+00  1.00000000E+00  1.00000000E+00  1.00000000E+00  1.00000000E+00
  1.00000000E+00  5.19808943E-04  4.02025621E-03  2.07128267E-02  8.10105536E-02
  2.35962985E-01  4.42653446E-01  3.57064423E-01 -4.42115008E-05 -1.22591041E-03
 -1.05517725E-02 -6.74452633E-02 -1.71198607E-01  1.07329856E+00  1.00000000E+00
  1.00000000E+00  1.00000000E+00  4.11634896E-02  2.57762836E-01  8.02419274E-01
  1.00000000E+00  1.00000000E+00  1.00000000E+00  1.00000000E+00  1.00000000E+00
  1.00000000E+00  1.00000000E+00  1.00000000E+00  5.19808943E-04  4.02025621E-03
  2.07128267E-02  8.10105536E-02  2.35962985E-01  4.42653446E-01  3.57064423E-01
 -4.42115008E-05 -1.22591041E-03 -1.05517725E-02 -6.74452633E-02 -1.71198607E-01
  1.07329856E+00  1.00000000E+00  1.00000000E+00  1.00000000E+00  4.11634896E-02
  2.57762836E-01  8.02419274E-01  1.00000000E+00  1.00000000E+00  1.00000000E+00
  1.00000000E+00  1.00000000E+00  1.00000000E+00  1.00000000E+00  1.00000000E+00
  5.34563860E-04  4.13435660E-03  2.12335358E-02  8.25006224E-02  2.38138871E-01
  4.42551547E-01  3.53757422E-01 -4.89867350E-05 -1.19527323E-03 -1.03490714E-02
 -6.48680190E-02 -1.71552477E-01  1.07289568E+00  1.00000000E+00  1.00000000E+00
  1.00000000E+00  3.98072123E-02  2.49002660E-01  8.10479727E-01  1.00000000E+00
  1.00000000E+00  1.00000000E+00  1.00000000E+00  1.00000000E+00  1.00000000E+00
  1.00000000E+00  1.00000000E+00  5.19808943E-04  4.02025621E-03  2.07128267E-02
  8.10105536E-02  2.35962985E-01  4.42653446E-01  3.57064423E-01 -4.42115008E-05
 -1.22591041E-03 -1.05517725E-02 -6.74452633E-02 -1.71198607E-01  1.07329856E+00
  1.00000000E+00  1.00000000E+00  1.00000000E+00  4.11634896E-02  2.57762836E-01
  8.02419274E-01  1.00000000E+00  1.00000000E+00  1.00000000E+00  1.00000000E+00
  1.00000000E+00  1.00000000E+00  1.00000000E+00  1.00000000E+00
Coordinates of each shell                  R   N=         195
  2.85406904E+00  3.19866555E+00  0.00000000E+00  2.85406904E+00  3.19866555E+00
  0.00000000E+00  2.85406904E+00  3.19866555E+00  0.00000000E+00  2.85406904E+00
  3.19866555E+00  0.00000000E+00  2.85406904E+00  3.19866555E+00  0.00000000E+00
  2.85406904E+00  3.19866555E+00  0.00000000E+00  2.85406904E+00  3.19866555E+00
  0.00000000E+00  2.85406904E+00  3.19866555E+00  0.00000000E+00  2.85406904E+00
  3.19866555E+00  0.00000000E+00  2.74761487E+00  1.37066419E+00  0.00000000E+00
  2.74761487E+00  1.37066419E+00  0.00000000E+00  2.74761487E+00  1.37066419E+00
  0.00000000E+00  2.74761487E+00  1.37066419E+00  0.00000000E+00  2.74761487E+00
  1.37066419E+00  0.00000000E+00  2.74761487E+00  1.37066419E+00  0.00000000E+00
  2.74761487E+00  1.37066419E+00  0.00000000E+00  2.74761487E+00  1.37066419E+00
  0.00000000E+00  2.74761487E+00  1.37066419E+00  0.00000000E+00  2.74761487E+00
  1.37066419E+00  0.00000000E+00  2.74761487E+00  1.37066419E+00  0.00000000E+00
  2.74761487E+00  1.37066419E+00  0.00000000E+00  2.74761487E+00  1.37066419E+00
  0.00000000E+00  2.74761487E+00  1.37066419E+00  0.00000000E+00 -1.28113861E-18
  1.27163118E+00  0.00000000E+00 -1.28113861E-18  1.27163118E+00  0.00000000E+00
 -1.28113861E-18  1.27163118E+00  0.00000000E+00 -1.28113861E-18  1.27163118E+00
  0.00000000E+00 -1.28113861E-18  1.27163118E+00  0.00000000E+00 -1.28113861E-18
  1.27163118E+00  0.00000000E+00 -1.28113861E-18  1.27163118E+00  0.00000000E+00
 -1.28113861E-18  1.27163118E+00  0.00000000E+00 -1.28113861E-18  1.27163118E+00
  0.00000000E+00 -1.28113861E-18  1.27163118E+00  0.00000000E+00 -1.28113861E-18
  1.27163118E+00  0.00000000E+00 -1.28113861E-18  1.27163118E+00  0.00000000E+00
 -1.28113861E-18  1.27163118E+00  0.00000000E+00 -1.28113861E-18  1.27163118E+00
  0.00000000E+00 -4.89746275E-01 -1.44121906E+00  0.00000000E+00 -4.89746275E-01
 -1.44121906E+00  0.00000000E+00 -4.89746275E-01 -1.44121906E+00  0.00000000E+00
 -4.89746275E-01 -1.44121906E+00  0.00000000E+00 -4.89746275E-01 -1.44121906E+00
  0.00000000E+00 -4.89746275E-01 -1.44121906E+00  0.00000000E+00 -4.89746275E-01
 -1.44121906E+00  0.00000000E+00 -4.89746275E-01 -1.44121906E+00  0.00000000E+00
 -4.89746275E-01 -1.44121906E+00  0.00000000E+00 -4.89746275E-01 -1.44121906E+00
  0.00000000E+00 -4.89746275E-01 -1.44121906E+00  0.00000000E+00 -4.89746275E-01
 -1.44121906E+00  0.00000000E+00 -4.89746275E-01 -1.44121906E+00  0.00000000E+00
 -4.89746275E-01 -1.44121906E+00  0.00000000E+00 -2.67584551E+00 -1.78106189E+00
  0.00000000E+00 -2.67584551E+00 -1.78106189E+00  0.00000000E+00 -2.67584551E+00
 -1.78106189E+00  0.00000000E+00 -2.67584551E+00 -1.78106189E+00  0.00000000E+00
 -2.67584551E+00 -1.78106189E+00  0.00000000E+00 -2.67584551E+00 -1.78106189E+00
  0.00000000E+00 -2.67584551E+00 -1.78106189E+00  0.00000000E+00 -2.67584551E+00
 -1.78106189E+00  0.00000000E+00 -2.67584551E+00 -1.78106189E+00  0.00000000E+00
 -2.67584551E+00 -1.78106189E+00  0.00000000E+00 -2.67584551E+00 -1.78106189E+00
  0.00000000E+00 -2.67584551E+00 -1.78106189E+00  0.00000000E+00 -2.67584551E+00
 -1.78106189E+00  0.00000000E+00 -2.67584551E+00 -1.78106189E+00  0.00000000E+00
Num ILSW                                   I              100
ILSW                                       I   N=         100
           0           0           0           0           2           0
           0           0           0           0           0          -1
           5           0           0           0           0           0
           0           0           0           0           0           0
           1           0           0           0           0           0
           0           0      100000           0          -1           0
           0           0           0           0           0           0
           0           0           0           1           0           0
           0 -2000000000           1           0           0           0
           0           0           4          52           0           0
           0           0           0           0           0           0
           0           0           0           5           0           1
           0           0           0           0           0           0
           0           0           0           0           0           0
           0           0           0           0           0           0
           0           0           0           0           0           0
           0           0           0           0
Num RLSW                                   I               52
RLSW                                       R   N=          52
  1.00000000E+00  1.00000000E+00  1.00000000E+00  1.00000000E+00  1.00000000E+00
  0.00000000E+00  0.00000000E+00  1.00000000E+00  0.00000000E+00  0.00000000E+00
  0.00000000E+00  0.00000000E+00  1.00000000E+00  0.00000000E+00  0.00000000E+00
  0.00000000E+00  0.00000000E+00  1.00000000E+00  0.00000000E+00  0.00000000E+00
  0.00000000E+00  0.00000000E+00  1.00000000E+00  0.00000000E+00  0.00000000E+00
  0.00000000E+00  0.00000000E+00  1.00000000E+00  0.00000000E+00  0.00000000E+00
  0.00000000E+00  0.00000000E+00  1.00000000E+00  0.00000000E+00  0.00000000E+00
  0.00000000E+00  0.00000000E+00  0.00000000E+00  1.00000000E+00  1.00000000E+00
  0.00000000E+00  1.00000000E+00  0.00000000E+00  0.00000000E+00  0.00000000E+00
  0.00000000E+00  0.00000000E+00  0.00000000E+00  0.00000000E+00  0.00000000E+00
  0.00000000E+00  0.00000000E+00
MxBond                                     I                2
NBond                                      I   N=           5
           1           2           2           2           1
IBond                                      I   N=          10
           2           0           1           3           2           4
           3           5           4           0
RBond                                      R   N=          10
  1.00000000E+00  0.00000000E+00  1.00000000E+00  1.00000000E+00  1.00000000E+00
  1.00000000E+00  1.00000000E+00  2.00000000E+00  2.00000000E+00  0.00000000E+00
Virial Ratio                               R      2.002322264288286E+00
SCF Energy                                 R     -2.795012070379065E+02
MP2 Energy                                 R     -2.804465784285097E+02
Total Energy                               R     -2.804465784285097E+02
Post-SCF wavefunction norm                 R      1.120288164129442E+00
RMS Density                                R      3.768889591393968E-09
Job Status                                 I                1
Nuclear derivative order                   I                0
External E-field                           R   N=          35
  0.00000000E+00  0.00000000E+00  0.00000000E+00  0.00000000E+00  0.00000000E+00
  0.00000000E+00  0.00000000E+00  0.00000000E+00  0.00000000E+00  0.00000000E+00
  0.00000000E+00  0.00000000E+00  0.00000000E+00  0.00000000E+00  0.00000000E+00
  0.00000000E+00  0.00000000E+00  0.00000000E+00  0.00000000E+00  0.00000000E+00
  0.00000000E+00  0.00000000E+00  0.00000000E+00  0.00000000E+00  0.00000000E+00
  0.00000000E+00  0.00000000E+00  0.00000000E+00  0.00000000E+00  0.00000000E+00
  0.00000000E+00  0.00000000E+00  0.00000000E+00  0.00000000E+00  0.00000000E+00
IOpCl                                      I                0
IROHF                                      I                0
Alpha Orbital Energies                     R   N=         207
 -2.06906507E+01 -2.06842695E+01 -2.06608124E+01 -1.58127929E+01 -1.62414280E+00
 -1.49713087E+00 -1.25407085E+00 -9.48199470E-01 -7.73922271E-01 -7.57762113E-01
 -7.12048876E-01 -6.78733869E-01 -6.20851480E-01 -5.91450131E-01 -4.85499378E-01
 -4.72532367E-01  2.98772064E-02  7.15760603E-02  8.59203156E-02  1.01635881E-01
  1.33840252E-01  1.34083045E-01  1.44128596E-01  1.54652202E-01  1.78186587E-01
  1.93945010E-01  1.99611235E-01  2.06413247E-01  2.20686329E-01  2.35317279E-01
  2.37351242E-01  2.65096524E-01  2.93437811E-01  3.03697688E-01  3.11110901E-01
  3.43238182E-01  3.50068587E-01  3.87305937E-01  4.23742585E-01  4.31008556E-01
  5.27697137E-01  5.29411819E-01  5.58037238E-01  5.81070487E-01  6.26126783E-01
  6.38083196E-01  6.74660904E-01  6.84868999E-01  7.06513345E-01  7.09769834E-01
  7.28334954E-01  7.28487179E-01  7.44387756E-01  7.93617870E-01  7.94777247E-01
  8.11929479E-01  8.12109662E-01  8.29216924E-01  8.67647640E-01  9.08620237E-01
  9.20776623E-01  9.27616773E-01  9.54460219E-01  9.76283423E-01  9.86275645E-01
  1.01757541E+00  1.05148826E+00  1.05440770E+00  1.08270225E+00  1.11732753E+00
  1.14419137E+00  1.19029854E+00  1.22095984E+00  1.23586175E+00  1.33958555E+00
  1.35187738E+00  1.38564253E+00  1.45742784E+00  1.48700775E+00  1.50568153E+00
  1.53717073E+00  1.56646581E+00  1.57951193E+00  1.61011414E+00  1.66213801E+00
  1.67090368E+00  1.70310526E+00  1.79809845E+00  1.83057040E+00  1.83623047E+00
  1.87722162E+00  1.91131112E+00  1.95470936E+00  1.99430266E+00  2.00361013E+00
  2.07928115E+00  2.12719080E+00  2.13208649E+00  2.14965069E+00  2.22687232E+00
  2.26228538E+00  2.26407317E+00  2.29117769E+00  2.31368961E+00  2.34226606E+00
  2.38665460E+00  2.42808442E+00  2.43442958E+00  2.45315106E+00  2.46239316E+00
  2.48020989E+00  2.49917427E+00  2.59086279E+00  2.59936182E+00  2.61945961E+00
  2.62648381E+00  2.63523697E+00  2.66516701E+00  2.75800144E+00  2.82740585E+00
  2.84502885E+00  2.87863937E+00  2.89186153E+00  2.92857973E+00  2.95334986E+00
  3.02410640E+00  3.06925146E+00  3.12001106E+00  3.20928800E+00  3.22334595E+00
  3.31392103E+00  3.34298546E+00  3.51901196E+00  3.63765387E+00  3.83694019E+00
  3.84044546E+00  4.14585481E+00  4.17284627E+00  4.18338438E+00  4.25872980E+00
  4.34435618E+00  4.39665067E+00  4.46140899E+00  4.52864179E+00  4.65848983E+00
  4.73425900E+00  4.80226243E+00  4.82376996E+00  4.82823695E+00  4.89555786E+00
  5.02503108E+00  5.07690291E+00  5.10177441E+00  5.13571350E+00  5.17297208E+00
  5.25177262E+00  5.26987139E+00  5.30636522E+00  5.32842890E+00  5.35836556E+00
  5.60144385E+00  5.67348929E+00  5.76428601E+00  5.84380658E+00  5.95817730E+00
  6.17551428E+00  6.31176383E+00  6.33144086E+00  6.39346523E+00  6.49383367E+00
  6.50518996E+00  6.61523742E+00  6.66786903E+00  6.70322537E+00  6.76076570E+00
  6.76193106E+00  6.83497793E+00  6.89925890E+00  7.02634428E+00  7.04829995E+00
  7.05676285E+00  7.08898567E+00  7.12541325E+00  7.14112942E+00  7.18230471E+00
  7.22718250E+00  7.24152078E+00  7.30204044E+00  7.32431563E+00  7.35065850E+00
  7.39981036E+00  7.45140871E+00  7.48482954E+00  7.60698506E+00  7.62115457E+00
  7.62635347E+00  7.66720451E+00  7.79773684E+00  7.88711285E+00  8.09428628E+00
  8.31926294E+00  8.39252947E+00  8.54247513E+00  1.33892344E+01  1.43881141E+01
  1.51880201E+01  1.61543149E+01
Alpha MO coefficients                      R   N=       42849
  8.90588827E-05 -5.00976416E-04 -6.43432108E-04 -2.45007533E-06 -4.21408511E-06
 -3.03776695E-05  0.00000000E+00 -5.96475720E-05 -2.24506351E-05  0.00000000E+00
  7.13377491E-05  1.69704275E-06  0.00000000E+00  2.62321500E-05  0.00000000E+00
  0.00000000E+00 -6.17283630E-05  1.57980511E-05 -9.94564768E-06  0.00000000E+00
  0.00000000E+00 -1.64123832E-04  1.27102124E-04  4.74554642E-03 -2.94678425E-04
  2.59041116E-05  1.35078677E-03  1.70738307E-03  1.05321803E-04  1.06156414E-05
  0.00000000E+00 -6.15445070E-04 -7.43178862E-05  0.00000000E+00 -1.06649376E-03
  6.87856848E-04  0.00000000E+00 -3.86705202E-04  5.78440772E-05  0.00000000E+00
  2.85623773E-05  0.00000000E+00  0.00000000E+00 -5.24437493E-05  6.80362162E-06
 -3.67446602E-04  0.00000000E+00  0.00000000E+00  7.47213774E-04 -3.29366125E-05
 -4.34374810E-04  0.00000000E+00  0.00000000E+00  2.39145080E-04  1.54660908E-06
  0.00000000E+00  7.96448821E-05  1.38748743E-05  0.00000000E+00  0.00000000E+00
 -1.09871774E-04 -1.45228964E-06  0.00000000E+00  2.55593580E-04 -2.65803264E-05
  0.00000000E+00  0.00000000E+00 -3.45447538E-04  4.10005558E-05  9.76907498E-01
 -9.21909492E-03  4.33225330E-02  2.04050416E-03 -8.64276431E-04  1.48555734E-03
 -1.35224820E-03  0.00000000E+00 -1.42563124E-03  1.38121879E-03  0.00000000E+00
  1.22146730E-04 -1.09825344E-03  0.00000000E+00 -1.21200346E-04 -6.11622371E-06
  0.00000000E+00  4.50126256E-05  0.00000000E+00  0.00000000E+00 -3.62430490E-05
  2.33473025E-05  7.49553408E-04  0.00000000E+00  0.00000000E+00 -2.21986631E-04
 -3.92335506E-04 -3.72723128E-04  0.00000000E+00  0.00000000E+00 -3.05047401E-04
 -3.41783216E-04  0.00000000E+00  4.70148942E-05 -4.82101766E-05  0.00000000E+00
  0.00000000E+00 -3.78234734E-05 -1.66344241E-05  0.00000000E+00  2.39102516E-05
  1.87968848E-05  0.00000000E+00  0.00000000E+00 -3.04884134E-04 -1.39788400E-04
  3.93115504E-05  4.66250204E-05 -2.66071514E-04 -6.77431645E-04 -1.38304870E-04
 -2.70100430E-05 -9.84978022E-05  0.00000000E+00  2.70653209E-04  7.15794115E-04
  0.00000000E+00 -8.13994080E-04 -4.26463807E-04  0.00000000E+00 -1.18596123E-04
 -2.32678741E-05  0.00000000E+00 -1.79643111E-05  0.00000000E+00  0.00000000E+00
 -2.95594245E-05  1.50548107E-05 -3.31798041E-04  0.00000000E+00  0.00000000E+00
 -8.33457135E-04  1.24034252E-04 -3.66976985E-05  0.00000000E+00  0.00000000E+00
  7.96727902E-05 -1.24599671E-04  0.00000000E+00 -2.05924357E-05 -1.20607081E-04
  0.00000000E+00  0.00000000E+00 -6.17731715E-05 -1.38606209E-04  0.00000000E+00
  3.48824734E-06 -1.55047332E-04  0.00000000E+00  0.00000000E+00  4.41295442E-05
 -4.18090394E-04 -2.66921362E-03  1.23010861E-04 -1.27712090E-04 -2.27505443E-04
  1.44483658E-04 -8.20585457E-06 -2.81009681E-05  0.00000000E+00  6.99895118E-05
  1.65417271E-04  0.00000000E+00  2.35866293E-04  1.76199990E-04  0.00000000E+00
  1.24842281E-04  2.20179521E-05  0.00000000E+00 -3.36663737E-06  0.00000000E+00
  0.00000000E+00 -1.80351611E-05  1.51139221E-06  6.50337731E-07  0.00000000E+00
  0.00000000E+00  8.10686039E-05  8.64830893E-05 -9.72665635E-05  0.00000000E+00
  0.00000000E+00  1.69503776E-04  1.52342367E-04  0.00000000E+00  1.58611847E-05
 -3.48858703E-06  0.00000000E+00  0.00000000E+00 -4.34435530E-06 -1.18414807E-05
  0.00000000E+00 -3.34674069E-05  4.58876330E-05  0.00000000E+00  0.00000000E+00
  8.43263041E-05  8.93990890E-05  4.35334802E-05 -9.87589630E-04 -4.78560095E-04
 -9.91342930E-06 -1.99891720E-05  1.51615335E-05  0.00000000E+00  3.40057418E-06
  2.77529862E-04  0.00000000E+00 -3.45814194E-05  1.32258926E-04  0.00000000E+00
  2.79732252E-05  0.00000000E+00  0.00000000E+00  1.05566867E-05  8.53363414E-06
 -2.47948199E-05  0.00000000E+00  0.00000000E+00  8.33978138E-06  2.92423574E-05
  1.16553029E-04  8.40621564E-05 -2.72106547E-05  7.52254767E-04  6.37738252E-04
  1.06214401E-05  2.42350950E-06  0.00000000E+00 -7.54862593E-05  1.83561499E-05
  0.00000000E+00  2.83374497E-04  8.92042789E-04  0.00000000E+00 -3.50955625E-06
  7.53796695E-05  0.00000000E+00 -2.43845788E-06  0.00000000E+00  0.00000000E+00
  1.48915515E-07 -5.32589606E-06 -3.53020545E-05  0.00000000E+00  0.00000000E+00
 -2.42803631E-05  7.53041098E-05 -2.37341389E-05  0.00000000E+00  0.00000000E+00
 -2.59720174E-04 -1.83270129E-04  0.00000000E+00  8.85077016E-06  5.91163513E-06
  0.00000000E+00  0.00000000E+00  3.02902983E-06 -1.93422598E-05  0.00000000E+00
 -3.73064618E-05 -3.77651058E-05  0.00000000E+00  0.00000000E+00 -6.95819835E-05
  1.74640177E-05  2.70824437E-03  3.89427934E-05  9.54728188E-05 -9.99235093E-05
 -4.53413937E-04  7.26907437E-06  1.58987778E-05  0.00000000E+00 -6.21317422E-05
 -5.74080443E-05  0.00000000E+00  2.32327012E-04 -1.71202530E-04  0.00000000E+00
 -1.81664743E-04 -6.14642122E-05  0.00000000E+00 -8.88166355E-06  0.00000000E+00
  0.00000000E+00  2.20110815E-05  1.99473418E-05  5.25967032E-06  0.00000000E+00
  0.00000000E+00 -1.15014907E-04 -4.81464472E-05 -9.49510237E-06  0.00000000E+00
  0.00000000E+00 -2.18700981E-04 -1.95037220E-04  0.00000000E+00  3.58079112E-06
 -5.55417861E-08  0.00000000E+00  0.00000000E+00  2.18170600E-06 -1.41843186E-05
  0.00000000E+00 -4.83096766E-05  1.10824566E-06  0.00000000E+00  0.00000000E+00
 -7.77046105E-05  1.89672031E-04  2.58621969E-04  1.46452338E-03 -7.83029554E-05
 -1.54152697E-03  3.85053045E-04 -1.44591526E-04 -5.16557888E-07  0.00000000E+00
 -2.08674491E-03 -4.05117753E-04  0.00000000E+00  1.05693869E-03  7.80085921E-04
  0.00000000E+00 -1.71067600E-04  5.32129178E-05  0.00000000E+00 -1.23308503E-04
  0.00000000E+00  0.00000000E+00  2.42750865E-04  9.49961288E-05 -4.42851156E-04
  0.00000000E+00  0.00000000E+00  8.96605121E-04 -6.32261721E-05  1.15285852E-05
  0.00000000E+00  0.00000000E+00 -3.43855310E-04 -1.22912302E-04  0.00000000E+00
 -1.46913199E-06  1.49764103E-05  0.00000000E+00  0.00000000E+00  1.90148059E-05
  1.33642221E-05  0.00000000E+00  1.65208713E-04 -7.16039954E-05  0.00000000E+00
  0.00000000E+00 -2.40357558E-04  4.05872183E-05  9.76648721E-01 -9.84875566E-03
  4.35683495E-02  4.51906795E-03 -4.34634185E-04  2.14671756E-03  4.83130795E-04
  0.00000000E+00 -2.38136846E-03 -6.06052931E-04  0.00000000E+00  1.14576839E-03
 -5.98436301E-06  0.00000000E+00  6.29958296E-06 -4.08524723E-05  0.00000000E+00
 -2.32505542E-04  0.00000000E+00  0.00000000E+00  1.02482763E-04  3.24132608E-05
  3.90068418E-04  0.00000000E+00  0.00000000E+00 -8.31916510E-04 -4.21608000E-04
 -1.52271558E-04  0.00000000E+00  0.00000000E+00  2.58199321E-04  1.56596280E-05
  0.00000000E+00  5.20877389E-05  1.77834646E-05  0.00000000E+00  0.00000000E+00
 -2.19787331E-05 -1.33277882E-05  0.00000000E+00  1.38664886E-04  9.59654142E-06
  0.00000000E+00  0.00000000E+00 -1.88517343E-04 -1.41626622E-04  4.69603152E-04
  1.91776359E-03  8.86203422E-05  1.89646371E-05 -3.72431379E-05 -2.49777028E-04
  0.00000000E+00  1.55963140E-04 -1.24217498E-03  0.00000000E+00  3.56317468E-04
 -3.31368000E-04  0.00000000E+00 -4.83324998E-06  0.00000000E+00  0.00000000E+00
  7.40567076E-05  2.99665607E-05 -1.72045954E-04  0.00000000E+00  0.00000000E+00
 -5.32440371E-04 -6.18152747E-05  9.76830606E-01 -9.17778506E-03  4.34416943E-02
  3.16504881E-04 -1.21709552E-03 -1.58934351E-03  1.41326560E-03  0.00000000E+00
  1.60756039E-03 -1.26987380E-03  0.00000000E+00 -5.29782721E-04 -7.44655248E-04
  0.00000000E+00  5.45210785E-05 -6.14243932E-05  0.00000000E+00  3.28176596E-05
  0.00000000E+00  0.00000000E+00 -1.17858511E-04 -1.55315841E-05  7.47064578E-04
  0.00000000E+00  0.00000000E+00 -1.95847525E-04 -1.90854800E-04 -2.70028800E-04
  0.00000000E+00  0.00000000E+00  1.37658450E-04  1.04714129E-04  0.00000000E+00
 -6.42973773E-05  3.15150798E-06  0.00000000E+00  0.00000000E+00  1.69651249E-05
  9.27207608E-06  0.00000000E+00 -8.12454188E-06  1.14358891E-04  0.00000000E+00
  0.00000000E+00  2.31938106E-04  9.61274677E-05 -4.83985272E-03 -2.10146147E-04