 Entering Gaussian System, Link 0=g16
 Input=hoono_r3_1p431179.gjf
 Output=hoono_r3_1p431179.log
 Initial command:
 /sw/contrib/gaussian/g16/B01/g16/l1.exe "/scr/Gau-8196.inp" -scrdir="/scr/"
 Entering Link 1 = /sw/contrib/gaussian/g16/B01/g16/l1.exe PID=      8197.
  
 Copyright (c) 1988-2017, Gaussian, Inc.  All Rights Reserved.
  
 This is part of the Gaussian(R) 16 program.  It is based on
 the Gaussian(R) 09 system (copyright 2009, Gaussian, Inc.),
 the Gaussian(R) 03 system (copyright 2003, Gaussian, Inc.),
 the Gaussian(R) 98 system (copyright 1998, Gaussian, Inc.),
 the Gaussian(R) 94 system (copyright 1995, Gaussian, Inc.),
 the Gaussian 92(TM) system (copyright 1992, Gaussian, Inc.),
 the Gaussian 90(TM) system (copyright 1990, Gaussian, Inc.),
 the Gaussian 88(TM) system (copyright 1988, Gaussian, Inc.),
 the Gaussian 86(TM) system (copyright 1986, Carnegie Mellon
 University), and the Gaussian 82(TM) system (copyright 1983,
 Carnegie Mellon University). Gaussian is a federally registered
 trademark of Gaussian, Inc.
  
 This software contains proprietary and confidential information,
 including trade secrets, belonging to Gaussian, Inc.
  
 This software is provided under written license and may be
 used, copied, transmitted, or stored only in accord with that
 written license.
  
 The following legend is applicable only to US Government
 contracts under FAR:
  
                    RESTRICTED RIGHTS LEGEND
  
 Use, reproduction and disclosure by the US Government is
 subject to restrictions as set forth in subparagraphs (a)
 and (c) of the Commercial Computer Software - Restricted
 Rights clause in FAR 52.227-19.
  
 Gaussian, Inc.
 340 Quinnipiac St., Bldg. 40, Wallingford CT 06492
  
  
 ---------------------------------------------------------------
 Warning -- This program may not be used in any manner that
 competes with the business of Gaussian, Inc. or will provide
 assistance to any competitor of Gaussian, Inc.  The licensee
 of this program is prohibited from giving any competitor of
 Gaussian, Inc. access to this program.  By using this program,
 the user acknowledges that Gaussian, Inc. is engaged in the
 business of creating and licensing software in the field of
 computational chemistry and represents and warrants to the
 licensee that it is not a competitor of Gaussian, Inc. and that
 it will not use this program in any manner prohibited above.
 ---------------------------------------------------------------
  

 Cite this work as:
 Gaussian 16, Revision B.01,
 M. J. Frisch, G. W. Trucks, H. B. Schlegel, G. E. Scuseria, 
 M. A. Robb, J. R. Cheeseman, G. Scalmani, V. Barone, 
 G. A. Petersson, H. Nakatsuji, X. Li, M. Caricato, A. V. Marenich, 
 J. Bloino, B. G. Janesko, R. Gomperts, B. Mennucci, H. P. Hratchian, 
 J. V. Ortiz, A. F. Izmaylov, J. L. Sonnenberg, D. Williams-Young, 
 F. Ding, F. Lipparini, F. Egidi, J. Goings, B. Peng, A. Petrone, 
 T. Henderson, D. Ranasinghe, V. G. Zakrzewski, J. Gao, N. Rega, 
 G. Zheng, W. Liang, M. Hada, M. Ehara, K. Toyota, R. Fukuda, 
 J. Hasegawa, M. Ishida, T. Nakajima, Y. Honda, O. Kitao, H. Nakai, 
 T. Vreven, K. Throssell, J. A. Montgomery, Jr., J. E. Peralta, 
 F. Ogliaro, M. J. Bearpark, J. J. Heyd, E. N. Brothers, K. N. Kudin, 
 V. N. Staroverov, T. A. Keith, R. Kobayashi, J. Normand, 
 K. Raghavachari, A. P. Rendell, J. C. Burant, S. S. Iyengar, 
 J. Tomasi, M. Cossi, J. M. Millam, M. Klene, C. Adamo, R. Cammi, 
 J. W. Ochterski, R. L. Martin, K. Morokuma, O. Farkas, 
 J. B. Foresman, and D. J. Fox, Gaussian, Inc., Wallingford CT, 2016.
 
 ******************************************
 Gaussian 16:  ES64L-G16RevB.01 20-Dec-2017
                14-Feb-2022 
 ******************************************
 %nproc=28
 Will use up to   28 processors via shared memory.
 %mem=120GB
 %chk=hoono_r3_1p431179.chk
 -------------------------------------
 #p SP mp2/aug-cc-pvtz density=current
 -------------------------------------
 1/30=1,38=1,172=1/1;
 2/12=2,17=6,18=5,40=1/2;
 3/5=16,6=1,7=10,11=9,25=1,30=1,71=1/1,2,3;
 4//1;
 5/5=2,38=5/2;
 8/6=4,10=1/1;
 9/15=1,16=-3/6;
 10/5=1,13=10/2;
 6/7=2,8=2,9=2,10=2,22=-1/1;
 99/5=1,9=1/99;
 Leave Link    1 at Mon Feb 14 22:10:54 2022, MaxMem= 16106127360 cpu:               2.6 elap:               0.1
 (Enter /sw/contrib/gaussian/g16/B01/g16/l101.exe)
 -----
 title
 -----
 Symbolic Z-matrix:
 Charge =  0 Multiplicity = 1
 H
 O                    1    r1
 O                    2    r2       1    a1
 N                    3    r3       2    a2       1    d1       0
 O                    4    r4       3    a3       2    d2       0
       Variables:
  r1                    0.96898                  
  r2                    1.45492                  
  r3                    1.43118                  
  r4                    1.17073                  
  a1                   97.59495                  
  a2                  102.29752                  
  a3                  109.06955                  
  d1                  180.                       
  d2                  180.                       
 
 ITRead=  0  0  0  0  0
 MicOpt= -1 -1 -1 -1 -1
 NAtoms=      5 NQM=        5 NQMF=       0 NMMI=      0 NMMIF=      0
                NMic=       0 NMicF=      0.
                    Isotopes and Nuclear Properties:
 (Nuclear quadrupole moments (NQMom) in fm**2, nuclear magnetic moments (NMagM)
  in nuclear magnetons)

  Atom         1           2           3           4           5
 IAtWgt=           1          16          16          14          16
 AtmWgt=   1.0078250  15.9949146  15.9949146  14.0030740  15.9949146
 NucSpn=           1           0           0           2           0
 AtZEff=  -0.0000000  -0.0000000  -0.0000000  -0.0000000  -0.0000000
 NQMom=    0.0000000   0.0000000   0.0000000   2.0440000   0.0000000
 NMagM=    2.7928460   0.0000000   0.0000000   0.4037610   0.0000000
 AtZNuc=   1.0000000   8.0000000   8.0000000   7.0000000   8.0000000
 Leave Link  101 at Mon Feb 14 22:10:54 2022, MaxMem= 16106127360 cpu:               2.5 elap:               0.1
 (Enter /sw/contrib/gaussian/g16/B01/g16/l202.exe)
                          Input orientation:                          
 ---------------------------------------------------------------------
 Center     Atomic      Atomic             Coordinates (Angstroms)
 Number     Number       Type             X           Y           Z
 ---------------------------------------------------------------------
      1          1           0        0.000000    0.000000    0.000000
      2          8           0        0.000000    0.000000    0.968976
      3          8           0        1.442156    0.000000    1.161271
      4          7           0        1.559488    0.000000    2.587633
      5          8           0        2.693604    0.000000    2.878128
 ---------------------------------------------------------------------
                    Distance matrix (angstroms):
                    1          2          3          4          5
     1  H    0.000000
     2  O    0.968976   0.000000
     3  O    1.851584   1.454919   0.000000
     4  N    3.021233   2.247678   1.431180   0.000000
     5  O    3.941969   3.301570   2.124552   1.170729   0.000000
 Stoichiometry    HNO3
 Framework group  CS[SG(HNO3)]
 Deg. of freedom     7
 Full point group                 CS      NOp   2
 Largest Abelian subgroup         CS      NOp   2
 Largest concise Abelian subgroup C1      NOp   1
                         Standard orientation:                         
 ---------------------------------------------------------------------
 Center     Atomic      Atomic             Coordinates (Angstroms)
 Number     Number       Type             X           Y           Z
 ---------------------------------------------------------------------
      1          1           0        1.552667    1.669039   -0.000000
      2          8           0        1.454230    0.705077   -0.000000
      3          8           0       -0.000000    0.660283   -0.000000
      4          7           0       -0.261628   -0.746780    0.000000
      5          8           0       -1.419388   -0.920558    0.000000
 ---------------------------------------------------------------------
 Rotational constants (GHZ):          56.1633887           5.0815035           4.6598900
 Leave Link  202 at Mon Feb 14 22:10:54 2022, MaxMem= 16106127360 cpu:               0.3 elap:               0.0
 (Enter /sw/contrib/gaussian/g16/B01/g16/l301.exe)
 Standard basis: Aug-CC-pVTZ (5D, 7F)
 Ernie: Thresh=  0.10000D-02 Tol=  0.10000D-05 Strict=F.
 Ernie:  12 primitive shells out of 131 were deleted.
 There are   166 symmetry adapted cartesian basis functions of A'  symmetry.
 There are    79 symmetry adapted cartesian basis functions of A"  symmetry.
 There are   136 symmetry adapted basis functions of A'  symmetry.
 There are    71 symmetry adapted basis functions of A"  symmetry.
   207 basis functions,   315 primitive gaussians,   245 cartesian basis functions
    16 alpha electrons       16 beta electrons
       nuclear repulsion energy       117.6345946720 Hartrees.
 IExCor=    0 DFT=F Ex=HF Corr=None ExCW=0 ScaHFX=  1.000000
 ScaDFX=  1.000000  1.000000  1.000000  1.000000 ScalE2=  1.000000  1.000000
 IRadAn=      5 IRanWt=     -1 IRanGd=            0 ICorTp=0 IEmpDi=  4
 NAtoms=    5 NActive=    5 NUniq=    5 SFac= 1.00D+00 NAtFMM=   60 NAOKFM=F Big=F
 Integral buffers will be    131072 words long.
 Raffenetti 1 integral format.
 Two-electron integral symmetry is turned on.
 Leave Link  301 at Mon Feb 14 22:10:54 2022, MaxMem= 16106127360 cpu:               1.7 elap:               0.1
 (Enter /sw/contrib/gaussian/g16/B01/g16/l302.exe)
 NPDir=0 NMtPBC=     1 NCelOv=     1 NCel=       1 NClECP=     1 NCelD=      1
         NCelK=      1 NCelE2=     1 NClLst=     1 CellRange=     0.0.
 One-electron integrals computed using PRISM.
 One-electron integral symmetry used in STVInt
 NBasis=   207 RedAO= T EigKep=  1.79D-04  NBF=   136    71
 NBsUse=   207 1.00D-06 EigRej= -1.00D+00 NBFU=   136    71
 Leave Link  302 at Mon Feb 14 22:10:54 2022, MaxMem= 16106127360 cpu:               5.7 elap:               0.2
 (Enter /sw/contrib/gaussian/g16/B01/g16/l303.exe)
 DipDrv:  MaxL=1.
 Leave Link  303 at Mon Feb 14 22:10:54 2022, MaxMem= 16106127360 cpu:               0.8 elap:               0.1
 (Enter /sw/contrib/gaussian/g16/B01/g16/l401.exe)
 ExpMin= 2.53D-02 ExpMax= 1.53D+04 ExpMxC= 5.22D+02 IAcc=3 IRadAn=         5 AccDes= 0.00D+00
 Harris functional with IExCor=  205 and IRadAn=       5 diagonalized for initial guess.
 HarFok:  IExCor=  205 AccDes= 0.00D+00 IRadAn=         5 IDoV= 1 UseB2=F ITyADJ=14
 ICtDFT=  3500011 ScaDFX=  1.000000  1.000000  1.000000  1.000000
 FoFCou: FMM=F IPFlag=           0 FMFlag=      100000 FMFlg1=           0
         NFxFlg=           0 DoJE=T BraDBF=F KetDBF=T FulRan=T
         wScrn=  0.000000 ICntrl=       500 IOpCl=  0 I1Cent=   200000004 NGrid=           0
         NMat0=    1 NMatS0=      1 NMatT0=    0 NMatD0=    1 NMtDS0=    0 NMtDT0=    0
 Petite list used in FoFCou.
 Harris En= -279.629695252247    
 JPrj=0 DoOrth=F DoCkMO=F.
 Initial guess orbital symmetries:
       Occupied  (A') (A') (A') (A') (A') (A') (A') (A') (A') (A')
                 (A") (A') (A') (A") (A") (A')
       Virtual   (A") (A') (A') (A') (A') (A') (A") (A') (A') (A')
                 (A") (A') (A") (A') (A') (A") (A') (A") (A') (A')
                 (A') (A') (A') (A') (A') (A") (A') (A") (A') (A')
                 (A") (A') (A") (A') (A') (A") (A') (A") (A') (A')
                 (A") (A') (A") (A') (A") (A') (A') (A') (A") (A")
                 (A') (A') (A') (A') (A") (A') (A") (A') (A") (A')
                 (A') (A') (A") (A') (A') (A") (A') (A") (A') (A')
                 (A") (A') (A') (A") (A") (A') (A') (A") (A') (A')
                 (A') (A") (A') (A") (A') (A") (A') (A") (A') (A')
                 (A') (A") (A') (A") (A') (A") (A") (A') (A") (A')
                 (A') (A') (A") (A') (A') (A') (A") (A') (A") (A')
                 (A") (A') (A') (A') (A") (A') (A') (A') (A") (A')
                 (A") (A') (A') (A") (A") (A') (A') (A") (A") (A')
                 (A') (A') (A') (A") (A") (A') (A") (A') (A') (A')
                 (A') (A") (A") (A') (A') (A") (A') (A') (A') (A')
                 (A") (A') (A') (A") (A') (A") (A') (A") (A') (A")
                 (A') (A") (A') (A") (A') (A") (A") (A") (A') (A')
                 (A") (A') (A") (A') (A") (A') (A") (A") (A') (A')
                 (A') (A') (A') (A') (A') (A') (A') (A') (A') (A')
                 (A')
 The electronic state of the initial guess is 1-A'.
 Leave Link  401 at Mon Feb 14 22:10:55 2022, MaxMem= 16106127360 cpu:               7.0 elap:               0.3
 (Enter /sw/contrib/gaussian/g16/B01/g16/l502.exe)
 Keep R1 ints in memory in symmetry-blocked form, NReq=348887737.
 FoFCou: FMM=F IPFlag=           0 FMFlag=           0 FMFlg1=           0
         NFxFlg=           0 DoJE=F BraDBF=F KetDBF=F FulRan=T
         wScrn=  0.000000 ICntrl=       600 IOpCl=  0 I1Cent=           0 NGrid=           0
         NMat0=    1 NMatS0=  21528 NMatT0=    0 NMatD0=    1 NMtDS0=    0 NMtDT0=    0
 Petite list used in FoFCou.
 Closed shell SCF:
 Using DIIS extrapolation, IDIIS=  1040.
 NGot= 16106127360 LenX= 15988850015 LenY= 15988789549
 Requested convergence on RMS density matrix=1.00D-08 within 128 cycles.
 Requested convergence on MAX density matrix=1.00D-06.
 Requested convergence on             energy=1.00D-06.
 No special actions if energy rises.

 Cycle   1  Pass 1  IDiag  1:
 E= -279.369794771709    
 DIIS: error= 2.56D-02 at cycle   1 NSaved=   1.
 NSaved= 1 IEnMin= 1 EnMin= -279.369794771709     IErMin= 1 ErrMin= 2.56D-02
 ErrMax= 2.56D-02  0.00D+00 EMaxC= 1.00D-01 BMatC= 4.43D-01 BMatP= 4.43D-01
 IDIUse=3 WtCom= 7.44D-01 WtEn= 2.56D-01
 Coeff-Com:  0.100D+01
 Coeff-En:   0.100D+01
 Coeff:      0.100D+01
 Gap=     0.521 Goal=   None    Shift=    0.000
 GapD=    0.521 DampG=2.000 DampE=0.500 DampFc=1.0000 IDamp=-1.
 RMSDP=1.64D-03 MaxDP=9.72D-02              OVMax= 1.18D-01

 Cycle   2  Pass 1  IDiag  1:
 E= -279.451408190483     Delta-E=       -0.081613418774 Rises=F Damp=F
 DIIS: error= 1.79D-02 at cycle   2 NSaved=   2.
 NSaved= 2 IEnMin= 2 EnMin= -279.451408190483     IErMin= 2 ErrMin= 1.79D-02
 ErrMax= 1.79D-02  0.00D+00 EMaxC= 1.00D-01 BMatC= 7.76D-02 BMatP= 4.43D-01
 IDIUse=3 WtCom= 8.21D-01 WtEn= 1.79D-01
 Coeff-Com:  0.205D+00 0.795D+00
 Coeff-En:   0.308D-01 0.969D+00
 Coeff:      0.174D+00 0.826D+00
 Gap=     0.534 Goal=   None    Shift=    0.000
 RMSDP=9.21D-04 MaxDP=3.80D-02 DE=-8.16D-02 OVMax= 6.65D-02

 Cycle   3  Pass 1  IDiag  1:
 E= -279.483926077841     Delta-E=       -0.032517887358 Rises=F Damp=F
 DIIS: error= 9.69D-03 at cycle   3 NSaved=   3.
 NSaved= 3 IEnMin= 3 EnMin= -279.483926077841     IErMin= 3 ErrMin= 9.69D-03
 ErrMax= 9.69D-03  0.00D+00 EMaxC= 1.00D-01 BMatC= 2.88D-02 BMatP= 7.76D-02
 IDIUse=3 WtCom= 9.03D-01 WtEn= 9.69D-02
 Coeff-Com: -0.338D-01 0.369D+00 0.665D+00
 Coeff-En:   0.000D+00 0.225D+00 0.775D+00
 Coeff:     -0.305D-01 0.355D+00 0.676D+00
 Gap=     0.510 Goal=   None    Shift=    0.000
 RMSDP=3.78D-04 MaxDP=1.49D-02 DE=-3.25D-02 OVMax= 4.04D-02

 Cycle   4  Pass 1  IDiag  1:
 E= -279.503128862923     Delta-E=       -0.019202785083 Rises=F Damp=F
 DIIS: error= 1.26D-03 at cycle   4 NSaved=   4.
 NSaved= 4 IEnMin= 4 EnMin= -279.503128862923     IErMin= 4 ErrMin= 1.26D-03
 ErrMax= 1.26D-03  0.00D+00 EMaxC= 1.00D-01 BMatC= 4.65D-04 BMatP= 2.88D-02
 IDIUse=3 WtCom= 9.87D-01 WtEn= 1.26D-02
 Coeff-Com: -0.110D-01 0.475D-01 0.146D+00 0.817D+00
 Coeff-En:   0.000D+00 0.000D+00 0.000D+00 0.100D+01
 Coeff:     -0.109D-01 0.469D-01 0.144D+00 0.820D+00
 Gap=     0.502 Goal=   None    Shift=    0.000
 RMSDP=8.99D-05 MaxDP=2.68D-03 DE=-1.92D-02 OVMax= 1.06D-02

 Cycle   5  Pass 1  IDiag  1:
 E= -279.503776637394     Delta-E=       -0.000647774471 Rises=F Damp=F
 DIIS: error= 6.86D-04 at cycle   5 NSaved=   5.
 NSaved= 5 IEnMin= 5 EnMin= -279.503776637394     IErMin= 5 ErrMin= 6.86D-04
 ErrMax= 6.86D-04  0.00D+00 EMaxC= 1.00D-01 BMatC= 8.22D-05 BMatP= 4.65D-04
 IDIUse=3 WtCom= 9.93D-01 WtEn= 6.86D-03
 Coeff-Com:  0.595D-02-0.684D-01-0.113D+00 0.298D-01 0.115D+01
 Coeff-En:   0.000D+00 0.000D+00 0.000D+00 0.000D+00 0.100D+01
 Coeff:      0.591D-02-0.679D-01-0.112D+00 0.296D-01 0.114D+01
 Gap=     0.502 Goal=   None    Shift=    0.000
 RMSDP=7.28D-05 MaxDP=2.04D-03 DE=-6.48D-04 OVMax= 1.07D-02

 Cycle   6  Pass 1  IDiag  1:
 E= -279.504065049256     Delta-E=       -0.000288411862 Rises=F Damp=F
 DIIS: error= 2.84D-04 at cycle   6 NSaved=   6.
 NSaved= 6 IEnMin= 6 EnMin= -279.504065049256     IErMin= 6 ErrMin= 2.84D-04
 ErrMax= 2.84D-04  0.00D+00 EMaxC= 1.00D-01 BMatC= 1.58D-05 BMatP= 8.22D-05
 IDIUse=3 WtCom= 9.97D-01 WtEn= 2.84D-03
 Coeff-Com:  0.514D-03 0.234D-02 0.537D-02-0.137D+00-0.217D+00 0.134D+01
 Coeff-En:   0.000D+00 0.000D+00 0.000D+00 0.000D+00 0.000D+00 0.100D+01
 Coeff:      0.513D-03 0.234D-02 0.535D-02-0.136D+00-0.216D+00 0.134D+01
 Gap=     0.502 Goal=   None    Shift=    0.000
 RMSDP=4.29D-05 MaxDP=1.17D-03 DE=-2.88D-04 OVMax= 5.35D-03

 Cycle   7  Pass 1  IDiag  1:
 E= -279.504130880365     Delta-E=       -0.000065831108 Rises=F Damp=F
 DIIS: error= 1.02D-04 at cycle   7 NSaved=   7.
 NSaved= 7 IEnMin= 7 EnMin= -279.504130880365     IErMin= 7 ErrMin= 1.02D-04
 ErrMax= 1.02D-04  0.00D+00 EMaxC= 1.00D-01 BMatC= 3.86D-06 BMatP= 1.58D-05
 IDIUse=3 WtCom= 9.99D-01 WtEn= 1.02D-03
 Coeff-Com: -0.905D-03 0.125D-01 0.248D-01-0.227D-01-0.265D+00 0.336D+00
 Coeff-Com:  0.915D+00
 Coeff-En:   0.000D+00 0.000D+00 0.000D+00 0.000D+00 0.000D+00 0.000D+00
 Coeff-En:   0.100D+01
 Coeff:     -0.904D-03 0.124D-01 0.247D-01-0.227D-01-0.265D+00 0.336D+00
 Coeff:      0.915D+00
 Gap=     0.502 Goal=   None    Shift=    0.000
 RMSDP=1.25D-05 MaxDP=3.54D-04 DE=-6.58D-05 OVMax= 1.49D-03

 Cycle   8  Pass 1  IDiag  1:
 E= -279.504138691767     Delta-E=       -0.000007811402 Rises=F Damp=F
 DIIS: error= 5.61D-05 at cycle   8 NSaved=   8.
 NSaved= 8 IEnMin= 8 EnMin= -279.504138691767     IErMin= 8 ErrMin= 5.61D-05
 ErrMax= 5.61D-05  0.00D+00 EMaxC= 1.00D-01 BMatC= 5.50D-07 BMatP= 3.86D-06
 IDIUse=1 WtCom= 1.00D+00 WtEn= 0.00D+00
 Coeff-Com: -0.413D-03 0.306D-02 0.695D-02 0.267D-01-0.417D-01-0.191D+00
 Coeff-Com:  0.203D+00 0.993D+00
 Coeff:     -0.413D-03 0.306D-02 0.695D-02 0.267D-01-0.417D-01-0.191D+00
 Coeff:      0.203D+00 0.993D+00
 Gap=     0.502 Goal=   None    Shift=    0.000
 RMSDP=6.14D-06 MaxDP=1.88D-04 DE=-7.81D-06 OVMax= 6.63D-04

 Cycle   9  Pass 1  IDiag  1:
 E= -279.504140200193     Delta-E=       -0.000001508427 Rises=F Damp=F
 DIIS: error= 1.60D-05 at cycle   9 NSaved=   9.
 NSaved= 9 IEnMin= 9 EnMin= -279.504140200193     IErMin= 9 ErrMin= 1.60D-05
 ErrMax= 1.60D-05  0.00D+00 EMaxC= 1.00D-01 BMatC= 6.85D-08 BMatP= 5.50D-07
 IDIUse=1 WtCom= 1.00D+00 WtEn= 0.00D+00
 Coeff-Com:  0.109D-03-0.156D-02-0.279D-02-0.877D-03 0.329D-01-0.582D-02
 Coeff-Com: -0.176D+00-0.571D-01 0.121D+01
 Coeff:      0.109D-03-0.156D-02-0.279D-02-0.877D-03 0.329D-01-0.582D-02
 Coeff:     -0.176D+00-0.571D-01 0.121D+01
 Gap=     0.502 Goal=   None    Shift=    0.000
 RMSDP=1.85D-06 MaxDP=6.37D-05 DE=-1.51D-06 OVMax= 1.73D-04

 Cycle  10  Pass 1  IDiag  1:
 E= -279.504140353575     Delta-E=       -0.000000153381 Rises=F Damp=F
 DIIS: error= 4.25D-06 at cycle  10 NSaved=  10.
 NSaved=10 IEnMin=10 EnMin= -279.504140353575     IErMin=10 ErrMin= 4.25D-06
 ErrMax= 4.25D-06  0.00D+00 EMaxC= 1.00D-01 BMatC= 5.70D-09 BMatP= 6.85D-08
 IDIUse=1 WtCom= 1.00D+00 WtEn= 0.00D+00
 Coeff-Com:  0.338D-04-0.268D-03-0.388D-03-0.291D-02 0.250D-02 0.210D-01
 Coeff-Com: -0.202D-01-0.787D-01-0.681D-01 0.115D+01
 Coeff:      0.338D-04-0.268D-03-0.388D-03-0.291D-02 0.250D-02 0.210D-01
 Coeff:     -0.202D-01-0.787D-01-0.681D-01 0.115D+01
 Gap=     0.502 Goal=   None    Shift=    0.000
 RMSDP=5.18D-07 MaxDP=2.16D-05 DE=-1.53D-07 OVMax= 4.51D-05

 Cycle  11  Pass 1  IDiag  1:
 E= -279.504140366815     Delta-E=       -0.000000013240 Rises=F Damp=F
 DIIS: error= 2.01D-06 at cycle  11 NSaved=  11.
 NSaved=11 IEnMin=11 EnMin= -279.504140366815     IErMin=11 ErrMin= 2.01D-06
 ErrMax= 2.01D-06  0.00D+00 EMaxC= 1.00D-01 BMatC= 6.81D-10 BMatP= 5.70D-09
 IDIUse=1 WtCom= 1.00D+00 WtEn= 0.00D+00
 Coeff-Com: -0.212D-04 0.238D-03 0.482D-03 0.525D-03-0.449D-02-0.351D-02
 Coeff-Com:  0.239D-01 0.295D-01-0.140D+00-0.206D+00 0.130D+01
 Coeff:     -0.212D-04 0.238D-03 0.482D-03 0.525D-03-0.449D-02-0.351D-02
 Coeff:      0.239D-01 0.295D-01-0.140D+00-0.206D+00 0.130D+01
 Gap=     0.502 Goal=   None    Shift=    0.000
 RMSDP=1.87D-07 MaxDP=7.06D-06 DE=-1.32D-08 OVMax= 1.74D-05

 Cycle  12  Pass 1  IDiag  1:
 E= -279.504140368714     Delta-E=       -0.000000001899 Rises=F Damp=F
 DIIS: error= 5.50D-07 at cycle  12 NSaved=  12.
 NSaved=12 IEnMin=12 EnMin= -279.504140368714     IErMin=12 ErrMin= 5.50D-07
 ErrMax= 5.50D-07  0.00D+00 EMaxC= 1.00D-01 BMatC= 6.57D-11 BMatP= 6.81D-10
 IDIUse=1 WtCom= 1.00D+00 WtEn= 0.00D+00
 Coeff-Com:  0.970D-06-0.252D-04-0.554D-04 0.214D-03 0.993D-03-0.236D-02
 Coeff-Com: -0.396D-02 0.622D-02 0.403D-01-0.102D+00-0.285D+00 0.135D+01
 Coeff:      0.970D-06-0.252D-04-0.554D-04 0.214D-03 0.993D-03-0.236D-02
 Coeff:     -0.396D-02 0.622D-02 0.403D-01-0.102D+00-0.285D+00 0.135D+01
 Gap=     0.502 Goal=   None    Shift=    0.000
 RMSDP=7.04D-08 MaxDP=2.78D-06 DE=-1.90D-09 OVMax= 6.17D-06

 Cycle  13  Pass 1  IDiag  1:
 E= -279.504140368923     Delta-E=       -0.000000000209 Rises=F Damp=F
 DIIS: error= 1.55D-07 at cycle  13 NSaved=  13.
 NSaved=13 IEnMin=13 EnMin= -279.504140368923     IErMin=13 ErrMin= 1.55D-07
 ErrMax= 1.55D-07  0.00D+00 EMaxC= 1.00D-01 BMatC= 3.29D-12 BMatP= 6.57D-11
 IDIUse=1 WtCom= 1.00D+00 WtEn= 0.00D+00
 Coeff-Com:  0.122D-05-0.131D-04-0.218D-04-0.851D-04 0.140D-03 0.697D-03
 Coeff-Com: -0.100D-02-0.297D-02 0.727D-03 0.369D-01-0.319D-01-0.298D+00
 Coeff-Com:  0.130D+01
 Coeff:      0.122D-05-0.131D-04-0.218D-04-0.851D-04 0.140D-03 0.697D-03
 Coeff:     -0.100D-02-0.297D-02 0.727D-03 0.369D-01-0.319D-01-0.298D+00
 Coeff:      0.130D+01
 Gap=     0.502 Goal=   None    Shift=    0.000
 RMSDP=1.74D-08 MaxDP=4.73D-07 DE=-2.09D-10 OVMax= 1.41D-06

 Cycle  14  Pass 1  IDiag  1:
 E= -279.504140368933     Delta-E=       -0.000000000010 Rises=F Damp=F
 DIIS: error= 2.09D-08 at cycle  14 NSaved=  14.
 NSaved=14 IEnMin=14 EnMin= -279.504140368933     IErMin=14 ErrMin= 2.09D-08
 ErrMax= 2.09D-08  0.00D+00 EMaxC= 1.00D-01 BMatC= 1.57D-13 BMatP= 3.29D-12
 IDIUse=1 WtCom= 1.00D+00 WtEn= 0.00D+00
 Coeff-Com: -0.160D-06 0.264D-05 0.475D-05 0.278D-05-0.749D-04 0.467D-04
 Coeff-Com:  0.287D-03 0.153D-03-0.224D-02 0.106D-02 0.159D-01-0.261D-01
 Coeff-Com: -0.189D+00 0.120D+01
 Coeff:     -0.160D-06 0.264D-05 0.475D-05 0.278D-05-0.749D-04 0.467D-04
 Coeff:      0.287D-03 0.153D-03-0.224D-02 0.106D-02 0.159D-01-0.261D-01
 Coeff:     -0.189D+00 0.120D+01
 Gap=     0.502 Goal=   None    Shift=    0.000
 RMSDP=3.45D-09 MaxDP=8.67D-08 DE=-1.03D-11 OVMax= 3.10D-07

 SCF Done:  E(RHF) =  -279.504140369     A.U. after   14 cycles
            NFock= 14  Conv=0.34D-08     -V/T= 2.0022
 KE= 2.788923355601D+02 PE=-8.966036530160D+02 EE= 2.205725824150D+02
 Leave Link  502 at Mon Feb 14 22:10:58 2022, MaxMem= 16106127360 cpu:              54.7 elap:               3.5
 (Enter /sw/contrib/gaussian/g16/B01/g16/l801.exe)
 ExpMin= 2.53D-02 ExpMax= 1.53D+04 ExpMxC= 5.22D+02 IAcc=3 IRadAn=         5 AccDes= 0.00D+00
 HarFok:  IExCor=  205 AccDes= 0.00D+00 IRadAn=         5 IDoV=-2 UseB2=F ITyADJ=14
 ICtDFT= 12500011 ScaDFX=  1.000000  1.000000  1.000000  1.000000
 Largest valence mixing into a core orbital is  2.07D-04
 Largest core mixing into a valence orbital is  3.54D-05
 Range of M.O.s used for correlation:     5   207
 NBasis=   207 NAE=    16 NBE=    16 NFC=     4 NFV=     0
 NROrb=    203 NOA=    12 NOB=    12 NVA=   191 NVB=   191

 **** Warning!!: The largest alpha MO coefficient is  0.17985424D+02

 Leave Link  801 at Mon Feb 14 22:10:58 2022, MaxMem= 16106127360 cpu:               2.0 elap:               0.1
 (Enter /sw/contrib/gaussian/g16/B01/g16/l906.exe)
 Frozen-core derivative calculation, NFC=   4 NFV=   0.
 FulOut=F Deriv=T AODrv=F NAtomX=     5
   MMem=          76  MDisk=          12 MDiskD=          12
  W3Min=      811440 MinDsk=     1524655 NBas6D=         245
 NBas2D=       30762    NTT=       30135    LW2=     3500000
    MDV= 16105579787 MDiskM=      328644 NBas2p=       30466
 Fully in-core method, ICMem=   960157634.
 IMap=   1   2   3   4   5   6   7   8   9  10  11  12  13  14  15  16
 JobTyp=1 Pass  1 fully in-core, NPsUse= 28.
 Compute canonical integrals.
 FoFCou: FMM=F IPFlag=           0 FMFlag=           0 FMFlg1=           0
         NFxFlg=           0 DoJE=F BraDBF=F KetDBF=F FulRan=T
         wScrn=  0.000000 ICntrl=       600 IOpCl=  1 I1Cent=           0 NGrid=           0
         NMat0=    1 NMatS0=  30762 NMatT0=    0 NMatD0=    1 NMtDS0=    0 NMtDT0=    0
 Symmetry not used in FoFCou.
 Spin components of T(2) and E(2):
     alpha-alpha T2 =       0.3369842350D-01 E2=     -0.1221005277D+00
     alpha-beta  T2 =       0.1849443578D+00 E2=     -0.6982265151D+00
     beta-beta   T2 =       0.3369842350D-01 E2=     -0.1221005277D+00
 The integrals were generated   1 times.
 ANorm=    0.1119080518D+01
 E2 =    -0.9424275705D+00 EUMP2 =    -0.28044656793946D+03
 Leave Link  906 at Mon Feb 14 22:11:07 2022, MaxMem= 16106127360 cpu:             246.2 elap:               8.9
 (Enter /sw/contrib/gaussian/g16/B01/g16/l1002.exe)
 Minotr:  Closed shell wavefunction.
          Computing MP2/KS-MP2 derivatives.
          Using Z-Vector for PSCF gradient.
          Skipping F1 and S1 gradient terms here.
          Frozen-core window.
          Direct CPHF calculation.
          Differentiating once with respect to electric field.
                with respect to dipole field.
          Electric field/nuclear overlap derivatives assumed to be zero.
          Using symmetry in CPHF.
          Requested convergence is 1.0D-10 RMS, and 1.0D-09 maximum.
          NewPWx=F KeepS1=T KeepF1=T KeepIn=T MapXYZ=F SortEE=F KeepMc=T.
 Keep R1 ints in memory in symmetry-blocked form, NReq=348888868.
 FoFCou: FMM=F IPFlag=           0 FMFlag=           0 FMFlg1=           0
         NFxFlg=           0 DoJE=F BraDBF=F KetDBF=F FulRan=T
         wScrn=  0.000000 ICntrl=       600 IOpCl=  0 I1Cent=           0 NGrid=           0
         NMat0=    1 NMatS0=  21528 NMatT0=    0 NMatD0=    1 NMtDS0=    0 NMtDT0=    0
 Petite list used in FoFCou.
          MDV=   16106127360 using IRadAn=       5.
          Solving linear equations separately, MaxMat=       0.
          There are     1 degrees of freedom in the 1st order CPHF.  IDoFFX=0 NUNeed=     1.
 LinEq1:  Iter=  0 NonCon=     1 RMS=5.85D-03 Max=1.33D-01 NDo=     1
 AX will form     1 AO Fock derivatives at one time.
 LinEq1:  Iter=  1 NonCon=     1 RMS=1.82D-03 Max=3.60D-02 NDo=     1
 LinEq1:  Iter=  2 NonCon=     1 RMS=8.28D-04 Max=1.16D-02 NDo=     1
 LinEq1:  Iter=  3 NonCon=     1 RMS=3.67D-04 Max=7.77D-03 NDo=     1
 LinEq1:  Iter=  4 NonCon=     1 RMS=1.13D-04 Max=1.41D-03 NDo=     1
 LinEq1:  Iter=  5 NonCon=     1 RMS=4.36D-05 Max=6.96D-04 NDo=     1
 LinEq1:  Iter=  6 NonCon=     1 RMS=1.96D-05 Max=2.22D-04 NDo=     1
 LinEq1:  Iter=  7 NonCon=     1 RMS=7.72D-06 Max=1.41D-04 NDo=     1
 LinEq1:  Iter=  8 NonCon=     1 RMS=3.31D-06 Max=3.00D-05 NDo=     1
 LinEq1:  Iter=  9 NonCon=     1 RMS=8.91D-07 Max=1.13D-05 NDo=     1
 LinEq1:  Iter= 10 NonCon=     1 RMS=1.70D-07 Max=1.76D-06 NDo=     1
 LinEq1:  Iter= 11 NonCon=     1 RMS=3.09D-08 Max=3.07D-07 NDo=     1
 LinEq1:  Iter= 12 NonCon=     1 RMS=7.44D-09 Max=1.11D-07 NDo=     1
 LinEq1:  Iter= 13 NonCon=     1 RMS=1.37D-09 Max=2.21D-08 NDo=     1
 LinEq1:  Iter= 14 NonCon=     1 RMS=2.43D-10 Max=3.11D-09 NDo=     1
 LinEq1:  Iter= 15 NonCon=     0 RMS=4.42D-11 Max=4.52D-10 NDo=     1
 Linear equations converged to 1.000D-10 1.000D-09 after    15 iterations.
 End of Minotr F.D. properties file   721 does not exist.
 End of Minotr F.D. properties file   722 does not exist.
 End of Minotr F.D. properties file   788 does not exist.
 Leave Link 1002 at Mon Feb 14 22:11:11 2022, MaxMem= 16106127360 cpu:              54.4 elap:               4.0
 (Enter /sw/contrib/gaussian/g16/B01/g16/l601.exe)
 Copying SCF densities to generalized density rwf, IOpCl= 0 IROHF=0.

 **********************************************************************

            Population analysis using the MP2 Density.

 **********************************************************************

 Orbital symmetries:
       Occupied  (A') (A') (A') (A') (A') (A') (A') (A') (A') (A')
                 (A") (A') (A") (A') (A") (A')
       Virtual   (A') (A") (A') (A') (A') (A") (A') (A') (A") (A')
                 (A") (A') (A') (A') (A") (A') (A') (A") (A') (A')
                 (A') (A') (A') (A') (A") (A') (A') (A") (A') (A')
                 (A") (A') (A") (A') (A') (A") (A') (A") (A') (A")
                 (A') (A') (A") (A') (A') (A") (A') (A') (A") (A')
                 (A") (A') (A') (A') (A") (A') (A") (A') (A") (A')
                 (A') (A') (A") (A') (A') (A") (A') (A") (A') (A')
                 (A") (A') (A') (A") (A") (A') (A') (A") (A') (A')
                 (A') (A") (A') (A") (A") (A') (A') (A") (A') (A')
                 (A") (A') (A') (A") (A') (A") (A') (A") (A') (A')
                 (A") (A') (A") (A') (A') (A') (A") (A') (A") (A')
                 (A") (A') (A') (A') (A") (A') (A') (A') (A") (A')
                 (A") (A') (A") (A') (A') (A") (A") (A') (A") (A')
                 (A') (A') (A') (A") (A") (A") (A') (A') (A') (A')
                 (A") (A') (A") (A') (A') (A") (A') (A') (A') (A')
                 (A") (A') (A') (A") (A') (A") (A') (A") (A') (A")
                 (A') (A") (A') (A") (A') (A") (A") (A') (A") (A')
                 (A") (A') (A") (A') (A") (A') (A") (A") (A') (A')
                 (A') (A') (A') (A') (A') (A') (A') (A') (A') (A')
                 (A')
 The electronic state is 1-A'.
 Alpha  occ. eigenvalues --  -20.69556 -20.67769 -20.66335 -15.80842  -1.62606
 Alpha  occ. eigenvalues --   -1.49943  -1.26277  -0.94612  -0.77506  -0.76259
 Alpha  occ. eigenvalues --   -0.71684  -0.67795  -0.61898  -0.59083  -0.48797
 Alpha  occ. eigenvalues --   -0.47346
 Alpha virt. eigenvalues --    0.02887   0.07525   0.08642   0.10201   0.13371
 Alpha virt. eigenvalues --    0.13407   0.14352   0.15399   0.17765   0.19420
 Alpha virt. eigenvalues --    0.19996   0.20963   0.21995   0.23418   0.23773
 Alpha virt. eigenvalues --    0.26613   0.30220   0.30329   0.31406   0.34548
 Alpha virt. eigenvalues --    0.35107   0.38893   0.42095   0.43075   0.52865
 Alpha virt. eigenvalues --    0.53039   0.56161   0.58313   0.62795   0.63995
 Alpha virt. eigenvalues --    0.67522   0.68434   0.70532   0.71052   0.72382
 Alpha virt. eigenvalues --    0.72755   0.74379   0.79105   0.79335   0.81082
 Alpha virt. eigenvalues --    0.81143   0.83203   0.87026   0.90839   0.92091
 Alpha virt. eigenvalues --    0.92835   0.95399   0.98139   0.98356   1.01423
 Alpha virt. eigenvalues --    1.05331   1.05618   1.08500   1.11977   1.14410
 Alpha virt. eigenvalues --    1.19093   1.22151   1.23343   1.34201   1.35563
 Alpha virt. eigenvalues --    1.38305   1.45769   1.48794   1.50764   1.53982
 Alpha virt. eigenvalues --    1.57012   1.58517   1.61468   1.66596   1.67021
 Alpha virt. eigenvalues --    1.70585   1.79333   1.83281   1.83949   1.87771
 Alpha virt. eigenvalues --    1.91352   1.95636   1.99773   2.00796   2.08674
 Alpha virt. eigenvalues --    2.12390   2.13589   2.14614   2.22984   2.26265
 Alpha virt. eigenvalues --    2.26445   2.29454   2.31514   2.35102   2.38590
 Alpha virt. eigenvalues --    2.42840   2.43508   2.45809   2.46627   2.48110
 Alpha virt. eigenvalues --    2.50556   2.58705   2.59891   2.62691   2.62766
 Alpha virt. eigenvalues --    2.63250   2.67104   2.76218   2.83676   2.86770
 Alpha virt. eigenvalues --    2.89240   2.89443   2.94634   2.95941   3.03591
 Alpha virt. eigenvalues --    3.07856   3.13077   3.20050   3.23376   3.32161
 Alpha virt. eigenvalues --    3.34991   3.52131   3.65387   3.85151   3.85194
 Alpha virt. eigenvalues --    4.14882   4.15758   4.18841   4.27007   4.35146
 Alpha virt. eigenvalues --    4.39446   4.46185   4.52259   4.67182   4.71405
 Alpha virt. eigenvalues --    4.81025   4.82518   4.84712   4.89845   5.03244
 Alpha virt. eigenvalues --    5.08580   5.11295   5.14379   5.18673   5.24993
 Alpha virt. eigenvalues --    5.28171   5.31430   5.33286   5.36683   5.61200
 Alpha virt. eigenvalues --    5.67866   5.78522   5.82729   5.96396   6.18058
 Alpha virt. eigenvalues --    6.30919   6.34910   6.40146   6.50014   6.51137
 Alpha virt. eigenvalues --    6.61485   6.66656   6.71026   6.75518   6.76290
 Alpha virt. eigenvalues --    6.84005   6.90786   7.02108   7.05466   7.06136
 Alpha virt. eigenvalues --    7.08982   7.13297   7.15759   7.18281   7.23718
 Alpha virt. eigenvalues --    7.23993   7.30263   7.33002   7.35468   7.40769
 Alpha virt. eigenvalues --    7.44421   7.49204   7.61309   7.62977   7.65070
 Alpha virt. eigenvalues --    7.68330   7.79988   7.89525   8.12640   8.32644
 Alpha virt. eigenvalues --    8.40896   8.55794  13.47132  14.55058  15.18633
 Alpha virt. eigenvalues --   16.20867
          Condensed to atoms (all electrons):
               1          2          3          4          5
     1  H    0.589069   0.128210   0.020268   0.012607  -0.000628
     2  O    0.128210   8.322071  -0.171296  -0.095520   0.016242
     3  O    0.020268  -0.171296   8.462250  -0.137802  -0.044487
     4  N    0.012607  -0.095520  -0.137802   6.996692  -0.059419
     5  O   -0.000628   0.016242  -0.044487  -0.059419   8.293567
 Mulliken charges:
               1
     1  H    0.250473
     2  O   -0.199707
     3  O   -0.128934
     4  N    0.283443
     5  O   -0.205275
 Sum of Mulliken charges =  -0.00000
 Mulliken charges with hydrogens summed into heavy atoms:
               1
     2  O    0.050766
     3  O   -0.128934
     4  N    0.283443
     5  O   -0.205275
 Electronic spatial extent (au):  <R**2>=            250.0499
 Charge=             -0.0000 electrons
 Dipole moment (field-independent basis, Debye):
    X=              0.6347    Y=              1.5178    Z=             -0.0000  Tot=              1.6452
 Quadrupole moment (field-independent basis, Debye-Ang):
   XX=            -22.5169   YY=            -18.7319   ZZ=            -21.9705
   XY=              3.2037   XZ=              0.0000   YZ=             -0.0000
 Traceless Quadrupole moment (field-independent basis, Debye-Ang):
   XX=             -1.4438   YY=              2.3412   ZZ=             -0.8974
   XY=              3.2037   XZ=              0.0000   YZ=             -0.0000
 Octapole moment (field-independent basis, Debye-Ang**2):
  XXX=              3.4040  YYY=             11.3420  ZZZ=              0.0000  XYY=              7.9513
  XXY=              6.8012  XXZ=             -0.0000  XZZ=             -1.5313  YZZ=             -0.7489
  YYZ=             -0.0000  XYZ=             -0.0000
 Hexadecapole moment (field-independent basis, Debye-Ang**3):
 XXXX=           -158.6014 YYYY=            -87.0492 ZZZZ=            -18.1603 XXXY=            -35.7862
 XXXZ=              0.0000 YYYX=            -30.2841 YYYZ=              0.0000 ZZZX=              0.0000
 ZZZY=              0.0000 XXYY=            -33.6339 XXZZ=            -30.8887 YYZZ=            -20.0900
 XXYZ=              0.0000 YYXZ=              0.0000 ZZXY=            -14.7606
 N-N= 1.176345946720D+02 E-N=-8.973647060665D+02  KE= 2.802335078443D+02
 Symmetry A'   KE= 2.662520928967D+02
 Symmetry A"   KE= 1.398141494766D+01
 No NMR shielding tensors so no spin-rotation constants.
 Leave Link  601 at Mon Feb 14 22:11:11 2022, MaxMem= 16106127360 cpu:               4.6 elap:               0.2
 (Enter /sw/contrib/gaussian/g16/B01/g16/l9999.exe)
 1\1\GINC-N2131\SP\RMP2-FC\Aug-CC-pVTZ\H1N1O3\CGAVINH\14-Feb-2022\0\\#p
  SP mp2/aug-cc-pvtz density=current\\title\\0,1\H\O,1,0.96897556\O,2,1
 .45491931,1,97.59494903\N,3,1.4311797111,2,102.29752444,1,180.,0\O,4,1
 .17072885,3,109.06955123,2,180.,0\\Version=ES64L-G16RevB.01\State=1-A'
 \HF=-279.5041404\MP2=-280.4465679\RMSD=3.446e-09\Dipole=-0.187745,0.,-
 0.6194397\Quadrupole=-1.5258087,-0.6671837,2.1929925,0.,2.0482818,0.\P
 G=CS [SG(H1N1O3)]\\@


 I WISH TO HAVE NO CONNECTION WITH ANY SHIP THAT DOES NOT SAIL FAST,
 FOR I INTEND TO GO IN HARM'S WAY.
     -- JOHN PAUL JONES, USN 1747-1792
 Job cpu time:       0 days  0 hours  6 minutes 23.9 seconds.
 Elapsed time:       0 days  0 hours  0 minutes 17.8 seconds.
 File lengths (MBytes):  RWF=     22 Int=      0 D2E=      0 Chk=      8 Scr=      1
 Normal termination of Gaussian 16 at Mon Feb 14 22:11:11 2022.
