title                                                                   
SP        RMP2-FC                                                     Aug-CC-pVTZ         
Number of atoms                            I                5
Info1-9                                    I   N=           9
          33          24           0           0           0         110
           1           2           1
Full Title                                 C   N=           1
title       
Route                                      C   N=           4
#p SP mp2/aug-cc-pvtz density=current           
Charge                                     I                0
Multiplicity                               I                1
Number of electrons                        I               32
Number of alpha electrons                  I               16
Number of beta electrons                   I               16
Number of basis functions                  I              207
Number of independent functions            I              207
Number of point charges in /Mol/           I                0
Number of translation vectors              I                0
Atomic numbers                             I   N=           5
           1           8           8           7           8
Nuclear charges                            R   N=           5
  1.00000000E+00  8.00000000E+00  8.00000000E+00  7.00000000E+00  8.00000000E+00
Current cartesian coordinates              R   N=          15
  2.87941650E+00  3.20905573E+00 -1.33182322E-31  2.71336241E+00  1.38550220E+00
 -1.38888274E-30  1.34166147E-16  1.27216269E+00  1.87050514E-31 -4.74223742E-01
 -1.44344400E+00 -2.49329381E-31 -2.65834370E+00 -1.79578336E+00  8.86876183E-31
Number of symbols in /Mol/                 I                0
Force Field                                I                0
Atom Types                                 C   N=           5
                                                            
Int Atom Types                             I   N=           5
           0           0           0           0           0
MM charges                                 R   N=           5
  0.00000000E+00  0.00000000E+00  0.00000000E+00  0.00000000E+00  0.00000000E+00
Integer atomic weights                     I   N=           5
           1          16          16          14          16
Real atomic weights                        R   N=           5
  1.00782504E+00  1.59949146E+01  1.59949146E+01  1.40030740E+01  1.59949146E+01
Atom fragment info                         I   N=           5
           0           0           0           0           0
Atom residue num                           I   N=           5
           0           0           0           0           0
Nuclear spins                              I   N=           5
           1           0           0           2           0
Nuclear ZEff                               R   N=           5
 -1.00000000E+00 -5.60000000E+00 -5.60000000E+00 -4.55000000E+00 -5.60000000E+00
Nuclear ZNuc                               R   N=           5
  1.00000000E+00  8.00000000E+00  8.00000000E+00  7.00000000E+00  8.00000000E+00
Nuclear QMom                               R   N=           5
  0.00000000E+00  0.00000000E+00  0.00000000E+00  2.04400000E+00  0.00000000E+00
Nuclear GFac                               R   N=           5
  2.79284600E+00  0.00000000E+00  0.00000000E+00  4.03761000E-01  0.00000000E+00
MicOpt                                     I   N=           5
          -1          -1          -1          -1          -1
Number of residues                         I                0
Number of secondary structures             I                0
SymInf integers                            I   N=          26
           1           2           1           1           1           1
           1          -1           0           0           0           0
           0           0           0           0           0           0
           0           0           0           0           0           0
           0           0
RotTr to input orientation                 R   N=          12
 -9.95879581E-01 -8.81179113E-16 -9.06855061E-02  9.06855061E-02  7.75098497E-16
 -9.95879581E-01  9.47838485E-16 -1.00000000E+00 -6.91994592E-16  2.57653725E+00
  0.00000000E+00  3.45695442E+00
Number of contracted shells                I               65
Number of primitive shells                 I              119
Pure/Cartesian d shells                    I                0
Pure/Cartesian f shells                    I                0
Highest angular momentum                   I                3
Largest degree of contraction              I                7
Shell types                                I   N=          65
           0           0           0           0           1           1
           1          -2          -2           0           0           0
           0           0           1           1           1           1
          -2          -2          -2          -3          -3           0
           0           0           0           0           1           1
           1           1          -2          -2          -2          -3
          -3           0           0           0           0           0
           1           1           1           1          -2          -2
          -2          -3          -3           0           0           0
           0           0           1           1           1           1
          -2          -2          -2          -3          -3
Number of primitives per shell             I   N=          65
           3           1           1           1           1           1
           1           1           1           7           6           1
           1           1           3           1           1           1
           1           1           1           1           1           7
           6           1           1           1           3           1
           1           1           1           1           1           1
           1           7           6           1           1           1
           3           1           1           1           1           1
           1           1           1           7           6           1
           1           1           3           1           1           1
           1           1           1           1           1
Shell to atom map                          I   N=          65
           1           1           1           1           1           1
           1           1           1           2           2           2
           2           2           2           2           2           2
           2           2           2           2           2           3
           3           3           3           3           3           3
           3           3           3           3           3           3
           3           4           4           4           4           4
           4           4           4           4           4           4
           4           4           4           5           5           5
           5           5           5           5           5           5
           5           5           5           5           5
Primitive exponents                        R   N=         119
  3.38700000E+01  5.09500000E+00  1.15900000E+00  3.25800000E-01  1.02700000E-01
  2.52600000E-02  1.40700000E+00  3.88000000E-01  1.02000000E-01  1.05700000E+00
  2.47000000E-01  1.53300000E+04  2.29900000E+03  5.22400000E+02  1.47300000E+02
  4.75500000E+01  1.67600000E+01  6.20700000E+00  5.22400000E+02  1.47300000E+02
  4.75500000E+01  1.67600000E+01  6.20700000E+00  6.88200000E-01  1.75200000E+00
  2.38400000E-01  7.37600000E-02  3.44600000E+01  7.74900000E+00  2.28000000E+00
  7.15600000E-01  2.14000000E-01  5.97400000E-02  2.31400000E+00  6.45000000E-01
  2.14000000E-01  1.42800000E+00  5.00000000E-01  1.53300000E+04  2.29900000E+03
  5.22400000E+02  1.47300000E+02  4.75500000E+01  1.67600000E+01  6.20700000E+00
  5.22400000E+02  1.47300000E+02  4.75500000E+01  1.67600000E+01  6.20700000E+00
  6.88200000E-01  1.75200000E+00  2.38400000E-01  7.37600000E-02  3.44600000E+01
  7.74900000E+00  2.28000000E+00  7.15600000E-01  2.14000000E-01  5.97400000E-02
  2.31400000E+00  6.45000000E-01  2.14000000E-01  1.42800000E+00  5.00000000E-01
  1.14200000E+04  1.71200000E+03  3.89300000E+02  1.10000000E+02  3.55700000E+01
  1.25400000E+01  4.64400000E+00  3.89300000E+02  1.10000000E+02  3.55700000E+01
  1.25400000E+01  4.64400000E+00  5.11800000E-01  1.29300000E+00  1.78700000E-01
  5.76000000E-02  2.66300000E+01  5.94800000E+00  1.74200000E+00  5.55000000E-01
  1.72500000E-01  4.91000000E-02  1.65400000E+00  4.69000000E-01  1.51000000E-01
  1.09300000E+00  3.64000000E-01  1.53300000E+04  2.29900000E+03  5.22400000E+02
  1.47300000E+02  4.75500000E+01  1.67600000E+01  6.20700000E+00  5.22400000E+02
  1.47300000E+02  4.75500000E+01  1.67600000E+01  6.20700000E+00  6.88200000E-01
  1.75200000E+00  2.38400000E-01  7.37600000E-02  3.44600000E+01  7.74900000E+00
  2.28000000E+00  7.15600000E-01  2.14000000E-01  5.97400000E-02  2.31400000E+00
  6.45000000E-01  2.14000000E-01  1.42800000E+00  5.00000000E-01
Contraction coefficients                   R   N=         119
  2.54948632E-02  1.90362766E-01  8.52162022E-01  1.00000000E+00  1.00000000E+00
  1.00000000E+00  1.00000000E+00  1.00000000E+00  1.00000000E+00  1.00000000E+00
  1.00000000E+00  5.19808943E-04  4.02025621E-03  2.07128267E-02  8.10105536E-02
  2.35962985E-01  4.42653446E-01  3.57064423E-01 -4.42115008E-05 -1.22591041E-03
 -1.05517725E-02 -6.74452633E-02 -1.71198607E-01  1.07329856E+00  1.00000000E+00
  1.00000000E+00  1.00000000E+00  4.11634896E-02  2.57762836E-01  8.02419274E-01
  1.00000000E+00  1.00000000E+00  1.00000000E+00  1.00000000E+00  1.00000000E+00
  1.00000000E+00  1.00000000E+00  1.00000000E+00  5.19808943E-04  4.02025621E-03
  2.07128267E-02  8.10105536E-02  2.35962985E-01  4.42653446E-01  3.57064423E-01
 -4.42115008E-05 -1.22591041E-03 -1.05517725E-02 -6.74452633E-02 -1.71198607E-01
  1.07329856E+00  1.00000000E+00  1.00000000E+00  1.00000000E+00  4.11634896E-02
  2.57762836E-01  8.02419274E-01  1.00000000E+00  1.00000000E+00  1.00000000E+00
  1.00000000E+00  1.00000000E+00  1.00000000E+00  1.00000000E+00  1.00000000E+00
  5.34563860E-04  4.13435660E-03  2.12335358E-02  8.25006224E-02  2.38138871E-01
  4.42551547E-01  3.53757422E-01 -4.89867350E-05 -1.19527323E-03 -1.03490714E-02
 -6.48680190E-02 -1.71552477E-01  1.07289568E+00  1.00000000E+00  1.00000000E+00
  1.00000000E+00  3.98072123E-02  2.49002660E-01  8.10479727E-01  1.00000000E+00
  1.00000000E+00  1.00000000E+00  1.00000000E+00  1.00000000E+00  1.00000000E+00
  1.00000000E+00  1.00000000E+00  5.19808943E-04  4.02025621E-03  2.07128267E-02
  8.10105536E-02  2.35962985E-01  4.42653446E-01  3.57064423E-01 -4.42115008E-05
 -1.22591041E-03 -1.05517725E-02 -6.74452633E-02 -1.71198607E-01  1.07329856E+00
  1.00000000E+00  1.00000000E+00  1.00000000E+00  4.11634896E-02  2.57762836E-01
  8.02419274E-01  1.00000000E+00  1.00000000E+00  1.00000000E+00  1.00000000E+00
  1.00000000E+00  1.00000000E+00  1.00000000E+00  1.00000000E+00
Coordinates of each shell                  R   N=         195
  2.87941650E+00  3.20905573E+00 -1.82255466E-31  2.87941650E+00  3.20905573E+00
 -1.82255466E-31  2.87941650E+00  3.20905573E+00 -1.82255466E-31  2.87941650E+00
  3.20905573E+00 -1.82255466E-31  2.87941650E+00  3.20905573E+00 -1.82255466E-31
  2.87941650E+00  3.20905573E+00 -1.82255466E-31  2.87941650E+00  3.20905573E+00
 -1.82255466E-31  2.87941650E+00  3.20905573E+00 -1.82255466E-31  2.87941650E+00
  3.20905573E+00 -1.82255466E-31  2.71336241E+00  1.38550220E+00 -4.93881373E-31
  2.71336241E+00  1.38550220E+00 -4.93881373E-31  2.71336241E+00  1.38550220E+00
 -4.93881373E-31  2.71336241E+00  1.38550220E+00 -4.93881373E-31  2.71336241E+00
  1.38550220E+00 -4.93881373E-31  2.71336241E+00  1.38550220E+00 -4.93881373E-31
  2.71336241E+00  1.38550220E+00 -4.93881373E-31  2.71336241E+00  1.38550220E+00
 -4.93881373E-31  2.71336241E+00  1.38550220E+00 -4.93881373E-31  2.71336241E+00
  1.38550220E+00 -4.93881373E-31  2.71336241E+00  1.38550220E+00 -4.93881373E-31
  2.71336241E+00  1.38550220E+00 -4.93881373E-31  2.71336241E+00  1.38550220E+00
 -4.93881373E-31  2.71336241E+00  1.38550220E+00 -4.93881373E-31  1.86079683E-18
  1.27216269E+00  2.50114524E-31  1.86079683E-18  1.27216269E+00  2.50114524E-31
  1.86079683E-18  1.27216269E+00  2.50114524E-31  1.86079683E-18  1.27216269E+00
  2.50114524E-31  1.86079683E-18  1.27216269E+00  2.50114524E-31  1.86079683E-18
  1.27216269E+00  2.50114524E-31  1.86079683E-18  1.27216269E+00  2.50114524E-31
  1.86079683E-18  1.27216269E+00  2.50114524E-31  1.86079683E-18  1.27216269E+00
  2.50114524E-31  1.86079683E-18  1.27216269E+00  2.50114524E-31  1.86079683E-18
  1.27216269E+00  2.50114524E-31  1.86079683E-18  1.27216269E+00  2.50114524E-31
  1.86079683E-18  1.27216269E+00  2.50114524E-31  1.86079683E-18  1.27216269E+00
  2.50114524E-31 -4.74223742E-01 -1.44344400E+00 -1.49864167E-31 -4.74223742E-01
 -1.44344400E+00 -1.49864167E-31 -4.74223742E-01 -1.44344400E+00 -1.49864167E-31
 -4.74223742E-01 -1.44344400E+00 -1.49864167E-31 -4.74223742E-01 -1.44344400E+00
 -1.49864167E-31 -4.74223742E-01 -1.44344400E+00 -1.49864167E-31 -4.74223742E-01
 -1.44344400E+00 -1.49864167E-31 -4.74223742E-01 -1.44344400E+00 -1.49864167E-31
 -4.74223742E-01 -1.44344400E+00 -1.49864167E-31 -4.74223742E-01 -1.44344400E+00
 -1.49864167E-31 -4.74223742E-01 -1.44344400E+00 -1.49864167E-31 -4.74223742E-01
 -1.44344400E+00 -1.49864167E-31 -4.74223742E-01 -1.44344400E+00 -1.49864167E-31
 -4.74223742E-01 -1.44344400E+00 -1.49864167E-31 -2.65834370E+00 -1.79578336E+00
  3.97679928E-31 -2.65834370E+00 -1.79578336E+00  3.97679928E-31 -2.65834370E+00
 -1.79578336E+00  3.97679928E-31 -2.65834370E+00 -1.79578336E+00  3.97679928E-31
 -2.65834370E+00 -1.79578336E+00  3.97679928E-31 -2.65834370E+00 -1.79578336E+00
  3.97679928E-31 -2.65834370E+00 -1.79578336E+00  3.97679928E-31 -2.65834370E+00
 -1.79578336E+00  3.97679928E-31 -2.65834370E+00 -1.79578336E+00  3.97679928E-31
 -2.65834370E+00 -1.79578336E+00  3.97679928E-31 -2.65834370E+00 -1.79578336E+00
  3.97679928E-31 -2.65834370E+00 -1.79578336E+00  3.97679928E-31 -2.65834370E+00
 -1.79578336E+00  3.97679928E-31 -2.65834370E+00 -1.79578336E+00  3.97679928E-31
Num ILSW                                   I              100
ILSW                                       I   N=         100
           0           0           0           0           2           0
           0           0           0           0           0          -1
           5           0           0           0           0           0
           0           0           0           0           0           0
           1           0           0           0           0           0
           0           0      100000           0          -1           0
           0           0           0           0           0           0
           0           0           0           1           0           0
           0 -2000000000           1           0           0           0
           0           0           4          52           0           0
           0           0           0           0           0           0
           0           0           0           5           0           1
           0           0           0           0           0           0
           0           0           0           0           0           0
           0           0           0           0           0           0
           0           0           0           0           0           0
           0           0           0           0
Num RLSW                                   I               52
RLSW                                       R   N=          52
  1.00000000E+00  1.00000000E+00  1.00000000E+00  1.00000000E+00  1.00000000E+00
  0.00000000E+00  0.00000000E+00  1.00000000E+00  0.00000000E+00  0.00000000E+00
  0.00000000E+00  0.00000000E+00  1.00000000E+00  0.00000000E+00  0.00000000E+00
  0.00000000E+00  0.00000000E+00  1.00000000E+00  0.00000000E+00  0.00000000E+00
  0.00000000E+00  0.00000000E+00  1.00000000E+00  0.00000000E+00  0.00000000E+00
  0.00000000E+00  0.00000000E+00  1.00000000E+00  0.00000000E+00  0.00000000E+00
  0.00000000E+00  0.00000000E+00  1.00000000E+00  0.00000000E+00  0.00000000E+00
  0.00000000E+00  0.00000000E+00  0.00000000E+00  1.00000000E+00  1.00000000E+00
  0.00000000E+00  1.00000000E+00  0.00000000E+00  0.00000000E+00  0.00000000E+00
  0.00000000E+00  0.00000000E+00  0.00000000E+00  0.00000000E+00  0.00000000E+00
  0.00000000E+00  0.00000000E+00
MxBond                                     I                2
NBond                                      I   N=           5
           1           2           2           2           1
IBond                                      I   N=          10
           2           0           1           3           2           4
           3           5           4           0
RBond                                      R   N=          10
  1.00000000E+00  0.00000000E+00  1.00000000E+00  1.00000000E+00  1.00000000E+00
  1.00000000E+00  1.00000000E+00  2.00000000E+00  2.00000000E+00  0.00000000E+00
Virial Ratio                               R      2.002244576379925E+00
SCF Energy                                 R     -2.795029752858135E+02
MP2 Energy                                 R     -2.804465779479672E+02
Total Energy                               R     -2.804465779479672E+02
Post-SCF wavefunction norm                 R      1.119508767593435E+00
RMS Density                                R      3.629844007086558E-09
Job Status                                 I                1
Nuclear derivative order                   I                0
External E-field                           R   N=          35
  0.00000000E+00  0.00000000E+00  0.00000000E+00  0.00000000E+00  0.00000000E+00
  0.00000000E+00  0.00000000E+00  0.00000000E+00  0.00000000E+00  0.00000000E+00
  0.00000000E+00  0.00000000E+00  0.00000000E+00  0.00000000E+00  0.00000000E+00
  0.00000000E+00  0.00000000E+00  0.00000000E+00  0.00000000E+00  0.00000000E+00
  0.00000000E+00  0.00000000E+00  0.00000000E+00  0.00000000E+00  0.00000000E+00
  0.00000000E+00  0.00000000E+00  0.00000000E+00  0.00000000E+00  0.00000000E+00
  0.00000000E+00  0.00000000E+00  0.00000000E+00  0.00000000E+00  0.00000000E+00
IOpCl                                      I                0
IROHF                                      I                0
Alpha Orbital Energies                     R   N=         207
 -2.06898622E+01 -2.06839736E+01 -2.06584421E+01 -1.58124611E+01 -1.62463759E+00
 -1.50296903E+00 -1.25120471E+00 -9.48321072E-01 -7.74745153E-01 -7.60655054E-01
 -7.13504406E-01 -6.79458296E-01 -6.22159640E-01 -5.91762916E-01 -4.81958839E-01
 -4.72066066E-01  2.96547044E-02  7.16994188E-02  8.63536839E-02  1.01784311E-01
  1.33940160E-01  1.34713463E-01  1.44173715E-01  1.54608598E-01  1.78210826E-01
  1.94009032E-01  1.99736074E-01  2.06511875E-01  2.22305567E-01  2.37525967E-01
  2.43781378E-01  2.66220307E-01  2.93581971E-01  3.04028792E-01  3.10911329E-01
  3.44636440E-01  3.50436080E-01  3.87587071E-01  4.22969819E-01  4.31944295E-01
  5.27629414E-01  5.29628947E-01  5.58797271E-01  5.82134682E-01  6.26297851E-01
  6.38168984E-01  6.74378533E-01  6.84229392E-01  7.07834765E-01  7.10628068E-01
  7.25081344E-01  7.28956367E-01  7.44515017E-01  7.92213893E-01  7.92810078E-01
  8.10315752E-01  8.13033643E-01  8.31884506E-01  8.68421996E-01  9.10080361E-01
  9.22280553E-01  9.27832253E-01  9.55866160E-01  9.78438681E-01  9.85779965E-01
  1.01654515E+00  1.05321732E+00  1.05442882E+00  1.08408590E+00  1.11959705E+00
  1.14387155E+00  1.19072940E+00  1.22075758E+00  1.23396755E+00  1.33928915E+00
  1.35149998E+00  1.38640520E+00  1.45406001E+00  1.48751237E+00  1.50767821E+00
  1.53906161E+00  1.56834407E+00  1.58085951E+00  1.61434468E+00  1.66597938E+00
  1.67195360E+00  1.70358754E+00  1.79523169E+00  1.83263445E+00  1.83509611E+00
  1.88012292E+00  1.91164114E+00  1.95632951E+00  1.99438301E+00  2.00397195E+00
  2.07868833E+00  2.12432548E+00  2.13232534E+00  2.15434320E+00  2.22531702E+00
  2.26604464E+00  2.26825578E+00  2.29065054E+00  2.31636136E+00  2.34925656E+00
  2.38403072E+00  2.42719560E+00  2.43153104E+00  2.45533252E+00  2.46261325E+00
  2.47896977E+00  2.50337973E+00  2.59172972E+00  2.59866668E+00  2.62358821E+00
  2.62915417E+00  2.63994544E+00  2.67492133E+00  2.75872877E+00  2.82574870E+00
  2.86061169E+00  2.89314873E+00  2.90224006E+00  2.93003956E+00  2.96231708E+00
  3.03587621E+00  3.06799291E+00  3.11789546E+00  3.22213628E+00  3.23932642E+00
  3.32231466E+00  3.33507870E+00  3.52408221E+00  3.64655494E+00  3.83862896E+00
  3.84874924E+00  4.15200490E+00  4.16940642E+00  4.18641860E+00  4.25985542E+00
  4.35619426E+00  4.39722054E+00  4.48137148E+00  4.51671300E+00  4.66462070E+00
  4.72004147E+00  4.80637011E+00  4.82266980E+00  4.83083748E+00  4.89732594E+00
  5.02472444E+00  5.07818957E+00  5.10675266E+00  5.14449881E+00  5.17986800E+00
  5.24500861E+00  5.27239810E+00  5.30878334E+00  5.33220375E+00  5.35968278E+00
  5.61619428E+00  5.67394718E+00  5.77461466E+00  5.85738881E+00  5.96579862E+00
  6.17294029E+00  6.28110705E+00  6.34106216E+00  6.39051546E+00  6.49238778E+00
  6.50515885E+00  6.60868563E+00  6.65654994E+00  6.69740768E+00  6.75636892E+00
  6.77197072E+00  6.83300503E+00  6.90007283E+00  7.02821667E+00  7.06816655E+00
  7.07679092E+00  7.10537555E+00  7.12742910E+00  7.16386822E+00  7.18883455E+00
  7.22975808E+00  7.24843071E+00  7.30935967E+00  7.32575310E+00  7.34800519E+00
  7.40378845E+00  7.45411089E+00  7.48643377E+00  7.62082750E+00  7.62440861E+00
  7.63501134E+00  7.67202251E+00  7.80793440E+00  7.89165583E+00  8.12176139E+00
  8.33716757E+00  8.42646456E+00  8.54709027E+00  1.34458186E+01  1.44174381E+01
  1.51868962E+01  1.61548909E+01
Alpha MO coefficients                      R   N=       42849
  8.64443307E-05 -6.23236813E-04 -6.92529641E-04 -4.10945388E-07 -1.61682066E-05
 -2.56019202E-05  0.00000000E+00 -3.75296742E-05  3.57157971E-05  0.00000000E+00
  8.32504314E-05  2.08356623E-05  0.00000000E+00  2.78580605E-05  0.00000000E+00
  0.00000000E+00 -5.24476443E-05  1.84429661E-05 -1.04078200E-05  0.00000000E+00
  0.00000000E+00 -1.45942886E-04  1.17081024E-04  4.74215430E-03 -2.56879641E-04
  2.23985266E-06  1.70153717E-03  1.91960153E-03  1.13816566E-04  8.74638057E-06
  0.00000000E+00 -7.04504204E-04 -4.88187694E-05  0.00000000E+00 -1.23210995E-03
  7.72826411E-04  0.00000000E+00 -4.26897754E-04  5.47526497E-05  0.00000000E+00
  2.40106256E-05  0.00000000E+00  0.00000000E+00 -4.49198918E-05  5.51080438E-06
 -3.98907066E-04  0.00000000E+00  0.00000000E+00  7.79603306E-04 -2.13574417E-05
 -4.61737837E-04  0.00000000E+00  0.00000000E+00  2.56608482E-04 -9.36107007E-06
  0.00000000E+00  8.47410033E-05  1.33132237E-05  0.00000000E+00  0.00000000E+00
 -1.15923583E-04 -6.02409818E-06  0.00000000E+00  2.55155816E-04 -2.48273370E-05
  0.00000000E+00  0.00000000E+00 -3.47383977E-04  3.31546918E-05  9.76895958E-01
 -9.22126426E-03  4.33502072E-02  1.84707666E-03 -1.02272699E-03  1.54604642E-03
 -1.33878695E-03  0.00000000E+00 -1.51242371E-03  1.36335146E-03  0.00000000E+00
 -1.59351202E-05 -1.16686942E-03  0.00000000E+00 -1.59323654E-04 -1.53009614E-05
  0.00000000E+00  4.19819397E-05  0.00000000E+00  0.00000000E+00 -2.78173223E-05
  2.16149454E-05  7.69114560E-04  0.00000000E+00  0.00000000E+00 -2.66637932E-04
 -3.99258684E-04 -3.44233133E-04  0.00000000E+00  0.00000000E+00 -3.35408043E-04
 -3.85970996E-04  0.00000000E+00  5.09000356E-05 -4.75892590E-05  0.00000000E+00
  0.00000000E+00 -4.21162315E-05 -1.75390734E-05  0.00000000E+00  3.39357100E-05
  2.06942665E-05  0.00000000E+00  0.00000000E+00 -3.19504090E-04 -1.43529144E-04
  3.89844685E-05  4.61598025E-05 -2.62560000E-04 -7.21662150E-04 -1.70442025E-04
 -2.55622863E-05 -9.74472641E-05  0.00000000E+00  2.62498815E-04  7.13066297E-04
  0.00000000E+00 -8.29403327E-04 -4.70053004E-04  0.00000000E+00 -1.23711796E-04
 -3.00459771E-05  0.00000000E+00 -1.78465391E-05  0.00000000E+00  0.00000000E+00
 -2.99372235E-05  1.55989102E-05 -3.27006181E-04  0.00000000E+00  0.00000000E+00
 -8.29656645E-04  1.00577417E-04 -3.20547400E-05  0.00000000E+00  0.00000000E+00
  9.18167839E-05 -1.28831619E-04  0.00000000E+00 -1.95196504E-05 -1.19757545E-04
  0.00000000E+00  0.00000000E+00 -5.80653802E-05 -1.37980180E-04  0.00000000E+00
  4.51556961E-06 -1.53438838E-04  0.00000000E+00  0.00000000E+00  5.81685451E-05
 -4.11792759E-04 -2.89843605E-03  1.26865223E-04 -1.37204618E-04 -2.26228426E-04
  1.53945489E-04 -8.54434489E-06 -2.72501712E-05  0.00000000E+00  7.12974322E-05
  1.60288200E-04  0.00000000E+00  2.37841139E-04  1.88652764E-04  0.00000000E+00
  1.31644784E-04  2.36065087E-05  0.00000000E+00 -3.40462618E-06  0.00000000E+00
  0.00000000E+00 -1.80048353E-05  1.30878949E-06  1.17162667E-06  0.00000000E+00
  0.00000000E+00  8.17611429E-05  8.46586444E-05 -9.95453582E-05  0.00000000E+00
  0.00000000E+00  1.65449985E-04  1.59325430E-04  0.00000000E+00  1.59003254E-05
 -3.11079266E-06  0.00000000E+00  0.00000000E+00 -3.49231997E-06 -1.24594687E-05
  0.00000000E+00 -3.36841094E-05  4.48637404E-05  0.00000000E+00  0.00000000E+00
  8.25840600E-05  9.09115630E-05  4.03541766E-05 -1.00558792E-03 -4.91323079E-04
 -1.17384945E-05 -2.23637267E-05  1.51978138E-05  0.00000000E+00 -2.01307919E-06
  2.76548126E-04  0.00000000E+00 -4.32942064E-05  1.34125764E-04  0.00000000E+00
  2.64087543E-05  0.00000000E+00  0.00000000E+00  1.11286051E-05  1.12392359E-05
 -2.92305719E-05  0.00000000E+00  0.00000000E+00  1.11829406E-05  3.66174532E-05
  1.12538979E-04  8.84999816E-05 -2.84175627E-05  7.52018811E-04  6.49134241E-04
  1.01814861E-05  2.94363719E-06  0.00000000E+00 -7.57761856E-05  1.02652745E-05
  0.00000000E+00  3.40896659E-04  9.41680610E-04  0.00000000E+00  6.11211466E-06
  8.53983522E-05  0.00000000E+00 -2.63500104E-06  0.00000000E+00  0.00000000E+00
  1.54205371E-07 -5.31170866E-06 -3.49640666E-05  0.00000000E+00  0.00000000E+00
 -1.91621288E-05  8.23627561E-05 -2.23067299E-05  0.00000000E+00  0.00000000E+00
 -2.68315503E-04 -1.81098129E-04  0.00000000E+00  8.97044349E-06  6.48524092E-06
  0.00000000E+00  0.00000000E+00  3.37622364E-06 -1.86418551E-05  0.00000000E+00
 -4.03068767E-05 -4.04749868E-05  0.00000000E+00  0.00000000E+00 -8.14941725E-05
  2.04994887E-05  2.93716615E-03  3.40077802E-05  1.06346811E-04 -6.23946145E-05
 -4.71678025E-04  8.54914497E-06  1.54143284E-05  0.00000000E+00 -6.65283750E-05
 -5.60512397E-05  0.00000000E+00  2.42263204E-04 -2.06284457E-04  0.00000000E+00
 -1.86044567E-04 -6.68690468E-05  0.00000000E+00 -8.61342738E-06  0.00000000E+00
  0.00000000E+00  2.24123727E-05  2.01379257E-05  5.06224111E-06  0.00000000E+00
  0.00000000E+00 -1.19653152E-04 -4.90982543E-05 -4.85196083E-06  0.00000000E+00
  0.00000000E+00 -2.21299061E-04 -2.22578400E-04  0.00000000E+00  3.87673283E-06
 -4.55741623E-07  0.00000000E+00  0.00000000E+00  2.09568048E-06 -1.35909120E-05
  0.00000000E+00 -4.80045290E-05  2.89139515E-06  0.00000000E+00  0.00000000E+00
 -8.36221474E-05  1.86820015E-04  2.58544185E-04  1.46464451E-03 -7.75622116E-05
 -1.53680223E-03  4.05006941E-04 -1.44071343E-04 -8.51497617E-07  0.00000000E+00
 -2.09209956E-03 -4.21525415E-04  0.00000000E+00  1.04411284E-03  7.82739242E-04
  0.00000000E+00 -1.68857325E-04  5.69547758E-05  0.00000000E+00 -1.23260709E-04
  0.00000000E+00  0.00000000E+00  2.41799808E-04  9.77362647E-05 -4.43013489E-04
  0.00000000E+00  0.00000000E+00  9.00263352E-04 -5.48706597E-05  1.03438559E-05
  0.00000000E+00  0.00000000E+00 -3.38780702E-04 -1.27907641E-04  0.00000000E+00
 -9.60624448E-07  1.54663939E-05  0.00000000E+00  0.00000000E+00  1.86119279E-05
  1.31859543E-05  0.00000000E+00  1.63126117E-04 -7.23591639E-05  0.00000000E+00
  0.00000000E+00 -2.40881268E-04  4.04392979E-05  9.76648111E-01 -9.84764048E-03
  4.35691522E-02  4.50767548E-03 -4.45493926E-04  2.14483373E-03  4.95741023E-04
  0.00000000E+00 -2.38005301E-03 -6.22572107E-04  0.00000000E+00  1.13793017E-03
  2.01514443E-06  0.00000000E+00  4.14467222E-06 -4.25877659E-05  0.00000000E+00
 -2.32460775E-04  0.00000000E+00  0.00000000E+00  1.02132741E-04  3.36338841E-05
  3.90873997E-04  0.00000000E+00  0.00000000E+00 -8.28819082E-04 -4.32612694E-04
 -1.52478349E-04  0.00000000E+00  0.00000000E+00  2.53717199E-04  1.87755640E-05
  0.00000000E+00  5.22073705E-05  1.81295294E-05  0.00000000E+00  0.00000000E+00
 -2.17909585E-05 -1.36956659E-05  0.00000000E+00  1.38584997E-04  1.02657609E-05
  0.00000000E+00  0.00000000E+00 -1.87369185E-04 -1.45489890E-04  4.71362084E-04
  2.01914318E-03  8.18283292E-05  1.33039502E-05 -3.81691629E-05 -2.41087953E-04
  0.00000000E+00  1.26528582E-04 -1.25599339E-03  0.00000000E+00  3.27666672E-04
 -3.26642258E-04  0.00000000E+00 -2.06496536E-06  0.00000000E+00  0.00000000E+00
  8.08719767E-05  1.55329311E-05 -1.58405230E-04  0.00000000E+00  0.00000000E+00
 -5.35731662E-04 -3.75898227E-05  9.76816020E-01 -9.16268862E-03  4.34816672E-02
  1.08798864E-05 -1.23423857E-03 -1.61327472E-03  1.42184433E-03  0.00000000E+00
  1.64838591E-03 -1.25240646E-03  0.00000000E+00 -4.34718402E-04 -8.53462138E-04
  0.00000000E+00  7.14774330E-05 -3.93232450E-05  0.00000000E+00  2.48009533E-05
  0.00000000E+00  0.00000000E+00 -1.10123812E-04 -5.14726560E-06  7.76379107E-04
  0.00000000E+00  0.00000000E+00 -2.43281901E-04 -2.38502175E-04 -2.50183394E-04
  0.00000000E+00  0.00000000E+00  1.23662895E-04  1.30196833E-04  0.00000000E+00
 -6.71204870E-05 -9.10874244E-07  0.00000000E+00  0.00000000E+00  2.20302575E-05
  8.66493731E-06  0.00000000E+00 -1.47483225E-05  1.23833989E-04  0.00000000E+00
  0.00000000E+00  2.70972448E-04  9.43897502E-05 -4.82704397E-03 -1.83162767E-04