 Entering Gaussian System, Link 0=g16
 Input=hoono_d1_168p3907.gjf
 Output=hoono_d1_168p3907.log
 Initial command:
 /sw/contrib/gaussian/g16/B01/g16/l1.exe "/scr/Gau-12430.inp" -scrdir="/scr/"
 Entering Link 1 = /sw/contrib/gaussian/g16/B01/g16/l1.exe PID=     12431.
  
 Copyright (c) 1988-2017, Gaussian, Inc.  All Rights Reserved.
  
 This is part of the Gaussian(R) 16 program.  It is based on
 the Gaussian(R) 09 system (copyright 2009, Gaussian, Inc.),
 the Gaussian(R) 03 system (copyright 2003, Gaussian, Inc.),
 the Gaussian(R) 98 system (copyright 1998, Gaussian, Inc.),
 the Gaussian(R) 94 system (copyright 1995, Gaussian, Inc.),
 the Gaussian 92(TM) system (copyright 1992, Gaussian, Inc.),
 the Gaussian 90(TM) system (copyright 1990, Gaussian, Inc.),
 the Gaussian 88(TM) system (copyright 1988, Gaussian, Inc.),
 the Gaussian 86(TM) system (copyright 1986, Carnegie Mellon
 University), and the Gaussian 82(TM) system (copyright 1983,
 Carnegie Mellon University). Gaussian is a federally registered
 trademark of Gaussian, Inc.
  
 This software contains proprietary and confidential information,
 including trade secrets, belonging to Gaussian, Inc.
  
 This software is provided under written license and may be
 used, copied, transmitted, or stored only in accord with that
 written license.
  
 The following legend is applicable only to US Government
 contracts under FAR:
  
                    RESTRICTED RIGHTS LEGEND
  
 Use, reproduction and disclosure by the US Government is
 subject to restrictions as set forth in subparagraphs (a)
 and (c) of the Commercial Computer Software - Restricted
 Rights clause in FAR 52.227-19.
  
 Gaussian, Inc.
 340 Quinnipiac St., Bldg. 40, Wallingford CT 06492
  
  
 ---------------------------------------------------------------
 Warning -- This program may not be used in any manner that
 competes with the business of Gaussian, Inc. or will provide
 assistance to any competitor of Gaussian, Inc.  The licensee
 of this program is prohibited from giving any competitor of
 Gaussian, Inc. access to this program.  By using this program,
 the user acknowledges that Gaussian, Inc. is engaged in the
 business of creating and licensing software in the field of
 computational chemistry and represents and warrants to the
 licensee that it is not a competitor of Gaussian, Inc. and that
 it will not use this program in any manner prohibited above.
 ---------------------------------------------------------------
  

 Cite this work as:
 Gaussian 16, Revision B.01,
 M. J. Frisch, G. W. Trucks, H. B. Schlegel, G. E. Scuseria, 
 M. A. Robb, J. R. Cheeseman, G. Scalmani, V. Barone, 
 G. A. Petersson, H. Nakatsuji, X. Li, M. Caricato, A. V. Marenich, 
 J. Bloino, B. G. Janesko, R. Gomperts, B. Mennucci, H. P. Hratchian, 
 J. V. Ortiz, A. F. Izmaylov, J. L. Sonnenberg, D. Williams-Young, 
 F. Ding, F. Lipparini, F. Egidi, J. Goings, B. Peng, A. Petrone, 
 T. Henderson, D. Ranasinghe, V. G. Zakrzewski, J. Gao, N. Rega, 
 G. Zheng, W. Liang, M. Hada, M. Ehara, K. Toyota, R. Fukuda, 
 J. Hasegawa, M. Ishida, T. Nakajima, Y. Honda, O. Kitao, H. Nakai, 
 T. Vreven, K. Throssell, J. A. Montgomery, Jr., J. E. Peralta, 
 F. Ogliaro, M. J. Bearpark, J. J. Heyd, E. N. Brothers, K. N. Kudin, 
 V. N. Staroverov, T. A. Keith, R. Kobayashi, J. Normand, 
 K. Raghavachari, A. P. Rendell, J. C. Burant, S. S. Iyengar, 
 J. Tomasi, M. Cossi, J. M. Millam, M. Klene, C. Adamo, R. Cammi, 
 J. W. Ochterski, R. L. Martin, K. Morokuma, O. Farkas, 
 J. B. Foresman, and D. J. Fox, Gaussian, Inc., Wallingford CT, 2016.
 
 ******************************************
 Gaussian 16:  ES64L-G16RevB.01 20-Dec-2017
                14-Feb-2022 
 ******************************************
 %nproc=28
 Will use up to   28 processors via shared memory.
 %mem=120GB
 %chk=hoono_d1_168p3907.chk
 -------------------------------------
 #p SP mp2/aug-cc-pvtz density=current
 -------------------------------------
 1/30=1,38=1,172=1/1;
 2/12=2,17=6,18=5,40=1/2;
 3/5=16,6=1,7=10,11=9,25=1,30=1,71=1/1,2,3;
 4//1;
 5/5=2,38=5/2;
 8/6=4,10=1/1;
 9/15=1,16=-3/6;
 10/5=1,13=10/2;
 6/7=2,8=2,9=2,10=2,22=-1/1;
 99/5=1,9=1/99;
 Leave Link    1 at Mon Feb 14 22:14:05 2022, MaxMem= 16106127360 cpu:               3.8 elap:               0.1
 (Enter /sw/contrib/gaussian/g16/B01/g16/l101.exe)
 -----
 title
 -----
 Symbolic Z-matrix:
 Charge =  0 Multiplicity = 1
 H
 O                    1    r1
 O                    2    r2       1    a1
 N                    3    r3       2    a2       1    d1       0
 O                    4    r4       3    a3       2    d2       0
       Variables:
  r1                    0.96898                  
  r2                    1.45492                  
  r3                    1.45878                  
  r4                    1.17073                  
  a1                   97.59495                  
  a2                  102.29752                  
  a3                  109.06955                  
  d1                  168.39073                  
  d2                  180.                       
 
 ITRead=  0  0  0  0  0
 MicOpt= -1 -1 -1 -1 -1
 NAtoms=      5 NQM=        5 NQMF=       0 NMMI=      0 NMMIF=      0
                NMic=       0 NMicF=      0.
                    Isotopes and Nuclear Properties:
 (Nuclear quadrupole moments (NQMom) in fm**2, nuclear magnetic moments (NMagM)
  in nuclear magnetons)

  Atom         1           2           3           4           5
 IAtWgt=           1          16          16          14          16
 AtmWgt=   1.0078250  15.9949146  15.9949146  14.0030740  15.9949146
 NucSpn=           1           0           0           2           0
 AtZEff=  -0.0000000  -0.0000000  -0.0000000  -0.0000000  -0.0000000
 NQMom=    0.0000000   0.0000000   0.0000000   2.0440000   0.0000000
 NMagM=    2.7928460   0.0000000   0.0000000   0.4037610   0.0000000
 AtZNuc=   1.0000000   8.0000000   8.0000000   7.0000000   8.0000000
 Leave Link  101 at Mon Feb 14 22:14:06 2022, MaxMem= 16106127360 cpu:               2.5 elap:               0.1
 (Enter /sw/contrib/gaussian/g16/B01/g16/l202.exe)
                          Input orientation:                          
 ---------------------------------------------------------------------
 Center     Atomic      Atomic             Coordinates (Angstroms)
 Number     Number       Type             X           Y           Z
 ---------------------------------------------------------------------
      1          1           0        0.000000    0.000000    0.000000
      2          8           0        0.000000    0.000000    0.968976
      3          8           0        1.442156    0.000000    1.161271
      4          7           0        1.565605    0.286825    2.586242
      5          8           0        2.700094    0.314605    2.873937
 ---------------------------------------------------------------------
                    Distance matrix (angstroms):
                    1          2          3          4          5
     1  H    0.000000
     2  O    0.968976   0.000000
     3  O    1.851584   1.454919   0.000000
     4  N    3.036780   2.269127   1.458784   0.000000
     5  O    3.955882   3.319392   2.148165   1.170729   0.000000
 Stoichiometry    HNO3
 Framework group  C1[X(HNO3)]
 Deg. of freedom     9
 Full point group                 C1      NOp   1
 Largest Abelian subgroup         C1      NOp   1
 Largest concise Abelian subgroup C1      NOp   1
                         Standard orientation:                         
 ---------------------------------------------------------------------
 Center     Atomic      Atomic             Coordinates (Angstroms)
 Number     Number       Type             X           Y           Z
 ---------------------------------------------------------------------
      1          1           0       -2.239196    0.423789    0.161559
      2          8           0       -1.599330   -0.282327   -0.014184
      3          8           0       -0.400183    0.541576   -0.018780
      4          7           0        0.662964   -0.456965    0.007368
      5          8           0        1.699319    0.087622    0.006323
 ---------------------------------------------------------------------
 Rotational constants (GHZ):          54.8355407           5.0118270           4.5949806
 Leave Link  202 at Mon Feb 14 22:14:06 2022, MaxMem= 16106127360 cpu:               0.2 elap:               0.0
 (Enter /sw/contrib/gaussian/g16/B01/g16/l301.exe)
 Standard basis: Aug-CC-pVTZ (5D, 7F)
 Ernie: Thresh=  0.10000D-02 Tol=  0.10000D-05 Strict=F.
 Ernie:  12 primitive shells out of 131 were deleted.
 There are   245 symmetry adapted cartesian basis functions of A   symmetry.
 There are   207 symmetry adapted basis functions of A   symmetry.
   207 basis functions,   315 primitive gaussians,   245 cartesian basis functions
    16 alpha electrons       16 beta electrons
       nuclear repulsion energy       116.8777935090 Hartrees.
 IExCor=    0 DFT=F Ex=HF Corr=None ExCW=0 ScaHFX=  1.000000
 ScaDFX=  1.000000  1.000000  1.000000  1.000000 ScalE2=  1.000000  1.000000
 IRadAn=      5 IRanWt=     -1 IRanGd=            0 ICorTp=0 IEmpDi=  4
 NAtoms=    5 NActive=    5 NUniq=    5 SFac= 1.00D+00 NAtFMM=   60 NAOKFM=F Big=F
 Integral buffers will be    131072 words long.
 Raffenetti 1 integral format.
 Two-electron integral symmetry is turned on.
 Leave Link  301 at Mon Feb 14 22:14:06 2022, MaxMem= 16106127360 cpu:               2.4 elap:               0.1
 (Enter /sw/contrib/gaussian/g16/B01/g16/l302.exe)
 NPDir=0 NMtPBC=     1 NCelOv=     1 NCel=       1 NClECP=     1 NCelD=      1
         NCelK=      1 NCelE2=     1 NClLst=     1 CellRange=     0.0.
 One-electron integrals computed using PRISM.
 One-electron integral symmetry used in STVInt
 NBasis=   207 RedAO= T EigKep=  1.83D-04  NBF=   207
 NBsUse=   207 1.00D-06 EigRej= -1.00D+00 NBFU=   207
 Leave Link  302 at Mon Feb 14 22:14:06 2022, MaxMem= 16106127360 cpu:               4.7 elap:               0.2
 (Enter /sw/contrib/gaussian/g16/B01/g16/l303.exe)
 DipDrv:  MaxL=1.
 Leave Link  303 at Mon Feb 14 22:14:06 2022, MaxMem= 16106127360 cpu:               1.0 elap:               0.1
 (Enter /sw/contrib/gaussian/g16/B01/g16/l401.exe)
 ExpMin= 2.53D-02 ExpMax= 1.53D+04 ExpMxC= 5.22D+02 IAcc=3 IRadAn=         5 AccDes= 0.00D+00
 Harris functional with IExCor=  205 and IRadAn=       5 diagonalized for initial guess.
 HarFok:  IExCor=  205 AccDes= 0.00D+00 IRadAn=         5 IDoV= 1 UseB2=F ITyADJ=14
 ICtDFT=  3500011 ScaDFX=  1.000000  1.000000  1.000000  1.000000
 FoFCou: FMM=F IPFlag=           0 FMFlag=      100000 FMFlg1=           0
         NFxFlg=           0 DoJE=T BraDBF=F KetDBF=T FulRan=T
         wScrn=  0.000000 ICntrl=       500 IOpCl=  0 I1Cent=   200000004 NGrid=           0
         NMat0=    1 NMatS0=      1 NMatT0=    0 NMatD0=    1 NMtDS0=    0 NMtDT0=    0
 Petite list used in FoFCou.
 Harris En= -279.628771361778    
 JPrj=0 DoOrth=F DoCkMO=F.
 Leave Link  401 at Mon Feb 14 22:14:06 2022, MaxMem= 16106127360 cpu:               7.3 elap:               0.3
 (Enter /sw/contrib/gaussian/g16/B01/g16/l502.exe)
 Keep R1 ints in memory in canonical form, NReq=245616937.
 FoFCou: FMM=F IPFlag=           0 FMFlag=           0 FMFlg1=           0
         NFxFlg=           0 DoJE=F BraDBF=F KetDBF=F FulRan=T
         wScrn=  0.000000 ICntrl=       600 IOpCl=  0 I1Cent=           0 NGrid=           0
         NMat0=    1 NMatS0=  21528 NMatT0=    0 NMatD0=    1 NMtDS0=    0 NMtDT0=    0
 Symmetry not used in FoFCou.
 Two-electron integral symmetry not used.
 Closed shell SCF:
 Using DIIS extrapolation, IDIIS=  1040.
 NGot= 16106127360 LenX= 15874260251 LenY= 15874199785
 Requested convergence on RMS density matrix=1.00D-08 within 128 cycles.
 Requested convergence on MAX density matrix=1.00D-06.
 Requested convergence on             energy=1.00D-06.
 No special actions if energy rises.

 Cycle   1  Pass 1  IDiag  1:
 E= -279.370630752711    
 DIIS: error= 2.30D-02 at cycle   1 NSaved=   1.
 NSaved= 1 IEnMin= 1 EnMin= -279.370630752711     IErMin= 1 ErrMin= 2.30D-02
 ErrMax= 2.30D-02  0.00D+00 EMaxC= 1.00D-01 BMatC= 4.38D-01 BMatP= 4.38D-01
 IDIUse=3 WtCom= 7.70D-01 WtEn= 2.30D-01
 Coeff-Com:  0.100D+01
 Coeff-En:   0.100D+01
 Coeff:      0.100D+01
 Gap=     0.518 Goal=   None    Shift=    0.000
 GapD=    0.518 DampG=2.000 DampE=0.500 DampFc=1.0000 IDamp=-1.
 RMSDP=1.62D-03 MaxDP=9.91D-02              OVMax= 1.12D-01

 Cycle   2  Pass 1  IDiag  1:
 E= -279.452556475420     Delta-E=       -0.081925722709 Rises=F Damp=F
 DIIS: error= 1.70D-02 at cycle   2 NSaved=   2.
 NSaved= 2 IEnMin= 2 EnMin= -279.452556475420     IErMin= 2 ErrMin= 1.70D-02
 ErrMax= 1.70D-02  0.00D+00 EMaxC= 1.00D-01 BMatC= 7.18D-02 BMatP= 4.38D-01
 IDIUse=3 WtCom= 8.30D-01 WtEn= 1.70D-01
 Coeff-Com:  0.195D+00 0.805D+00
 Coeff-En:   0.000D+00 0.100D+01
 Coeff:      0.162D+00 0.838D+00
 Gap=     0.531 Goal=   None    Shift=    0.000
 RMSDP=8.99D-04 MaxDP=3.73D-02 DE=-8.19D-02 OVMax= 6.66D-02

 Cycle   3  Pass 1  IDiag  1:
 E= -279.481834870609     Delta-E=       -0.029278395189 Rises=F Damp=F
 DIIS: error= 9.79D-03 at cycle   3 NSaved=   3.
 NSaved= 3 IEnMin= 3 EnMin= -279.481834870609     IErMin= 3 ErrMin= 9.79D-03
 ErrMax= 9.79D-03  0.00D+00 EMaxC= 1.00D-01 BMatC= 2.85D-02 BMatP= 7.18D-02
 IDIUse=3 WtCom= 9.02D-01 WtEn= 9.79D-02
 Coeff-Com: -0.330D-01 0.377D+00 0.656D+00
 Coeff-En:   0.000D+00 0.238D+00 0.762D+00
 Coeff:     -0.298D-01 0.363D+00 0.666D+00
 Gap=     0.509 Goal=   None    Shift=    0.000
 RMSDP=3.74D-04 MaxDP=1.54D-02 DE=-2.93D-02 OVMax= 3.77D-02

 Cycle   4  Pass 1  IDiag  1:
 E= -279.500737830813     Delta-E=       -0.018902960205 Rises=F Damp=F
 DIIS: error= 1.23D-03 at cycle   4 NSaved=   4.
 NSaved= 4 IEnMin= 4 EnMin= -279.500737830813     IErMin= 4 ErrMin= 1.23D-03
 ErrMax= 1.23D-03  0.00D+00 EMaxC= 1.00D-01 BMatC= 4.86D-04 BMatP= 2.85D-02
 IDIUse=3 WtCom= 9.88D-01 WtEn= 1.23D-02
 Coeff-Com: -0.117D-01 0.576D-01 0.158D+00 0.796D+00
 Coeff-En:   0.000D+00 0.000D+00 0.000D+00 0.100D+01
 Coeff:     -0.115D-01 0.569D-01 0.156D+00 0.799D+00
 Gap=     0.501 Goal=   None    Shift=    0.000
 RMSDP=8.99D-05 MaxDP=2.18D-03 DE=-1.89D-02 OVMax= 1.08D-02

 Cycle   5  Pass 1  IDiag  1:
 E= -279.501406961467     Delta-E=       -0.000669130654 Rises=F Damp=F
 DIIS: error= 6.97D-04 at cycle   5 NSaved=   5.
 NSaved= 5 IEnMin= 5 EnMin= -279.501406961467     IErMin= 5 ErrMin= 6.97D-04
 ErrMax= 6.97D-04  0.00D+00 EMaxC= 1.00D-01 BMatC= 8.68D-05 BMatP= 4.86D-04
 IDIUse=3 WtCom= 9.93D-01 WtEn= 6.97D-03
 Coeff-Com:  0.612D-02-0.721D-01-0.118D+00 0.202D-01 0.116D+01
 Coeff-En:   0.000D+00 0.000D+00 0.000D+00 0.000D+00 0.100D+01
 Coeff:      0.608D-02-0.716D-01-0.117D+00 0.200D-01 0.116D+01
 Gap=     0.501 Goal=   None    Shift=    0.000
 RMSDP=7.60D-05 MaxDP=2.09D-03 DE=-6.69D-04 OVMax= 1.09D-02

 Cycle   6  Pass 1  IDiag  1:
 E= -279.501720326289     Delta-E=       -0.000313364822 Rises=F Damp=F
 DIIS: error= 2.81D-04 at cycle   6 NSaved=   6.
 NSaved= 6 IEnMin= 6 EnMin= -279.501720326289     IErMin= 6 ErrMin= 2.81D-04
 ErrMax= 2.81D-04  0.00D+00 EMaxC= 1.00D-01 BMatC= 1.66D-05 BMatP= 8.68D-05
 IDIUse=3 WtCom= 9.97D-01 WtEn= 2.81D-03
 Coeff-Com:  0.596D-03 0.152D-02 0.458D-02-0.130D+00-0.230D+00 0.135D+01
 Coeff-En:   0.000D+00 0.000D+00 0.000D+00 0.000D+00 0.000D+00 0.100D+01
 Coeff:      0.595D-03 0.151D-02 0.457D-02-0.129D+00-0.229D+00 0.135D+01
 Gap=     0.501 Goal=   None    Shift=    0.000
 RMSDP=4.51D-05 MaxDP=1.05D-03 DE=-3.13D-04 OVMax= 5.51D-03

 Cycle   7  Pass 1  IDiag  1:
 E= -279.501792522066     Delta-E=       -0.000072195777 Rises=F Damp=F
 DIIS: error= 9.78D-05 at cycle   7 NSaved=   7.
 NSaved= 7 IEnMin= 7 EnMin= -279.501792522066     IErMin= 7 ErrMin= 9.78D-05
 ErrMax= 9.78D-05  0.00D+00 EMaxC= 1.00D-01 BMatC= 4.49D-06 BMatP= 1.66D-05
 IDIUse=1 WtCom= 1.00D+00 WtEn= 0.00D+00
 Coeff-Com: -0.935D-03 0.135D-01 0.265D-01-0.242D-01-0.287D+00 0.390D+00
 Coeff-Com:  0.882D+00
 Coeff:     -0.935D-03 0.135D-01 0.265D-01-0.242D-01-0.287D+00 0.390D+00
 Coeff:      0.882D+00
 Gap=     0.501 Goal=   None    Shift=    0.000
 RMSDP=1.32D-05 MaxDP=3.77D-04 DE=-7.22D-05 OVMax= 1.54D-03

 Cycle   8  Pass 1  IDiag  1:
 E= -279.501801379960     Delta-E=       -0.000008857894 Rises=F Damp=F
 DIIS: error= 4.74D-05 at cycle   8 NSaved=   8.
 NSaved= 8 IEnMin= 8 EnMin= -279.501801379960     IErMin= 8 ErrMin= 4.74D-05
 ErrMax= 4.74D-05  0.00D+00 EMaxC= 1.00D-01 BMatC= 6.05D-07 BMatP= 4.49D-06
 IDIUse=1 WtCom= 1.00D+00 WtEn= 0.00D+00
 Coeff-Com: -0.449D-03 0.345D-02 0.761D-02 0.274D-01-0.411D-01-0.197D+00
 Coeff-Com:  0.172D+00 0.103D+01
 Coeff:     -0.449D-03 0.345D-02 0.761D-02 0.274D-01-0.411D-01-0.197D+00
 Coeff:      0.172D+00 0.103D+01
 Gap=     0.501 Goal=   None    Shift=    0.000
 RMSDP=6.89D-06 MaxDP=2.02D-04 DE=-8.86D-06 OVMax= 7.46D-04

 Cycle   9  Pass 1  IDiag  1:
 E= -279.501803150333     Delta-E=       -0.000001770373 Rises=F Damp=F
 DIIS: error= 1.55D-05 at cycle   9 NSaved=   9.
 NSaved= 9 IEnMin= 9 EnMin= -279.501803150333     IErMin= 9 ErrMin= 1.55D-05
 ErrMax= 1.55D-05  0.00D+00 EMaxC= 1.00D-01 BMatC= 6.91D-08 BMatP= 6.05D-07
 IDIUse=1 WtCom= 1.00D+00 WtEn= 0.00D+00
 Coeff-Com:  0.123D-03-0.172D-02-0.308D-02-0.204D-02 0.342D-01-0.408D-04
 Coeff-Com: -0.167D+00-0.102D+00 0.124D+01
 Coeff:      0.123D-03-0.172D-02-0.308D-02-0.204D-02 0.342D-01-0.408D-04
 Coeff:     -0.167D+00-0.102D+00 0.124D+01
 Gap=     0.501 Goal=   None    Shift=    0.000
 RMSDP=1.94D-06 MaxDP=5.16D-05 DE=-1.77D-06 OVMax= 1.71D-04

 Cycle  10  Pass 1  IDiag  1:
 E= -279.501803310655     Delta-E=       -0.000000160321 Rises=F Damp=F
 DIIS: error= 3.93D-06 at cycle  10 NSaved=  10.
 NSaved=10 IEnMin=10 EnMin= -279.501803310655     IErMin=10 ErrMin= 3.93D-06
 ErrMax= 3.93D-06  0.00D+00 EMaxC= 1.00D-01 BMatC= 5.56D-09 BMatP= 6.91D-08
 IDIUse=1 WtCom= 1.00D+00 WtEn= 0.00D+00
 Coeff-Com:  0.310D-04-0.243D-03-0.324D-03-0.270D-02 0.165D-02 0.196D-01
 Coeff-Com: -0.130D-01-0.744D-01-0.809D-01 0.115D+01
 Coeff:      0.310D-04-0.243D-03-0.324D-03-0.270D-02 0.165D-02 0.196D-01
 Coeff:     -0.130D-01-0.744D-01-0.809D-01 0.115D+01
 Gap=     0.501 Goal=   None    Shift=    0.000
 RMSDP=5.09D-07 MaxDP=2.10D-05 DE=-1.60D-07 OVMax= 4.06D-05

 Cycle  11  Pass 1  IDiag  1:
 E= -279.501803323384     Delta-E=       -0.000000012730 Rises=F Damp=F
 DIIS: error= 1.77D-06 at cycle  11 NSaved=  11.
 NSaved=11 IEnMin=11 EnMin= -279.501803323384     IErMin=11 ErrMin= 1.77D-06
 ErrMax= 1.77D-06  0.00D+00 EMaxC= 1.00D-01 BMatC= 6.75D-10 BMatP= 5.56D-09
 IDIUse=1 WtCom= 1.00D+00 WtEn= 0.00D+00
 Coeff-Com: -0.215D-04 0.246D-03 0.491D-03 0.542D-03-0.431D-02-0.365D-02
 Coeff-Com:  0.213D-01 0.313D-01-0.139D+00-0.182D+00 0.128D+01
 Coeff:     -0.215D-04 0.246D-03 0.491D-03 0.542D-03-0.431D-02-0.365D-02
 Coeff:      0.213D-01 0.313D-01-0.139D+00-0.182D+00 0.128D+01
 Gap=     0.501 Goal=   None    Shift=    0.000
 RMSDP=1.84D-07 MaxDP=6.51D-06 DE=-1.27D-08 OVMax= 1.67D-05

 Cycle  12  Pass 1  IDiag  1:
 E= -279.501803325306     Delta-E=       -0.000000001922 Rises=F Damp=F
 DIIS: error= 5.43D-07 at cycle  12 NSaved=  12.
 NSaved=12 IEnMin=12 EnMin= -279.501803325306     IErMin=12 ErrMin= 5.43D-07
 ErrMax= 5.43D-07  0.00D+00 EMaxC= 1.00D-01 BMatC= 7.87D-11 BMatP= 6.75D-10
 IDIUse=1 WtCom= 1.00D+00 WtEn= 0.00D+00
 Coeff-Com:  0.140D-05-0.311D-04-0.680D-04 0.184D-03 0.113D-02-0.232D-02
 Coeff-Com: -0.433D-02 0.535D-02 0.435D-01-0.115D+00-0.294D+00 0.137D+01
 Coeff:      0.140D-05-0.311D-04-0.680D-04 0.184D-03 0.113D-02-0.232D-02
 Coeff:     -0.433D-02 0.535D-02 0.435D-01-0.115D+00-0.294D+00 0.137D+01
 Gap=     0.501 Goal=   None    Shift=    0.000
 RMSDP=7.99D-08 MaxDP=2.83D-06 DE=-1.92D-09 OVMax= 8.53D-06

 Cycle  13  Pass 1  IDiag  1:
 E= -279.501803325592     Delta-E=       -0.000000000286 Rises=F Damp=F
 DIIS: error= 1.70D-07 at cycle  13 NSaved=  13.
 NSaved=13 IEnMin=13 EnMin= -279.501803325592     IErMin=13 ErrMin= 1.70D-07
 ErrMax= 1.70D-07  0.00D+00 EMaxC= 1.00D-01 BMatC= 6.78D-12 BMatP= 7.87D-11
 IDIUse=1 WtCom= 1.00D+00 WtEn= 0.00D+00
 Coeff-Com:  0.140D-05-0.146D-04-0.234D-04-0.104D-03 0.100D-03 0.923D-03
 Coeff-Com: -0.793D-03-0.387D-02-0.653D-03 0.495D-01-0.312D-01-0.397D+00
 Coeff-Com:  0.138D+01
 Coeff:      0.140D-05-0.146D-04-0.234D-04-0.104D-03 0.100D-03 0.923D-03
 Coeff:     -0.793D-03-0.387D-02-0.653D-03 0.495D-01-0.312D-01-0.397D+00
 Coeff:      0.138D+01
 Gap=     0.501 Goal=   None    Shift=    0.000
 RMSDP=2.83D-08 MaxDP=6.12D-07 DE=-2.86D-10 OVMax= 4.08D-06

 Cycle  14  Pass 1  IDiag  1:
 E= -279.501803325624     Delta-E=       -0.000000000033 Rises=F Damp=F
 DIIS: error= 1.06D-07 at cycle  14 NSaved=  14.
 NSaved=14 IEnMin=14 EnMin= -279.501803325624     IErMin=14 ErrMin= 1.06D-07
 ErrMax= 1.06D-07  0.00D+00 EMaxC= 1.00D-01 BMatC= 1.35D-12 BMatP= 6.78D-12
 IDIUse=1 WtCom= 1.00D+00 WtEn= 0.00D+00
 Coeff-Com: -0.568D-06 0.794D-05 0.136D-04 0.236D-04-0.159D-03-0.714D-04
 Coeff-Com:  0.658D-03 0.916D-03-0.412D-02-0.542D-02 0.357D-01 0.162D-01
 Coeff-Com: -0.527D+00 0.148D+01
 Coeff:     -0.568D-06 0.794D-05 0.136D-04 0.236D-04-0.159D-03-0.714D-04
 Coeff:      0.658D-03 0.916D-03-0.412D-02-0.542D-02 0.357D-01 0.162D-01
 Coeff:     -0.527D+00 0.148D+01
 Gap=     0.501 Goal=   None    Shift=    0.000
 RMSDP=1.41D-08 MaxDP=4.02D-07 DE=-3.25D-11 OVMax= 2.50D-06

 Cycle  15  Pass 1  IDiag  1:
 E= -279.501803325633     Delta-E=       -0.000000000009 Rises=F Damp=F
 DIIS: error= 6.68D-08 at cycle  15 NSaved=  15.
 NSaved=15 IEnMin=15 EnMin= -279.501803325633     IErMin=15 ErrMin= 6.68D-08
 ErrMax= 6.68D-08  0.00D+00 EMaxC= 1.00D-01 BMatC= 4.44D-13 BMatP= 1.35D-12
 IDIUse=1 WtCom= 1.00D+00 WtEn= 0.00D+00
 Coeff-Com:  0.914D-07-0.219D-05-0.543D-05 0.937D-05 0.105D-03-0.192D-03
 Coeff-Com: -0.299D-03 0.200D-03 0.356D-02-0.853D-02-0.206D-01 0.991D-01
 Coeff-Com:  0.293D-01-0.123D+01 0.213D+01
 Coeff:      0.914D-07-0.219D-05-0.543D-05 0.937D-05 0.105D-03-0.192D-03
 Coeff:     -0.299D-03 0.200D-03 0.356D-02-0.853D-02-0.206D-01 0.991D-01
 Coeff:      0.293D-01-0.123D+01 0.213D+01
 Gap=     0.501 Goal=   None    Shift=    0.000
 RMSDP=1.37D-08 MaxDP=4.06D-07 DE=-8.70D-12 OVMax= 2.51D-06

 Cycle  16  Pass 1  IDiag  1:
 E= -279.501803325637     Delta-E=       -0.000000000004 Rises=F Damp=F
 DIIS: error= 2.21D-08 at cycle  16 NSaved=  16.
 NSaved=16 IEnMin=16 EnMin= -279.501803325637     IErMin=16 ErrMin= 2.21D-08
 ErrMax= 2.21D-08  0.00D+00 EMaxC= 1.00D-01 BMatC= 5.52D-14 BMatP= 4.44D-13
 IDIUse=1 WtCom= 1.00D+00 WtEn= 0.00D+00
 Coeff-Com:  0.583D-07-0.714D-06-0.213D-06-0.932D-05-0.818D-05 0.812D-04
 Coeff-Com: -0.492D-06-0.267D-03-0.512D-03 0.402D-02 0.575D-03-0.424D-01
 Coeff-Com:  0.116D+00 0.106D+00-0.756D+00 0.157D+01
 Coeff:      0.583D-07-0.714D-06-0.213D-06-0.932D-05-0.818D-05 0.812D-04
 Coeff:     -0.492D-06-0.267D-03-0.512D-03 0.402D-02 0.575D-03-0.424D-01
 Coeff:      0.116D+00 0.106D+00-0.756D+00 0.157D+01
 Gap=     0.501 Goal=   None    Shift=    0.000
 RMSDP=5.09D-09 MaxDP=1.51D-07 DE=-4.21D-12 OVMax= 9.47D-07

 SCF Done:  E(RHF) =  -279.501803326     A.U. after   16 cycles
            NFock= 16  Conv=0.51D-08     -V/T= 2.0024
 KE= 2.788455552590D+02 PE=-8.950817033167D+02 EE= 2.198565512230D+02
 Leave Link  502 at Mon Feb 14 22:14:14 2022, MaxMem= 16106127360 cpu:              46.7 elap:               7.5
 (Enter /sw/contrib/gaussian/g16/B01/g16/l801.exe)
 ExpMin= 2.53D-02 ExpMax= 1.53D+04 ExpMxC= 5.22D+02 IAcc=3 IRadAn=         5 AccDes= 0.00D+00
 HarFok:  IExCor=  205 AccDes= 0.00D+00 IRadAn=         5 IDoV=-2 UseB2=F ITyADJ=14
 ICtDFT= 12500011 ScaDFX=  1.000000  1.000000  1.000000  1.000000
 Largest valence mixing into a core orbital is  2.08D-04
 Largest core mixing into a valence orbital is  3.63D-05
 Range of M.O.s used for correlation:     5   207
 NBasis=   207 NAE=    16 NBE=    16 NFC=     4 NFV=     0
 NROrb=    203 NOA=    12 NOB=    12 NVA=   191 NVB=   191

 **** Warning!!: The largest alpha MO coefficient is  0.17979174D+02

 Leave Link  801 at Mon Feb 14 22:14:14 2022, MaxMem= 16106127360 cpu:               2.1 elap:               0.1
 (Enter /sw/contrib/gaussian/g16/B01/g16/l906.exe)
 Frozen-core derivative calculation, NFC=   4 NFV=   0.
 FulOut=F Deriv=T AODrv=F NAtomX=     5
   MMem=          76  MDisk=          12 MDiskD=          12
  W3Min=      811440 MinDsk=     1524655 NBas6D=         245
 NBas2D=       30762    NTT=       30135    LW2=     3500000
    MDV= 16105643525 MDiskM=      328645 NBas2p=       30466
 Fully in-core method, ICMem=   960157634.
 IMap=   1   2   3   4   5   6   7   8   9  10  11  12  13  14  15  16
 JobTyp=1 Pass  1 fully in-core, NPsUse= 28.
 Compute canonical integrals.
 FoFCou: FMM=F IPFlag=           0 FMFlag=           0 FMFlg1=           0
         NFxFlg=           0 DoJE=F BraDBF=F KetDBF=F FulRan=T
         wScrn=  0.000000 ICntrl=       600 IOpCl=  1 I1Cent=           0 NGrid=           0
         NMat0=    1 NMatS0=  30762 NMatT0=    0 NMatD0=    1 NMtDS0=    0 NMtDT0=    0
 Symmetry not used in FoFCou.
 Spin components of T(2) and E(2):
     alpha-alpha T2 =       0.3402730227D-01 E2=     -0.1224116203D+00
     alpha-beta  T2 =       0.1868585064D+00 E2=     -0.7002648667D+00
     beta-beta   T2 =       0.3402730227D-01 E2=     -0.1224116203D+00
 The integrals were generated   1 times.
 ANorm=    0.1120229044D+01
 E2 =    -0.9450881073D+00 EUMP2 =    -0.28044689143291D+03
 Leave Link  906 at Mon Feb 14 22:14:23 2022, MaxMem= 16106127360 cpu:             247.5 elap:               8.9
 (Enter /sw/contrib/gaussian/g16/B01/g16/l1002.exe)
 Minotr:  Closed shell wavefunction.
          Computing MP2/KS-MP2 derivatives.
          Using Z-Vector for PSCF gradient.
          Skipping F1 and S1 gradient terms here.
          Frozen-core window.
          Direct CPHF calculation.
          Differentiating once with respect to electric field.
                with respect to dipole field.
          Electric field/nuclear overlap derivatives assumed to be zero.
          Requested convergence is 1.0D-10 RMS, and 1.0D-09 maximum.
          NewPWx=F KeepS1=T KeepF1=T KeepIn=T MapXYZ=F SortEE=F KeepMc=T.
 Keep R1 ints in memory in canonical form, NReq=245621348.
 FoFCou: FMM=F IPFlag=           0 FMFlag=           0 FMFlg1=           0
         NFxFlg=           0 DoJE=F BraDBF=F KetDBF=F FulRan=T
         wScrn=  0.000000 ICntrl=       600 IOpCl=  0 I1Cent=           0 NGrid=           0
         NMat0=    1 NMatS0=  21528 NMatT0=    0 NMatD0=    1 NMtDS0=    0 NMtDT0=    0
 Symmetry not used in FoFCou.
 Two-electron integral symmetry not used.
          MDV=   16106127360 using IRadAn=       5.
          Solving linear equations separately, MaxMat=       0.
          There are     1 degrees of freedom in the 1st order CPHF.  IDoFFX=0 NUNeed=     1.
 LinEq1:  Iter=  0 NonCon=     1 RMS=5.95D-03 Max=1.29D-01 NDo=     1
 AX will form     1 AO Fock derivatives at one time.
 LinEq1:  Iter=  1 NonCon=     1 RMS=1.90D-03 Max=3.74D-02 NDo=     1
 LinEq1:  Iter=  2 NonCon=     1 RMS=8.67D-04 Max=1.23D-02 NDo=     1
 LinEq1:  Iter=  3 NonCon=     1 RMS=3.86D-04 Max=7.62D-03 NDo=     1
 LinEq1:  Iter=  4 NonCon=     1 RMS=1.19D-04 Max=1.68D-03 NDo=     1
 LinEq1:  Iter=  5 NonCon=     1 RMS=4.56D-05 Max=7.06D-04 NDo=     1
 LinEq1:  Iter=  6 NonCon=     1 RMS=2.04D-05 Max=2.36D-04 NDo=     1
 LinEq1:  Iter=  7 NonCon=     1 RMS=8.25D-06 Max=1.57D-04 NDo=     1
 LinEq1:  Iter=  8 NonCon=     1 RMS=3.63D-06 Max=5.18D-05 NDo=     1
 LinEq1:  Iter=  9 NonCon=     1 RMS=1.08D-06 Max=2.35D-05 NDo=     1
 LinEq1:  Iter= 10 NonCon=     1 RMS=2.83D-07 Max=8.03D-06 NDo=     1
 LinEq1:  Iter= 11 NonCon=     1 RMS=7.97D-08 Max=1.78D-06 NDo=     1
 LinEq1:  Iter= 12 NonCon=     1 RMS=2.02D-08 Max=2.14D-07 NDo=     1
 LinEq1:  Iter= 13 NonCon=     1 RMS=3.88D-09 Max=4.11D-08 NDo=     1
 LinEq1:  Iter= 14 NonCon=     1 RMS=6.30D-10 Max=9.97D-09 NDo=     1
 LinEq1:  Iter= 15 NonCon=     1 RMS=1.39D-10 Max=2.27D-09 NDo=     1
 LinEq1:  Iter= 16 NonCon=     0 RMS=3.62D-11 Max=4.86D-10 NDo=     1
 Linear equations converged to 1.000D-10 1.000D-09 after    16 iterations.
 End of Minotr F.D. properties file   721 does not exist.
 End of Minotr F.D. properties file   722 does not exist.
 End of Minotr F.D. properties file   788 does not exist.
 Leave Link 1002 at Mon Feb 14 22:14:31 2022, MaxMem= 16106127360 cpu:              40.7 elap:               7.9
 (Enter /sw/contrib/gaussian/g16/B01/g16/l601.exe)
 Copying SCF densities to generalized density rwf, IOpCl= 0 IROHF=0.

 **********************************************************************

            Population analysis using the MP2 Density.

 **********************************************************************

 Orbital symmetries:
       Occupied  (A) (A) (A) (A) (A) (A) (A) (A) (A) (A) (A) (A)
                 (A) (A) (A) (A)
       Virtual   (A) (A) (A) (A) (A) (A) (A) (A) (A) (A) (A) (A)
                 (A) (A) (A) (A) (A) (A) (A) (A) (A) (A) (A) (A)
                 (A) (A) (A) (A) (A) (A) (A) (A) (A) (A) (A) (A)
                 (A) (A) (A) (A) (A) (A) (A) (A) (A) (A) (A) (A)
                 (A) (A) (A) (A) (A) (A) (A) (A) (A) (A) (A) (A)
                 (A) (A) (A) (A) (A) (A) (A) (A) (A) (A) (A) (A)
                 (A) (A) (A) (A) (A) (A) (A) (A) (A) (A) (A) (A)
                 (A) (A) (A) (A) (A) (A) (A) (A) (A) (A) (A) (A)
                 (A) (A) (A) (A) (A) (A) (A) (A) (A) (A) (A) (A)
                 (A) (A) (A) (A) (A) (A) (A) (A) (A) (A) (A) (A)
                 (A) (A) (A) (A) (A) (A) (A) (A) (A) (A) (A) (A)
                 (A) (A) (A) (A) (A) (A) (A) (A) (A) (A) (A) (A)
                 (A) (A) (A) (A) (A) (A) (A) (A) (A) (A) (A) (A)
                 (A) (A) (A) (A) (A) (A) (A) (A) (A) (A) (A) (A)
                 (A) (A) (A) (A) (A) (A) (A) (A) (A) (A) (A) (A)
                 (A) (A) (A) (A) (A) (A) (A) (A) (A) (A) (A)
 The electronic state is 1-A.
 Alpha  occ. eigenvalues --  -20.69104 -20.68426 -20.66013 -15.81271  -1.62403
 Alpha  occ. eigenvalues --   -1.49583  -1.25444  -0.94809  -0.77252  -0.75947
 Alpha  occ. eigenvalues --   -0.71285  -0.67881  -0.61990  -0.58883  -0.48691
 Alpha  occ. eigenvalues --   -0.47172
 Alpha virt. eigenvalues --    0.02958   0.07165   0.08593   0.10175   0.13242
 Alpha virt. eigenvalues --    0.13500   0.14390   0.15445   0.17812   0.19410
 Alpha virt. eigenvalues --    0.19925   0.20662   0.22080   0.23536   0.23726
 Alpha virt. eigenvalues --    0.26696   0.29237   0.30005   0.31192   0.34349
 Alpha virt. eigenvalues --    0.35392   0.38755   0.41668   0.42913   0.52716
 Alpha virt. eigenvalues --    0.53105   0.55860   0.58097   0.62597   0.63812
 Alpha virt. eigenvalues --    0.67357   0.68358   0.70685   0.71315   0.71915
 Alpha virt. eigenvalues --    0.73247   0.74801   0.78562   0.79395   0.81059
 Alpha virt. eigenvalues --    0.81428   0.83419   0.86764   0.90836   0.91568
 Alpha virt. eigenvalues --    0.93371   0.95530   0.97119   0.98847   1.01537
 Alpha virt. eigenvalues --    1.05433   1.05927   1.08389   1.11351   1.12871
 Alpha virt. eigenvalues --    1.19914   1.21879   1.23424   1.33671   1.35090
 Alpha virt. eigenvalues --    1.38897   1.45564   1.49273   1.50821   1.53700
 Alpha virt. eigenvalues --    1.56728   1.58092   1.60303   1.66382   1.66693
 Alpha virt. eigenvalues --    1.70618   1.78876   1.82947   1.83721   1.88121
 Alpha virt. eigenvalues --    1.90474   1.95620   1.98220   2.02735   2.07756
 Alpha virt. eigenvalues --    2.11499   2.12728   2.15600   2.22112   2.25757
 Alpha virt. eigenvalues --    2.27218   2.28693   2.31206   2.34349   2.38785
 Alpha virt. eigenvalues --    2.40391   2.44869   2.45367   2.46685   2.47793
 Alpha virt. eigenvalues --    2.50702   2.58942   2.59860   2.61853   2.62660
 Alpha virt. eigenvalues --    2.63811   2.66539   2.75012   2.82906   2.84647
 Alpha virt. eigenvalues --    2.88768   2.90042   2.91700   2.96014   3.02060
 Alpha virt. eigenvalues --    3.07648   3.11958   3.20453   3.22937   3.31590
 Alpha virt. eigenvalues --    3.34066   3.51333   3.64815   3.83729   3.84900
 Alpha virt. eigenvalues --    4.13521   4.16476   4.20338   4.25406   4.33969
 Alpha virt. eigenvalues --    4.39378   4.47610   4.52453   4.65055   4.71109
 Alpha virt. eigenvalues --    4.80403   4.82239   4.82619   4.89702   5.02258
 Alpha virt. eigenvalues --    5.07216   5.10103   5.14590   5.18342   5.25047
 Alpha virt. eigenvalues --    5.27156   5.30379   5.33031   5.35162   5.59933
 Alpha virt. eigenvalues --    5.67359   5.76094   5.83256   5.95439   6.16964
 Alpha virt. eigenvalues --    6.31197   6.34193   6.39228   6.49432   6.50509
 Alpha virt. eigenvalues --    6.62257   6.65431   6.70622   6.74712   6.76978
 Alpha virt. eigenvalues --    6.83521   6.89833   7.01126   7.05426   7.05794
 Alpha virt. eigenvalues --    7.09451   7.12732   7.14598   7.18966   7.22490
 Alpha virt. eigenvalues --    7.23810   7.30375   7.32222   7.35693   7.39150
 Alpha virt. eigenvalues --    7.42828   7.48628   7.60630   7.61816   7.63340
 Alpha virt. eigenvalues --    7.67508   7.78476   7.88389   8.09146   8.31122
 Alpha virt. eigenvalues --    8.39917   8.54094  13.38455  14.40060  15.16057
 Alpha virt. eigenvalues --   16.15017
          Condensed to atoms (all electrons):
               1          2          3          4          5
     1  H    0.590370   0.128460   0.020174   0.011511  -0.000595
     2  O    0.128460   8.320282  -0.172304  -0.089805   0.015069
     3  O    0.020174  -0.172304   8.467066  -0.129227  -0.038685
     4  N    0.011511  -0.089805  -0.129227   6.969936  -0.054425
     5  O   -0.000595   0.015069  -0.038685  -0.054425   8.272000
 Mulliken charges:
               1
     1  H    0.250080
     2  O   -0.201702
     3  O   -0.147024
     4  N    0.292010
     5  O   -0.193364
 Sum of Mulliken charges =  -0.00000
 Mulliken charges with hydrogens summed into heavy atoms:
               1
     2  O    0.048378
     3  O   -0.147024
     4  N    0.292010
     5  O   -0.193364
 Electronic spatial extent (au):  <R**2>=            252.8341
 Charge=             -0.0000 electrons
 Dipole moment (field-independent basis, Debye):
    X=             -1.2024    Y=              0.7704    Z=              0.3065  Tot=              1.4605
 Quadrupole moment (field-independent basis, Debye-Ang):
   XX=            -18.0879   YY=            -23.1219   ZZ=            -21.9358
   XY=             -2.7234   XZ=             -0.8068   YZ=              0.2457
 Traceless Quadrupole moment (field-independent basis, Debye-Ang):
   XX=              2.9606   YY=             -2.0734   ZZ=             -0.8872
   XY=             -2.7234   XZ=             -0.8068   YZ=              0.2457
 Octapole moment (field-independent basis, Debye-Ang**2):
  XXX=            -17.8550  YYY=              1.7492  ZZZ=              0.1042  XYY=             -1.0285
  XXY=              6.0107  XXZ=              1.9293  XZZ=              1.6163  YZZ=              0.2707
  YYZ=              0.0393  XYZ=             -0.4192
 Hexadecapole moment (field-independent basis, Debye-Ang**3):
 XXXX=           -191.0937 YYYY=            -41.0869 ZZZZ=            -18.2922 XXXY=            -11.6256
 XXXZ=             -4.8838 YYYX=             -0.9557 YYYZ=              0.2258 ZZZX=             -0.3081
 ZZZY=              0.1657 XXYY=            -42.5780 XXZZ=            -41.3010 YYZZ=             -9.8652
 XXYZ=              0.9934 YYXZ=             -0.2108 ZZXY=             -0.5206
 N-N= 1.168777935090D+02 E-N=-8.958659420604D+02  KE= 2.801978928253D+02
 No NMR shielding tensors so no spin-rotation constants.
 Leave Link  601 at Mon Feb 14 22:14:31 2022, MaxMem= 16106127360 cpu:               4.3 elap:               0.2
 (Enter /sw/contrib/gaussian/g16/B01/g16/l9999.exe)
 1\1\GINC-N2131\SP\RMP2-FC\Aug-CC-pVTZ\H1N1O3\CGAVINH\14-Feb-2022\0\\#p
  SP mp2/aug-cc-pvtz density=current\\title\\0,1\H\O,1,0.96897556\O,2,1
 .45491931,1,97.59494903\N,3,1.45878406,2,102.29752444,1,168.39073422,0
 \O,4,1.17072885,3,109.06955123,2,180.,0\\Version=ES64L-G16RevB.01\Stat
 e=1-A\HF=-279.5018033\MP2=-280.4468914\RMSD=5.092e-09\Dipole=-0.146545
 7,0.0233839,-0.5551306\Quadrupole=-1.4986181,-0.7616016,2.2602197,0.07
 31408,2.0848277,-0.044155\PG=C01 [X(H1N1O3)]\\@


 QUHEN THE CAUSS IS TAKEN AWAY THE EFFECT WANISHETH.
 -- PROVERBS AND REASONS OF THE YEAR 1585
           AS REPRINTED IN PAISLEY MAGAZINE 1828.
 Job cpu time:       0 days  0 hours  6 minutes  5.3 seconds.
 Elapsed time:       0 days  0 hours  0 minutes 25.8 seconds.
 File lengths (MBytes):  RWF=     21 Int=      0 D2E=      0 Chk=      8 Scr=      1
 Normal termination of Gaussian 16 at Mon Feb 14 22:14:31 2022.
