title                                                                   
SP        RMP2-FC                                                     Aug-CC-pVTZ         
Number of atoms                            I                5
Info1-9                                    I   N=           9
          33          24           0           0           0         110
           1           2           1
Full Title                                 C   N=           1
title       
Route                                      C   N=           4
#p SP mp2/aug-cc-pvtz density=current           
Charge                                     I                0
Multiplicity                               I                1
Number of electrons                        I               32
Number of alpha electrons                  I               16
Number of beta electrons                   I               16
Number of basis functions                  I              207
Number of independent functions            I              207
Number of point charges in /Mol/           I                0
Number of translation vectors              I                0
Atomic numbers                             I   N=           5
           1           8           8           7           8
Nuclear charges                            R   N=           5
  1.00000000E+00  8.00000000E+00  8.00000000E+00  7.00000000E+00  8.00000000E+00
Current cartesian coordinates              R   N=          15
  2.99341022E+00  3.10973153E+00  2.43818280E-30  2.74939736E+00  1.29496455E+00
  1.06056067E-30 -3.15944748E-17  1.29799192E+00  4.20569068E-31 -4.99351703E-01
 -1.41310669E+00 -8.12021000E-31 -2.68664090E+00 -1.74520456E+00 -1.69168180E-30
Number of symbols in /Mol/                 I                0
Force Field                                I                0
Atom Types                                 C   N=           5
                                                            
Int Atom Types                             I   N=           5
           0           0           0           0           0
MM charges                                 R   N=           5
  0.00000000E+00  0.00000000E+00  0.00000000E+00  0.00000000E+00  0.00000000E+00
Integer atomic weights                     I   N=           5
           1          16          16          14          16
Real atomic weights                        R   N=           5
  1.00782504E+00  1.59949146E+01  1.59949146E+01  1.40030740E+01  1.59949146E+01
Atom fragment info                         I   N=           5
           0           0           0           0           0
Atom residue num                           I   N=           5
           0           0           0           0           0
Nuclear spins                              I   N=           5
           1           0           0           2           0
Nuclear ZEff                               R   N=           5
 -1.00000000E+00 -5.60000000E+00 -5.60000000E+00 -4.55000000E+00 -5.60000000E+00
Nuclear ZNuc                               R   N=           5
  1.00000000E+00  8.00000000E+00  8.00000000E+00  7.00000000E+00  8.00000000E+00
Nuclear QMom                               R   N=           5
  0.00000000E+00  0.00000000E+00  0.00000000E+00  2.04400000E+00  0.00000000E+00
Nuclear GFac                               R   N=           5
  2.79284600E+00  0.00000000E+00  0.00000000E+00  4.03761000E-01  0.00000000E+00
MicOpt                                     I   N=           5
          -1          -1          -1          -1          -1
Number of residues                         I                0
Number of secondary structures             I                0
SymInf integers                            I   N=          26
           1           2           1           1           1           1
           1          -1           0           0           0           0
           0           0           0           0           0           0
           0           0           0           0           0           0
           0           0
RotTr to input orientation                 R   N=          12
 -9.91081063E-01  6.50493500E-16 -1.33260371E-01  1.33260371E-01 -9.25359754E-16
 -9.91081063E-01 -7.68005574E-16 -1.00000000E+00  8.30421523E-16  2.55230820E+00
  0.00000000E+00  3.48089899E+00
Number of contracted shells                I               65
Number of primitive shells                 I              119
Pure/Cartesian d shells                    I                0
Pure/Cartesian f shells                    I                0
Highest angular momentum                   I                3
Largest degree of contraction              I                7
Shell types                                I   N=          65
           0           0           0           0           1           1
           1          -2          -2           0           0           0
           0           0           1           1           1           1
          -2          -2          -2          -3          -3           0
           0           0           0           0           1           1
           1           1          -2          -2          -2          -3
          -3           0           0           0           0           0
           1           1           1           1          -2          -2
          -2          -3          -3           0           0           0
           0           0           1           1           1           1
          -2          -2          -2          -3          -3
Number of primitives per shell             I   N=          65
           3           1           1           1           1           1
           1           1           1           7           6           1
           1           1           3           1           1           1
           1           1           1           1           1           7
           6           1           1           1           3           1
           1           1           1           1           1           1
           1           7           6           1           1           1
           3           1           1           1           1           1
           1           1           1           7           6           1
           1           1           3           1           1           1
           1           1           1           1           1
Shell to atom map                          I   N=          65
           1           1           1           1           1           1
           1           1           1           2           2           2
           2           2           2           2           2           2
           2           2           2           2           2           3
           3           3           3           3           3           3
           3           3           3           3           3           3
           3           4           4           4           4           4
           4           4           4           4           4           4
           4           4           4           5           5           5
           5           5           5           5           5           5
           5           5           5           5           5
Primitive exponents                        R   N=         119
  3.38700000E+01  5.09500000E+00  1.15900000E+00  3.25800000E-01  1.02700000E-01
  2.52600000E-02  1.40700000E+00  3.88000000E-01  1.02000000E-01  1.05700000E+00
  2.47000000E-01  1.53300000E+04  2.29900000E+03  5.22400000E+02  1.47300000E+02
  4.75500000E+01  1.67600000E+01  6.20700000E+00  5.22400000E+02  1.47300000E+02
  4.75500000E+01  1.67600000E+01  6.20700000E+00  6.88200000E-01  1.75200000E+00
  2.38400000E-01  7.37600000E-02  3.44600000E+01  7.74900000E+00  2.28000000E+00
  7.15600000E-01  2.14000000E-01  5.97400000E-02  2.31400000E+00  6.45000000E-01
  2.14000000E-01  1.42800000E+00  5.00000000E-01  1.53300000E+04  2.29900000E+03
  5.22400000E+02  1.47300000E+02  4.75500000E+01  1.67600000E+01  6.20700000E+00
  5.22400000E+02  1.47300000E+02  4.75500000E+01  1.67600000E+01  6.20700000E+00
  6.88200000E-01  1.75200000E+00  2.38400000E-01  7.37600000E-02  3.44600000E+01
  7.74900000E+00  2.28000000E+00  7.15600000E-01  2.14000000E-01  5.97400000E-02
  2.31400000E+00  6.45000000E-01  2.14000000E-01  1.42800000E+00  5.00000000E-01
  1.14200000E+04  1.71200000E+03  3.89300000E+02  1.10000000E+02  3.55700000E+01
  1.25400000E+01  4.64400000E+00  3.89300000E+02  1.10000000E+02  3.55700000E+01
  1.25400000E+01  4.64400000E+00  5.11800000E-01  1.29300000E+00  1.78700000E-01
  5.76000000E-02  2.66300000E+01  5.94800000E+00  1.74200000E+00  5.55000000E-01
  1.72500000E-01  4.91000000E-02  1.65400000E+00  4.69000000E-01  1.51000000E-01
  1.09300000E+00  3.64000000E-01  1.53300000E+04  2.29900000E+03  5.22400000E+02
  1.47300000E+02  4.75500000E+01  1.67600000E+01  6.20700000E+00  5.22400000E+02
  1.47300000E+02  4.75500000E+01  1.67600000E+01  6.20700000E+00  6.88200000E-01
  1.75200000E+00  2.38400000E-01  7.37600000E-02  3.44600000E+01  7.74900000E+00
  2.28000000E+00  7.15600000E-01  2.14000000E-01  5.97400000E-02  2.31400000E+00
  6.45000000E-01  2.14000000E-01  1.42800000E+00  5.00000000E-01
Contraction coefficients                   R   N=         119
  2.54948632E-02  1.90362766E-01  8.52162022E-01  1.00000000E+00  1.00000000E+00
  1.00000000E+00  1.00000000E+00  1.00000000E+00  1.00000000E+00  1.00000000E+00
  1.00000000E+00  5.19808943E-04  4.02025621E-03  2.07128267E-02  8.10105536E-02
  2.35962985E-01  4.42653446E-01  3.57064423E-01 -4.42115008E-05 -1.22591041E-03
 -1.05517725E-02 -6.74452633E-02 -1.71198607E-01  1.07329856E+00  1.00000000E+00
  1.00000000E+00  1.00000000E+00  4.11634896E-02  2.57762836E-01  8.02419274E-01
  1.00000000E+00  1.00000000E+00  1.00000000E+00  1.00000000E+00  1.00000000E+00
  1.00000000E+00  1.00000000E+00  1.00000000E+00  5.19808943E-04  4.02025621E-03
  2.07128267E-02  8.10105536E-02  2.35962985E-01  4.42653446E-01  3.57064423E-01
 -4.42115008E-05 -1.22591041E-03 -1.05517725E-02 -6.74452633E-02 -1.71198607E-01
  1.07329856E+00  1.00000000E+00  1.00000000E+00  1.00000000E+00  4.11634896E-02
  2.57762836E-01  8.02419274E-01  1.00000000E+00  1.00000000E+00  1.00000000E+00
  1.00000000E+00  1.00000000E+00  1.00000000E+00  1.00000000E+00  1.00000000E+00
  5.34563860E-04  4.13435660E-03  2.12335358E-02  8.25006224E-02  2.38138871E-01
  4.42551547E-01  3.53757422E-01 -4.89867350E-05 -1.19527323E-03 -1.03490714E-02
 -6.48680190E-02 -1.71552477E-01  1.07289568E+00  1.00000000E+00  1.00000000E+00
  1.00000000E+00  3.98072123E-02  2.49002660E-01  8.10479727E-01  1.00000000E+00
  1.00000000E+00  1.00000000E+00  1.00000000E+00  1.00000000E+00  1.00000000E+00
  1.00000000E+00  1.00000000E+00  5.19808943E-04  4.02025621E-03  2.07128267E-02
  8.10105536E-02  2.35962985E-01  4.42653446E-01  3.57064423E-01 -4.42115008E-05
 -1.22591041E-03 -1.05517725E-02 -6.74452633E-02 -1.71198607E-01  1.07329856E+00
  1.00000000E+00  1.00000000E+00  1.00000000E+00  4.11634896E-02  2.57762836E-01
  8.02419274E-01  1.00000000E+00  1.00000000E+00  1.00000000E+00  1.00000000E+00
  1.00000000E+00  1.00000000E+00  1.00000000E+00  1.00000000E+00
Coordinates of each shell                  R   N=         195
  2.99341022E+00  3.10973153E+00  1.12924584E-30  2.99341022E+00  3.10973153E+00
  1.12924584E-30  2.99341022E+00  3.10973153E+00  1.12924584E-30  2.99341022E+00
  3.10973153E+00  1.12924584E-30  2.99341022E+00  3.10973153E+00  1.12924584E-30
  2.99341022E+00  3.10973153E+00  1.12924584E-30  2.99341022E+00  3.10973153E+00
  1.12924584E-30  2.99341022E+00  3.10973153E+00  1.12924584E-30  2.99341022E+00
  3.10973153E+00  1.12924584E-30  2.74939736E+00  1.29496455E+00  7.32033058E-31
  2.74939736E+00  1.29496455E+00  7.32033058E-31  2.74939736E+00  1.29496455E+00
  7.32033058E-31  2.74939736E+00  1.29496455E+00  7.32033058E-31  2.74939736E+00
  1.29496455E+00  7.32033058E-31  2.74939736E+00  1.29496455E+00  7.32033058E-31
  2.74939736E+00  1.29496455E+00  7.32033058E-31  2.74939736E+00  1.29496455E+00
  7.32033058E-31  2.74939736E+00  1.29496455E+00  7.32033058E-31  2.74939736E+00
  1.29496455E+00  7.32033058E-31  2.74939736E+00  1.29496455E+00  7.32033058E-31
  2.74939736E+00  1.29496455E+00  7.32033058E-31  2.74939736E+00  1.29496455E+00
  7.32033058E-31  2.74939736E+00  1.29496455E+00  7.32033058E-31 -7.68692100E-18
  1.29799192E+00  2.53700668E-31 -7.68692100E-18  1.29799192E+00  2.53700668E-31
 -7.68692100E-18  1.29799192E+00  2.53700668E-31 -7.68692100E-18  1.29799192E+00
  2.53700668E-31 -7.68692100E-18  1.29799192E+00  2.53700668E-31 -7.68692100E-18
  1.29799192E+00  2.53700668E-31 -7.68692100E-18  1.29799192E+00  2.53700668E-31
 -7.68692100E-18  1.29799192E+00  2.53700668E-31 -7.68692100E-18  1.29799192E+00
  2.53700668E-31 -7.68692100E-18  1.29799192E+00  2.53700668E-31 -7.68692100E-18
  1.29799192E+00  2.53700668E-31 -7.68692100E-18  1.29799192E+00  2.53700668E-31
 -7.68692100E-18  1.29799192E+00  2.53700668E-31 -7.68692100E-18  1.29799192E+00
  2.53700668E-31 -4.99351703E-01 -1.41310669E+00 -3.63183841E-31 -4.99351703E-01
 -1.41310669E+00 -3.63183841E-31 -4.99351703E-01 -1.41310669E+00 -3.63183841E-31
 -4.99351703E-01 -1.41310669E+00 -3.63183841E-31 -4.99351703E-01 -1.41310669E+00
 -3.63183841E-31 -4.99351703E-01 -1.41310669E+00 -3.63183841E-31 -4.99351703E-01
 -1.41310669E+00 -3.63183841E-31 -4.99351703E-01 -1.41310669E+00 -3.63183841E-31
 -4.99351703E-01 -1.41310669E+00 -3.63183841E-31 -4.99351703E-01 -1.41310669E+00
 -3.63183841E-31 -4.99351703E-01 -1.41310669E+00 -3.63183841E-31 -4.99351703E-01
 -1.41310669E+00 -3.63183841E-31 -4.99351703E-01 -1.41310669E+00 -3.63183841E-31
 -4.99351703E-01 -1.41310669E+00 -3.63183841E-31 -2.68664090E+00 -1.74520456E+00
 -8.09103595E-31 -2.68664090E+00 -1.74520456E+00 -8.09103595E-31 -2.68664090E+00
 -1.74520456E+00 -8.09103595E-31 -2.68664090E+00 -1.74520456E+00 -8.09103595E-31
 -2.68664090E+00 -1.74520456E+00 -8.09103595E-31 -2.68664090E+00 -1.74520456E+00
 -8.09103595E-31 -2.68664090E+00 -1.74520456E+00 -8.09103595E-31 -2.68664090E+00
 -1.74520456E+00 -8.09103595E-31 -2.68664090E+00 -1.74520456E+00 -8.09103595E-31
 -2.68664090E+00 -1.74520456E+00 -8.09103595E-31 -2.68664090E+00 -1.74520456E+00
 -8.09103595E-31 -2.68664090E+00 -1.74520456E+00 -8.09103595E-31 -2.68664090E+00
 -1.74520456E+00 -8.09103595E-31 -2.68664090E+00 -1.74520456E+00 -8.09103595E-31
Num ILSW                                   I              100
ILSW                                       I   N=         100
           0           0           0           0           2           0
           0           0           0           0           0          -1
           5           0           0           0           0           0
           0           0           0           0           0           0
           1           0           0           0           0           0
           0           0      100000           0          -1           0
           0           0           0           0           0           0
           0           0           0           1           0           0
           0 -2000000000           1           0           0           0
           0           0           4          52           0           0
           0           0           0           0           0           0
           0           0           0           5           0           1
           0           0           0           0           0           0
           0           0           0           0           0           0
           0           0           0           0           0           0
           0           0           0           0           0           0
           0           0           0           0
Num RLSW                                   I               52
RLSW                                       R   N=          52
  1.00000000E+00  1.00000000E+00  1.00000000E+00  1.00000000E+00  1.00000000E+00
  0.00000000E+00  0.00000000E+00  1.00000000E+00  0.00000000E+00  0.00000000E+00
  0.00000000E+00  0.00000000E+00  1.00000000E+00  0.00000000E+00  0.00000000E+00
  0.00000000E+00  0.00000000E+00  1.00000000E+00  0.00000000E+00  0.00000000E+00
  0.00000000E+00  0.00000000E+00  1.00000000E+00  0.00000000E+00  0.00000000E+00
  0.00000000E+00  0.00000000E+00  1.00000000E+00  0.00000000E+00  0.00000000E+00
  0.00000000E+00  0.00000000E+00  1.00000000E+00  0.00000000E+00  0.00000000E+00
  0.00000000E+00  0.00000000E+00  0.00000000E+00  1.00000000E+00  1.00000000E+00
  0.00000000E+00  1.00000000E+00  0.00000000E+00  0.00000000E+00  0.00000000E+00
  0.00000000E+00  0.00000000E+00  0.00000000E+00  0.00000000E+00  0.00000000E+00
  0.00000000E+00  0.00000000E+00
MxBond                                     I                2
NBond                                      I   N=           5
           1           2           2           2           1
IBond                                      I   N=          10
           2           0           1           3           2           4
           3           5           4           0
RBond                                      R   N=          10
  1.00000000E+00  0.00000000E+00  1.00000000E+00  1.00000000E+00  1.00000000E+00
  1.00000000E+00  1.00000000E+00  2.00000000E+00  2.00000000E+00  0.00000000E+00
Virial Ratio                               R      2.002309428527972E+00
SCF Energy                                 R     -2.795013313757315E+02
MP2 Energy                                 R     -2.804465720982367E+02
Total Energy                               R     -2.804465720982367E+02
Post-SCF wavefunction norm                 R      1.120229075746316E+00
RMS Density                                R      3.776400229735648E-09
Job Status                                 I                1
Nuclear derivative order                   I                0
External E-field                           R   N=          35
  0.00000000E+00  0.00000000E+00  0.00000000E+00  0.00000000E+00  0.00000000E+00
  0.00000000E+00  0.00000000E+00  0.00000000E+00  0.00000000E+00  0.00000000E+00
  0.00000000E+00  0.00000000E+00  0.00000000E+00  0.00000000E+00  0.00000000E+00
  0.00000000E+00  0.00000000E+00  0.00000000E+00  0.00000000E+00  0.00000000E+00
  0.00000000E+00  0.00000000E+00  0.00000000E+00  0.00000000E+00  0.00000000E+00
  0.00000000E+00  0.00000000E+00  0.00000000E+00  0.00000000E+00  0.00000000E+00
  0.00000000E+00  0.00000000E+00  0.00000000E+00  0.00000000E+00  0.00000000E+00
IOpCl                                      I                0
IROHF                                      I                0
Alpha Orbital Energies                     R   N=         207
 -2.06913390E+01 -2.06838658E+01 -2.06593274E+01 -1.58122449E+01 -1.62410868E+00
 -1.49630269E+00 -1.25344834E+00 -9.48476592E-01 -7.74325366E-01 -7.58368746E-01
 -7.12081205E-01 -6.76299211E-01 -6.19914411E-01 -5.90837736E-01 -4.85371058E-01
 -4.72895088E-01  2.96179318E-02  7.19085245E-02  8.59084494E-02  1.01199930E-01
  1.34121280E-01  1.34171145E-01  1.44312039E-01  1.55120837E-01  1.78170667E-01
  1.93929395E-01  1.99622839E-01  2.06377956E-01  2.21121692E-01  2.35541832E-01
  2.37547735E-01  2.64736635E-01  2.93091661E-01  3.04978694E-01  3.10133825E-01
  3.43006748E-01  3.50358164E-01  3.88107583E-01  4.21265091E-01  4.30437271E-01
  5.27040608E-01  5.30681314E-01  5.61151807E-01  5.84612943E-01  6.26254314E-01
  6.36665051E-01  6.74118636E-01  6.84305351E-01  7.05252575E-01  7.12529973E-01
  7.23691077E-01  7.30516913E-01  7.44747218E-01  7.89409858E-01  7.91875888E-01
  8.09381302E-01  8.12988427E-01  8.32449927E-01  8.68257321E-01  9.07206096E-01
  9.22997628E-01  9.25734966E-01  9.59637016E-01  9.84410684E-01  9.86322134E-01
  1.01655255E+00  1.05335739E+00  1.05336043E+00  1.08775882E+00  1.12236012E+00
  1.14474050E+00  1.18745125E+00  1.22257136E+00  1.23086217E+00  1.33726782E+00
  1.34895163E+00  1.38847108E+00  1.45228958E+00  1.48746844E+00  1.50880375E+00
  1.54042821E+00  1.56868467E+00  1.58106198E+00  1.61631612E+00  1.66497658E+00
  1.67034668E+00  1.70322435E+00  1.79223035E+00  1.82702209E+00  1.83234637E+00
  1.88001384E+00  1.91322569E+00  1.95947559E+00  1.99391933E+00  2.00630449E+00
  2.07654332E+00  2.11660165E+00  2.13065683E+00  2.15056571E+00  2.22509213E+00
  2.26357628E+00  2.26550141E+00  2.28758962E+00  2.31806651E+00  2.35491256E+00
  2.38857813E+00  2.42771633E+00  2.42863565E+00  2.45324070E+00  2.46472450E+00
  2.47722541E+00  2.50869519E+00  2.59003702E+00  2.59442761E+00  2.61811507E+00
  2.62786816E+00  2.63036753E+00  2.67128973E+00  2.76303119E+00  2.83260455E+00
  2.86966916E+00  2.89282830E+00  2.89785653E+00  2.92215502E+00  2.95582178E+00
  3.03664172E+00  3.07338922E+00  3.12673752E+00  3.20741413E+00  3.23339671E+00
  3.31459874E+00  3.33168174E+00  3.50282773E+00  3.65494558E+00  3.84058768E+00
  3.84461404E+00  4.15121156E+00  4.16191668E+00  4.18598169E+00  4.26271637E+00
  4.34600989E+00  4.39722516E+00  4.46413663E+00  4.51747297E+00  4.67387009E+00
  4.71184787E+00  4.81052459E+00  4.82286479E+00  4.83081525E+00  4.89755547E+00
  5.02137236E+00  5.07695422E+00  5.10019871E+00  5.13896058E+00  5.18597054E+00
  5.24809766E+00  5.27099316E+00  5.30836751E+00  5.33522699E+00  5.36654377E+00
  5.62179558E+00  5.67403584E+00  5.77307778E+00  5.82908943E+00  5.95748470E+00
  6.17560779E+00  6.30871787E+00  6.33613550E+00  6.39272459E+00  6.49276949E+00
  6.50382583E+00  6.61748313E+00  6.66438089E+00  6.69723217E+00  6.76368872E+00
  6.76405210E+00  6.83465243E+00  6.89567442E+00  7.00864562E+00  7.05048594E+00
  7.05808151E+00  7.09042269E+00  7.12677102E+00  7.15306533E+00  7.18322440E+00
  7.22200733E+00  7.24449388E+00  7.31109952E+00  7.32449495E+00  7.35840086E+00
  7.40365280E+00  7.42857116E+00  7.48789066E+00  7.60177641E+00  7.61753742E+00
  7.63693210E+00  7.67141562E+00  7.79623672E+00  7.89703592E+00  8.08599152E+00
  8.31611751E+00  8.40939699E+00  8.54336828E+00  1.34072148E+01  1.43548275E+01
  1.51856468E+01  1.61568717E+01
Alpha MO coefficients                      R   N=       42849
  9.06522600E-05 -6.05733950E-04 -7.08007309E-04 -2.45699156E-06 -2.00744891E-05
 -2.66901530E-05  0.00000000E+00 -4.80749179E-05  5.11666578E-05  0.00000000E+00
  8.01638348E-05  2.99513136E-05  0.00000000E+00  3.10723999E-05  0.00000000E+00
  0.00000000E+00 -4.84345483E-05  2.46298553E-05 -5.82394741E-06  0.00000000E+00
  0.00000000E+00 -1.26563199E-04  1.26225664E-04  4.42668586E-03 -2.83251354E-04
  1.03629049E-05  1.47009894E-03  1.80219027E-03  1.04649568E-04  3.87777447E-06
  0.00000000E+00 -6.04989979E-04 -1.51144588E-05  0.00000000E+00 -1.03851534E-03
  7.99402776E-04  0.00000000E+00 -3.94597820E-04  7.63117372E-05  0.00000000E+00
  2.89354140E-05  0.00000000E+00  0.00000000E+00 -5.33968704E-05  9.47373712E-06
 -3.74601149E-04  0.00000000E+00  0.00000000E+00  7.31656113E-04 -8.52544859E-05
 -4.42229982E-04  0.00000000E+00  0.00000000E+00  2.31512567E-04 -2.57008374E-05
  0.00000000E+00  7.97263444E-05  9.75316417E-06  0.00000000E+00  0.00000000E+00
 -1.10056283E-04  7.94319854E-06  0.00000000E+00  2.55785185E-04 -3.46457031E-05
  0.00000000E+00  0.00000000E+00 -3.39031322E-04  8.68906625E-05  9.76913061E-01
 -9.22844026E-03  4.33126612E-02  2.11159378E-03 -9.12206718E-04  1.46694511E-03
 -1.38463303E-03  0.00000000E+00 -1.41859706E-03  1.42364848E-03  0.00000000E+00
  1.02406091E-04 -1.15614417E-03  0.00000000E+00 -1.28459358E-04 -1.01885235E-05
  0.00000000E+00  4.90314384E-05  0.00000000E+00  0.00000000E+00 -3.58583674E-05
  1.77619707E-05  7.39932275E-04  0.00000000E+00  0.00000000E+00 -2.38684954E-04
 -3.39406253E-04 -3.61735739E-04  0.00000000E+00  0.00000000E+00 -3.18488773E-04
 -3.73029869E-04  0.00000000E+00  4.74423819E-05 -5.05961548E-05  0.00000000E+00
  0.00000000E+00 -3.92787630E-05 -1.25303301E-05  0.00000000E+00  2.16813297E-05
  2.08828087E-05  0.00000000E+00  0.00000000E+00 -3.01273051E-04 -1.14136358E-04
  3.78211429E-05  3.96287634E-05 -2.61408928E-04 -7.33285774E-04 -1.47444331E-04
 -2.64419528E-05 -9.60788654E-05  0.00000000E+00  2.54911737E-04  6.88698702E-04
  0.00000000E+00 -8.05502282E-04 -4.75322635E-04  0.00000000E+00 -1.29877490E-04
 -2.84439434E-05  0.00000000E+00 -1.74723521E-05  0.00000000E+00  0.00000000E+00
 -2.82125211E-05  1.50040997E-05 -3.27377912E-04  0.00000000E+00  0.00000000E+00
 -8.21487522E-04  1.27448673E-04 -3.69587523E-05  0.00000000E+00  0.00000000E+00
  9.11077510E-05 -1.09983356E-04  0.00000000E+00 -1.99472318E-05 -1.19479652E-04
  0.00000000E+00  0.00000000E+00 -6.57841287E-05 -1.37914547E-04  0.00000000E+00
 -4.21905018E-06 -1.58915485E-04  0.00000000E+00  0.00000000E+00  4.37413774E-05
 -4.05843513E-04 -2.30119181E-03  1.19127972E-04 -1.09474936E-04 -2.20712066E-04
  1.41484824E-04 -7.29095801E-06 -2.63898023E-05  0.00000000E+00  6.74674521E-05
  1.54599308E-04  0.00000000E+00  2.31977972E-04  2.09591122E-04  0.00000000E+00
  1.28020179E-04  2.93990561E-05  0.00000000E+00 -3.08697755E-06  0.00000000E+00
  0.00000000E+00 -1.77514187E-05  1.28898405E-06  1.49108601E-06  0.00000000E+00
  0.00000000E+00  7.77210959E-05  8.39023729E-05 -9.87711770E-05  0.00000000E+00
  0.00000000E+00  1.58399558E-04  1.65423909E-04  0.00000000E+00  1.60421929E-05
 -3.28299758E-06  0.00000000E+00  0.00000000E+00 -4.07682408E-06 -1.22783119E-05
  0.00000000E+00 -3.30864425E-05  4.47306662E-05  0.00000000E+00  0.00000000E+00
  7.96320226E-05  8.94473209E-05  4.21790745E-05 -9.98511133E-04 -4.66637226E-04
 -1.28591141E-05 -2.18330579E-05  1.52042151E-05  0.00000000E+00  6.96261357E-06
  2.69411369E-04  0.00000000E+00 -5.05869476E-05  1.27147291E-04  0.00000000E+00
  2.66535574E-05  0.00000000E+00  0.00000000E+00  1.08777629E-05  9.72430291E-06
 -3.32245123E-05  0.00000000E+00  0.00000000E+00  1.60710035E-05  3.94211865E-05
  1.11838994E-04  9.73306530E-05 -2.83815968E-05  7.05170003E-04  5.76549407E-04
  1.03022060E-05  2.19373487E-06  0.00000000E+00 -7.82458631E-05  1.27952124E-05
  0.00000000E+00  4.12520872E-04  9.54876680E-04  0.00000000E+00  2.90501383E-05
  9.27962452E-05  0.00000000E+00 -3.00515607E-06  0.00000000E+00  0.00000000E+00
 -2.06423961E-07 -3.69532741E-06 -3.24948946E-05  0.00000000E+00  0.00000000E+00
 -1.18825122E-05  7.17937187E-05 -1.63186259E-05  0.00000000E+00  0.00000000E+00
 -2.84901745E-04 -1.78859220E-04  0.00000000E+00  9.12389646E-06  6.08155951E-06
  0.00000000E+00  0.00000000E+00  2.40240407E-06 -1.80344163E-05  0.00000000E+00
 -4.28885538E-05 -4.02512861E-05  0.00000000E+00  0.00000000E+00 -8.10227659E-05
  3.92044667E-05  2.33958652E-03  4.00795713E-05  7.96575534E-05 -7.17689457E-05
 -4.46299664E-04  7.22407164E-06  1.56400410E-05  0.00000000E+00 -6.26502432E-05
 -5.16174204E-05  0.00000000E+00  2.37318160E-04 -2.26662857E-04  0.00000000E+00
 -1.68888931E-04 -5.87850353E-05  0.00000000E+00 -8.74714566E-06  0.00000000E+00
  0.00000000E+00  2.22667291E-05  2.06272073E-05  5.02753055E-06  0.00000000E+00
  0.00000000E+00 -1.16960806E-04 -5.00723716E-05 -7.46670409E-06  0.00000000E+00
  0.00000000E+00 -2.24274335E-04 -2.30158269E-04  0.00000000E+00  3.18654597E-06
 -1.49231816E-06  0.00000000E+00  0.00000000E+00  1.65284848E-06 -1.24264373E-05
  0.00000000E+00 -4.58584972E-05  7.51243213E-06  0.00000000E+00  0.00000000E+00
 -7.44015124E-05  1.78318750E-04  2.58603928E-04  1.46400865E-03 -7.79254992E-05
 -1.51416989E-03  4.37683331E-04 -1.44161507E-04  6.42658164E-07  0.00000000E+00
 -2.10221918E-03 -4.05635897E-04  0.00000000E+00  1.10177525E-03  7.98125129E-04
  0.00000000E+00 -1.71421832E-04  6.21241763E-05  0.00000000E+00 -1.23086303E-04
  0.00000000E+00  0.00000000E+00  2.43476315E-04  9.22743422E-05 -4.45066809E-04
  0.00000000E+00  0.00000000E+00  8.99609181E-04 -6.23223718E-05  7.94233767E-06
  0.00000000E+00  0.00000000E+00 -3.47546446E-04 -1.10589097E-04  0.00000000E+00
 -3.09608088E-08  1.59408861E-05  0.00000000E+00  0.00000000E+00  1.74185223E-05
  1.10803976E-05  0.00000000E+00  1.56426145E-04 -7.53817548E-05  0.00000000E+00
  0.00000000E+00 -2.38385064E-04  5.23325178E-05  9.76649559E-01 -9.84466630E-03
  4.35710214E-02  4.52708021E-03 -4.55905704E-04  2.14726076E-03  4.73094889E-04
  0.00000000E+00 -2.38458304E-03 -5.98119574E-04  0.00000000E+00  1.12927468E-03
 -9.35852284E-06  0.00000000E+00  1.20336594E-06 -3.92380617E-05  0.00000000E+00
 -2.33096953E-04  0.00000000E+00  0.00000000E+00  1.02486645E-04  3.22720151E-05
  3.91038588E-04  0.00000000E+00  0.00000000E+00 -8.39189573E-04 -4.16169615E-04
 -1.47663028E-04  0.00000000E+00  0.00000000E+00  2.49034364E-04  1.04913043E-05
  0.00000000E+00  5.22746047E-05  1.73024972E-05  0.00000000E+00  0.00000000E+00
 -2.27285900E-05 -1.28269889E-05  0.00000000E+00  1.39811929E-04  9.88546633E-06
  0.00000000E+00  0.00000000E+00 -1.91629835E-04 -1.40089729E-04  4.79710982E-04
  2.17709218E-03  1.55876831E-04  1.48922244E-05 -4.80585694E-05 -2.49568947E-04
  0.00000000E+00  5.81275846E-05 -1.31308034E-03  0.00000000E+00  2.63646621E-04
 -3.65288987E-04  0.00000000E+00 -4.13706051E-06  0.00000000E+00  0.00000000E+00
  7.47285135E-05  8.12702884E-06 -1.58272143E-04  0.00000000E+00  0.00000000E+00
 -5.38669503E-04  1.76181722E-05  9.76828688E-01 -9.16762904E-03  4.34544221E-02
  7.30713675E-05 -1.06107037E-03 -1.50053079E-03  1.50308519E-03  0.00000000E+00
  1.51681320E-03 -1.34903635E-03  0.00000000E+00 -6.13391979E-04 -9.91856041E-04
  0.00000000E+00  5.36589291E-05  8.73263415E-07  0.00000000E+00  2.82881108E-05
  0.00000000E+00  0.00000000E+00 -1.19444151E-04  8.30693991E-06  7.64031263E-04
  0.00000000E+00  0.00000000E+00 -2.03751635E-04 -2.25140866E-04 -2.63870784E-04
  0.00000000E+00  0.00000000E+00  1.83524631E-04  1.55680616E-04  0.00000000E+00
 -6.33764906E-05  2.03400002E-06  0.00000000E+00  0.00000000E+00  1.76747728E-05
  8.30447841E-06  0.00000000E+00  3.91343384E-06  1.33000121E-04  0.00000000E+00
  0.00000000E+00  2.75625169E-04  6.69774616E-05 -4.51995450E-03 -2.13017637E-04