 Entering Gaussian System, Link 0=g16
 Input=hoono_r4_1p160241.gjf
 Output=hoono_r4_1p160241.log
 Initial command:
 /sw/contrib/gaussian/g16/B01/g16/l1.exe "/scr/Gau-9045.inp" -scrdir="/scr/"
 Entering Link 1 = /sw/contrib/gaussian/g16/B01/g16/l1.exe PID=      9046.
  
 Copyright (c) 1988-2017, Gaussian, Inc.  All Rights Reserved.
  
 This is part of the Gaussian(R) 16 program.  It is based on
 the Gaussian(R) 09 system (copyright 2009, Gaussian, Inc.),
 the Gaussian(R) 03 system (copyright 2003, Gaussian, Inc.),
 the Gaussian(R) 98 system (copyright 1998, Gaussian, Inc.),
 the Gaussian(R) 94 system (copyright 1995, Gaussian, Inc.),
 the Gaussian 92(TM) system (copyright 1992, Gaussian, Inc.),
 the Gaussian 90(TM) system (copyright 1990, Gaussian, Inc.),
 the Gaussian 88(TM) system (copyright 1988, Gaussian, Inc.),
 the Gaussian 86(TM) system (copyright 1986, Carnegie Mellon
 University), and the Gaussian 82(TM) system (copyright 1983,
 Carnegie Mellon University). Gaussian is a federally registered
 trademark of Gaussian, Inc.
  
 This software contains proprietary and confidential information,
 including trade secrets, belonging to Gaussian, Inc.
  
 This software is provided under written license and may be
 used, copied, transmitted, or stored only in accord with that
 written license.
  
 The following legend is applicable only to US Government
 contracts under FAR:
  
                    RESTRICTED RIGHTS LEGEND
  
 Use, reproduction and disclosure by the US Government is
 subject to restrictions as set forth in subparagraphs (a)
 and (c) of the Commercial Computer Software - Restricted
 Rights clause in FAR 52.227-19.
  
 Gaussian, Inc.
 340 Quinnipiac St., Bldg. 40, Wallingford CT 06492
  
  
 ---------------------------------------------------------------
 Warning -- This program may not be used in any manner that
 competes with the business of Gaussian, Inc. or will provide
 assistance to any competitor of Gaussian, Inc.  The licensee
 of this program is prohibited from giving any competitor of
 Gaussian, Inc. access to this program.  By using this program,
 the user acknowledges that Gaussian, Inc. is engaged in the
 business of creating and licensing software in the field of
 computational chemistry and represents and warrants to the
 licensee that it is not a competitor of Gaussian, Inc. and that
 it will not use this program in any manner prohibited above.
 ---------------------------------------------------------------
  

 Cite this work as:
 Gaussian 16, Revision B.01,
 M. J. Frisch, G. W. Trucks, H. B. Schlegel, G. E. Scuseria, 
 M. A. Robb, J. R. Cheeseman, G. Scalmani, V. Barone, 
 G. A. Petersson, H. Nakatsuji, X. Li, M. Caricato, A. V. Marenich, 
 J. Bloino, B. G. Janesko, R. Gomperts, B. Mennucci, H. P. Hratchian, 
 J. V. Ortiz, A. F. Izmaylov, J. L. Sonnenberg, D. Williams-Young, 
 F. Ding, F. Lipparini, F. Egidi, J. Goings, B. Peng, A. Petrone, 
 T. Henderson, D. Ranasinghe, V. G. Zakrzewski, J. Gao, N. Rega, 
 G. Zheng, W. Liang, M. Hada, M. Ehara, K. Toyota, R. Fukuda, 
 J. Hasegawa, M. Ishida, T. Nakajima, Y. Honda, O. Kitao, H. Nakai, 
 T. Vreven, K. Throssell, J. A. Montgomery, Jr., J. E. Peralta, 
 F. Ogliaro, M. J. Bearpark, J. J. Heyd, E. N. Brothers, K. N. Kudin, 
 V. N. Staroverov, T. A. Keith, R. Kobayashi, J. Normand, 
 K. Raghavachari, A. P. Rendell, J. C. Burant, S. S. Iyengar, 
 J. Tomasi, M. Cossi, J. M. Millam, M. Klene, C. Adamo, R. Cammi, 
 J. W. Ochterski, R. L. Martin, K. Morokuma, O. Farkas, 
 J. B. Foresman, and D. J. Fox, Gaussian, Inc., Wallingford CT, 2016.
 
 ******************************************
 Gaussian 16:  ES64L-G16RevB.01 20-Dec-2017
                14-Feb-2022 
 ******************************************
 %nproc=28
 Will use up to   28 processors via shared memory.
 %mem=120GB
 %chk=hoono_r4_1p160241.chk
 -------------------------------------
 #p SP mp2/aug-cc-pvtz density=current
 -------------------------------------
 1/30=1,38=1,172=1/1;
 2/12=2,17=6,18=5,40=1/2;
 3/5=16,6=1,7=10,11=9,25=1,30=1,71=1/1,2,3;
 4//1;
 5/5=2,38=5/2;
 8/6=4,10=1/1;
 9/15=1,16=-3/6;
 10/5=1,13=10/2;
 6/7=2,8=2,9=2,10=2,22=-1/1;
 99/5=1,9=1/99;
 Leave Link    1 at Mon Feb 14 22:11:30 2022, MaxMem= 16106127360 cpu:               3.7 elap:               0.1
 (Enter /sw/contrib/gaussian/g16/B01/g16/l101.exe)
 -----
 title
 -----
 Symbolic Z-matrix:
 Charge =  0 Multiplicity = 1
 H
 O                    1    r1
 O                    2    r2       1    a1
 N                    3    r3       2    a2       1    d1       0
 O                    4    r4       3    a3       2    d2       0
       Variables:
  r1                    0.96898                  
  r2                    1.45492                  
  r3                    1.45878                  
  r4                    1.16024                  
  a1                   97.59495                  
  a2                  102.29752                  
  a3                  109.06955                  
  d1                  180.                       
  d2                  180.                       
 
 ITRead=  0  0  0  0  0
 MicOpt= -1 -1 -1 -1 -1
 NAtoms=      5 NQM=        5 NQMF=       0 NMMI=      0 NMMIF=      0
                NMic=       0 NMicF=      0.
                    Isotopes and Nuclear Properties:
 (Nuclear quadrupole moments (NQMom) in fm**2, nuclear magnetic moments (NMagM)
  in nuclear magnetons)

  Atom         1           2           3           4           5
 IAtWgt=           1          16          16          14          16
 AtmWgt=   1.0078250  15.9949146  15.9949146  14.0030740  15.9949146
 NucSpn=           1           0           0           2           0
 AtZEff=  -0.0000000  -0.0000000  -0.0000000  -0.0000000  -0.0000000
 NQMom=    0.0000000   0.0000000   0.0000000   2.0440000   0.0000000
 NMagM=    2.7928460   0.0000000   0.0000000   0.4037610   0.0000000
 AtZNuc=   1.0000000   8.0000000   8.0000000   7.0000000   8.0000000
 Leave Link  101 at Mon Feb 14 22:11:30 2022, MaxMem= 16106127360 cpu:               3.7 elap:               0.2
 (Enter /sw/contrib/gaussian/g16/B01/g16/l202.exe)
                          Input orientation:                          
 ---------------------------------------------------------------------
 Center     Atomic      Atomic             Coordinates (Angstroms)
 Number     Number       Type             X           Y           Z
 ---------------------------------------------------------------------
      1          1           0        0.000000    0.000000    0.000000
      2          8           0        0.000000    0.000000    0.968976
      3          8           0        1.442156    0.000000    1.161271
      4          7           0        1.561752    0.000000    2.615144
      5          8           0        2.685708    0.000000    2.903037
 ---------------------------------------------------------------------
                    Distance matrix (angstroms):
                    1          2          3          4          5
     1  H    0.000000
     2  O    0.968976   0.000000
     3  O    1.851584   1.454919   0.000000
     4  N    3.045989   2.269127   1.458784   0.000000
     5  O    3.954826   3.309626   2.140134   1.160242   0.000000
 Stoichiometry    HNO3
 Framework group  CS[SG(HNO3)]
 Deg. of freedom     7
 Full point group                 CS      NOp   2
 Largest Abelian subgroup         CS      NOp   2
 Largest concise Abelian subgroup C1      NOp   1
                         Standard orientation:                         
 ---------------------------------------------------------------------
 Center     Atomic      Atomic             Coordinates (Angstroms)
 Number     Number       Type             X           Y           Z
 ---------------------------------------------------------------------
      1          1           0        1.553008    1.680847    0.000000
      2          8           0        1.454245    0.716917    0.000000
      3          8           0       -0.000000    0.672616    0.000000
      4          7           0       -0.267159   -0.761496   -0.000000
      5          8           0       -1.414606   -0.933330   -0.000000
 ---------------------------------------------------------------------
 Rotational constants (GHZ):          55.0256082           5.0358861           4.6136497
 Leave Link  202 at Mon Feb 14 22:11:30 2022, MaxMem= 16106127360 cpu:               0.4 elap:               0.0
 (Enter /sw/contrib/gaussian/g16/B01/g16/l301.exe)
 Standard basis: Aug-CC-pVTZ (5D, 7F)
 Ernie: Thresh=  0.10000D-02 Tol=  0.10000D-05 Strict=F.
 Ernie:  12 primitive shells out of 131 were deleted.
 There are   166 symmetry adapted cartesian basis functions of A'  symmetry.
 There are    79 symmetry adapted cartesian basis functions of A"  symmetry.
 There are   136 symmetry adapted basis functions of A'  symmetry.
 There are    71 symmetry adapted basis functions of A"  symmetry.
   207 basis functions,   315 primitive gaussians,   245 cartesian basis functions
    16 alpha electrons       16 beta electrons
       nuclear repulsion energy       117.1924605116 Hartrees.
 IExCor=    0 DFT=F Ex=HF Corr=None ExCW=0 ScaHFX=  1.000000
 ScaDFX=  1.000000  1.000000  1.000000  1.000000 ScalE2=  1.000000  1.000000
 IRadAn=      5 IRanWt=     -1 IRanGd=            0 ICorTp=0 IEmpDi=  4
 NAtoms=    5 NActive=    5 NUniq=    5 SFac= 1.00D+00 NAtFMM=   60 NAOKFM=F Big=F
 Integral buffers will be    131072 words long.
 Raffenetti 1 integral format.
 Two-electron integral symmetry is turned on.
 Leave Link  301 at Mon Feb 14 22:11:30 2022, MaxMem= 16106127360 cpu:               1.7 elap:               0.1
 (Enter /sw/contrib/gaussian/g16/B01/g16/l302.exe)
 NPDir=0 NMtPBC=     1 NCelOv=     1 NCel=       1 NClECP=     1 NCelD=      1
         NCelK=      1 NCelE2=     1 NClLst=     1 CellRange=     0.0.
 One-electron integrals computed using PRISM.
 One-electron integral symmetry used in STVInt
 NBasis=   207 RedAO= T EigKep=  1.80D-04  NBF=   136    71
 NBsUse=   207 1.00D-06 EigRej= -1.00D+00 NBFU=   136    71
 Leave Link  302 at Mon Feb 14 22:11:30 2022, MaxMem= 16106127360 cpu:               4.6 elap:               0.2
 (Enter /sw/contrib/gaussian/g16/B01/g16/l303.exe)
 DipDrv:  MaxL=1.
 Leave Link  303 at Mon Feb 14 22:11:31 2022, MaxMem= 16106127360 cpu:               1.8 elap:               0.1
 (Enter /sw/contrib/gaussian/g16/B01/g16/l401.exe)
 ExpMin= 2.53D-02 ExpMax= 1.53D+04 ExpMxC= 5.22D+02 IAcc=3 IRadAn=         5 AccDes= 0.00D+00
 Harris functional with IExCor=  205 and IRadAn=       5 diagonalized for initial guess.
 HarFok:  IExCor=  205 AccDes= 0.00D+00 IRadAn=         5 IDoV= 1 UseB2=F ITyADJ=14
 ICtDFT=  3500011 ScaDFX=  1.000000  1.000000  1.000000  1.000000
 FoFCou: FMM=F IPFlag=           0 FMFlag=      100000 FMFlg1=           0
         NFxFlg=           0 DoJE=T BraDBF=F KetDBF=T FulRan=T
         wScrn=  0.000000 ICntrl=       500 IOpCl=  0 I1Cent=   200000004 NGrid=           0
         NMat0=    1 NMatS0=      1 NMatT0=    0 NMatD0=    1 NMtDS0=    0 NMtDT0=    0
 Petite list used in FoFCou.
 Harris En= -279.628404360569    
 JPrj=0 DoOrth=F DoCkMO=F.
 Initial guess orbital symmetries:
       Occupied  (A') (A') (A') (A') (A') (A') (A') (A') (A') (A')
                 (A") (A') (A') (A") (A") (A')
       Virtual   (A") (A') (A') (A') (A') (A') (A") (A') (A') (A')
                 (A") (A') (A") (A') (A') (A") (A') (A") (A') (A')
                 (A') (A') (A') (A') (A') (A") (A') (A") (A') (A')
                 (A") (A') (A") (A') (A') (A") (A') (A") (A') (A')
                 (A") (A') (A") (A') (A") (A') (A') (A') (A") (A")
                 (A') (A') (A') (A') (A") (A') (A") (A') (A") (A')
                 (A') (A') (A") (A') (A') (A") (A') (A") (A') (A')
                 (A") (A') (A') (A") (A") (A') (A') (A") (A') (A')
                 (A') (A") (A') (A") (A') (A") (A') (A") (A') (A')
                 (A') (A") (A') (A") (A') (A") (A") (A') (A') (A")
                 (A') (A') (A") (A') (A') (A') (A') (A") (A") (A')
                 (A") (A') (A') (A') (A") (A') (A') (A') (A") (A')
                 (A") (A') (A") (A') (A") (A') (A') (A") (A") (A')
                 (A') (A') (A') (A") (A") (A') (A") (A') (A') (A')
                 (A') (A") (A") (A') (A') (A") (A') (A') (A') (A')
                 (A") (A') (A') (A") (A') (A") (A') (A") (A') (A")
                 (A') (A") (A') (A") (A') (A") (A") (A") (A') (A')
                 (A") (A') (A") (A') (A') (A") (A") (A") (A') (A')
                 (A') (A') (A') (A') (A') (A') (A') (A') (A') (A')
                 (A')
 The electronic state of the initial guess is 1-A'.
 Leave Link  401 at Mon Feb 14 22:11:31 2022, MaxMem= 16106127360 cpu:               7.2 elap:               0.3
 (Enter /sw/contrib/gaussian/g16/B01/g16/l502.exe)
 Keep R1 ints in memory in symmetry-blocked form, NReq=348887737.
 FoFCou: FMM=F IPFlag=           0 FMFlag=           0 FMFlg1=           0
         NFxFlg=           0 DoJE=F BraDBF=F KetDBF=F FulRan=T
         wScrn=  0.000000 ICntrl=       600 IOpCl=  0 I1Cent=           0 NGrid=           0
         NMat0=    1 NMatS0=  21528 NMatT0=    0 NMatD0=    1 NMtDS0=    0 NMtDT0=    0
 Petite list used in FoFCou.
 Closed shell SCF:
 Using DIIS extrapolation, IDIIS=  1040.
 NGot= 16106127360 LenX= 15988850015 LenY= 15988789549
 Requested convergence on RMS density matrix=1.00D-08 within 128 cycles.
 Requested convergence on MAX density matrix=1.00D-06.
 Requested convergence on             energy=1.00D-06.
 No special actions if energy rises.

 Cycle   1  Pass 1  IDiag  1:
 E= -279.374162432546    
 DIIS: error= 2.69D-02 at cycle   1 NSaved=   1.
 NSaved= 1 IEnMin= 1 EnMin= -279.374162432546     IErMin= 1 ErrMin= 2.69D-02
 ErrMax= 2.69D-02  0.00D+00 EMaxC= 1.00D-01 BMatC= 4.36D-01 BMatP= 4.36D-01
 IDIUse=3 WtCom= 7.31D-01 WtEn= 2.69D-01
 Coeff-Com:  0.100D+01
 Coeff-En:   0.100D+01
 Coeff:      0.100D+01
 Gap=     0.517 Goal=   None    Shift=    0.000
 GapD=    0.517 DampG=2.000 DampE=0.500 DampFc=1.0000 IDamp=-1.
 RMSDP=1.61D-03 MaxDP=9.85D-02              OVMax= 1.09D-01

 Cycle   2  Pass 1  IDiag  1:
 E= -279.456991763185     Delta-E=       -0.082829330639 Rises=F Damp=F
 DIIS: error= 1.75D-02 at cycle   2 NSaved=   2.
 NSaved= 2 IEnMin= 2 EnMin= -279.456991763185     IErMin= 2 ErrMin= 1.75D-02
 ErrMax= 1.75D-02  0.00D+00 EMaxC= 1.00D-01 BMatC= 6.77D-02 BMatP= 4.36D-01
 IDIUse=3 WtCom= 8.25D-01 WtEn= 1.75D-01
 Coeff-Com:  0.187D+00 0.813D+00
 Coeff-En:   0.000D+00 0.100D+01
 Coeff:      0.154D+00 0.846D+00
 Gap=     0.525 Goal=   None    Shift=    0.000
 RMSDP=8.79D-04 MaxDP=3.65D-02 DE=-8.28D-02 OVMax= 6.76D-02

 Cycle   3  Pass 1  IDiag  1:
 E= -279.484290484127     Delta-E=       -0.027298720942 Rises=F Damp=F
 DIIS: error= 1.01D-02 at cycle   3 NSaved=   3.
 NSaved= 3 IEnMin= 3 EnMin= -279.484290484127     IErMin= 3 ErrMin= 1.01D-02
 ErrMax= 1.01D-02  0.00D+00 EMaxC= 1.00D-01 BMatC= 2.72D-02 BMatP= 6.77D-02
 IDIUse=3 WtCom= 8.99D-01 WtEn= 1.01D-01
 Coeff-Com: -0.327D-01 0.379D+00 0.654D+00
 Coeff-En:   0.000D+00 0.239D+00 0.761D+00
 Coeff:     -0.294D-01 0.364D+00 0.665D+00
 Gap=     0.508 Goal=   None    Shift=    0.000
 RMSDP=3.66D-04 MaxDP=1.48D-02 DE=-2.73D-02 OVMax= 3.64D-02

 Cycle   4  Pass 1  IDiag  1:
 E= -279.502267899945     Delta-E=       -0.017977415818 Rises=F Damp=F
 DIIS: error= 1.28D-03 at cycle   4 NSaved=   4.
 NSaved= 4 IEnMin= 4 EnMin= -279.502267899945     IErMin= 4 ErrMin= 1.28D-03
 ErrMax= 1.28D-03  0.00D+00 EMaxC= 1.00D-01 BMatC= 4.81D-04 BMatP= 2.72D-02
 IDIUse=3 WtCom= 9.87D-01 WtEn= 1.28D-02
 Coeff-Com: -0.116D-01 0.596D-01 0.162D+00 0.790D+00
 Coeff-En:   0.000D+00 0.000D+00 0.000D+00 0.100D+01
 Coeff:     -0.115D-01 0.588D-01 0.160D+00 0.793D+00
 Gap=     0.500 Goal=   None    Shift=    0.000
 RMSDP=8.85D-05 MaxDP=2.76D-03 DE=-1.80D-02 OVMax= 1.10D-02

 Cycle   5  Pass 1  IDiag  1:
 E= -279.502916337794     Delta-E=       -0.000648437849 Rises=F Damp=F
 DIIS: error= 7.26D-04 at cycle   5 NSaved=   5.
 NSaved= 5 IEnMin= 5 EnMin= -279.502916337794     IErMin= 5 ErrMin= 7.26D-04
 ErrMax= 7.26D-04  0.00D+00 EMaxC= 1.00D-01 BMatC= 8.43D-05 BMatP= 4.81D-04
 IDIUse=3 WtCom= 9.93D-01 WtEn= 7.26D-03
 Coeff-Com:  0.600D-02-0.720D-01-0.117D+00 0.220D-01 0.116D+01
 Coeff-En:   0.000D+00 0.000D+00 0.000D+00 0.000D+00 0.100D+01
 Coeff:      0.595D-02-0.715D-01-0.116D+00 0.218D-01 0.116D+01
 Gap=     0.500 Goal=   None    Shift=    0.000
 RMSDP=7.46D-05 MaxDP=2.05D-03 DE=-6.48D-04 OVMax= 1.08D-02

 Cycle   6  Pass 1  IDiag  1:
 E= -279.503217963603     Delta-E=       -0.000301625809 Rises=F Damp=F
 DIIS: error= 2.74D-04 at cycle   6 NSaved=   6.
 NSaved= 6 IEnMin= 6 EnMin= -279.503217963603     IErMin= 6 ErrMin= 2.74D-04
 ErrMax= 2.74D-04  0.00D+00 EMaxC= 1.00D-01 BMatC= 1.61D-05 BMatP= 8.43D-05
 IDIUse=3 WtCom= 9.97D-01 WtEn= 2.74D-03
 Coeff-Com:  0.776D-03-0.716D-03 0.210D-03-0.127D+00-0.200D+00 0.133D+01
 Coeff-En:   0.000D+00 0.000D+00 0.000D+00 0.000D+00 0.000D+00 0.100D+01
 Coeff:      0.774D-03-0.714D-03 0.209D-03-0.127D+00-0.199D+00 0.133D+01
 Gap=     0.501 Goal=   None    Shift=    0.000
 RMSDP=4.39D-05 MaxDP=1.21D-03 DE=-3.02D-04 OVMax= 5.31D-03

 Cycle   7  Pass 1  IDiag  1:
 E= -279.503287071989     Delta-E=       -0.000069108386 Rises=F Damp=F
 DIIS: error= 1.21D-04 at cycle   7 NSaved=   7.
 NSaved= 7 IEnMin= 7 EnMin= -279.503287071989     IErMin= 7 ErrMin= 1.21D-04
 ErrMax= 1.21D-04  0.00D+00 EMaxC= 1.00D-01 BMatC= 4.71D-06 BMatP= 1.61D-05
 IDIUse=3 WtCom= 9.99D-01 WtEn= 1.21D-03
 Coeff-Com: -0.909D-03 0.136D-01 0.264D-01-0.265D-01-0.296D+00 0.417D+00
 Coeff-Com:  0.866D+00
 Coeff-En:   0.000D+00 0.000D+00 0.000D+00 0.000D+00 0.000D+00 0.000D+00
 Coeff-En:   0.100D+01
 Coeff:     -0.908D-03 0.136D-01 0.264D-01-0.265D-01-0.296D+00 0.417D+00
 Coeff:      0.866D+00
 Gap=     0.501 Goal=   None    Shift=    0.000
 RMSDP=1.34D-05 MaxDP=3.77D-04 DE=-6.91D-05 OVMax= 1.54D-03

 Cycle   8  Pass 1  IDiag  1:
 E= -279.503296102224     Delta-E=       -0.000009030235 Rises=F Damp=F
 DIIS: error= 5.37D-05 at cycle   8 NSaved=   8.
 NSaved= 8 IEnMin= 8 EnMin= -279.503296102224     IErMin= 8 ErrMin= 5.37D-05
 ErrMax= 5.37D-05  0.00D+00 EMaxC= 1.00D-01 BMatC= 5.65D-07 BMatP= 4.71D-06
 IDIUse=1 WtCom= 1.00D+00 WtEn= 0.00D+00
 Coeff-Com: -0.451D-03 0.362D-02 0.791D-02 0.269D-01-0.446D-01-0.186D+00
 Coeff-Com:  0.132D+00 0.106D+01
 Coeff:     -0.451D-03 0.362D-02 0.791D-02 0.269D-01-0.446D-01-0.186D+00
 Coeff:      0.132D+00 0.106D+01
 Gap=     0.500 Goal=   None    Shift=    0.000
 RMSDP=6.89D-06 MaxDP=1.98D-04 DE=-9.03D-06 OVMax= 7.51D-04

 Cycle   9  Pass 1  IDiag  1:
 E= -279.503297805628     Delta-E=       -0.000001703404 Rises=F Damp=F
 DIIS: error= 1.44D-05 at cycle   9 NSaved=   9.
 NSaved= 9 IEnMin= 9 EnMin= -279.503297805628     IErMin= 9 ErrMin= 1.44D-05
 ErrMax= 1.44D-05  0.00D+00 EMaxC= 1.00D-01 BMatC= 6.06D-08 BMatP= 5.65D-07
 IDIUse=1 WtCom= 1.00D+00 WtEn= 0.00D+00
 Coeff-Com:  0.111D-03-0.163D-02-0.292D-02-0.144D-02 0.327D-01-0.331D-02
 Coeff-Com: -0.149D+00-0.101D+00 0.123D+01
 Coeff:      0.111D-03-0.163D-02-0.292D-02-0.144D-02 0.327D-01-0.331D-02
 Coeff:     -0.149D+00-0.101D+00 0.123D+01
 Gap=     0.500 Goal=   None    Shift=    0.000
 RMSDP=1.81D-06 MaxDP=6.02D-05 DE=-1.70D-06 OVMax= 1.57D-04

 Cycle  10  Pass 1  IDiag  1:
 E= -279.503297943530     Delta-E=       -0.000000137902 Rises=F Damp=F
 DIIS: error= 3.87D-06 at cycle  10 NSaved=  10.
 NSaved=10 IEnMin=10 EnMin= -279.503297943530     IErMin=10 ErrMin= 3.87D-06
 ErrMax= 3.87D-06  0.00D+00 EMaxC= 1.00D-01 BMatC= 4.79D-09 BMatP= 6.06D-08
 IDIUse=1 WtCom= 1.00D+00 WtEn= 0.00D+00
 Coeff-Com:  0.340D-04-0.292D-03-0.429D-03-0.262D-02 0.264D-02 0.188D-01
 Coeff-Com: -0.137D-01-0.804D-01-0.501D-01 0.113D+01
 Coeff:      0.340D-04-0.292D-03-0.429D-03-0.262D-02 0.264D-02 0.188D-01
 Coeff:     -0.137D-01-0.804D-01-0.501D-01 0.113D+01
 Gap=     0.500 Goal=   None    Shift=    0.000
 RMSDP=4.67D-07 MaxDP=1.91D-05 DE=-1.38D-07 OVMax= 3.65D-05

 Cycle  11  Pass 1  IDiag  1:
 E= -279.503297953874     Delta-E=       -0.000000010344 Rises=F Damp=F
 DIIS: error= 1.80D-06 at cycle  11 NSaved=  11.
 NSaved=11 IEnMin=11 EnMin= -279.503297953874     IErMin=11 ErrMin= 1.80D-06
 ErrMax= 1.80D-06  0.00D+00 EMaxC= 1.00D-01 BMatC= 5.40D-10 BMatP= 4.79D-09
 IDIUse=1 WtCom= 1.00D+00 WtEn= 0.00D+00
 Coeff-Com: -0.193D-04 0.227D-03 0.458D-03 0.463D-03-0.406D-02-0.296D-02
 Coeff-Com:  0.176D-01 0.308D-01-0.131D+00-0.180D+00 0.127D+01
 Coeff:     -0.193D-04 0.227D-03 0.458D-03 0.463D-03-0.406D-02-0.296D-02
 Coeff:      0.176D-01 0.308D-01-0.131D+00-0.180D+00 0.127D+01
 Gap=     0.500 Goal=   None    Shift=    0.000
 RMSDP=1.58D-07 MaxDP=5.76D-06 DE=-1.03D-08 OVMax= 1.57D-05

 Cycle  12  Pass 1  IDiag  1:
 E= -279.503297955295     Delta-E=       -0.000000001422 Rises=F Damp=F
 DIIS: error= 5.41D-07 at cycle  12 NSaved=  12.
 NSaved=12 IEnMin=12 EnMin= -279.503297955295     IErMin=12 ErrMin= 5.41D-07
 ErrMax= 5.41D-07  0.00D+00 EMaxC= 1.00D-01 BMatC= 5.86D-11 BMatP= 5.40D-10
 IDIUse=1 WtCom= 1.00D+00 WtEn= 0.00D+00
 Coeff-Com:  0.923D-06-0.246D-04-0.543D-04 0.159D-03 0.964D-03-0.205D-02
 Coeff-Com: -0.374D-02 0.508D-02 0.387D-01-0.996D-01-0.308D+00 0.137D+01
 Coeff:      0.923D-06-0.246D-04-0.543D-04 0.159D-03 0.964D-03-0.205D-02
 Coeff:     -0.374D-02 0.508D-02 0.387D-01-0.996D-01-0.308D+00 0.137D+01
 Gap=     0.500 Goal=   None    Shift=    0.000
 RMSDP=6.36D-08 MaxDP=2.52D-06 DE=-1.42D-09 OVMax= 6.13D-06

 Cycle  13  Pass 1  IDiag  1:
 E= -279.503297955479     Delta-E=       -0.000000000184 Rises=F Damp=F
 DIIS: error= 1.50D-07 at cycle  13 NSaved=  13.
 NSaved=13 IEnMin=13 EnMin= -279.503297955479     IErMin=13 ErrMin= 1.50D-07
 ErrMax= 1.50D-07  0.00D+00 EMaxC= 1.00D-01 BMatC= 3.32D-12 BMatP= 5.86D-11
 IDIUse=1 WtCom= 1.00D+00 WtEn= 0.00D+00
 Coeff-Com:  0.121D-05-0.134D-04-0.218D-04-0.792D-04 0.123D-03 0.679D-03
 Coeff-Com: -0.634D-03-0.323D-02 0.381D-03 0.385D-01-0.252D-01-0.343D+00
 Coeff-Com:  0.133D+01
 Coeff:      0.121D-05-0.134D-04-0.218D-04-0.792D-04 0.123D-03 0.679D-03
 Coeff:     -0.634D-03-0.323D-02 0.381D-03 0.385D-01-0.252D-01-0.343D+00
 Coeff:      0.133D+01
 Gap=     0.500 Goal=   None    Shift=    0.000
 RMSDP=1.74D-08 MaxDP=5.08D-07 DE=-1.84D-10 OVMax= 1.46D-06

 Cycle  14  Pass 1  IDiag  1:
 E= -279.503297955491     Delta-E=       -0.000000000012 Rises=F Damp=F
 DIIS: error= 2.24D-08 at cycle  14 NSaved=  14.
 NSaved=14 IEnMin=14 EnMin= -279.503297955491     IErMin=14 ErrMin= 2.24D-08
 ErrMax= 2.24D-08  0.00D+00 EMaxC= 1.00D-01 BMatC= 1.62D-13 BMatP= 3.32D-12
 IDIUse=1 WtCom= 1.00D+00 WtEn= 0.00D+00
 Coeff-Com: -0.181D-06 0.297D-05 0.542D-05 0.462D-05-0.785D-04 0.388D-04
 Coeff-Com:  0.254D-03 0.244D-03-0.234D-02 0.960D-03 0.179D-01-0.250D-01
 Coeff-Com: -0.206D+00 0.121D+01
 Coeff:     -0.181D-06 0.297D-05 0.542D-05 0.462D-05-0.785D-04 0.388D-04
 Coeff:      0.254D-03 0.244D-03-0.234D-02 0.960D-03 0.179D-01-0.250D-01
 Coeff:     -0.206D+00 0.121D+01
 Gap=     0.500 Goal=   None    Shift=    0.000
 RMSDP=3.52D-09 MaxDP=8.40D-08 DE=-1.17D-11 OVMax= 3.17D-07

 SCF Done:  E(RHF) =  -279.503297955     A.U. after   14 cycles
            NFock= 14  Conv=0.35D-08     -V/T= 2.0022
 KE= 2.788977635374D+02 PE=-8.957527342594D+02 EE= 2.201592122550D+02
 Leave Link  502 at Mon Feb 14 22:11:35 2022, MaxMem= 16106127360 cpu:              59.0 elap:               3.7
 (Enter /sw/contrib/gaussian/g16/B01/g16/l801.exe)
 ExpMin= 2.53D-02 ExpMax= 1.53D+04 ExpMxC= 5.22D+02 IAcc=3 IRadAn=         5 AccDes= 0.00D+00
 HarFok:  IExCor=  205 AccDes= 0.00D+00 IRadAn=         5 IDoV=-2 UseB2=F ITyADJ=14
 ICtDFT= 12500011 ScaDFX=  1.000000  1.000000  1.000000  1.000000
 DSYEVD-2 returned Info=          93 IAlg= 4 N=    46 NDim=    46 NE2=   350130240 trying  DSYEV.
 Largest valence mixing into a core orbital is  2.07D-04
 Largest core mixing into a valence orbital is  3.59D-05
 Range of M.O.s used for correlation:     5   207
 NBasis=   207 NAE=    16 NBE=    16 NFC=     4 NFV=     0
 NROrb=    203 NOA=    12 NOB=    12 NVA=   191 NVB=   191

 **** Warning!!: The largest alpha MO coefficient is  0.17650978D+02

 Leave Link  801 at Mon Feb 14 22:11:35 2022, MaxMem= 16106127360 cpu:               2.6 elap:               0.1
 (Enter /sw/contrib/gaussian/g16/B01/g16/l906.exe)
 Frozen-core derivative calculation, NFC=   4 NFV=   0.
 FulOut=F Deriv=T AODrv=F NAtomX=     5
   MMem=          76  MDisk=          12 MDiskD=          12
  W3Min=      811440 MinDsk=     1524655 NBas6D=         245
 NBas2D=       30762    NTT=       30135    LW2=     3500000
    MDV= 16105579885 MDiskM=      328644 NBas2p=       30466
 Fully in-core method, ICMem=   960157634.
 IMap=   1   2   3   4   5   6   7   8   9  10  11  12  13  14  15  16
 JobTyp=1 Pass  1 fully in-core, NPsUse= 28.
 Compute canonical integrals.
 FoFCou: FMM=F IPFlag=           0 FMFlag=           0 FMFlg1=           0
         NFxFlg=           0 DoJE=F BraDBF=F KetDBF=F FulRan=T
         wScrn=  0.000000 ICntrl=       600 IOpCl=  1 I1Cent=           0 NGrid=           0
         NMat0=    1 NMatS0=  30762 NMatT0=    0 NMatD0=    1 NMtDS0=    0 NMtDT0=    0
 Symmetry not used in FoFCou.
 Spin components of T(2) and E(2):
     alpha-alpha T2 =       0.3381039251D-01 E2=     -0.1221805208D+00
     alpha-beta  T2 =       0.1856491864D+00 E2=     -0.6989041838D+00
     beta-beta   T2 =       0.3381039251D-01 E2=     -0.1221805208D+00
 The integrals were generated   1 times.
 ANorm=    0.1119495409D+01
 E2 =    -0.9432652254D+00 EUMP2 =    -0.28044656318087D+03
 Leave Link  906 at Mon Feb 14 22:11:44 2022, MaxMem= 16106127360 cpu:             249.5 elap:               9.0
 (Enter /sw/contrib/gaussian/g16/B01/g16/l1002.exe)
 Minotr:  Closed shell wavefunction.
          Computing MP2/KS-MP2 derivatives.
          Using Z-Vector for PSCF gradient.
          Skipping F1 and S1 gradient terms here.
          Frozen-core window.
          Direct CPHF calculation.
          Differentiating once with respect to electric field.
                with respect to dipole field.
          Electric field/nuclear overlap derivatives assumed to be zero.
          Using symmetry in CPHF.
          Requested convergence is 1.0D-10 RMS, and 1.0D-09 maximum.
          NewPWx=F KeepS1=T KeepF1=T KeepIn=T MapXYZ=F SortEE=F KeepMc=T.
 Keep R1 ints in memory in symmetry-blocked form, NReq=348888868.
 FoFCou: FMM=F IPFlag=           0 FMFlag=           0 FMFlg1=           0
         NFxFlg=           0 DoJE=F BraDBF=F KetDBF=F FulRan=T
         wScrn=  0.000000 ICntrl=       600 IOpCl=  0 I1Cent=           0 NGrid=           0
         NMat0=    1 NMatS0=  21528 NMatT0=    0 NMatD0=    1 NMtDS0=    0 NMtDT0=    0
 Petite list used in FoFCou.
          MDV=   16106127360 using IRadAn=       5.
          Solving linear equations separately, MaxMat=       0.
          There are     1 degrees of freedom in the 1st order CPHF.  IDoFFX=0 NUNeed=     1.
 LinEq1:  Iter=  0 NonCon=     1 RMS=5.90D-03 Max=1.29D-01 NDo=     1
 AX will form     1 AO Fock derivatives at one time.
 LinEq1:  Iter=  1 NonCon=     1 RMS=1.87D-03 Max=3.68D-02 NDo=     1
 LinEq1:  Iter=  2 NonCon=     1 RMS=8.47D-04 Max=1.37D-02 NDo=     1
 LinEq1:  Iter=  3 NonCon=     1 RMS=3.74D-04 Max=7.32D-03 NDo=     1
 LinEq1:  Iter=  4 NonCon=     1 RMS=1.16D-04 Max=1.83D-03 NDo=     1
 LinEq1:  Iter=  5 NonCon=     1 RMS=4.22D-05 Max=6.64D-04 NDo=     1
 LinEq1:  Iter=  6 NonCon=     1 RMS=1.89D-05 Max=2.26D-04 NDo=     1
 LinEq1:  Iter=  7 NonCon=     1 RMS=7.56D-06 Max=1.54D-04 NDo=     1
 LinEq1:  Iter=  8 NonCon=     1 RMS=3.23D-06 Max=3.23D-05 NDo=     1
 LinEq1:  Iter=  9 NonCon=     1 RMS=8.84D-07 Max=1.27D-05 NDo=     1
 LinEq1:  Iter= 10 NonCon=     1 RMS=1.74D-07 Max=1.88D-06 NDo=     1
 LinEq1:  Iter= 11 NonCon=     1 RMS=3.27D-08 Max=3.35D-07 NDo=     1
 LinEq1:  Iter= 12 NonCon=     1 RMS=7.82D-09 Max=1.22D-07 NDo=     1
 LinEq1:  Iter= 13 NonCon=     1 RMS=1.40D-09 Max=2.45D-08 NDo=     1
 LinEq1:  Iter= 14 NonCon=     1 RMS=2.55D-10 Max=3.58D-09 NDo=     1
 LinEq1:  Iter= 15 NonCon=     0 RMS=4.71D-11 Max=5.44D-10 NDo=     1
 Linear equations converged to 1.000D-10 1.000D-09 after    15 iterations.
 End of Minotr F.D. properties file   721 does not exist.
 End of Minotr F.D. properties file   722 does not exist.
 End of Minotr F.D. properties file   788 does not exist.
 Leave Link 1002 at Mon Feb 14 22:11:48 2022, MaxMem= 16106127360 cpu:              52.9 elap:               3.9
 (Enter /sw/contrib/gaussian/g16/B01/g16/l601.exe)
 Copying SCF densities to generalized density rwf, IOpCl= 0 IROHF=0.

 **********************************************************************

            Population analysis using the MP2 Density.

 **********************************************************************

 Orbital symmetries:
       Occupied  (A') (A') (A') (A') (A') (A') (A') (A') (A') (A')
                 (A") (A') (A") (A') (A") (A')
       Virtual   (A') (A") (A') (A') (A") (A') (A') (A') (A") (A')
                 (A") (A') (A') (A') (A") (A') (A') (A") (A') (A')
                 (A') (A') (A') (A') (A") (A') (A') (A") (A') (A')
                 (A") (A') (A") (A') (A') (A") (A') (A') (A") (A')
                 (A") (A') (A") (A') (A') (A") (A') (A') (A") (A')
                 (A") (A') (A') (A') (A") (A') (A") (A') (A") (A')
                 (A') (A') (A") (A') (A') (A") (A') (A") (A') (A')
                 (A") (A') (A') (A") (A") (A') (A') (A") (A') (A')
                 (A') (A") (A') (A") (A") (A') (A') (A") (A') (A')
                 (A") (A') (A') (A") (A') (A") (A') (A") (A') (A')
                 (A") (A') (A") (A') (A') (A") (A') (A') (A") (A')
                 (A") (A') (A') (A') (A") (A') (A') (A') (A") (A')
                 (A") (A') (A") (A') (A') (A") (A") (A') (A") (A')
                 (A') (A') (A') (A") (A") (A") (A') (A') (A') (A')
                 (A") (A') (A") (A') (A') (A") (A') (A') (A') (A')
                 (A") (A') (A') (A") (A') (A") (A') (A") (A') (A")
                 (A') (A") (A') (A") (A') (A") (A") (A') (A") (A')
                 (A") (A') (A") (A') (A") (A') (A") (A") (A') (A')
                 (A') (A') (A') (A') (A') (A') (A') (A') (A') (A')
                 (A')
 The electronic state is 1-A'.
 Alpha  occ. eigenvalues --  -20.68840 -20.68474 -20.65863 -15.81130  -1.63273
 Alpha  occ. eigenvalues --   -1.49579  -1.25334  -0.94665  -0.77409  -0.76198
 Alpha  occ. eigenvalues --   -0.71409  -0.68057  -0.62248  -0.58872  -0.48432
 Alpha  occ. eigenvalues --   -0.47043
 Alpha virt. eigenvalues --    0.02991   0.07491   0.08576   0.10172   0.13376
 Alpha virt. eigenvalues --    0.13409   0.14431   0.15479   0.17845   0.19405
 Alpha virt. eigenvalues --    0.20020   0.20637   0.22116   0.23633   0.23746
 Alpha virt. eigenvalues --    0.26617   0.29450   0.30430   0.31096   0.34331
 Alpha virt. eigenvalues --    0.35010   0.38763   0.42250   0.43180   0.52712
 Alpha virt. eigenvalues --    0.53060   0.55906   0.58188   0.63147   0.63797
 Alpha virt. eigenvalues --    0.67121   0.68531   0.70651   0.71144   0.72448
 Alpha virt. eigenvalues --    0.73004   0.74466   0.79212   0.79272   0.80998
 Alpha virt. eigenvalues --    0.81368   0.83340   0.86912   0.90928   0.92293
 Alpha virt. eigenvalues --    0.92729   0.95718   0.97978   0.98555   1.01699
 Alpha virt. eigenvalues --    1.05270   1.05582   1.08464   1.11914   1.14221
 Alpha virt. eigenvalues --    1.19016   1.22228   1.23425   1.33964   1.35115
 Alpha virt. eigenvalues --    1.38795   1.45406   1.48833   1.51032   1.53831
 Alpha virt. eigenvalues --    1.56690   1.57950   1.61406   1.66656   1.67028
 Alpha virt. eigenvalues --    1.70292   1.79369   1.83035   1.83507   1.88116
 Alpha virt. eigenvalues --    1.90975   1.95339   1.99493   2.00579   2.07833
 Alpha virt. eigenvalues --    2.12132   2.13310   2.15107   2.22501   2.26531
 Alpha virt. eigenvalues --    2.26581   2.29056   2.31562   2.34744   2.38710
 Alpha virt. eigenvalues --    2.42685   2.43138   2.45450   2.46423   2.47842
 Alpha virt. eigenvalues --    2.50330   2.59100   2.59886   2.62294   2.62893
 Alpha virt. eigenvalues --    2.63608   2.67093   2.76165   2.82954   2.85973
 Alpha virt. eigenvalues --    2.88935   2.89709   2.92826   2.96076   3.02755
 Alpha virt. eigenvalues --    3.06649   3.12525   3.20564   3.22956   3.31876
 Alpha virt. eigenvalues --    3.34339   3.52162   3.64432   3.83980   3.84765
 Alpha virt. eigenvalues --    4.15005   4.16465   4.18554   4.28282   4.35299
 Alpha virt. eigenvalues --    4.39495   4.46618   4.52153   4.67498   4.71262
 Alpha virt. eigenvalues --    4.81020   4.82700   4.83195   4.89527   5.02161
 Alpha virt. eigenvalues --    5.07850   5.10763   5.13905   5.18226   5.24643
 Alpha virt. eigenvalues --    5.27309   5.30691   5.33140   5.36624   5.60835
 Alpha virt. eigenvalues --    5.69131   5.78000   5.83381   5.95472   6.17146
 Alpha virt. eigenvalues --    6.31081   6.33944   6.39601   6.49363   6.50559
 Alpha virt. eigenvalues --    6.61534   6.66943   6.70393   6.75953   6.76535
 Alpha virt. eigenvalues --    6.83917   6.90222   7.01710   7.05894   7.05964
 Alpha virt. eigenvalues --    7.09175   7.12981   7.15262   7.18314   7.23286
 Alpha virt. eigenvalues --    7.24406   7.31242   7.34462   7.35539   7.41102
 Alpha virt. eigenvalues --    7.43338   7.48595   7.61033   7.63324   7.64240
 Alpha virt. eigenvalues --    7.66922   7.79834   7.90439   8.09779   8.31910
 Alpha virt. eigenvalues --    8.41055   8.54691  13.41012  14.47735  15.16674
 Alpha virt. eigenvalues --   16.48097
          Condensed to atoms (all electrons):
               1          2          3          4          5
     1  H    0.589809   0.128396   0.020043   0.012503  -0.000652
     2  O    0.128396   8.322805  -0.173836  -0.090462   0.015541
     3  O    0.020043  -0.173836   8.478727  -0.134381  -0.041051
     4  N    0.012503  -0.090462  -0.134381   6.976081  -0.056530
     5  O   -0.000652   0.015541  -0.041051  -0.056530   8.273432
 Mulliken charges:
               1
     1  H    0.249901
     2  O   -0.202445
     3  O   -0.149503
     4  N    0.292788
     5  O   -0.190742
 Sum of Mulliken charges =  -0.00000
 Mulliken charges with hydrogens summed into heavy atoms:
               1
     2  O    0.047456
     3  O   -0.149503
     4  N    0.292788
     5  O   -0.190742
 Electronic spatial extent (au):  <R**2>=            251.9171
 Charge=             -0.0000 electrons
 Dipole moment (field-independent basis, Debye):
    X=              0.4679    Y=              1.3141    Z=              0.0000  Tot=              1.3949
 Quadrupole moment (field-independent basis, Debye-Ang):
   XX=            -22.4128   YY=            -18.6158   ZZ=            -21.9929
   XY=              3.2919   XZ=             -0.0000   YZ=              0.0000
 Traceless Quadrupole moment (field-independent basis, Debye-Ang):
   XX=             -1.4056   YY=              2.3914   ZZ=             -0.9857
   XY=              3.2919   XZ=             -0.0000   YZ=              0.0000
 Octapole moment (field-independent basis, Debye-Ang**2):
  XXX=              2.7763  YYY=             11.0394  ZZZ=             -0.0000  XYY=              7.8132
  XXY=              6.5430  XXZ=              0.0000  XZZ=             -1.6135  YZZ=             -0.8895
  YYZ=              0.0000  XYZ=              0.0000
 Hexadecapole moment (field-independent basis, Debye-Ang**3):
 XXXX=           -158.0298 YYYY=            -89.0345 ZZZZ=            -18.2256 XXXY=            -36.2913
 XXXZ=             -0.0000 YYYX=            -30.4156 YYYZ=             -0.0000 ZZZX=             -0.0000
 ZZZY=             -0.0000 XXYY=            -33.7437 XXZZ=            -30.8084 YYZZ=            -20.5163
 XXYZ=             -0.0000 YYXZ=             -0.0000 ZZXY=            -14.9306
 N-N= 1.171924605116D+02 E-N=-8.965236191806D+02  KE= 2.802429368278D+02
 Symmetry A'   KE= 2.662669836563D+02
 Symmetry A"   KE= 1.397595317155D+01
 No NMR shielding tensors so no spin-rotation constants.
 Leave Link  601 at Mon Feb 14 22:11:48 2022, MaxMem= 16106127360 cpu:               4.5 elap:               0.2
 (Enter /sw/contrib/gaussian/g16/B01/g16/l9999.exe)
 1\1\GINC-N2131\SP\RMP2-FC\Aug-CC-pVTZ\H1N1O3\CGAVINH\14-Feb-2022\0\\#p
  SP mp2/aug-cc-pvtz density=current\\title\\0,1\H\O,1,0.96897556\O,2,1
 .45491931,1,97.59494903\N,3,1.45878406,2,102.29752444,1,180.,0\O,4,1.1
 602416669,3,109.06955123,2,180.,0\\Version=ES64L-G16RevB.01\State=1-A'
 \HF=-279.503298\MP2=-280.4465632\RMSD=3.516e-09\Dipole=-0.1304426,0.,-
 0.5330744\Quadrupole=-1.5120546,-0.732868,2.2449226,0.,2.1103794,0.\PG
 =CS [SG(H1N1O3)]\\@


 I WOULD TAKE COUNSEL OF MYSELF.
 I WOULD STOP AND LOOK WITHIN
 AND LOOKING WITHIN, LOOK BACK, ALSO
 THAT I MAY LOOK AHEAD WITH CLEARER UNDERSTANDING
 OF THE WAY I HAVE BEEN MOVING, AND IN WHAT DIRECTION.
 I NEED TO KNOW IF I AM GOING FORWARD OR RETREATING,
 WHETHER I HAVE BEEN WASTING, OR ENJOYING
 THE PRECIOUS MOMENTS OF LIFE.  THERE HAVE BEEN FRICTIONS,
 ANNOYANCES AND SOMETIMES WRATH,
 BUT WERE THEY BECAUSE I WAS RIGHT AND OTHERS WRONG.....
 HAVE I HAD MY THOUGHTS TOO SHARPLY FOCUSED
 ON THAT WHICH PLEASED ME, SERVED MY SELF-ESTEEM,
 UNDERGIRDED MY SECURITY,
 OF WHICH I DID NOT INQUIRE WHETHER IT SERVED OR HAMPERED OTHERS.....
 HAVE I BEEN TRYING TO STOP THE CLOCK
 TO HOLD THE WORLD
 IN PERPETUATION OF WHAT WAS AN IS ALREADY SLIPPING AWAY.....
 HAVE I BEEN CRITICAL OF OTHERS FOR WHAT REALLY NEEDED CHANGING IN ME...
 LET ME INDEED TAKE COUNSEL OF MYSELF
 AND SET MY DIRECTIONS STRAIGHT.

                          R.T. WESTON AS ADAPTED BY D. OSBORN 1967
 Job cpu time:       0 days  0 hours  6 minutes 32.7 seconds.
 Elapsed time:       0 days  0 hours  0 minutes 18.0 seconds.
 File lengths (MBytes):  RWF=     22 Int=      0 D2E=      0 Chk=      8 Scr=      1
 Normal termination of Gaussian 16 at Mon Feb 14 22:11:48 2022.
