title                                                                   
SP        RMP2-FC                                                     Aug-CC-pVTZ         
Number of atoms                            I                5
Info1-9                                    I   N=           9
          33          24           0           0           0         110
           1           2           1
Full Title                                 C   N=           1
title       
Route                                      C   N=           4
#p SP mp2/aug-cc-pvtz density=current           
Charge                                     I                0
Multiplicity                               I                1
Number of electrons                        I               32
Number of alpha electrons                  I               16
Number of beta electrons                   I               16
Number of basis functions                  I              207
Number of independent functions            I              207
Number of point charges in /Mol/           I                0
Number of translation vectors              I                0
Atomic numbers                             I   N=           5
           1           8           8           7           8
Nuclear charges                            R   N=           5
  1.00000000E+00  8.00000000E+00  8.00000000E+00  7.00000000E+00  8.00000000E+00
Current cartesian coordinates              R   N=          15
  2.93411513E+00  3.15402683E+00 -2.18754661E-30  2.74809569E+00  1.33240167E+00
 -1.71184735E-30  2.54692033E-17  1.24775467E+00  1.97467934E-31 -4.94406194E-01
 -1.41120878E+00  5.42844086E-31 -2.68225466E+00 -1.73960201E+00  2.03234335E-30
Number of symbols in /Mol/                 I                0
Force Field                                I                0
Atom Types                                 C   N=           5
                                                            
Int Atom Types                             I   N=           5
           0           0           0           0           0
MM charges                                 R   N=           5
  0.00000000E+00  0.00000000E+00  0.00000000E+00  0.00000000E+00  0.00000000E+00
Integer atomic weights                     I   N=           5
           1          16          16          14          16
Real atomic weights                        R   N=           5
  1.00782504E+00  1.59949146E+01  1.59949146E+01  1.40030740E+01  1.59949146E+01
Atom fragment info                         I   N=           5
           0           0           0           0           0
Atom residue num                           I   N=           5
           0           0           0           0           0
Nuclear spins                              I   N=           5
           1           0           0           2           0
Nuclear ZEff                               R   N=           5
 -1.00000000E+00 -5.60000000E+00 -5.60000000E+00 -4.55000000E+00 -5.60000000E+00
Nuclear ZNuc                               R   N=           5
  1.00000000E+00  8.00000000E+00  8.00000000E+00  7.00000000E+00  8.00000000E+00
Nuclear QMom                               R   N=           5
  0.00000000E+00  0.00000000E+00  0.00000000E+00  2.04400000E+00  0.00000000E+00
Nuclear GFac                               R   N=           5
  2.79284600E+00  0.00000000E+00  0.00000000E+00  4.03761000E-01  0.00000000E+00
MicOpt                                     I   N=           5
          -1          -1          -1          -1          -1
Number of residues                         I                0
Number of secondary structures             I                0
SymInf integers                            I   N=          26
           1           2           1           1           1           1
           1          -1           0           0           0           0
           0           0           0           0           0           0
           0           0           0           0           0           0
           0           0
RotTr to input orientation                 R   N=          12
 -9.94826455E-01  6.65533849E-16 -1.01588993E-01  1.01588993E-01 -9.36557919E-16
 -9.94826455E-01 -7.57234655E-16 -1.00000000E+00  8.64101682E-16  2.59852095E+00
  0.00000000E+00  3.43578313E+00
Number of contracted shells                I               65
Number of primitive shells                 I              119
Pure/Cartesian d shells                    I                0
Pure/Cartesian f shells                    I                0
Highest angular momentum                   I                3
Largest degree of contraction              I                7
Shell types                                I   N=          65
           0           0           0           0           1           1
           1          -2          -2           0           0           0
           0           0           1           1           1           1
          -2          -2          -2          -3          -3           0
           0           0           0           0           1           1
           1           1          -2          -2          -2          -3
          -3           0           0           0           0           0
           1           1           1           1          -2          -2
          -2          -3          -3           0           0           0
           0           0           1           1           1           1
          -2          -2          -2          -3          -3
Number of primitives per shell             I   N=          65
           3           1           1           1           1           1
           1           1           1           7           6           1
           1           1           3           1           1           1
           1           1           1           1           1           7
           6           1           1           1           3           1
           1           1           1           1           1           1
           1           7           6           1           1           1
           3           1           1           1           1           1
           1           1           1           7           6           1
           1           1           3           1           1           1
           1           1           1           1           1
Shell to atom map                          I   N=          65
           1           1           1           1           1           1
           1           1           1           2           2           2
           2           2           2           2           2           2
           2           2           2           2           2           3
           3           3           3           3           3           3
           3           3           3           3           3           3
           3           4           4           4           4           4
           4           4           4           4           4           4
           4           4           4           5           5           5
           5           5           5           5           5           5
           5           5           5           5           5
Primitive exponents                        R   N=         119
  3.38700000E+01  5.09500000E+00  1.15900000E+00  3.25800000E-01  1.02700000E-01
  2.52600000E-02  1.40700000E+00  3.88000000E-01  1.02000000E-01  1.05700000E+00
  2.47000000E-01  1.53300000E+04  2.29900000E+03  5.22400000E+02  1.47300000E+02
  4.75500000E+01  1.67600000E+01  6.20700000E+00  5.22400000E+02  1.47300000E+02
  4.75500000E+01  1.67600000E+01  6.20700000E+00  6.88200000E-01  1.75200000E+00
  2.38400000E-01  7.37600000E-02  3.44600000E+01  7.74900000E+00  2.28000000E+00
  7.15600000E-01  2.14000000E-01  5.97400000E-02  2.31400000E+00  6.45000000E-01
  2.14000000E-01  1.42800000E+00  5.00000000E-01  1.53300000E+04  2.29900000E+03
  5.22400000E+02  1.47300000E+02  4.75500000E+01  1.67600000E+01  6.20700000E+00
  5.22400000E+02  1.47300000E+02  4.75500000E+01  1.67600000E+01  6.20700000E+00
  6.88200000E-01  1.75200000E+00  2.38400000E-01  7.37600000E-02  3.44600000E+01
  7.74900000E+00  2.28000000E+00  7.15600000E-01  2.14000000E-01  5.97400000E-02
  2.31400000E+00  6.45000000E-01  2.14000000E-01  1.42800000E+00  5.00000000E-01
  1.14200000E+04  1.71200000E+03  3.89300000E+02  1.10000000E+02  3.55700000E+01
  1.25400000E+01  4.64400000E+00  3.89300000E+02  1.10000000E+02  3.55700000E+01
  1.25400000E+01  4.64400000E+00  5.11800000E-01  1.29300000E+00  1.78700000E-01
  5.76000000E-02  2.66300000E+01  5.94800000E+00  1.74200000E+00  5.55000000E-01
  1.72500000E-01  4.91000000E-02  1.65400000E+00  4.69000000E-01  1.51000000E-01
  1.09300000E+00  3.64000000E-01  1.53300000E+04  2.29900000E+03  5.22400000E+02
  1.47300000E+02  4.75500000E+01  1.67600000E+01  6.20700000E+00  5.22400000E+02
  1.47300000E+02  4.75500000E+01  1.67600000E+01  6.20700000E+00  6.88200000E-01
  1.75200000E+00  2.38400000E-01  7.37600000E-02  3.44600000E+01  7.74900000E+00
  2.28000000E+00  7.15600000E-01  2.14000000E-01  5.97400000E-02  2.31400000E+00
  6.45000000E-01  2.14000000E-01  1.42800000E+00  5.00000000E-01
Contraction coefficients                   R   N=         119
  2.54948632E-02  1.90362766E-01  8.52162022E-01  1.00000000E+00  1.00000000E+00
  1.00000000E+00  1.00000000E+00  1.00000000E+00  1.00000000E+00  1.00000000E+00
  1.00000000E+00  5.19808943E-04  4.02025621E-03  2.07128267E-02  8.10105536E-02
  2.35962985E-01  4.42653446E-01  3.57064423E-01 -4.42115008E-05 -1.22591041E-03
 -1.05517725E-02 -6.74452633E-02 -1.71198607E-01  1.07329856E+00  1.00000000E+00
  1.00000000E+00  1.00000000E+00  4.11634896E-02  2.57762836E-01  8.02419274E-01
  1.00000000E+00  1.00000000E+00  1.00000000E+00  1.00000000E+00  1.00000000E+00
  1.00000000E+00  1.00000000E+00  1.00000000E+00  5.19808943E-04  4.02025621E-03
  2.07128267E-02  8.10105536E-02  2.35962985E-01  4.42653446E-01  3.57064423E-01
 -4.42115008E-05 -1.22591041E-03 -1.05517725E-02 -6.74452633E-02 -1.71198607E-01
  1.07329856E+00  1.00000000E+00  1.00000000E+00  1.00000000E+00  4.11634896E-02
  2.57762836E-01  8.02419274E-01  1.00000000E+00  1.00000000E+00  1.00000000E+00
  1.00000000E+00  1.00000000E+00  1.00000000E+00  1.00000000E+00  1.00000000E+00
  5.34563860E-04  4.13435660E-03  2.12335358E-02  8.25006224E-02  2.38138871E-01
  4.42551547E-01  3.53757422E-01 -4.89867350E-05 -1.19527323E-03 -1.03490714E-02
 -6.48680190E-02 -1.71552477E-01  1.07289568E+00  1.00000000E+00  1.00000000E+00
  1.00000000E+00  3.98072123E-02  2.49002660E-01  8.10479727E-01  1.00000000E+00
  1.00000000E+00  1.00000000E+00  1.00000000E+00  1.00000000E+00  1.00000000E+00
  1.00000000E+00  1.00000000E+00  5.19808943E-04  4.02025621E-03  2.07128267E-02
  8.10105536E-02  2.35962985E-01  4.42653446E-01  3.57064423E-01 -4.42115008E-05
 -1.22591041E-03 -1.05517725E-02 -6.74452633E-02 -1.71198607E-01  1.07329856E+00
  1.00000000E+00  1.00000000E+00  1.00000000E+00  4.11634896E-02  2.57762836E-01
  8.02419274E-01  1.00000000E+00  1.00000000E+00  1.00000000E+00  1.00000000E+00
  1.00000000E+00  1.00000000E+00  1.00000000E+00  1.00000000E+00
Coordinates of each shell                  R   N=         195
  2.93411513E+00  3.15402683E+00 -8.92712412E-31  2.93411513E+00  3.15402683E+00
 -8.92712412E-31  2.93411513E+00  3.15402683E+00 -8.92712412E-31  2.93411513E+00
  3.15402683E+00 -8.92712412E-31  2.93411513E+00  3.15402683E+00 -8.92712412E-31
  2.93411513E+00  3.15402683E+00 -8.92712412E-31  2.93411513E+00  3.15402683E+00
 -8.92712412E-31  2.93411513E+00  3.15402683E+00 -8.92712412E-31  2.93411513E+00
  3.15402683E+00 -8.92712412E-31  2.74809569E+00  1.33240167E+00 -7.56574955E-31
  2.74809569E+00  1.33240167E+00 -7.56574955E-31  2.74809569E+00  1.33240167E+00
 -7.56574955E-31  2.74809569E+00  1.33240167E+00 -7.56574955E-31  2.74809569E+00
  1.33240167E+00 -7.56574955E-31  2.74809569E+00  1.33240167E+00 -7.56574955E-31
  2.74809569E+00  1.33240167E+00 -7.56574955E-31  2.74809569E+00  1.33240167E+00
 -7.56574955E-31  2.74809569E+00  1.33240167E+00 -7.56574955E-31  2.74809569E+00
  1.33240167E+00 -7.56574955E-31  2.74809569E+00  1.33240167E+00 -7.56574955E-31
  2.74809569E+00  1.33240167E+00 -7.56574955E-31  2.74809569E+00  1.33240167E+00
 -7.56574955E-31  2.74809569E+00  1.33240167E+00 -7.56574955E-31 -1.25945888E-17
  1.24775467E+00 -6.12007834E-32 -1.25945888E-17  1.24775467E+00 -6.12007834E-32
 -1.25945888E-17  1.24775467E+00 -6.12007834E-32 -1.25945888E-17  1.24775467E+00
 -6.12007834E-32 -1.25945888E-17  1.24775467E+00 -6.12007834E-32 -1.25945888E-17
  1.24775467E+00 -6.12007834E-32 -1.25945888E-17  1.24775467E+00 -6.12007834E-32
 -1.25945888E-17  1.24775467E+00 -6.12007834E-32 -1.25945888E-17  1.24775467E+00
 -6.12007834E-32 -1.25945888E-17  1.24775467E+00 -6.12007834E-32 -1.25945888E-17
  1.24775467E+00 -6.12007834E-32 -1.25945888E-17  1.24775467E+00 -6.12007834E-32
 -1.25945888E-17  1.24775467E+00 -6.12007834E-32 -1.25945888E-17  1.24775467E+00
 -6.12007834E-32 -4.94406194E-01 -1.41120878E+00  1.93574881E-31 -4.94406194E-01
 -1.41120878E+00  1.93574881E-31 -4.94406194E-01 -1.41120878E+00  1.93574881E-31
 -4.94406194E-01 -1.41120878E+00  1.93574881E-31 -4.94406194E-01 -1.41120878E+00
  1.93574881E-31 -4.94406194E-01 -1.41120878E+00  1.93574881E-31 -4.94406194E-01
 -1.41120878E+00  1.93574881E-31 -4.94406194E-01 -1.41120878E+00  1.93574881E-31
 -4.94406194E-01 -1.41120878E+00  1.93574881E-31 -4.94406194E-01 -1.41120878E+00
  1.93574881E-31 -4.94406194E-01 -1.41120878E+00  1.93574881E-31 -4.94406194E-01
 -1.41120878E+00  1.93574881E-31 -4.94406194E-01 -1.41120878E+00  1.93574881E-31
 -4.94406194E-01 -1.41120878E+00  1.93574881E-31 -2.68225466E+00 -1.73960201E+00
  7.59986769E-31 -2.68225466E+00 -1.73960201E+00  7.59986769E-31 -2.68225466E+00
 -1.73960201E+00  7.59986769E-31 -2.68225466E+00 -1.73960201E+00  7.59986769E-31
 -2.68225466E+00 -1.73960201E+00  7.59986769E-31 -2.68225466E+00 -1.73960201E+00
  7.59986769E-31 -2.68225466E+00 -1.73960201E+00  7.59986769E-31 -2.68225466E+00
 -1.73960201E+00  7.59986769E-31 -2.68225466E+00 -1.73960201E+00  7.59986769E-31
 -2.68225466E+00 -1.73960201E+00  7.59986769E-31 -2.68225466E+00 -1.73960201E+00
  7.59986769E-31 -2.68225466E+00 -1.73960201E+00  7.59986769E-31 -2.68225466E+00
 -1.73960201E+00  7.59986769E-31 -2.68225466E+00 -1.73960201E+00  7.59986769E-31
Num ILSW                                   I              100
ILSW                                       I   N=         100
           0           0           0           0           2           0
           0           0           0           0           0          -1
           5           0           0           0           0           0
           0           0           0           0           0           0
           1           0           0           0           0           0
           0           0      100000           0          -1           0
           0           0           0           0           0           0
           0           0           0           1           0           0
           0 -2000000000           1           0           0           0
           0           0           4          52           0           0
           0           0           0           0           0           0
           0           0           0           5           0           1
           0           0           0           0           0           0
           0           0           0           0           0           0
           0           0           0           0           0           0
           0           0           0           0           0           0
           0           0           0           0
Num RLSW                                   I               52
RLSW                                       R   N=          52
  1.00000000E+00  1.00000000E+00  1.00000000E+00  1.00000000E+00  1.00000000E+00
  0.00000000E+00  0.00000000E+00  1.00000000E+00  0.00000000E+00  0.00000000E+00
  0.00000000E+00  0.00000000E+00  1.00000000E+00  0.00000000E+00  0.00000000E+00
  0.00000000E+00  0.00000000E+00  1.00000000E+00  0.00000000E+00  0.00000000E+00
  0.00000000E+00  0.00000000E+00  1.00000000E+00  0.00000000E+00  0.00000000E+00
  0.00000000E+00  0.00000000E+00  1.00000000E+00  0.00000000E+00  0.00000000E+00
  0.00000000E+00  0.00000000E+00  1.00000000E+00  0.00000000E+00  0.00000000E+00
  0.00000000E+00  0.00000000E+00  0.00000000E+00  1.00000000E+00  1.00000000E+00
  0.00000000E+00  1.00000000E+00  0.00000000E+00  0.00000000E+00  0.00000000E+00
  0.00000000E+00  0.00000000E+00  0.00000000E+00  0.00000000E+00  0.00000000E+00
  0.00000000E+00  0.00000000E+00
MxBond                                     I                2
NBond                                      I   N=           5
           1           2           2           2           1
IBond                                      I   N=          10
           2           0           1           3           2           4
           3           5           4           0
RBond                                      R   N=          10
  1.00000000E+00  0.00000000E+00  1.00000000E+00  1.00000000E+00  1.00000000E+00
  1.00000000E+00  1.00000000E+00  2.00000000E+00  2.00000000E+00  0.00000000E+00
Virial Ratio                               R      2.002193695311267E+00
SCF Energy                                 R     -2.795041403689332E+02
MP2 Energy                                 R     -2.804465679394590E+02
Total Energy                               R     -2.804465679394590E+02
Post-SCF wavefunction norm                 R      1.119080517550146E+00
RMS Density                                R      3.446140537049619E-09
Job Status                                 I                1
Nuclear derivative order                   I                0
External E-field                           R   N=          35
  0.00000000E+00  0.00000000E+00  0.00000000E+00  0.00000000E+00  0.00000000E+00
  0.00000000E+00  0.00000000E+00  0.00000000E+00  0.00000000E+00  0.00000000E+00
  0.00000000E+00  0.00000000E+00  0.00000000E+00  0.00000000E+00  0.00000000E+00
  0.00000000E+00  0.00000000E+00  0.00000000E+00  0.00000000E+00  0.00000000E+00
  0.00000000E+00  0.00000000E+00  0.00000000E+00  0.00000000E+00  0.00000000E+00
  0.00000000E+00  0.00000000E+00  0.00000000E+00  0.00000000E+00  0.00000000E+00
  0.00000000E+00  0.00000000E+00  0.00000000E+00  0.00000000E+00  0.00000000E+00
IOpCl                                      I                0
IROHF                                      I                0
Alpha Orbital Energies                     R   N=         207
 -2.06955554E+01 -2.06776930E+01 -2.06633476E+01 -1.58084239E+01 -1.62605920E+00
 -1.49942794E+00 -1.26277091E+00 -9.46124074E-01 -7.75063196E-01 -7.62590078E-01
 -7.16838232E-01 -6.77948368E-01 -6.18984726E-01 -5.90827137E-01 -4.87965799E-01
 -4.73456434E-01  2.88676118E-02  7.52496283E-02  8.64243998E-02  1.02007526E-01
  1.33709098E-01  1.34071204E-01  1.43522377E-01  1.53989095E-01  1.77649777E-01
  1.94202409E-01  1.99955219E-01  2.09634273E-01  2.19951729E-01  2.34184753E-01
  2.37732692E-01  2.66129447E-01  3.02197591E-01  3.03285962E-01  3.14061794E-01
  3.45483191E-01  3.51074967E-01  3.88930750E-01  4.20950683E-01  4.30750914E-01
  5.28651070E-01  5.30386877E-01  5.61613135E-01  5.83126211E-01  6.27945347E-01
  6.39946029E-01  6.75216350E-01  6.84343868E-01  7.05321031E-01  7.10523514E-01
  7.23815016E-01  7.27549563E-01  7.43791403E-01  7.91053775E-01  7.93347268E-01
  8.10821204E-01  8.11429840E-01  8.32026518E-01  8.70264031E-01  9.08388339E-01
  9.20910838E-01  9.28352115E-01  9.53989701E-01  9.81389367E-01  9.83564074E-01
  1.01423007E+00  1.05330629E+00  1.05617793E+00  1.08499942E+00  1.11976654E+00
  1.14409593E+00  1.19093373E+00  1.22150981E+00  1.23342794E+00  1.34201314E+00
  1.35563271E+00  1.38304644E+00  1.45769356E+00  1.48794383E+00  1.50763797E+00
  1.53981874E+00  1.57011911E+00  1.58517402E+00  1.61467551E+00  1.66595600E+00
  1.67020539E+00  1.70585240E+00  1.79333187E+00  1.83280645E+00  1.83948805E+00
  1.87770522E+00  1.91352275E+00  1.95636144E+00  1.99773457E+00  2.00796187E+00
  2.08673529E+00  2.12390089E+00  2.13588693E+00  2.14613793E+00  2.22984003E+00
  2.26265216E+00  2.26445464E+00  2.29453711E+00  2.31513508E+00  2.35102079E+00
  2.38589866E+00  2.42839580E+00  2.43507820E+00  2.45808866E+00  2.46627265E+00
  2.48110224E+00  2.50556178E+00  2.58704882E+00  2.59891043E+00  2.62690539E+00
  2.62766253E+00  2.63250254E+00  2.67104422E+00  2.76217728E+00  2.83676333E+00
  2.86770102E+00  2.89240190E+00  2.89442561E+00  2.94634445E+00  2.95941147E+00
  3.03591176E+00  3.07855942E+00  3.13077246E+00  3.20050080E+00  3.23375669E+00
  3.32161109E+00  3.34991087E+00  3.52130597E+00  3.65387475E+00  3.85150680E+00
  3.85194464E+00  4.14882433E+00  4.15757501E+00  4.18840865E+00  4.27007098E+00
  4.35145581E+00  4.39445637E+00  4.46184530E+00  4.52259338E+00  4.67181580E+00
  4.71405441E+00  4.81025268E+00  4.82517638E+00  4.84712335E+00  4.89845148E+00
  5.03244443E+00  5.08580257E+00  5.11295250E+00  5.14378585E+00  5.18672752E+00
  5.24993299E+00  5.28170645E+00  5.31430339E+00  5.33286293E+00  5.36682568E+00
  5.61200168E+00  5.67866088E+00  5.78521885E+00  5.82728903E+00  5.96396196E+00
  6.18058483E+00  6.30919042E+00  6.34909864E+00  6.40146170E+00  6.50014171E+00
  6.51136947E+00  6.61484578E+00  6.66656087E+00  6.71026345E+00  6.75518219E+00
  6.76290275E+00  6.84004793E+00  6.90786303E+00  7.02107579E+00  7.05465715E+00
  7.06135608E+00  7.08981580E+00  7.13297143E+00  7.15758531E+00  7.18280894E+00
  7.23718172E+00  7.23993072E+00  7.30262834E+00  7.33001587E+00  7.35467850E+00
  7.40768986E+00  7.44421440E+00  7.49204332E+00  7.61309373E+00  7.62977470E+00
  7.65070266E+00  7.68329986E+00  7.79988400E+00  7.89524604E+00  8.12639678E+00
  8.32644106E+00  8.40896002E+00  8.55794353E+00  1.34713209E+01  1.45505773E+01
  1.51863318E+01  1.62086663E+01
Alpha MO coefficients                      R   N=       42849
  9.01378365E-05 -5.98192919E-04 -6.81809674E-04 -4.01570206E-06 -1.97235045E-05
 -2.70440179E-05  0.00000000E+00 -3.67633414E-05  4.70382307E-05  0.00000000E+00
  8.46221675E-05  2.17561194E-05  0.00000000E+00  3.09280085E-05  0.00000000E+00
  0.00000000E+00 -5.10101828E-05  1.98587179E-05 -6.00322336E-06  0.00000000E+00
  0.00000000E+00 -1.36915557E-04  1.18902671E-04  4.39662220E-03 -2.84799630E-04
  7.54716047E-06  1.57563699E-03  1.81766651E-03  1.06237189E-04  6.80402563E-06
  0.00000000E+00 -6.19727515E-04 -3.58491894E-05  0.00000000E+00 -1.15242543E-03
  7.69663956E-04  0.00000000E+00 -4.08089877E-04  6.08070512E-05  0.00000000E+00
  2.89622985E-05  0.00000000E+00  0.00000000E+00 -5.34564604E-05  7.08807000E-06
 -3.77779611E-04  0.00000000E+00  0.00000000E+00  7.39762734E-04 -4.45745085E-05
 -4.44711797E-04  0.00000000E+00  0.00000000E+00  2.61787999E-04 -2.74462049E-05
  0.00000000E+00  7.97939802E-05  1.23597512E-05  0.00000000E+00  0.00000000E+00
 -1.09310180E-04 -2.25620468E-06  0.00000000E+00  2.54823009E-04 -2.85757848E-05
  0.00000000E+00  0.00000000E+00 -3.46271154E-04  5.82615637E-05  9.76896771E-01
 -9.23518864E-03  4.33564672E-02  1.81159333E-03 -1.02059797E-03  1.47501566E-03
 -1.41954821E-03  0.00000000E+00 -1.40223338E-03  1.48077849E-03  0.00000000E+00
  4.24944863E-05 -1.08452754E-03  0.00000000E+00 -1.33806083E-04  4.40856495E-06
  0.00000000E+00  3.85811729E-05  0.00000000E+00  0.00000000E+00 -4.26235140E-05
  2.38128142E-05  7.72318021E-04  0.00000000E+00  0.00000000E+00 -1.92100841E-04
 -4.07355770E-04 -3.39158624E-04  0.00000000E+00  0.00000000E+00 -3.12989038E-04
 -3.80136397E-04  0.00000000E+00  4.48824110E-05 -5.17719275E-05  0.00000000E+00
  0.00000000E+00 -4.04753524E-05 -1.68436642E-05  0.00000000E+00  2.75816790E-05
  9.55687813E-06  0.00000000E+00  0.00000000E+00 -3.12699073E-04 -1.55576107E-04
  5.05952752E-05  1.18881008E-04 -2.86916045E-04 -6.28384708E-04 -1.14553415E-04
 -2.72871313E-05 -1.00851235E-04  0.00000000E+00  2.89413182E-04  8.47847856E-04
  0.00000000E+00 -8.00797362E-04 -3.28294468E-04  0.00000000E+00 -1.23219562E-04
 -1.35378478E-05  0.00000000E+00 -2.99083909E-05  0.00000000E+00  0.00000000E+00
 -5.10634418E-05  2.19285374E-05 -3.57094942E-04  0.00000000E+00  0.00000000E+00
 -8.72484639E-04  1.35152316E-04 -4.70096091E-05  0.00000000E+00  0.00000000E+00
  8.14693657E-05 -1.31178570E-04  0.00000000E+00 -2.15976305E-05 -1.23388372E-04
  0.00000000E+00  0.00000000E+00 -6.85531060E-05 -1.37402946E-04  0.00000000E+00
 -5.41140016E-06 -1.63648042E-04  0.00000000E+00  0.00000000E+00  1.76063342E-05
 -4.04779350E-04 -9.70040115E-04  9.75583992E-05 -4.99294290E-05 -1.92581357E-04
  1.76405659E-04 -5.35766132E-06 -2.34916508E-05  0.00000000E+00  7.02019863E-05
  1.46173222E-04  0.00000000E+00  2.72356181E-04  1.50598256E-04  0.00000000E+00
  1.39193952E-04  2.46130626E-05  0.00000000E+00 -2.52552270E-06  0.00000000E+00
  0.00000000E+00 -1.82735237E-05  2.24777845E-06 -3.20202591E-06  0.00000000E+00
  0.00000000E+00  8.83594426E-05  6.98375522E-05 -1.06749703E-04  0.00000000E+00
  0.00000000E+00  1.77619468E-04  1.42561105E-04  0.00000000E+00  1.68407334E-05
 -1.47621656E-06  0.00000000E+00  0.00000000E+00 -5.50901646E-07 -1.45019366E-05
  0.00000000E+00 -3.87933361E-05  4.30653169E-05  0.00000000E+00  0.00000000E+00
  8.40654481E-05  8.35054705E-05  4.00837935E-05 -1.00113425E-03 -4.83486228E-04
 -8.36523467E-06 -2.11152077E-05  1.53373515E-05  0.00000000E+00 -4.31072482E-06
  2.72803127E-04  0.00000000E+00 -4.51558650E-05  1.32594309E-04  0.00000000E+00
  2.61087904E-05  0.00000000E+00  0.00000000E+00  1.15425031E-05  1.17475508E-05
 -3.12832890E-05  0.00000000E+00  0.00000000E+00  1.50577602E-05  3.91844366E-05
  1.71213793E-04  8.34672745E-05 -2.56567356E-05  7.90052304E-04  6.68763853E-04
  1.06685644E-05  2.70592717E-06  0.00000000E+00 -7.74862481E-05  1.22316909E-05
  0.00000000E+00  3.29874767E-04  9.42582462E-04  0.00000000E+00  9.14664599E-07
  8.59424684E-05  0.00000000E+00 -2.32787449E-06  0.00000000E+00  0.00000000E+00
 -2.52233376E-07 -5.06243585E-06 -3.60239623E-05  0.00000000E+00  0.00000000E+00
 -1.56721258E-05  7.94902775E-05 -2.30911111E-05  0.00000000E+00  0.00000000E+00
 -2.71665764E-04 -1.81913360E-04  0.00000000E+00  9.30634860E-06  6.42992786E-06
  0.00000000E+00  0.00000000E+00  2.15685494E-06 -1.89629949E-05  0.00000000E+00
 -4.05007113E-05 -4.05076664E-05  0.00000000E+00  0.00000000E+00 -7.90557462E-05
  2.71892877E-05  1.00661168E-03  5.42237379E-05  2.12300891E-05 -3.57161103E-05
 -4.40262702E-04  2.44541637E-06  1.79026770E-05  0.00000000E+00 -5.40162068E-05
 -6.33177674E-05  0.00000000E+00  2.08309518E-04 -3.00940838E-04  0.00000000E+00
 -2.01602058E-04 -8.34365875E-05  0.00000000E+00 -9.33226998E-06  0.00000000E+00
  0.00000000E+00  2.48215662E-05  2.17414320E-05  3.92630132E-06  0.00000000E+00
  0.00000000E+00 -1.36862779E-04 -5.93219590E-05 -8.60694690E-06  0.00000000E+00
  0.00000000E+00 -2.66320559E-04 -2.25806977E-04  0.00000000E+00  4.74860410E-07
 -2.25566725E-06  0.00000000E+00  0.00000000E+00 -1.86662080E-06 -8.56695248E-06
  0.00000000E+00 -4.30239227E-05  9.71378212E-06  0.00000000E+00  0.00000000E+00
 -7.56705089E-05  1.90942642E-04  2.56588138E-04  1.46025243E-03 -7.24934723E-05
 -1.64451049E-03  3.56460607E-04 -1.42276973E-04  1.96413842E-06  0.00000000E+00
 -2.12131723E-03 -4.18850402E-04  0.00000000E+00  1.06397451E-03  7.43791462E-04
  0.00000000E+00 -1.66944926E-04  5.26023625E-05  0.00000000E+00 -1.23116908E-04
  0.00000000E+00  0.00000000E+00  2.46222152E-04  9.37297750E-05 -4.37184229E-04
  0.00000000E+00  0.00000000E+00  9.05888711E-04 -1.00181063E-04  1.92703796E-05
  0.00000000E+00  0.00000000E+00 -3.43953214E-04 -1.35162100E-04  0.00000000E+00
  3.91755192E-07  1.62196432E-05  0.00000000E+00  0.00000000E+00  2.13169300E-05
  1.36328223E-05  0.00000000E+00  1.59597079E-04 -7.62493980E-05  0.00000000E+00
  0.00000000E+00 -2.29738405E-04  5.81261920E-05  9.76645759E-01 -9.84222202E-03
  4.35836804E-02  4.53671795E-03 -4.37894459E-04  2.15466155E-03  4.78742268E-04
  0.00000000E+00 -2.38780780E-03 -6.05019825E-04  0.00000000E+00  1.13302986E-03
 -1.92455642E-05  0.00000000E+00  5.01068034E-06 -4.61231384E-05  0.00000000E+00
 -2.32614055E-04  0.00000000E+00  0.00000000E+00  1.01204130E-04  3.28418008E-05
  3.95796413E-04  0.00000000E+00  0.00000000E+00 -8.42693987E-04 -4.22337951E-04
 -1.48759651E-04  0.00000000E+00  0.00000000E+00  2.47237339E-04  6.88307857E-06
  0.00000000E+00  5.26869123E-05  1.77128242E-05  0.00000000E+00  0.00000000E+00
 -2.17051217E-05 -1.29122902E-05  0.00000000E+00  1.41976691E-04  9.24955486E-06
  0.00000000E+00  0.00000000E+00 -1.93149376E-04 -1.43622819E-04  4.74394167E-04
  2.10537622E-03  1.50426506E-04  1.64626046E-05 -4.13039846E-05 -2.48030587E-04
  0.00000000E+00  1.04012154E-04 -1.29102395E-03  0.00000000E+00  3.12118243E-04
 -3.52444431E-04  0.00000000E+00 -3.83003401E-06  0.00000000E+00  0.00000000E+00
  7.50879660E-05  1.51668926E-05 -1.61016942E-04  0.00000000E+00  0.00000000E+00
 -5.37782263E-04 -1.94575277E-05  9.76830750E-01 -9.16792309E-03  4.34509054E-02
  1.33751138E-04 -1.18837391E-03 -1.56004957E-03  1.45233879E-03  0.00000000E+00
  1.57423805E-03 -1.29826502E-03  0.00000000E+00 -5.80160752E-04 -9.01623749E-04
  0.00000000E+00  5.79529795E-05 -4.06624993E-05  0.00000000E+00  2.96701485E-05
  0.00000000E+00  0.00000000E+00 -1.18917528E-04 -1.34302446E-06  7.61583991E-04
  0.00000000E+00  0.00000000E+00 -2.05391366E-04 -2.34998735E-04 -2.60152755E-04
  0.00000000E+00  0.00000000E+00  1.72942833E-04  1.27373738E-04  0.00000000E+00
 -6.41026355E-05  1.58035045E-06  0.00000000E+00  0.00000000E+00  1.88201524E-05
  9.44770304E-06  0.00000000E+00 -2.45821300E-06  1.24187755E-04  0.00000000E+00
  0.00000000E+00  2.62667251E-04  9.10916756E-05 -4.49154463E-03 -2.24448690E-04