title                                                                   
SP        RMP2-FC                                                     Aug-CC-pVTZ         
Number of atoms                            I                5
Info1-9                                    I   N=           9
          33          24           0           0           0         110
           1           2           1
Full Title                                 C   N=           1
title       
Route                                      C   N=           4
#p SP mp2/aug-cc-pvtz density=current           
Charge                                     I                0
Multiplicity                               I                1
Number of electrons                        I               32
Number of alpha electrons                  I               16
Number of beta electrons                   I               16
Number of basis functions                  I              207
Number of independent functions            I              207
Number of point charges in /Mol/           I                0
Number of translation vectors              I                0
Atomic numbers                             I   N=           5
           1           8           8           7           8
Nuclear charges                            R   N=           5
  1.00000000E+00  8.00000000E+00  8.00000000E+00  7.00000000E+00  8.00000000E+00
Current cartesian coordinates              R   N=          15
  2.97523992E+00  3.16714781E+00  9.44999004E-31  2.78206538E+00  1.34626751E+00
 -1.20763597E-30  8.21853013E-17  1.27151307E+00  1.02529785E-30 -5.14585947E-01
 -1.43673528E+00 -1.46528907E-31 -2.70370767E+00 -1.75653069E+00 -3.88671470E-31
Number of symbols in /Mol/                 I                0
Force Field                                I                0
Atom Types                                 C   N=           5
                                                            
Int Atom Types                             I   N=           5
           0           0           0           0           0
MM charges                                 R   N=           5
  0.00000000E+00  0.00000000E+00  0.00000000E+00  0.00000000E+00  0.00000000E+00
Integer atomic weights                     I   N=           5
           1          16          16          14          16
Real atomic weights                        R   N=           5
  1.00782504E+00  1.59949146E+01  1.59949146E+01  1.40030740E+01  1.59949146E+01
Atom fragment info                         I   N=           5
           0           0           0           0           0
Atom residue num                           I   N=           5
           0           0           0           0           0
Nuclear spins                              I   N=           5
           1           0           0           2           0
Nuclear ZEff                               R   N=           5
 -1.00000000E+00 -5.60000000E+00 -5.60000000E+00 -4.55000000E+00 -5.60000000E+00
Nuclear ZNuc                               R   N=           5
  1.00000000E+00  8.00000000E+00  8.00000000E+00  7.00000000E+00  8.00000000E+00
Nuclear QMom                               R   N=           5
  0.00000000E+00  0.00000000E+00  0.00000000E+00  2.04400000E+00  0.00000000E+00
Nuclear GFac                               R   N=           5
  2.79284600E+00  0.00000000E+00  0.00000000E+00  4.03761000E-01  0.00000000E+00
MicOpt                                     I   N=           5
          -1          -1          -1          -1          -1
Number of residues                         I                0
Number of secondary structures             I                0
SymInf integers                            I   N=          26
           1           2           1           1           1           1
           1          -1           0           0           0           0
           0           0           0           0           0           0
           0           0           0           0           0           0
           0           0
RotTr to input orientation                 R   N=          12
 -9.94419671E-01  1.45145902E-15 -1.05496534E-01  1.05496534E-01 -1.59815051E-15
 -9.94419671E-01 -1.61195874E-15 -1.00000000E+00  1.43610841E-15  2.62451399E+00
  0.00000000E+00  3.46335158E+00
Number of contracted shells                I               65
Number of primitive shells                 I              119
Pure/Cartesian d shells                    I                0
Pure/Cartesian f shells                    I                0
Highest angular momentum                   I                3
Largest degree of contraction              I                7
Shell types                                I   N=          65
           0           0           0           0           1           1
           1          -2          -2           0           0           0
           0           0           1           1           1           1
          -2          -2          -2          -3          -3           0
           0           0           0           0           1           1
           1           1          -2          -2          -2          -3
          -3           0           0           0           0           0
           1           1           1           1          -2          -2
          -2          -3          -3           0           0           0
           0           0           1           1           1           1
          -2          -2          -2          -3          -3
Number of primitives per shell             I   N=          65
           3           1           1           1           1           1
           1           1           1           7           6           1
           1           1           3           1           1           1
           1           1           1           1           1           7
           6           1           1           1           3           1
           1           1           1           1           1           1
           1           7           6           1           1           1
           3           1           1           1           1           1
           1           1           1           7           6           1
           1           1           3           1           1           1
           1           1           1           1           1
Shell to atom map                          I   N=          65
           1           1           1           1           1           1
           1           1           1           2           2           2
           2           2           2           2           2           2
           2           2           2           2           2           3
           3           3           3           3           3           3
           3           3           3           3           3           3
           3           4           4           4           4           4
           4           4           4           4           4           4
           4           4           4           5           5           5
           5           5           5           5           5           5
           5           5           5           5           5
Primitive exponents                        R   N=         119
  3.38700000E+01  5.09500000E+00  1.15900000E+00  3.25800000E-01  1.02700000E-01
  2.52600000E-02  1.40700000E+00  3.88000000E-01  1.02000000E-01  1.05700000E+00
  2.47000000E-01  1.53300000E+04  2.29900000E+03  5.22400000E+02  1.47300000E+02
  4.75500000E+01  1.67600000E+01  6.20700000E+00  5.22400000E+02  1.47300000E+02
  4.75500000E+01  1.67600000E+01  6.20700000E+00  6.88200000E-01  1.75200000E+00
  2.38400000E-01  7.37600000E-02  3.44600000E+01  7.74900000E+00  2.28000000E+00
  7.15600000E-01  2.14000000E-01  5.97400000E-02  2.31400000E+00  6.45000000E-01
  2.14000000E-01  1.42800000E+00  5.00000000E-01  1.53300000E+04  2.29900000E+03
  5.22400000E+02  1.47300000E+02  4.75500000E+01  1.67600000E+01  6.20700000E+00
  5.22400000E+02  1.47300000E+02  4.75500000E+01  1.67600000E+01  6.20700000E+00
  6.88200000E-01  1.75200000E+00  2.38400000E-01  7.37600000E-02  3.44600000E+01
  7.74900000E+00  2.28000000E+00  7.15600000E-01  2.14000000E-01  5.97400000E-02
  2.31400000E+00  6.45000000E-01  2.14000000E-01  1.42800000E+00  5.00000000E-01
  1.14200000E+04  1.71200000E+03  3.89300000E+02  1.10000000E+02  3.55700000E+01
  1.25400000E+01  4.64400000E+00  3.89300000E+02  1.10000000E+02  3.55700000E+01
  1.25400000E+01  4.64400000E+00  5.11800000E-01  1.29300000E+00  1.78700000E-01
  5.76000000E-02  2.66300000E+01  5.94800000E+00  1.74200000E+00  5.55000000E-01
  1.72500000E-01  4.91000000E-02  1.65400000E+00  4.69000000E-01  1.51000000E-01
  1.09300000E+00  3.64000000E-01  1.53300000E+04  2.29900000E+03  5.22400000E+02
  1.47300000E+02  4.75500000E+01  1.67600000E+01  6.20700000E+00  5.22400000E+02
  1.47300000E+02  4.75500000E+01  1.67600000E+01  6.20700000E+00  6.88200000E-01
  1.75200000E+00  2.38400000E-01  7.37600000E-02  3.44600000E+01  7.74900000E+00
  2.28000000E+00  7.15600000E-01  2.14000000E-01  5.97400000E-02  2.31400000E+00
  6.45000000E-01  2.14000000E-01  1.42800000E+00  5.00000000E-01
Contraction coefficients                   R   N=         119
  2.54948632E-02  1.90362766E-01  8.52162022E-01  1.00000000E+00  1.00000000E+00
  1.00000000E+00  1.00000000E+00  1.00000000E+00  1.00000000E+00  1.00000000E+00
  1.00000000E+00  5.19808943E-04  4.02025621E-03  2.07128267E-02  8.10105536E-02
  2.35962985E-01  4.42653446E-01  3.57064423E-01 -4.42115008E-05 -1.22591041E-03
 -1.05517725E-02 -6.74452633E-02 -1.71198607E-01  1.07329856E+00  1.00000000E+00
  1.00000000E+00  1.00000000E+00  4.11634896E-02  2.57762836E-01  8.02419274E-01
  1.00000000E+00  1.00000000E+00  1.00000000E+00  1.00000000E+00  1.00000000E+00
  1.00000000E+00  1.00000000E+00  1.00000000E+00  5.19808943E-04  4.02025621E-03
  2.07128267E-02  8.10105536E-02  2.35962985E-01  4.42653446E-01  3.57064423E-01
 -4.42115008E-05 -1.22591041E-03 -1.05517725E-02 -6.74452633E-02 -1.71198607E-01
  1.07329856E+00  1.00000000E+00  1.00000000E+00  1.00000000E+00  4.11634896E-02
  2.57762836E-01  8.02419274E-01  1.00000000E+00  1.00000000E+00  1.00000000E+00
  1.00000000E+00  1.00000000E+00  1.00000000E+00  1.00000000E+00  1.00000000E+00
  5.34563860E-04  4.13435660E-03  2.12335358E-02  8.25006224E-02  2.38138871E-01
  4.42551547E-01  3.53757422E-01 -4.89867350E-05 -1.19527323E-03 -1.03490714E-02
 -6.48680190E-02 -1.71552477E-01  1.07289568E+00  1.00000000E+00  1.00000000E+00
  1.00000000E+00  3.98072123E-02  2.49002660E-01  8.10479727E-01  1.00000000E+00
  1.00000000E+00  1.00000000E+00  1.00000000E+00  1.00000000E+00  1.00000000E+00
  1.00000000E+00  1.00000000E+00  5.19808943E-04  4.02025621E-03  2.07128267E-02
  8.10105536E-02  2.35962985E-01  4.42653446E-01  3.57064423E-01 -4.42115008E-05
 -1.22591041E-03 -1.05517725E-02 -6.74452633E-02 -1.71198607E-01  1.07329856E+00
  1.00000000E+00  1.00000000E+00  1.00000000E+00  4.11634896E-02  2.57762836E-01
  8.02419274E-01  1.00000000E+00  1.00000000E+00  1.00000000E+00  1.00000000E+00
  1.00000000E+00  1.00000000E+00  1.00000000E+00  1.00000000E+00
Coordinates of each shell                  R   N=         195
  2.97523992E+00  3.16714781E+00  4.56699463E-31  2.97523992E+00  3.16714781E+00
  4.56699463E-31  2.97523992E+00  3.16714781E+00  4.56699463E-31  2.97523992E+00
  3.16714781E+00  4.56699463E-31  2.97523992E+00  3.16714781E+00  4.56699463E-31
  2.97523992E+00  3.16714781E+00  4.56699463E-31  2.97523992E+00  3.16714781E+00
  4.56699463E-31  2.97523992E+00  3.16714781E+00  4.56699463E-31  2.97523992E+00
  3.16714781E+00  4.56699463E-31  2.78206538E+00  1.34626751E+00 -2.07388494E-31
  2.78206538E+00  1.34626751E+00 -2.07388494E-31  2.78206538E+00  1.34626751E+00
 -2.07388494E-31  2.78206538E+00  1.34626751E+00 -2.07388494E-31  2.78206538E+00
  1.34626751E+00 -2.07388494E-31  2.78206538E+00  1.34626751E+00 -2.07388494E-31
  2.78206538E+00  1.34626751E+00 -2.07388494E-31  2.78206538E+00  1.34626751E+00
 -2.07388494E-31  2.78206538E+00  1.34626751E+00 -2.07388494E-31  2.78206538E+00
  1.34626751E+00 -2.07388494E-31  2.78206538E+00  1.34626751E+00 -2.07388494E-31
  2.78206538E+00  1.34626751E+00 -2.07388494E-31  2.78206538E+00  1.34626751E+00
 -2.07388494E-31  2.78206538E+00  1.34626751E+00 -2.07388494E-31 -3.14155474E-18
  1.27151307E+00  4.99424477E-31 -3.14155474E-18  1.27151307E+00  4.99424477E-31
 -3.14155474E-18  1.27151307E+00  4.99424477E-31 -3.14155474E-18  1.27151307E+00
  4.99424477E-31 -3.14155474E-18  1.27151307E+00  4.99424477E-31 -3.14155474E-18
  1.27151307E+00  4.99424477E-31 -3.14155474E-18  1.27151307E+00  4.99424477E-31
 -3.14155474E-18  1.27151307E+00  4.99424477E-31 -3.14155474E-18  1.27151307E+00
  4.99424477E-31 -3.14155474E-18  1.27151307E+00  4.99424477E-31 -3.14155474E-18
  1.27151307E+00  4.99424477E-31 -3.14155474E-18  1.27151307E+00  4.99424477E-31
 -3.14155474E-18  1.27151307E+00  4.99424477E-31 -3.14155474E-18  1.27151307E+00
  4.99424477E-31 -5.14585947E-01 -1.43673528E+00 -4.28153469E-31 -5.14585947E-01
 -1.43673528E+00 -4.28153469E-31 -5.14585947E-01 -1.43673528E+00 -4.28153469E-31
 -5.14585947E-01 -1.43673528E+00 -4.28153469E-31 -5.14585947E-01 -1.43673528E+00
 -4.28153469E-31 -5.14585947E-01 -1.43673528E+00 -4.28153469E-31 -5.14585947E-01
 -1.43673528E+00 -4.28153469E-31 -5.14585947E-01 -1.43673528E+00 -4.28153469E-31
 -5.14585947E-01 -1.43673528E+00 -4.28153469E-31 -5.14585947E-01 -1.43673528E+00
 -4.28153469E-31 -5.14585947E-01 -1.43673528E+00 -4.28153469E-31 -5.14585947E-01
 -1.43673528E+00 -4.28153469E-31 -5.14585947E-01 -1.43673528E+00 -4.28153469E-31
 -5.14585947E-01 -1.43673528E+00 -4.28153469E-31 -2.70370767E+00 -1.75653069E+00
  2.55108698E-32 -2.70370767E+00 -1.75653069E+00  2.55108698E-32 -2.70370767E+00
 -1.75653069E+00  2.55108698E-32 -2.70370767E+00 -1.75653069E+00  2.55108698E-32
 -2.70370767E+00 -1.75653069E+00  2.55108698E-32 -2.70370767E+00 -1.75653069E+00
  2.55108698E-32 -2.70370767E+00 -1.75653069E+00  2.55108698E-32 -2.70370767E+00
 -1.75653069E+00  2.55108698E-32 -2.70370767E+00 -1.75653069E+00  2.55108698E-32
 -2.70370767E+00 -1.75653069E+00  2.55108698E-32 -2.70370767E+00 -1.75653069E+00
  2.55108698E-32 -2.70370767E+00 -1.75653069E+00  2.55108698E-32 -2.70370767E+00
 -1.75653069E+00  2.55108698E-32 -2.70370767E+00 -1.75653069E+00  2.55108698E-32
Num ILSW                                   I              100
ILSW                                       I   N=         100
           0           0           0           0           2           0
           0           0           0           0           0          -1
           5           0           0           0           0           0
           0           0           0           0           0           0
           1           0           0           0           0           0
           0           0      100000           0          -1           0
           0           0           0           0           0           0
           0           0           0           1           0           0
           0 -2000000000           1           0           0           0
           0           0           4          52           0           0
           0           0           0           0           0           0
           0           0           0           5           0           1
           0           0           0           0           0           0
           0           0           0           0           0           0
           0           0           0           0           0           0
           0           0           0           0           0           0
           0           0           0           0
Num RLSW                                   I               52
RLSW                                       R   N=          52
  1.00000000E+00  1.00000000E+00  1.00000000E+00  1.00000000E+00  1.00000000E+00
  0.00000000E+00  0.00000000E+00  1.00000000E+00  0.00000000E+00  0.00000000E+00
  0.00000000E+00  0.00000000E+00  1.00000000E+00  0.00000000E+00  0.00000000E+00
  0.00000000E+00  0.00000000E+00  1.00000000E+00  0.00000000E+00  0.00000000E+00
  0.00000000E+00  0.00000000E+00  1.00000000E+00  0.00000000E+00  0.00000000E+00
  0.00000000E+00  0.00000000E+00  1.00000000E+00  0.00000000E+00  0.00000000E+00
  0.00000000E+00  0.00000000E+00  1.00000000E+00  0.00000000E+00  0.00000000E+00
  0.00000000E+00  0.00000000E+00  0.00000000E+00  1.00000000E+00  1.00000000E+00
  0.00000000E+00  1.00000000E+00  0.00000000E+00  0.00000000E+00  0.00000000E+00
  0.00000000E+00  0.00000000E+00  0.00000000E+00  0.00000000E+00  0.00000000E+00
  0.00000000E+00  0.00000000E+00
MxBond                                     I                2
NBond                                      I   N=           5
           1           2           2           2           1
IBond                                      I   N=          10
           2           0           1           3           2           4
           3           5           4           0
RBond                                      R   N=          10
  1.00000000E+00  0.00000000E+00  1.00000000E+00  1.00000000E+00  1.00000000E+00
  1.00000000E+00  1.00000000E+00  2.00000000E+00  2.00000000E+00  0.00000000E+00
Virial Ratio                               R      2.002454593339724E+00
SCF Energy                                 R     -2.795000561540997E+02
MP2 Energy                                 R     -2.804465723899787E+02
Total Energy                               R     -2.804465723899787E+02
Post-SCF wavefunction norm                 R      1.120955429213448E+00
RMS Density                                R      3.970472606629778E-09
Job Status                                 I                1
Nuclear derivative order                   I                0
External E-field                           R   N=          35
  0.00000000E+00  0.00000000E+00  0.00000000E+00  0.00000000E+00  0.00000000E+00
  0.00000000E+00  0.00000000E+00  0.00000000E+00  0.00000000E+00  0.00000000E+00
  0.00000000E+00  0.00000000E+00  0.00000000E+00  0.00000000E+00  0.00000000E+00
  0.00000000E+00  0.00000000E+00  0.00000000E+00  0.00000000E+00  0.00000000E+00
  0.00000000E+00  0.00000000E+00  0.00000000E+00  0.00000000E+00  0.00000000E+00
  0.00000000E+00  0.00000000E+00  0.00000000E+00  0.00000000E+00  0.00000000E+00
  0.00000000E+00  0.00000000E+00  0.00000000E+00  0.00000000E+00  0.00000000E+00
IOpCl                                      I                0
IROHF                                      I                0
Alpha Orbital Energies                     R   N=         207
 -2.06918780E+01 -2.06846003E+01 -2.06615087E+01 -1.58131789E+01 -1.62355135E+00
 -1.48879673E+00 -1.25755818E+00 -9.47825597E-01 -7.70964550E-01 -7.57781517E-01
 -7.10257763E-01 -6.79381297E-01 -6.18762078E-01 -5.86906661E-01 -4.88363310E-01
 -4.72888644E-01  2.95914136E-02  7.16518071E-02  8.54731273E-02  1.01631079E-01
  1.33003400E-01  1.33973315E-01  1.43986618E-01  1.54452607E-01  1.78293962E-01
  1.94338586E-01  1.99880203E-01  2.06139019E-01  2.17137442E-01  2.29503367E-01
  2.37234677E-01  2.65929452E-01  2.93293606E-01  3.03732808E-01  3.10051997E-01
  3.42431436E-01  3.49055833E-01  3.86980615E-01  4.21158351E-01  4.31353215E-01
  5.27047658E-01  5.28894970E-01  5.58205136E-01  5.81143559E-01  6.25615666E-01
  6.38416981E-01  6.74563524E-01  6.84655718E-01  7.04936889E-01  7.11659703E-01
  7.23159748E-01  7.29837354E-01  7.44828049E-01  7.90301618E-01  7.91849085E-01
  8.10327557E-01  8.12403333E-01  8.29373133E-01  8.68048931E-01  9.06496486E-01
  9.21640695E-01  9.24817143E-01  9.57299077E-01  9.76599559E-01  9.83467401E-01
  1.01639907E+00  1.05072708E+00  1.05521778E+00  1.08070349E+00  1.11573622E+00
  1.13855645E+00  1.18826565E+00  1.22075873E+00  1.23136921E+00  1.33834131E+00
  1.34934864E+00  1.38603217E+00  1.45291078E+00  1.48809080E+00  1.51017227E+00
  1.53697262E+00  1.56551462E+00  1.57861471E+00  1.61216237E+00  1.66091467E+00
  1.66881719E+00  1.70300256E+00  1.79087964E+00  1.83006003E+00  1.83433566E+00
  1.87653104E+00  1.90858818E+00  1.95590526E+00  1.98999595E+00  2.00758022E+00
  2.07669566E+00  2.11687755E+00  2.13174054E+00  2.14649717E+00  2.22359496E+00
  2.26071666E+00  2.26348377E+00  2.28848365E+00  2.31240617E+00  2.33901436E+00
  2.38813953E+00  2.42150060E+00  2.42597870E+00  2.45283795E+00  2.46309485E+00
  2.47462107E+00  2.49949510E+00  2.58717735E+00  2.59412095E+00  2.61488577E+00
  2.62212816E+00  2.62965144E+00  2.66232750E+00  2.75638428E+00  2.82350729E+00
  2.85072928E+00  2.87547042E+00  2.88505725E+00  2.91834593E+00  2.95370363E+00
  3.01285164E+00  3.06836365E+00  3.12530914E+00  3.18295315E+00  3.22154769E+00
  3.31007855E+00  3.34793755E+00  3.51090446E+00  3.64052741E+00  3.83822650E+00
  3.84018067E+00  4.14555281E+00  4.15727974E+00  4.18097813E+00  4.25544085E+00
  4.34746995E+00  4.38918030E+00  4.44686607E+00  4.52193713E+00  4.65919825E+00
  4.70122429E+00  4.80320077E+00  4.82342026E+00  4.83105293E+00  4.89424194E+00
  5.02186880E+00  5.07683350E+00  5.09965719E+00  5.14482377E+00  5.17839472E+00
  5.24011874E+00  5.27201301E+00  5.30766739E+00  5.32716021E+00  5.35089731E+00
  5.59597812E+00  5.67334660E+00  5.76439445E+00  5.79734885E+00  5.95138661E+00
  6.16493569E+00  6.33554603E+00  6.33669201E+00  6.39857800E+00  6.49509724E+00
  6.50563721E+00  6.61763063E+00  6.67953219E+00  6.70165706E+00  6.75578673E+00
  6.75892186E+00  6.83198032E+00  6.89670063E+00  6.99927947E+00  7.03108105E+00
  7.04282741E+00  7.07773078E+00  7.12229100E+00  7.13842973E+00  7.17616498E+00
  7.22042868E+00  7.23733773E+00  7.30393994E+00  7.32452181E+00  7.34752231E+00
  7.39507725E+00  7.40986438E+00  7.48276416E+00  7.59476974E+00  7.61153354E+00
  7.61818121E+00  7.65924485E+00  7.77165152E+00  7.88261334E+00  8.06350754E+00
  8.29109272E+00  8.38959374E+00  8.54496335E+00  1.33393676E+01  1.43721391E+01
  1.51432243E+01  1.61501975E+01
Alpha MO coefficients                      R   N=       42849
  9.67605542E-05 -6.56108544E-04 -7.62055606E-04 -8.60216611E-06 -2.61945988E-05
 -2.80181470E-05  0.00000000E+00 -4.88096958E-05  8.40921438E-05  0.00000000E+00
  9.10616118E-05  5.12997084E-05  0.00000000E+00  3.54209263E-05  0.00000000E+00
  0.00000000E+00 -4.68394674E-05  2.31852341E-05 -6.56075657E-09  0.00000000E+00
  0.00000000E+00 -1.32235734E-04  1.18111901E-04  4.43987440E-03 -3.01285032E-04
  2.75567391E-05  1.42002163E-03  1.73404250E-03  9.78475082E-05  6.37389301E-06
  0.00000000E+00 -5.35286200E-04 -2.45843384E-05  0.00000000E+00 -9.73648736E-04
  8.10141880E-04  0.00000000E+00 -3.79967418E-04  7.21055405E-05  0.00000000E+00
  3.30084893E-05  0.00000000E+00  0.00000000E+00 -6.20704758E-05  6.38781708E-06
 -3.57493069E-04  0.00000000E+00  0.00000000E+00  6.99823310E-04 -4.15446299E-05
 -4.31608100E-04  0.00000000E+00  0.00000000E+00  2.26952929E-04 -1.96147331E-05
  0.00000000E+00  7.47847025E-05  1.21630412E-05  0.00000000E+00  0.00000000E+00
 -1.02378931E-04 -9.92635690E-07  0.00000000E+00  2.53932207E-04 -3.04602421E-05
  0.00000000E+00  0.00000000E+00 -3.57293735E-04  6.63470521E-05  9.76925101E-01
 -9.21252964E-03  4.32883806E-02  2.22184822E-03 -8.19773316E-04  1.44325388E-03
 -1.37052788E-03  0.00000000E+00 -1.36225807E-03  1.40315000E-03  0.00000000E+00
  1.73529892E-04 -1.15645388E-03  0.00000000E+00 -1.12674156E-04 -1.00998269E-05
  0.00000000E+00  5.04911066E-05  0.00000000E+00  0.00000000E+00 -4.25958218E-05
  2.12860859E-05  7.26229808E-04  0.00000000E+00  0.00000000E+00 -1.99691988E-04
 -3.80627871E-04 -3.74462930E-04  0.00000000E+00  0.00000000E+00 -2.90753691E-04
 -3.61761770E-04  0.00000000E+00  4.41089134E-05 -5.02437775E-05  0.00000000E+00
  0.00000000E+00 -3.60592062E-05 -1.41279032E-05  0.00000000E+00  1.34498565E-05
  2.32795192E-05  0.00000000E+00  0.00000000E+00 -2.91008196E-04 -1.36129494E-04
  3.91162517E-05  4.53061412E-05 -2.66301476E-04 -6.83656094E-04 -1.16596426E-04
 -2.84727978E-05 -9.74613915E-05  0.00000000E+00  2.77391884E-04  7.05550062E-04
  0.00000000E+00 -8.43358797E-04 -4.87782066E-04  0.00000000E+00 -1.26166325E-04
 -2.47044670E-05  0.00000000E+00 -1.83778623E-05  0.00000000E+00  0.00000000E+00
 -2.93668183E-05  1.45154580E-05 -3.30339047E-04  0.00000000E+00  0.00000000E+00
 -8.26093347E-04  1.55022477E-04 -4.05207494E-05  0.00000000E+00  0.00000000E+00
  1.02163700E-04 -1.04487407E-04  0.00000000E+00 -2.18440357E-05 -1.20381201E-04
  0.00000000E+00  0.00000000E+00 -6.71946472E-05 -1.37427464E-04  0.00000000E+00
  1.54321200E-06 -1.51784568E-04  0.00000000E+00  0.00000000E+00  2.95665691E-05
 -4.23867302E-04 -2.31559964E-03  1.17251949E-04 -1.12379081E-04 -2.64318277E-04
  1.17604325E-04 -7.51947432E-06 -2.82925474E-05  0.00000000E+00  6.71695538E-05
  1.67038714E-04  0.00000000E+00  2.28804859E-04  2.12118818E-04  0.00000000E+00
  1.21919285E-04  2.40776451E-05  0.00000000E+00 -3.26064267E-06  0.00000000E+00
  0.00000000E+00 -1.77955959E-05  1.12676507E-06  1.59193536E-07  0.00000000E+00
  0.00000000E+00  7.90261980E-05  9.08130121E-05 -1.00776034E-04  0.00000000E+00
  0.00000000E+00  1.67716776E-04  1.64146318E-04  0.00000000E+00  1.58067052E-05
 -3.94081050E-06  0.00000000E+00  0.00000000E+00 -5.10771921E-06 -1.14268989E-05
  0.00000000E+00 -3.35104607E-05  4.58780521E-05  0.00000000E+00  0.00000000E+00
  8.46353815E-05  8.91391641E-05  3.77736828E-05 -9.74485287E-04 -4.83381014E-04
 -9.94977602E-06 -2.18585304E-05  1.68526798E-05  0.00000000E+00  2.78239147E-06
  2.73217557E-04  0.00000000E+00 -4.02134061E-05  1.33358398E-04  0.00000000E+00
  2.55597918E-05  0.00000000E+00  0.00000000E+00  1.38100580E-05  1.06537195E-05
 -2.58721278E-05  0.00000000E+00  0.00000000E+00  1.14202961E-05  3.29837285E-05
  1.12889717E-04  7.96901302E-05 -2.75963643E-05  7.53142678E-04  6.56613125E-04
  1.02596126E-05  2.00912180E-06  0.00000000E+00 -7.00036528E-05  2.18134618E-05
  0.00000000E+00  3.25649056E-04  8.64505333E-04  0.00000000E+00  7.31921770E-07
  7.77004764E-05  0.00000000E+00 -1.92137312E-06  0.00000000E+00  0.00000000E+00
 -4.18837464E-07 -6.76332374E-06 -3.68094411E-05  0.00000000E+00  0.00000000E+00
 -2.05589018E-05  8.44931667E-05 -2.41561613E-05  0.00000000E+00  0.00000000E+00
 -2.66771645E-04 -1.44575279E-04  0.00000000E+00  9.36224730E-06  5.52384837E-06
  0.00000000E+00  0.00000000E+00  1.95503702E-06 -1.87075856E-05  0.00000000E+00
 -4.02404090E-05 -3.59414058E-05  0.00000000E+00  0.00000000E+00 -7.21584483E-05
  1.88798748E-05  2.35461865E-03  4.36816755E-05  7.88888636E-05 -7.57063477E-05
 -4.65722481E-04  6.18375366E-06  1.60980998E-05  0.00000000E+00 -5.84173074E-05
 -5.49557328E-05  0.00000000E+00  2.28401624E-04 -1.71820798E-04  0.00000000E+00
 -1.89811787E-04 -6.18783342E-05  0.00000000E+00 -8.79300604E-06  0.00000000E+00
  0.00000000E+00  2.23597015E-05  1.94455795E-05  3.80709601E-06  0.00000000E+00
  0.00000000E+00 -1.15370429E-04 -4.41377645E-05 -3.69945381E-06  0.00000000E+00
  0.00000000E+00 -2.22602610E-04 -1.91222138E-04  0.00000000E+00  2.66955644E-06
 -6.28977816E-07  0.00000000E+00  0.00000000E+00  1.32230232E-06 -1.35557559E-05
  0.00000000E+00 -4.49973289E-05  4.12192904E-06  0.00000000E+00  0.00000000E+00
 -6.92645861E-05  1.88824435E-04  2.58830889E-04  1.46563672E-03 -7.85428597E-05
 -1.54113755E-03  3.90348657E-04 -1.44886541E-04  1.13128936E-06  0.00000000E+00
 -2.08687698E-03 -3.86356235E-04  0.00000000E+00  1.03123543E-03  7.42888194E-04
  0.00000000E+00 -1.72620342E-04  5.44838972E-05  0.00000000E+00 -1.23426261E-04
  0.00000000E+00  0.00000000E+00  2.44338258E-04  9.03697248E-05 -4.41609727E-04
  0.00000000E+00  0.00000000E+00  8.97621592E-04 -7.74999998E-05  1.29163542E-05
  0.00000000E+00  0.00000000E+00 -3.37789784E-04 -1.18752324E-04  0.00000000E+00
 -1.64496650E-06  1.51062904E-05  0.00000000E+00  0.00000000E+00  1.91397966E-05
  1.35348400E-05  0.00000000E+00  1.66220742E-04 -7.12542144E-05  0.00000000E+00
  0.00000000E+00 -2.40526711E-04  4.36672428E-05  9.76650183E-01 -9.84892456E-03
  4.35669300E-02  4.49387377E-03 -4.46753852E-04  2.15134262E-03  4.65978908E-04
  0.00000000E+00 -2.38792660E-03 -5.84836666E-04  0.00000000E+00  1.14046889E-03
 -9.51052771E-06  0.00000000E+00  5.12735482E-06 -4.22533622E-05  0.00000000E+00
 -2.32220887E-04  0.00000000E+00  0.00000000E+00  1.03305502E-04  3.00499158E-05
  3.90305158E-04  0.00000000E+00  0.00000000E+00 -8.39137121E-04 -4.05712292E-04
 -1.54831584E-04  0.00000000E+00  0.00000000E+00  2.58347678E-04  1.48596167E-05
  0.00000000E+00  5.23324709E-05  1.72600477E-05  0.00000000E+00  0.00000000E+00
 -2.24270185E-05 -1.28621218E-05  0.00000000E+00  1.38030466E-04  8.29204126E-06
  0.00000000E+00  0.00000000E+00 -1.92064663E-04 -1.35838534E-04  4.78259044E-04
  2.10225632E-03  1.47283999E-04  1.65852485E-05 -4.44062744E-05 -2.52518166E-04
  0.00000000E+00  9.53171948E-05 -1.29359037E-03  0.00000000E+00  2.93821476E-04
 -3.49424177E-04  0.00000000E+00 -3.28125393E-06  0.00000000E+00  0.00000000E+00
  7.11782187E-05  1.56397403E-05 -1.61774352E-04  0.00000000E+00  0.00000000E+00
 -5.38568233E-04 -9.44623897E-06  9.76843018E-01 -9.16549977E-03  4.34197544E-02
  3.08825578E-04 -1.05064921E-03 -1.51139079E-03  1.46263866E-03  0.00000000E+00
  1.50269576E-03 -1.31713711E-03  0.00000000E+00 -6.99349617E-04 -8.77114840E-04
  0.00000000E+00  4.06457921E-05 -2.38277547E-05  0.00000000E+00  3.42218682E-05
  0.00000000E+00  0.00000000E+00 -1.25945762E-04 -4.33223575E-07  7.39414050E-04
  0.00000000E+00  0.00000000E+00 -1.62328478E-04 -2.32560926E-04 -2.81772088E-04
  0.00000000E+00  0.00000000E+00  2.13124645E-04  1.24809188E-04  0.00000000E+00
 -6.12828419E-05  3.42694692E-06  0.00000000E+00  0.00000000E+00  1.59663470E-05
  1.11758518E-05  0.00000000E+00  1.20644935E-05  1.21706243E-04  0.00000000E+00
  0.00000000E+00  2.43238375E-04  8.89566067E-05 -4.53823415E-03 -2.33666436E-04