title                                                                   
SP        RMP2-FC                                                     Aug-CC-pVTZ         
Number of atoms                            I                5
Info1-9                                    I   N=           9
          33          24           0           0           0         110
           1           2           1
Full Title                                 C   N=           1
title       
Route                                      C   N=           4
#p SP mp2/aug-cc-pvtz density=current           
Charge                                     I                0
Multiplicity                               I                1
Number of electrons                        I               32
Number of alpha electrons                  I               16
Number of beta electrons                   I               16
Number of basis functions                  I              207
Number of independent functions            I              207
Number of point charges in /Mol/           I                0
Number of translation vectors              I                0
Atomic numbers                             I   N=           5
           1           8           8           7           8
Nuclear charges                            R   N=           5
  1.00000000E+00  8.00000000E+00  8.00000000E+00  7.00000000E+00  8.00000000E+00
Current cartesian coordinates              R   N=          15
  2.92000016E+00  3.20038842E+00 -9.97102278E-32  2.74739796E+00  1.37744302E+00
 -3.17453840E-32 -4.53830873E-17  1.27256473E+00 -9.07148071E-33 -4.83973617E-01
 -1.44132130E+00  2.12369177E-32 -2.68892107E+00 -1.78890016E+00  3.11159384E-32
Number of symbols in /Mol/                 I                0
Force Field                                I                0
Atom Types                                 C   N=           5
                                                            
Int Atom Types                             I   N=           5
           0           0           0           0           0
MM charges                                 R   N=           5
  0.00000000E+00  0.00000000E+00  0.00000000E+00  0.00000000E+00  0.00000000E+00
Integer atomic weights                     I   N=           5
           1          16          16          14          16
Real atomic weights                        R   N=           5
  1.00782504E+00  1.59949146E+01  1.59949146E+01  1.40030740E+01  1.59949146E+01
Atom fragment info                         I   N=           5
           0           0           0           0           0
Atom residue num                           I   N=           5
           0           0           0           0           0
Nuclear spins                              I   N=           5
           1           0           0           2           0
Nuclear ZEff                               R   N=           5
 -1.00000000E+00 -5.60000000E+00 -5.60000000E+00 -4.55000000E+00 -5.60000000E+00
Nuclear ZNuc                               R   N=           5
  1.00000000E+00  8.00000000E+00  8.00000000E+00  7.00000000E+00  8.00000000E+00
Nuclear QMom                               R   N=           5
  0.00000000E+00  0.00000000E+00  0.00000000E+00  2.04400000E+00  0.00000000E+00
Nuclear GFac                               R   N=           5
  2.79284600E+00  0.00000000E+00  0.00000000E+00  4.03761000E-01  0.00000000E+00
MicOpt                                     I   N=           5
          -1          -1          -1          -1          -1
Number of residues                         I                0
Number of secondary structures             I                0
SymInf integers                            I   N=          26
           1           2           1           1           1           1
           1          -1           0           0           0           0
           0           0           0           0           0           0
           0           0           0           0           0           0
           0           0
RotTr to input orientation                 R   N=          12
 -9.95547466E-01 -9.82693611E-17 -9.42615613E-02  9.42615613E-02 -7.30803017E-17
 -9.95547466E-01  9.09431501E-17 -1.00000000E+00  8.20179327E-17  2.60532515E+00
  0.00000000E+00  3.46138236E+00
Number of contracted shells                I               65
Number of primitive shells                 I              119
Pure/Cartesian d shells                    I                0
Pure/Cartesian f shells                    I                0
Highest angular momentum                   I                3
Largest degree of contraction              I                7
Shell types                                I   N=          65
           0           0           0           0           1           1
           1          -2          -2           0           0           0
           0           0           1           1           1           1
          -2          -2          -2          -3          -3           0
           0           0           0           0           1           1
           1           1          -2          -2          -2          -3
          -3           0           0           0           0           0
           1           1           1           1          -2          -2
          -2          -3          -3           0           0           0
           0           0           1           1           1           1
          -2          -2          -2          -3          -3
Number of primitives per shell             I   N=          65
           3           1           1           1           1           1
           1           1           1           7           6           1
           1           1           3           1           1           1
           1           1           1           1           1           7
           6           1           1           1           3           1
           1           1           1           1           1           1
           1           7           6           1           1           1
           3           1           1           1           1           1
           1           1           1           7           6           1
           1           1           3           1           1           1
           1           1           1           1           1
Shell to atom map                          I   N=          65
           1           1           1           1           1           1
           1           1           1           2           2           2
           2           2           2           2           2           2
           2           2           2           2           2           3
           3           3           3           3           3           3
           3           3           3           3           3           3
           3           4           4           4           4           4
           4           4           4           4           4           4
           4           4           4           5           5           5
           5           5           5           5           5           5
           5           5           5           5           5
Primitive exponents                        R   N=         119
  3.38700000E+01  5.09500000E+00  1.15900000E+00  3.25800000E-01  1.02700000E-01
  2.52600000E-02  1.40700000E+00  3.88000000E-01  1.02000000E-01  1.05700000E+00
  2.47000000E-01  1.53300000E+04  2.29900000E+03  5.22400000E+02  1.47300000E+02
  4.75500000E+01  1.67600000E+01  6.20700000E+00  5.22400000E+02  1.47300000E+02
  4.75500000E+01  1.67600000E+01  6.20700000E+00  6.88200000E-01  1.75200000E+00
  2.38400000E-01  7.37600000E-02  3.44600000E+01  7.74900000E+00  2.28000000E+00
  7.15600000E-01  2.14000000E-01  5.97400000E-02  2.31400000E+00  6.45000000E-01
  2.14000000E-01  1.42800000E+00  5.00000000E-01  1.53300000E+04  2.29900000E+03
  5.22400000E+02  1.47300000E+02  4.75500000E+01  1.67600000E+01  6.20700000E+00
  5.22400000E+02  1.47300000E+02  4.75500000E+01  1.67600000E+01  6.20700000E+00
  6.88200000E-01  1.75200000E+00  2.38400000E-01  7.37600000E-02  3.44600000E+01
  7.74900000E+00  2.28000000E+00  7.15600000E-01  2.14000000E-01  5.97400000E-02
  2.31400000E+00  6.45000000E-01  2.14000000E-01  1.42800000E+00  5.00000000E-01
  1.14200000E+04  1.71200000E+03  3.89300000E+02  1.10000000E+02  3.55700000E+01
  1.25400000E+01  4.64400000E+00  3.89300000E+02  1.10000000E+02  3.55700000E+01
  1.25400000E+01  4.64400000E+00  5.11800000E-01  1.29300000E+00  1.78700000E-01
  5.76000000E-02  2.66300000E+01  5.94800000E+00  1.74200000E+00  5.55000000E-01
  1.72500000E-01  4.91000000E-02  1.65400000E+00  4.69000000E-01  1.51000000E-01
  1.09300000E+00  3.64000000E-01  1.53300000E+04  2.29900000E+03  5.22400000E+02
  1.47300000E+02  4.75500000E+01  1.67600000E+01  6.20700000E+00  5.22400000E+02
  1.47300000E+02  4.75500000E+01  1.67600000E+01  6.20700000E+00  6.88200000E-01
  1.75200000E+00  2.38400000E-01  7.37600000E-02  3.44600000E+01  7.74900000E+00
  2.28000000E+00  7.15600000E-01  2.14000000E-01  5.97400000E-02  2.31400000E+00
  6.45000000E-01  2.14000000E-01  1.42800000E+00  5.00000000E-01
Contraction coefficients                   R   N=         119
  2.54948632E-02  1.90362766E-01  8.52162022E-01  1.00000000E+00  1.00000000E+00
  1.00000000E+00  1.00000000E+00  1.00000000E+00  1.00000000E+00  1.00000000E+00
  1.00000000E+00  5.19808943E-04  4.02025621E-03  2.07128267E-02  8.10105536E-02
  2.35962985E-01  4.42653446E-01  3.57064423E-01 -4.42115008E-05 -1.22591041E-03
 -1.05517725E-02 -6.74452633E-02 -1.71198607E-01  1.07329856E+00  1.00000000E+00
  1.00000000E+00  1.00000000E+00  4.11634896E-02  2.57762836E-01  8.02419274E-01
  1.00000000E+00  1.00000000E+00  1.00000000E+00  1.00000000E+00  1.00000000E+00
  1.00000000E+00  1.00000000E+00  1.00000000E+00  5.19808943E-04  4.02025621E-03
  2.07128267E-02  8.10105536E-02  2.35962985E-01  4.42653446E-01  3.57064423E-01
 -4.42115008E-05 -1.22591041E-03 -1.05517725E-02 -6.74452633E-02 -1.71198607E-01
  1.07329856E+00  1.00000000E+00  1.00000000E+00  1.00000000E+00  4.11634896E-02
  2.57762836E-01  8.02419274E-01  1.00000000E+00  1.00000000E+00  1.00000000E+00
  1.00000000E+00  1.00000000E+00  1.00000000E+00  1.00000000E+00  1.00000000E+00
  5.34563860E-04  4.13435660E-03  2.12335358E-02  8.25006224E-02  2.38138871E-01
  4.42551547E-01  3.53757422E-01 -4.89867350E-05 -1.19527323E-03 -1.03490714E-02
 -6.48680190E-02 -1.71552477E-01  1.07289568E+00  1.00000000E+00  1.00000000E+00
  1.00000000E+00  3.98072123E-02  2.49002660E-01  8.10479727E-01  1.00000000E+00
  1.00000000E+00  1.00000000E+00  1.00000000E+00  1.00000000E+00  1.00000000E+00
  1.00000000E+00  1.00000000E+00  5.19808943E-04  4.02025621E-03  2.07128267E-02
  8.10105536E-02  2.35962985E-01  4.42653446E-01  3.57064423E-01 -4.42115008E-05
 -1.22591041E-03 -1.05517725E-02 -6.74452633E-02 -1.71198607E-01  1.07329856E+00
  1.00000000E+00  1.00000000E+00  1.00000000E+00  4.11634896E-02  2.57762836E-01
  8.02419274E-01  1.00000000E+00  1.00000000E+00  1.00000000E+00  1.00000000E+00
  1.00000000E+00  1.00000000E+00  1.00000000E+00  1.00000000E+00
Coordinates of each shell                  R   N=         195
  2.92000016E+00  3.20038842E+00 -2.13324158E-32  2.92000016E+00  3.20038842E+00
 -2.13324158E-32  2.92000016E+00  3.20038842E+00 -2.13324158E-32  2.92000016E+00
  3.20038842E+00 -2.13324158E-32  2.92000016E+00  3.20038842E+00 -2.13324158E-32
  2.92000016E+00  3.20038842E+00 -2.13324158E-32  2.92000016E+00  3.20038842E+00
 -2.13324158E-32  2.92000016E+00  3.20038842E+00 -2.13324158E-32  2.92000016E+00
  3.20038842E+00 -2.13324158E-32  2.74739796E+00  1.37744302E+00 -1.00474005E-32
  2.74739796E+00  1.37744302E+00 -1.00474005E-32  2.74739796E+00  1.37744302E+00
 -1.00474005E-32  2.74739796E+00  1.37744302E+00 -1.00474005E-32  2.74739796E+00
  1.37744302E+00 -1.00474005E-32  2.74739796E+00  1.37744302E+00 -1.00474005E-32
  2.74739796E+00  1.37744302E+00 -1.00474005E-32  2.74739796E+00  1.37744302E+00
 -1.00474005E-32  2.74739796E+00  1.37744302E+00 -1.00474005E-32  2.74739796E+00
  1.37744302E+00 -1.00474005E-32  2.74739796E+00  1.37744302E+00 -1.00474005E-32
  2.74739796E+00  1.37744302E+00 -1.00474005E-32  2.74739796E+00  1.37744302E+00
 -1.00474005E-32  2.74739796E+00  1.37744302E+00 -1.00474005E-32  3.71138857E-18
  1.27256473E+00 -7.80786538E-33  3.71138857E-18  1.27256473E+00 -7.80786538E-33
  3.71138857E-18  1.27256473E+00 -7.80786538E-33  3.71138857E-18  1.27256473E+00
 -7.80786538E-33  3.71138857E-18  1.27256473E+00 -7.80786538E-33  3.71138857E-18
  1.27256473E+00 -7.80786538E-33  3.71138857E-18  1.27256473E+00 -7.80786538E-33
  3.71138857E-18  1.27256473E+00 -7.80786538E-33  3.71138857E-18  1.27256473E+00
 -7.80786538E-33  3.71138857E-18  1.27256473E+00 -7.80786538E-33  3.71138857E-18
  1.27256473E+00 -7.80786538E-33  3.71138857E-18  1.27256473E+00 -7.80786538E-33
  3.71138857E-18  1.27256473E+00 -7.80786538E-33  3.71138857E-18  1.27256473E+00
 -7.80786538E-33 -4.83973617E-01 -1.44132130E+00  9.12443287E-33 -4.83973617E-01
 -1.44132130E+00  9.12443287E-33 -4.83973617E-01 -1.44132130E+00  9.12443287E-33
 -4.83973617E-01 -1.44132130E+00  9.12443287E-33 -4.83973617E-01 -1.44132130E+00
  9.12443287E-33 -4.83973617E-01 -1.44132130E+00  9.12443287E-33 -4.83973617E-01
 -1.44132130E+00  9.12443287E-33 -4.83973617E-01 -1.44132130E+00  9.12443287E-33
 -4.83973617E-01 -1.44132130E+00  9.12443287E-33 -4.83973617E-01 -1.44132130E+00
  9.12443287E-33 -4.83973617E-01 -1.44132130E+00  9.12443287E-33 -4.83973617E-01
 -1.44132130E+00  9.12443287E-33 -4.83973617E-01 -1.44132130E+00  9.12443287E-33
 -4.83973617E-01 -1.44132130E+00  9.12443287E-33 -2.68892107E+00 -1.78890016E+00
  1.25379390E-32 -2.68892107E+00 -1.78890016E+00  1.25379390E-32 -2.68892107E+00
 -1.78890016E+00  1.25379390E-32 -2.68892107E+00 -1.78890016E+00  1.25379390E-32
 -2.68892107E+00 -1.78890016E+00  1.25379390E-32 -2.68892107E+00 -1.78890016E+00
  1.25379390E-32 -2.68892107E+00 -1.78890016E+00  1.25379390E-32 -2.68892107E+00
 -1.78890016E+00  1.25379390E-32 -2.68892107E+00 -1.78890016E+00  1.25379390E-32
 -2.68892107E+00 -1.78890016E+00  1.25379390E-32 -2.68892107E+00 -1.78890016E+00
  1.25379390E-32 -2.68892107E+00 -1.78890016E+00  1.25379390E-32 -2.68892107E+00
 -1.78890016E+00  1.25379390E-32 -2.68892107E+00 -1.78890016E+00  1.25379390E-32
Num ILSW                                   I              100
ILSW                                       I   N=         100
           0           0           0           0           2           0
           0           0           0           0           0          -1
           5           0           0           0           0           0
           0           0           0           0           0           0
           1           0           0           0           0           0
           0           0      100000           0          -1           0
           0           0           0           0           0           0
           0           0           0           1           0           0
           0 -2000000000           1           0           0           0
           0           0           4          52           0           0
           0           0           0           0           0           0
           0           0           0           5           0           1
           0           0           0           0           0           0
           0           0           0           0           0           0
           0           0           0           0           0           0
           0           0           0           0           0           0
           0           0           0           0
Num RLSW                                   I               52
RLSW                                       R   N=          52
  1.00000000E+00  1.00000000E+00  1.00000000E+00  1.00000000E+00  1.00000000E+00
  0.00000000E+00  0.00000000E+00  1.00000000E+00  0.00000000E+00  0.00000000E+00
  0.00000000E+00  0.00000000E+00  1.00000000E+00  0.00000000E+00  0.00000000E+00
  0.00000000E+00  0.00000000E+00  1.00000000E+00  0.00000000E+00  0.00000000E+00
  0.00000000E+00  0.00000000E+00  1.00000000E+00  0.00000000E+00  0.00000000E+00
  0.00000000E+00  0.00000000E+00  1.00000000E+00  0.00000000E+00  0.00000000E+00
  0.00000000E+00  0.00000000E+00  1.00000000E+00  0.00000000E+00  0.00000000E+00
  0.00000000E+00  0.00000000E+00  0.00000000E+00  1.00000000E+00  1.00000000E+00
  0.00000000E+00  1.00000000E+00  0.00000000E+00  0.00000000E+00  0.00000000E+00
  0.00000000E+00  0.00000000E+00  0.00000000E+00  0.00000000E+00  0.00000000E+00
  0.00000000E+00  0.00000000E+00
MxBond                                     I                2
NBond                                      I   N=           5
           1           2           2           2           1
IBond                                      I   N=          10
           2           0           1           3           2           4
           3           5           4           0
RBond                                      R   N=          10
  1.00000000E+00  0.00000000E+00  1.00000000E+00  1.00000000E+00  1.00000000E+00
  1.00000000E+00  1.00000000E+00  2.00000000E+00  2.00000000E+00  0.00000000E+00
Virial Ratio                               R      2.002526900640037E+00
SCF Energy                                 R     -2.794997344856071E+02
MP2 Energy                                 R     -2.804465872342447E+02
Total Energy                               R     -2.804465872342447E+02
Post-SCF wavefunction norm                 R      1.120965354547940E+00
RMS Density                                R      4.078494835694025E-09
Job Status                                 I                1
Nuclear derivative order                   I                0
External E-field                           R   N=          35
  0.00000000E+00  0.00000000E+00  0.00000000E+00  0.00000000E+00  0.00000000E+00
  0.00000000E+00  0.00000000E+00  0.00000000E+00  0.00000000E+00  0.00000000E+00
  0.00000000E+00  0.00000000E+00  0.00000000E+00  0.00000000E+00  0.00000000E+00
  0.00000000E+00  0.00000000E+00  0.00000000E+00  0.00000000E+00  0.00000000E+00
  0.00000000E+00  0.00000000E+00  0.00000000E+00  0.00000000E+00  0.00000000E+00
  0.00000000E+00  0.00000000E+00  0.00000000E+00  0.00000000E+00  0.00000000E+00
  0.00000000E+00  0.00000000E+00  0.00000000E+00  0.00000000E+00  0.00000000E+00
IOpCl                                      I                0
IROHF                                      I                0
Alpha Orbital Energies                     R   N=         207
 -2.06933099E+01 -2.06838704E+01 -2.06613072E+01 -1.58143555E+01 -1.61576465E+00
 -1.49545680E+00 -1.25545277E+00 -9.49513458E-01 -7.71657156E-01 -7.56445703E-01
 -7.09837624E-01 -6.78049349E-01 -6.18236094E-01 -5.90082070E-01 -4.86066349E-01
 -4.74524378E-01  2.93451210E-02  6.84468687E-02  8.61093402E-02  1.01721005E-01
  1.33805255E-01  1.34152184E-01  1.43860136E-01  1.54275904E-01  1.78079946E-01
  1.94288633E-01  1.99432485E-01  2.06343858E-01  2.20455706E-01  2.34563822E-01
  2.37310194E-01  2.65929910E-01  2.92374269E-01  3.03472809E-01  3.09974242E-01
  3.43537972E-01  3.49377951E-01  3.86812928E-01  4.21498855E-01  4.31500291E-01
  5.27536451E-01  5.27539050E-01  5.57787260E-01  5.81398314E-01  6.20182619E-01
  6.38796333E-01  6.77690127E-01  6.83790381E-01  7.06301413E-01  7.10896057E-01
  7.23752333E-01  7.28786566E-01  7.44696789E-01  7.90982463E-01  7.91390300E-01
  8.10702517E-01  8.11747172E-01  8.27885489E-01  8.67338716E-01  9.07309700E-01
  9.20979100E-01  9.25336360E-01  9.56041106E-01  9.75253071E-01  9.83733959E-01
  1.01595116E+00  1.05131849E+00  1.05411761E+00  1.08038052E+00  1.11622595E+00
  1.14018622E+00  1.18886612E+00  1.21927571E+00  1.23111851E+00  1.33805351E+00
  1.34976675E+00  1.38454884E+00  1.45288724E+00  1.48724999E+00  1.50768343E+00
  1.53770197E+00  1.56691435E+00  1.57996121E+00  1.61246244E+00  1.66163046E+00
  1.66920037E+00  1.70361484E+00  1.79260838E+00  1.83215193E+00  1.83429179E+00
  1.87548538E+00  1.90997445E+00  1.95890074E+00  1.98944823E+00  2.00630584E+00
  2.07732560E+00  2.12064391E+00  2.13097552E+00  2.14878657E+00  2.22387224E+00
  2.26340564E+00  2.26404001E+00  2.28856696E+00  2.31306821E+00  2.34070791E+00
  2.38517176E+00  2.42205436E+00  2.42629300E+00  2.45394926E+00  2.46142037E+00
  2.47508468E+00  2.49916075E+00  2.58798879E+00  2.59457635E+00  2.61872766E+00
  2.62052972E+00  2.63318252E+00  2.66443940E+00  2.75337025E+00  2.82004374E+00
  2.85059799E+00  2.87930734E+00  2.89172519E+00  2.92037332E+00  2.95543498E+00
  3.02272483E+00  3.06971749E+00  3.11824431E+00  3.20366343E+00  3.22378500E+00
  3.31459362E+00  3.34015168E+00  3.51240296E+00  3.64238705E+00  3.83678163E+00
  3.84098300E+00  4.14736959E+00  4.16134080E+00  4.18203283E+00  4.23272050E+00
  4.35038375E+00  4.39155162E+00  4.46035237E+00  4.51703615E+00  4.64903393E+00
  4.70857399E+00  4.79929798E+00  4.82260122E+00  4.82657191E+00  4.89639669E+00
  5.02478720E+00  5.07653987E+00  5.09921332E+00  5.14881176E+00  5.17539280E+00
  5.23832685E+00  5.27113988E+00  5.30822087E+00  5.32775868E+00  5.34720524E+00
  5.60364605E+00  5.65646647E+00  5.75977346E+00  5.82460108E+00  5.96175627E+00
  6.16578747E+00  6.30668348E+00  6.33722544E+00  6.39285279E+00  6.49360762E+00
  6.50525197E+00  6.61218568E+00  6.66654732E+00  6.69523760E+00  6.75597298E+00
  6.76147112E+00  6.82620442E+00  6.89425570E+00  7.00999292E+00  7.05314908E+00
  7.05506055E+00  7.08847023E+00  7.11926749E+00  7.14685327E+00  7.18000935E+00
  7.21733366E+00  7.23921686E+00  7.30125769E+00  7.30273249E+00  7.34083722E+00
  7.39189824E+00  7.42957944E+00  7.48304715E+00  7.59922356E+00  7.60563705E+00
  7.61599622E+00  7.66295166E+00  7.77996144E+00  7.86967512E+00  8.08846096E+00
  8.31046833E+00  8.40787381E+00  8.54175900E+00  1.33686881E+01  1.43073238E+01
  1.51565162E+01  1.58441259E+01
Alpha MO coefficients                      R   N=       42849
  9.15392347E-05 -6.50660727E-04 -7.25562210E-04 -5.28212941E-06 -2.12887220E-05
 -2.66127481E-05  0.00000000E+00 -4.40093932E-05  6.21494536E-05  0.00000000E+00
  8.55178191E-05  3.51932826E-05  0.00000000E+00  3.17534711E-05  0.00000000E+00
  0.00000000E+00 -4.96312671E-05  2.09220215E-05 -6.17360076E-06  0.00000000E+00
  0.00000000E+00 -1.39156313E-04  1.17630821E-04  4.42655361E-03 -2.80808815E-04
  7.64245810E-06  1.56710873E-03  1.82243610E-03  1.06290859E-04  7.62826111E-06
  0.00000000E+00 -6.17004114E-04 -3.77762650E-05  0.00000000E+00 -1.10428051E-03
  8.00964197E-04  0.00000000E+00 -4.02320086E-04  6.40348873E-05  0.00000000E+00
  2.88311715E-05  0.00000000E+00  0.00000000E+00 -5.40112103E-05  5.25242289E-06
 -3.78543057E-04  0.00000000E+00  0.00000000E+00  7.39213225E-04 -2.56543486E-05
 -4.46887707E-04  0.00000000E+00  0.00000000E+00  2.40381191E-04 -1.73311437E-05
  0.00000000E+00  7.99746989E-05  1.30366912E-05  0.00000000E+00  0.00000000E+00
 -1.09416782E-04 -4.68242632E-06  0.00000000E+00  2.54362887E-04 -2.71899611E-05
  0.00000000E+00  0.00000000E+00 -3.54126976E-04  4.56433842E-05  9.76916999E-01
 -9.21381825E-03  4.33140191E-02  2.00826752E-03 -9.30779772E-04  1.49787274E-03
 -1.36496070E-03  0.00000000E+00 -1.43822120E-03  1.39396460E-03  0.00000000E+00
  8.13783389E-05 -1.16054204E-03  0.00000000E+00 -1.36776292E-04 -1.21729583E-05
  0.00000000E+00  4.65057982E-05  0.00000000E+00  0.00000000E+00 -3.47086307E-05
  2.05227648E-05  7.49467699E-04  0.00000000E+00  0.00000000E+00 -2.24075016E-04
 -3.91943318E-04 -3.59570926E-04  0.00000000E+00  0.00000000E+00 -3.12636255E-04
 -3.79027722E-04  0.00000000E+00  4.74601603E-05 -4.94021172E-05  0.00000000E+00
  0.00000000E+00 -3.89599854E-05 -1.65609271E-05  0.00000000E+00  2.35759673E-05
  2.24733374E-05  0.00000000E+00  0.00000000E+00 -3.03322092E-04 -1.44201812E-04
  4.05036079E-05  5.40711776E-05 -2.64704938E-04 -6.69950612E-04 -1.22269818E-04
 -2.72760983E-05 -9.87064657E-05  0.00000000E+00  2.61676826E-04  7.14673021E-04
  0.00000000E+00 -8.25347680E-04 -4.52917736E-04  0.00000000E+00 -1.23894247E-04
 -2.30608909E-05  0.00000000E+00 -1.82061370E-05  0.00000000E+00  0.00000000E+00
 -2.89269732E-05  1.47755650E-05 -3.31785736E-04  0.00000000E+00  0.00000000E+00
 -8.33558250E-04  1.23978077E-04 -3.95910697E-05  0.00000000E+00  0.00000000E+00
  9.11681234E-05 -1.16257434E-04  0.00000000E+00 -2.06121490E-05 -1.20668186E-04
  0.00000000E+00  0.00000000E+00 -6.16858700E-05 -1.39981417E-04  0.00000000E+00
  2.42548283E-06 -1.54819099E-04  0.00000000E+00  0.00000000E+00  4.58441019E-05
 -4.18884756E-04 -1.76465952E-03  1.13295878E-04 -8.82779265E-05 -2.47325142E-04
  1.19377815E-04 -5.87111544E-06 -2.77978327E-05  0.00000000E+00  6.51643346E-05
  1.63441261E-04  0.00000000E+00  2.16597528E-04  1.90226268E-04  0.00000000E+00
  1.22542251E-04  2.11886742E-05  0.00000000E+00 -3.71435891E-06  0.00000000E+00
  0.00000000E+00 -1.71305896E-05  8.01703821E-07  5.51230153E-07  0.00000000E+00
  0.00000000E+00  7.52634567E-05  9.03843349E-05 -9.66640950E-05  0.00000000E+00
  0.00000000E+00  1.61957659E-04  1.56894815E-04  0.00000000E+00  1.59227150E-05
 -4.05833769E-06  0.00000000E+00  0.00000000E+00 -5.38746876E-06 -1.16140822E-05
  0.00000000E+00 -3.31729541E-05  4.51048382E-05  0.00000000E+00  0.00000000E+00
  8.22543075E-05  9.12100541E-05  3.79241096E-05 -1.00055829E-03 -5.03266209E-04
 -1.31168980E-05 -2.24534664E-05  1.67887477E-05  0.00000000E+00 -2.56320709E-06
  2.79300266E-04  0.00000000E+00 -4.47598643E-05  1.37845213E-04  0.00000000E+00
  2.60985884E-05  0.00000000E+00  0.00000000E+00  1.30198880E-05  1.16248008E-05
 -2.72816895E-05  0.00000000E+00  0.00000000E+00  1.04425966E-05  3.64057080E-05
  1.14494961E-04  8.37437361E-05 -2.76308927E-05  7.51502734E-04  6.65183529E-04
  9.47404433E-06  2.79653453E-06  0.00000000E+00 -6.81758694E-05  1.55807973E-05
  0.00000000E+00  3.45832044E-04  9.01957035E-04  0.00000000E+00  6.93790953E-06
  8.72607856E-05  0.00000000E+00 -2.15892989E-06  0.00000000E+00  0.00000000E+00
  3.23573058E-07 -6.60852256E-06 -3.57319289E-05  0.00000000E+00  0.00000000E+00
 -2.65072462E-05  8.76684216E-05 -2.07677268E-05  0.00000000E+00  0.00000000E+00
 -2.70987230E-04 -1.56891520E-04  0.00000000E+00  9.22284494E-06  6.27179740E-06
  0.00000000E+00  0.00000000E+00  3.63156393E-06 -1.93054875E-05  0.00000000E+00
 -4.21592690E-05 -3.92645135E-05  0.00000000E+00  0.00000000E+00 -7.66332049E-05
  1.73859078E-05  1.80363237E-03  4.83339806E-05  5.37205765E-05 -6.43704828E-05
 -4.78554501E-04  7.01095039E-06  1.68002720E-05  0.00000000E+00 -6.49736363E-05
 -5.90392484E-05  0.00000000E+00  2.27039259E-04 -1.59426227E-04  0.00000000E+00
 -1.95070292E-04 -6.50804043E-05  0.00000000E+00 -8.74400362E-06  0.00000000E+00
  0.00000000E+00  2.10173619E-05  1.77300272E-05  2.42703554E-06  0.00000000E+00
  0.00000000E+00 -1.09775877E-04 -3.33821050E-05 -2.65318992E-06  0.00000000E+00
  0.00000000E+00 -2.12621313E-04 -1.85322947E-04  0.00000000E+00  3.66391595E-06
 -1.31837410E-08  0.00000000E+00  0.00000000E+00  2.03930745E-06 -1.58744076E-05
  0.00000000E+00 -4.67193932E-05  8.42099037E-09  0.00000000E+00  0.00000000E+00
 -6.66747371E-05  1.88883325E-04  2.55931544E-04  1.44600002E-03 -1.22861936E-04
 -1.32769552E-03  4.54076006E-04 -1.18234795E-04  4.38753011E-06  0.00000000E+00
 -2.11849799E-03 -4.24425757E-04  0.00000000E+00  9.32154684E-04  7.59917444E-04
  0.00000000E+00 -1.80608751E-04  5.46004454E-05  0.00000000E+00 -1.25675249E-04
  0.00000000E+00  0.00000000E+00  2.44593639E-04  9.51390724E-05 -4.70888947E-04
  0.00000000E+00  0.00000000E+00  9.52526092E-04 -2.52925134E-05 -2.87904579E-06
  0.00000000E+00  0.00000000E+00 -3.08310235E-04 -1.12829517E-04  0.00000000E+00
  1.52588965E-05  1.86013841E-05  0.00000000E+00  0.00000000E+00 -9.27806149E-07
  2.33359637E-06  0.00000000E+00  1.69489509E-04 -7.17965432E-05  0.00000000E+00
  0.00000000E+00 -2.65337764E-04  4.32190877E-05  9.76668748E-01 -9.85916798E-03
  4.35390210E-02  4.30861488E-03 -5.14737634E-04  2.13599805E-03  4.86545225E-04
  0.00000000E+00 -2.42620161E-03 -6.16572958E-04  0.00000000E+00  1.09627384E-03
 -1.22155470E-05  0.00000000E+00 -2.65775714E-06 -4.52530698E-05  0.00000000E+00
 -2.25158632E-04  0.00000000E+00  0.00000000E+00  9.03190422E-05  2.83419989E-05
  3.97173247E-04  0.00000000E+00  0.00000000E+00 -8.48198369E-04 -4.28780585E-04
 -1.62801561E-04  0.00000000E+00  0.00000000E+00  2.68419965E-04  1.87603054E-05
  0.00000000E+00  5.81188930E-05  1.85533817E-05  0.00000000E+00  0.00000000E+00
 -2.91765513E-05 -1.66636265E-05  0.00000000E+00  1.31726204E-04  8.74209098E-06
  0.00000000E+00  0.00000000E+00 -1.85546656E-04 -1.40340621E-04  4.74758317E-04
  2.05852925E-03  1.12937113E-04  1.54394293E-05 -4.03275954E-05 -2.46907878E-04
  0.00000000E+00  1.16541257E-04 -1.27406334E-03  0.00000000E+00  3.14025205E-04
 -3.35974043E-04  0.00000000E+00 -2.68001373E-06  0.00000000E+00  0.00000000E+00
  7.58508351E-05  1.61387975E-05 -1.60041878E-04  0.00000000E+00  0.00000000E+00
 -5.37316406E-04 -2.80492268E-05  9.76831172E-01 -9.16314287E-03  4.34493458E-02
  1.62284411E-04 -1.14056809E-03 -1.56929581E-03  1.43683369E-03  0.00000000E+00
  1.58051034E-03 -1.27929921E-03  0.00000000E+00 -5.65183272E-04 -8.65273254E-04
  0.00000000E+00  5.49440302E-05 -3.40581958E-05  0.00000000E+00  2.97036723E-05
  0.00000000E+00  0.00000000E+00 -1.18256148E-04 -3.92178704E-06  7.57777557E-04
  0.00000000E+00  0.00000000E+00 -2.01360113E-04 -2.36836444E-04 -2.66589904E-04
  0.00000000E+00  0.00000000E+00  1.67533007E-04  1.28540291E-04  0.00000000E+00
 -6.42140473E-05  1.07424364E-06  0.00000000E+00  0.00000000E+00  1.88216714E-05
  1.00572469E-05  0.00000000E+00 -1.62361654E-06  1.22653566E-04  0.00000000E+00
  0.00000000E+00  2.55993836E-04  9.43569746E-05 -4.51886610E-03 -2.12803678E-04