title                                                                   
SP        RMP2-FC                                                     Aug-CC-pVTZ         
Number of atoms                            I                5
Info1-9                                    I   N=           9
          33          24           0           0           0         110
           1           2           1
Full Title                                 C   N=           1
title       
Route                                      C   N=           4
#p SP mp2/aug-cc-pvtz density=current           
Charge                                     I                0
Multiplicity                               I                1
Number of electrons                        I               32
Number of alpha electrons                  I               16
Number of beta electrons                   I               16
Number of basis functions                  I              207
Number of independent functions            I              207
Number of point charges in /Mol/           I                0
Number of translation vectors              I                0
Atomic numbers                             I   N=           5
           1           8           8           7           8
Nuclear charges                            R   N=           5
  1.00000000E+00  8.00000000E+00  8.00000000E+00  7.00000000E+00  8.00000000E+00
Current cartesian coordinates              R   N=          15
  2.92437780E+00  3.17890213E+00  6.39908901E-31  2.74762942E+00  1.35635406E+00
  1.27820397E-30  5.89648101E-18  1.25772550E+00 -9.36583419E-33 -4.90145601E-01
 -1.45505262E+00 -3.32198804E-31 -2.68429924E+00 -1.73827129E+00 -1.42134958E-30
Number of symbols in /Mol/                 I                0
Force Field                                I                0
Atom Types                                 C   N=           5
                                                            
Int Atom Types                             I   N=           5
           0           0           0           0           0
MM charges                                 R   N=           5
  0.00000000E+00  0.00000000E+00  0.00000000E+00  0.00000000E+00  0.00000000E+00
Integer atomic weights                     I   N=           5
           1          16          16          14          16
Real atomic weights                        R   N=           5
  1.00782504E+00  1.59949146E+01  1.59949146E+01  1.40030740E+01  1.59949146E+01
Atom fragment info                         I   N=           5
           0           0           0           0           0
Atom residue num                           I   N=           5
           0           0           0           0           0
Nuclear spins                              I   N=           5
           1           0           0           2           0
Nuclear ZEff                               R   N=           5
 -1.00000000E+00 -5.60000000E+00 -5.60000000E+00 -4.55000000E+00 -5.60000000E+00
Nuclear ZNuc                               R   N=           5
  1.00000000E+00  8.00000000E+00  8.00000000E+00  7.00000000E+00  8.00000000E+00
Nuclear QMom                               R   N=           5
  0.00000000E+00  0.00000000E+00  0.00000000E+00  2.04400000E+00  0.00000000E+00
Nuclear GFac                               R   N=           5
  2.79284600E+00  0.00000000E+00  0.00000000E+00  4.03761000E-01  0.00000000E+00
MicOpt                                     I   N=           5
          -1          -1          -1          -1          -1
Number of residues                         I                0
Number of secondary structures             I                0
SymInf integers                            I   N=          26
           1           2           1           1           1           1
           1          -1           0           0           0           0
           0           0           0           0           0           0
           0           0           0           0           0           0
           0           0
RotTr to input orientation                 R   N=          12
 -9.95330476E-01  1.08412035E-15 -9.65258744E-02  9.65258744E-02 -1.16403861E-15
 -9.95330476E-01 -1.19141787E-15 -1.00000000E+00  1.05395744E-15  2.60387604E+00
  0.00000000E+00  3.44633629E+00
Number of contracted shells                I               65
Number of primitive shells                 I              119
Pure/Cartesian d shells                    I                0
Pure/Cartesian f shells                    I                0
Highest angular momentum                   I                3
Largest degree of contraction              I                7
Shell types                                I   N=          65
           0           0           0           0           1           1
           1          -2          -2           0           0           0
           0           0           1           1           1           1
          -2          -2          -2          -3          -3           0
           0           0           0           0           1           1
           1           1          -2          -2          -2          -3
          -3           0           0           0           0           0
           1           1           1           1          -2          -2
          -2          -3          -3           0           0           0
           0           0           1           1           1           1
          -2          -2          -2          -3          -3
Number of primitives per shell             I   N=          65
           3           1           1           1           1           1
           1           1           1           7           6           1
           1           1           3           1           1           1
           1           1           1           1           1           7
           6           1           1           1           3           1
           1           1           1           1           1           1
           1           7           6           1           1           1
           3           1           1           1           1           1
           1           1           1           7           6           1
           1           1           3           1           1           1
           1           1           1           1           1
Shell to atom map                          I   N=          65
           1           1           1           1           1           1
           1           1           1           2           2           2
           2           2           2           2           2           2
           2           2           2           2           2           3
           3           3           3           3           3           3
           3           3           3           3           3           3
           3           4           4           4           4           4
           4           4           4           4           4           4
           4           4           4           5           5           5
           5           5           5           5           5           5
           5           5           5           5           5
Primitive exponents                        R   N=         119
  3.38700000E+01  5.09500000E+00  1.15900000E+00  3.25800000E-01  1.02700000E-01
  2.52600000E-02  1.40700000E+00  3.88000000E-01  1.02000000E-01  1.05700000E+00
  2.47000000E-01  1.53300000E+04  2.29900000E+03  5.22400000E+02  1.47300000E+02
  4.75500000E+01  1.67600000E+01  6.20700000E+00  5.22400000E+02  1.47300000E+02
  4.75500000E+01  1.67600000E+01  6.20700000E+00  6.88200000E-01  1.75200000E+00
  2.38400000E-01  7.37600000E-02  3.44600000E+01  7.74900000E+00  2.28000000E+00
  7.15600000E-01  2.14000000E-01  5.97400000E-02  2.31400000E+00  6.45000000E-01
  2.14000000E-01  1.42800000E+00  5.00000000E-01  1.53300000E+04  2.29900000E+03
  5.22400000E+02  1.47300000E+02  4.75500000E+01  1.67600000E+01  6.20700000E+00
  5.22400000E+02  1.47300000E+02  4.75500000E+01  1.67600000E+01  6.20700000E+00
  6.88200000E-01  1.75200000E+00  2.38400000E-01  7.37600000E-02  3.44600000E+01
  7.74900000E+00  2.28000000E+00  7.15600000E-01  2.14000000E-01  5.97400000E-02
  2.31400000E+00  6.45000000E-01  2.14000000E-01  1.42800000E+00  5.00000000E-01
  1.14200000E+04  1.71200000E+03  3.89300000E+02  1.10000000E+02  3.55700000E+01
  1.25400000E+01  4.64400000E+00  3.89300000E+02  1.10000000E+02  3.55700000E+01
  1.25400000E+01  4.64400000E+00  5.11800000E-01  1.29300000E+00  1.78700000E-01
  5.76000000E-02  2.66300000E+01  5.94800000E+00  1.74200000E+00  5.55000000E-01
  1.72500000E-01  4.91000000E-02  1.65400000E+00  4.69000000E-01  1.51000000E-01
  1.09300000E+00  3.64000000E-01  1.53300000E+04  2.29900000E+03  5.22400000E+02
  1.47300000E+02  4.75500000E+01  1.67600000E+01  6.20700000E+00  5.22400000E+02
  1.47300000E+02  4.75500000E+01  1.67600000E+01  6.20700000E+00  6.88200000E-01
  1.75200000E+00  2.38400000E-01  7.37600000E-02  3.44600000E+01  7.74900000E+00
  2.28000000E+00  7.15600000E-01  2.14000000E-01  5.97400000E-02  2.31400000E+00
  6.45000000E-01  2.14000000E-01  1.42800000E+00  5.00000000E-01
Contraction coefficients                   R   N=         119
  2.54948632E-02  1.90362766E-01  8.52162022E-01  1.00000000E+00  1.00000000E+00
  1.00000000E+00  1.00000000E+00  1.00000000E+00  1.00000000E+00  1.00000000E+00
  1.00000000E+00  5.19808943E-04  4.02025621E-03  2.07128267E-02  8.10105536E-02
  2.35962985E-01  4.42653446E-01  3.57064423E-01 -4.42115008E-05 -1.22591041E-03
 -1.05517725E-02 -6.74452633E-02 -1.71198607E-01  1.07329856E+00  1.00000000E+00
  1.00000000E+00  1.00000000E+00  4.11634896E-02  2.57762836E-01  8.02419274E-01
  1.00000000E+00  1.00000000E+00  1.00000000E+00  1.00000000E+00  1.00000000E+00
  1.00000000E+00  1.00000000E+00  1.00000000E+00  5.19808943E-04  4.02025621E-03
  2.07128267E-02  8.10105536E-02  2.35962985E-01  4.42653446E-01  3.57064423E-01
 -4.42115008E-05 -1.22591041E-03 -1.05517725E-02 -6.74452633E-02 -1.71198607E-01
  1.07329856E+00  1.00000000E+00  1.00000000E+00  1.00000000E+00  4.11634896E-02
  2.57762836E-01  8.02419274E-01  1.00000000E+00  1.00000000E+00  1.00000000E+00
  1.00000000E+00  1.00000000E+00  1.00000000E+00  1.00000000E+00  1.00000000E+00
  5.34563860E-04  4.13435660E-03  2.12335358E-02  8.25006224E-02  2.38138871E-01
  4.42551547E-01  3.53757422E-01 -4.89867350E-05 -1.19527323E-03 -1.03490714E-02
 -6.48680190E-02 -1.71552477E-01  1.07289568E+00  1.00000000E+00  1.00000000E+00
  1.00000000E+00  3.98072123E-02  2.49002660E-01  8.10479727E-01  1.00000000E+00
  1.00000000E+00  1.00000000E+00  1.00000000E+00  1.00000000E+00  1.00000000E+00
  1.00000000E+00  1.00000000E+00  5.19808943E-04  4.02025621E-03  2.07128267E-02
  8.10105536E-02  2.35962985E-01  4.42653446E-01  3.57064423E-01 -4.42115008E-05
 -1.22591041E-03 -1.05517725E-02 -6.74452633E-02 -1.71198607E-01  1.07329856E+00
  1.00000000E+00  1.00000000E+00  1.00000000E+00  4.11634896E-02  2.57762836E-01
  8.02419274E-01  1.00000000E+00  1.00000000E+00  1.00000000E+00  1.00000000E+00
  1.00000000E+00  1.00000000E+00  1.00000000E+00  1.00000000E+00
Coordinates of each shell                  R   N=         195
  2.92437780E+00  3.17890213E+00  8.65097744E-31  2.92437780E+00  3.17890213E+00
  8.65097744E-31  2.92437780E+00  3.17890213E+00  8.65097744E-31  2.92437780E+00
  3.17890213E+00  8.65097744E-31  2.92437780E+00  3.17890213E+00  8.65097744E-31
  2.92437780E+00  3.17890213E+00  8.65097744E-31  2.92437780E+00  3.17890213E+00
  8.65097744E-31  2.92437780E+00  3.17890213E+00  8.65097744E-31  2.92437780E+00
  3.17890213E+00  8.65097744E-31  2.74762942E+00  1.35635406E+00  8.12811537E-31
  2.74762942E+00  1.35635406E+00  8.12811537E-31  2.74762942E+00  1.35635406E+00
  8.12811537E-31  2.74762942E+00  1.35635406E+00  8.12811537E-31  2.74762942E+00
  1.35635406E+00  8.12811537E-31  2.74762942E+00  1.35635406E+00  8.12811537E-31
  2.74762942E+00  1.35635406E+00  8.12811537E-31  2.74762942E+00  1.35635406E+00
  8.12811537E-31  2.74762942E+00  1.35635406E+00  8.12811537E-31  2.74762942E+00
  1.35635406E+00  8.12811537E-31  2.74762942E+00  1.35635406E+00  8.12811537E-31
  2.74762942E+00  1.35635406E+00  8.12811537E-31  2.74762942E+00  1.35635406E+00
  8.12811537E-31  2.74762942E+00  1.35635406E+00  8.12811537E-31 -1.06899429E-18
  1.25772550E+00  0.00000000E+00 -1.06899429E-18  1.25772550E+00  0.00000000E+00
 -1.06899429E-18  1.25772550E+00  0.00000000E+00 -1.06899429E-18  1.25772550E+00
  0.00000000E+00 -1.06899429E-18  1.25772550E+00  0.00000000E+00 -1.06899429E-18
  1.25772550E+00  0.00000000E+00 -1.06899429E-18  1.25772550E+00  0.00000000E+00
 -1.06899429E-18  1.25772550E+00  0.00000000E+00 -1.06899429E-18  1.25772550E+00
  0.00000000E+00 -1.06899429E-18  1.25772550E+00  0.00000000E+00 -1.06899429E-18
  1.25772550E+00  0.00000000E+00 -1.06899429E-18  1.25772550E+00  0.00000000E+00
 -1.06899429E-18  1.25772550E+00  0.00000000E+00 -1.06899429E-18  1.25772550E+00
  0.00000000E+00 -4.90145601E-01 -1.45505262E+00 -1.44996264E-31 -4.90145601E-01
 -1.45505262E+00 -1.44996264E-31 -4.90145601E-01 -1.45505262E+00 -1.44996264E-31
 -4.90145601E-01 -1.45505262E+00 -1.44996264E-31 -4.90145601E-01 -1.45505262E+00
 -1.44996264E-31 -4.90145601E-01 -1.45505262E+00 -1.44996264E-31 -4.90145601E-01
 -1.45505262E+00 -1.44996264E-31 -4.90145601E-01 -1.45505262E+00 -1.44996264E-31
 -4.90145601E-01 -1.45505262E+00 -1.44996264E-31 -4.90145601E-01 -1.45505262E+00
 -1.44996264E-31 -4.90145601E-01 -1.45505262E+00 -1.44996264E-31 -4.90145601E-01
 -1.45505262E+00 -1.44996264E-31 -4.90145601E-01 -1.45505262E+00 -1.44996264E-31
 -4.90145601E-01 -1.45505262E+00 -1.44996264E-31 -2.68429924E+00 -1.73827129E+00
 -7.94077024E-31 -2.68429924E+00 -1.73827129E+00 -7.94077024E-31 -2.68429924E+00
 -1.73827129E+00 -7.94077024E-31 -2.68429924E+00 -1.73827129E+00 -7.94077024E-31
 -2.68429924E+00 -1.73827129E+00 -7.94077024E-31 -2.68429924E+00 -1.73827129E+00
 -7.94077024E-31 -2.68429924E+00 -1.73827129E+00 -7.94077024E-31 -2.68429924E+00
 -1.73827129E+00 -7.94077024E-31 -2.68429924E+00 -1.73827129E+00 -7.94077024E-31
 -2.68429924E+00 -1.73827129E+00 -7.94077024E-31 -2.68429924E+00 -1.73827129E+00
 -7.94077024E-31 -2.68429924E+00 -1.73827129E+00 -7.94077024E-31 -2.68429924E+00
 -1.73827129E+00 -7.94077024E-31 -2.68429924E+00 -1.73827129E+00 -7.94077024E-31
Num ILSW                                   I              100
ILSW                                       I   N=         100
           0           0           0           0           2           0
           0           0           0           0           0          -1
           5           0           0           0           0           0
           0           0           0           0           0           0
           1           0           0           0           0           0
           0           0      100000           0          -1           0
           0           0           0           0           0           0
           0           0           0           1           0           0
           0 -2000000000           1           0           0           0
           0           0           4          52           0           0
           0           0           0           0           0           0
           0           0           0           5           0           1
           0           0           0           0           0           0
           0           0           0           0           0           0
           0           0           0           0           0           0
           0           0           0           0           0           0
           0           0           0           0
Num RLSW                                   I               52
RLSW                                       R   N=          52
  1.00000000E+00  1.00000000E+00  1.00000000E+00  1.00000000E+00  1.00000000E+00
  0.00000000E+00  0.00000000E+00  1.00000000E+00  0.00000000E+00  0.00000000E+00
  0.00000000E+00  0.00000000E+00  1.00000000E+00  0.00000000E+00  0.00000000E+00
  0.00000000E+00  0.00000000E+00  1.00000000E+00  0.00000000E+00  0.00000000E+00
  0.00000000E+00  0.00000000E+00  1.00000000E+00  0.00000000E+00  0.00000000E+00
  0.00000000E+00  0.00000000E+00  1.00000000E+00  0.00000000E+00  0.00000000E+00
  0.00000000E+00  0.00000000E+00  1.00000000E+00  0.00000000E+00  0.00000000E+00
  0.00000000E+00  0.00000000E+00  0.00000000E+00  1.00000000E+00  1.00000000E+00
  0.00000000E+00  1.00000000E+00  0.00000000E+00  0.00000000E+00  0.00000000E+00
  0.00000000E+00  0.00000000E+00  0.00000000E+00  0.00000000E+00  0.00000000E+00
  0.00000000E+00  0.00000000E+00
MxBond                                     I                2
NBond                                      I   N=           5
           1           2           2           2           1
IBond                                      I   N=          10
           2           0           1           3           2           4
           3           5           4           0
RBond                                      R   N=          10
  1.00000000E+00  0.00000000E+00  1.00000000E+00  1.00000000E+00  1.00000000E+00
  1.00000000E+00  1.00000000E+00  2.00000000E+00  2.00000000E+00  0.00000000E+00
Virial Ratio                               R      2.002315640517996E+00
SCF Energy                                 R     -2.795016092129279E+02
MP2 Energy                                 R     -2.804465742891723E+02
Total Energy                               R     -2.804465742891723E+02
Post-SCF wavefunction norm                 R      1.120162162043779E+00
RMS Density                                R      3.729704221484083E-09
Job Status                                 I                1
Nuclear derivative order                   I                0
External E-field                           R   N=          35
  0.00000000E+00  0.00000000E+00  0.00000000E+00  0.00000000E+00  0.00000000E+00
  0.00000000E+00  0.00000000E+00  0.00000000E+00  0.00000000E+00  0.00000000E+00
  0.00000000E+00  0.00000000E+00  0.00000000E+00  0.00000000E+00  0.00000000E+00
  0.00000000E+00  0.00000000E+00  0.00000000E+00  0.00000000E+00  0.00000000E+00
  0.00000000E+00  0.00000000E+00  0.00000000E+00  0.00000000E+00  0.00000000E+00
  0.00000000E+00  0.00000000E+00  0.00000000E+00  0.00000000E+00  0.00000000E+00
  0.00000000E+00  0.00000000E+00  0.00000000E+00  0.00000000E+00  0.00000000E+00
IOpCl                                      I                0
IROHF                                      I                0
Alpha Orbital Energies                     R   N=         207
 -2.06902675E+01 -2.06837719E+01 -2.06590147E+01 -1.58133349E+01 -1.62528299E+00
 -1.49463694E+00 -1.25319245E+00 -9.48465020E-01 -7.71961414E-01 -7.59696298E-01
 -7.12086179E-01 -6.78981250E-01 -6.19863000E-01 -5.88115011E-01 -4.84517866E-01
 -4.74231585E-01  2.97442044E-02  7.10446278E-02  8.62269730E-02  1.01686363E-01
  1.33869211E-01  1.33870635E-01  1.44157085E-01  1.54425394E-01  1.78416794E-01
  1.94104352E-01  1.99867201E-01  2.06625622E-01  2.20782224E-01  2.36890411E-01
  2.37582166E-01  2.67097027E-01  2.92215157E-01  3.03452942E-01  3.10209984E-01
  3.43875279E-01  3.49554927E-01  3.87701662E-01  4.22615287E-01  4.32173643E-01
  5.28132535E-01  5.28674022E-01  5.57923166E-01  5.80193424E-01  6.25130455E-01
  6.41279499E-01  6.74839297E-01  6.84686432E-01  7.04308185E-01  7.11755571E-01
  7.23442113E-01  7.29145865E-01  7.43245341E-01  7.92777679E-01  7.94147659E-01
  8.11179744E-01  8.13285691E-01  8.31272431E-01  8.68158395E-01  9.09255483E-01
  9.22441981E-01  9.29433675E-01  9.56365207E-01  9.74668683E-01  9.84994437E-01
  1.01703238E+00  1.05193400E+00  1.05500879E+00  1.08316709E+00  1.11725364E+00
  1.14207605E+00  1.19045345E+00  1.21797386E+00  1.23343176E+00  1.33958109E+00
  1.35276185E+00  1.38833261E+00  1.45580106E+00  1.48755167E+00  1.50734247E+00
  1.53767485E+00  1.56836764E+00  1.57944947E+00  1.61241988E+00  1.66469575E+00
  1.67173766E+00  1.70173400E+00  1.79202074E+00  1.82965693E+00  1.83520862E+00
  1.88125972E+00  1.90754428E+00  1.95677747E+00  1.99377829E+00  2.00255178E+00
  2.08126300E+00  2.12327521E+00  2.13030092E+00  2.15177741E+00  2.22664699E+00
  2.26578440E+00  2.26824486E+00  2.28948844E+00  2.31468483E+00  2.34769895E+00
  2.38637570E+00  2.42725995E+00  2.42825736E+00  2.45073684E+00  2.45838848E+00
  2.47900825E+00  2.50061244E+00  2.58849151E+00  2.59930467E+00  2.62212311E+00
  2.62467496E+00  2.63411485E+00  2.67224757E+00  2.75248151E+00  2.81457310E+00
  2.84857262E+00  2.89338287E+00  2.89415070E+00  2.94200166E+00  2.95182439E+00
  3.02739528E+00  3.06352758E+00  3.12760862E+00  3.20525688E+00  3.22355862E+00
  3.31972005E+00  3.33703510E+00  3.52774997E+00  3.63742376E+00  3.83848700E+00
  3.84405780E+00  4.14974471E+00  4.16866272E+00  4.18501717E+00  4.25816173E+00
  4.34805934E+00  4.39359566E+00  4.46341513E+00  4.52073820E+00  4.65564420E+00
  4.71240128E+00  4.80134157E+00  4.82972843E+00  4.83180216E+00  4.89659480E+00
  5.02498435E+00  5.07617001E+00  5.10763174E+00  5.14640028E+00  5.17278380E+00
  5.24472671E+00  5.27473856E+00  5.30369904E+00  5.33112857E+00  5.35139877E+00
  5.60209921E+00  5.67343708E+00  5.78667728E+00  5.82934457E+00  5.95653967E+00
  6.16976663E+00  6.31132827E+00  6.33567764E+00  6.39496304E+00  6.49672702E+00
  6.50958607E+00  6.61549499E+00  6.66816649E+00  6.70645781E+00  6.75797998E+00
  6.76538634E+00  6.83684760E+00  6.89216953E+00  7.01823360E+00  7.05702223E+00
  7.05957194E+00  7.09228453E+00  7.12292486E+00  7.15205945E+00  7.18267303E+00
  7.22648561E+00  7.24280794E+00  7.30792039E+00  7.32555855E+00  7.34756578E+00
  7.39868736E+00  7.43107228E+00  7.48269557E+00  7.60976726E+00  7.61115903E+00
  7.63231141E+00  7.67024890E+00  7.80071595E+00  7.87905302E+00  8.09455302E+00
  8.31567797E+00  8.40918622E+00  8.54318856E+00  1.34025010E+01  1.43765345E+01
  1.51704620E+01  1.61595916E+01
Alpha MO coefficients                      R   N=       42849
  9.23130660E-05 -6.20125525E-04 -7.27815984E-04 -3.74847063E-06 -2.15962179E-05
 -2.75704137E-05  0.00000000E+00 -4.33255130E-05  5.46387180E-05  0.00000000E+00
  8.72678771E-05  3.70366568E-05  0.00000000E+00  3.17531167E-05  0.00000000E+00
  0.00000000E+00 -5.05693119E-05  2.05695420E-05 -3.62280985E-06  0.00000000E+00
  0.00000000E+00 -1.41551375E-04  1.18248997E-04  4.53388829E-03 -2.80744833E-04
  1.17592619E-05  1.53047871E-03  1.82522911E-03  1.06900731E-04  7.76156742E-06
  0.00000000E+00 -6.19209619E-04 -3.85468055E-05  0.00000000E+00 -1.10241086E-03
  7.67787077E-04  0.00000000E+00 -4.03987524E-04  6.09699510E-05  0.00000000E+00
  2.89907380E-05  0.00000000E+00  0.00000000E+00 -5.45308493E-05  5.81681546E-06
 -3.78992561E-04  0.00000000E+00  0.00000000E+00  7.44275530E-04 -3.12538380E-05
 -4.46279341E-04  0.00000000E+00  0.00000000E+00  2.49249522E-04 -6.56728770E-06
  0.00000000E+00  8.03549212E-05  1.28954264E-05  0.00000000E+00  0.00000000E+00
 -1.09644804E-04 -3.57877284E-06  0.00000000E+00  2.56349310E-04 -2.70005420E-05
  0.00000000E+00  0.00000000E+00 -3.55145566E-04  4.89445997E-05  9.76911099E-01
 -9.21674140E-03  4.33186442E-02  2.02333854E-03 -9.00418465E-04  1.50232271E-03
 -1.33972611E-03  0.00000000E+00 -1.44515551E-03  1.36765181E-03  0.00000000E+00
  8.28939202E-05 -1.13989175E-03  0.00000000E+00 -1.35809337E-04 -1.48569706E-05
  0.00000000E+00  4.69023384E-05  0.00000000E+00  0.00000000E+00 -3.36865315E-05
  2.22990837E-05  7.49161048E-04  0.00000000E+00  0.00000000E+00 -2.37870048E-04
 -3.90759417E-04 -3.67785485E-04  0.00000000E+00  0.00000000E+00 -2.98949143E-04
 -3.54931339E-04  0.00000000E+00  4.71675553E-05 -4.84144598E-05  0.00000000E+00
  0.00000000E+00 -3.95348268E-05 -1.45889904E-05  0.00000000E+00  2.56179882E-05
  2.24543202E-05  0.00000000E+00  0.00000000E+00 -3.02881900E-04 -1.41919269E-04
  3.87723379E-05  4.48201283E-05 -2.62226987E-04 -7.27625514E-04 -1.71679567E-04
 -2.60356930E-05 -9.62308734E-05  0.00000000E+00  2.72111458E-04  6.98902473E-04
  0.00000000E+00 -8.03304575E-04 -4.53840735E-04  0.00000000E+00 -1.23951263E-04
 -3.25080629E-05  0.00000000E+00 -1.82985062E-05  0.00000000E+00  0.00000000E+00
 -3.01572633E-05  1.66526223E-05 -3.26128669E-04  0.00000000E+00  0.00000000E+00
 -8.22463529E-04  1.23390406E-04 -3.60362826E-05  0.00000000E+00  0.00000000E+00
  8.89765214E-05 -1.23692489E-04  0.00000000E+00 -2.02376656E-05 -1.19451731E-04
  0.00000000E+00  0.00000000E+00 -6.20465020E-05 -1.37067825E-04  0.00000000E+00
  4.66197364E-06 -1.53670032E-04  0.00000000E+00  0.00000000E+00  4.28837054E-05
 -4.10857778E-04 -2.66309348E-03  1.31344286E-04 -1.23314044E-04 -2.19051763E-04
  1.59426311E-04 -7.58898653E-06 -2.48938978E-05  0.00000000E+00  7.41387414E-05
  1.49120259E-04  0.00000000E+00  2.49353472E-04  1.85868201E-04  0.00000000E+00
  1.32284435E-04  2.58359167E-05  0.00000000E+00 -3.97658045E-06  0.00000000E+00
  0.00000000E+00 -1.82743274E-05  2.00784129E-06  6.79407469E-06  0.00000000E+00
  0.00000000E+00  9.15562527E-05  7.58693497E-05 -9.52346280E-05  0.00000000E+00
  0.00000000E+00  1.80069533E-04  1.56864862E-04  0.00000000E+00  1.67235907E-05
 -2.23607085E-06  0.00000000E+00  0.00000000E+00 -2.14402166E-06 -1.24953214E-05
  0.00000000E+00 -3.05575294E-05  4.31005630E-05  0.00000000E+00  0.00000000E+00
  9.07530496E-05  8.83950642E-05  3.92855663E-05 -9.74707554E-04 -4.74285125E-04
 -1.07141099E-05 -1.96043031E-05  1.47088612E-05  0.00000000E+00 -5.24939189E-06
  2.62579633E-04  0.00000000E+00 -4.65920842E-05  1.29783343E-04  0.00000000E+00
  2.52561833E-05  0.00000000E+00  0.00000000E+00  1.08161565E-05  1.09392313E-05
 -3.10759122E-05  0.00000000E+00  0.00000000E+00  1.25031060E-05  3.60000699E-05
  1.13348183E-04  8.35725125E-05 -2.72016914E-05  7.20521222E-04  6.58916475E-04
  1.03258178E-05  2.53304820E-06  0.00000000E+00 -7.47565502E-05  1.17144333E-05
  0.00000000E+00  3.41933664E-04  9.20096153E-04  0.00000000E+00  1.17152138E-06
  8.62693064E-05  0.00000000E+00 -2.32768732E-06  0.00000000E+00  0.00000000E+00
 -1.57151645E-07 -4.59786936E-06 -3.42039132E-05  0.00000000E+00  0.00000000E+00
 -1.62689726E-05  7.45716161E-05 -2.35607390E-05  0.00000000E+00  0.00000000E+00
 -2.73705132E-04 -1.75543331E-04  0.00000000E+00  8.76341093E-06  6.23649090E-06
  0.00000000E+00  0.00000000E+00  2.30138829E-06 -1.81615093E-05  0.00000000E+00
 -3.81535274E-05 -3.94755459E-05  0.00000000E+00  0.00000000E+00 -7.44895068E-05
  2.50658030E-05  2.70294577E-03  3.99132315E-05  1.00977818E-04 -9.50131865E-05
 -5.04062394E-04  4.94677334E-06  1.19445664E-05  0.00000000E+00 -5.37561582E-05
 -3.92636764E-05  0.00000000E+00  2.77877892E-04 -1.89296546E-04  0.00000000E+00
 -2.00239674E-04 -7.02503673E-05  0.00000000E+00 -9.06738426E-06  0.00000000E+00
  0.00000000E+00  2.21445629E-05  2.19945020E-05  1.15801819E-05  0.00000000E+00
  0.00000000E+00 -1.12297054E-04 -6.39911733E-05  4.15264555E-06  0.00000000E+00
  0.00000000E+00 -2.21862929E-04 -2.46217927E-04  0.00000000E+00  8.82767259E-07
 -3.98368840E-06  0.00000000E+00  0.00000000E+00 -1.61887790E-06 -1.08254179E-05
  0.00000000E+00 -4.37416323E-05  8.02079288E-06  0.00000000E+00  0.00000000E+00
 -7.84678000E-05  1.77514441E-04  2.57808346E-04  1.45659759E-03 -8.13283126E-05
 -1.46529316E-03  4.20633626E-04 -1.45700995E-04  9.41883144E-07  0.00000000E+00
 -2.08413484E-03 -3.50547161E-04  0.00000000E+00  9.88900230E-04  7.35495222E-04
  0.00000000E+00 -1.62879298E-04  6.96856694E-05  0.00000000E+00 -1.22247265E-04
  0.00000000E+00  0.00000000E+00  2.48290792E-04  8.35365830E-05 -4.48799324E-04
  0.00000000E+00  0.00000000E+00  8.82399175E-04 -9.86861025E-05  3.40614193E-06
  0.00000000E+00  0.00000000E+00 -3.38811395E-04 -1.16193259E-04  0.00000000E+00
 -2.48386436E-06  1.43269834E-05  0.00000000E+00  0.00000000E+00  1.95633847E-05
  1.05076082E-05  0.00000000E+00  1.68045374E-04 -7.56303845E-05  0.00000000E+00
  0.00000000E+00 -2.32974575E-04  4.72406149E-05  9.76646480E-01 -9.85070645E-03
  4.35716503E-02  4.46157762E-03 -4.56258227E-04  2.15993856E-03  4.14100551E-04
  0.00000000E+00 -2.39678822E-03 -5.33193716E-04  0.00000000E+00  1.13215283E-03
 -3.72772786E-06  0.00000000E+00  2.14172351E-06 -4.70258636E-05  0.00000000E+00
 -2.33472340E-04  0.00000000E+00  0.00000000E+00  1.02960627E-04  2.81252932E-05
  3.88686149E-04  0.00000000E+00  0.00000000E+00 -8.52896062E-04 -3.67351162E-04
 -1.60068131E-04  0.00000000E+00  0.00000000E+00  2.49563789E-04  1.95854088E-05
  0.00000000E+00  5.27165270E-05  1.71124685E-05  0.00000000E+00  0.00000000E+00
 -2.20032025E-05 -1.10712754E-05  0.00000000E+00  1.37593976E-04  2.53036831E-06
  0.00000000E+00  0.00000000E+00 -2.01803488E-04 -1.23487834E-04  4.75097969E-04
  2.05263353E-03  1.07004228E-04  1.47827253E-05 -4.07966534E-05 -2.46960603E-04
  0.00000000E+00  1.14142370E-04 -1.27171667E-03  0.00000000E+00  3.18781407E-04
 -3.34340359E-04  0.00000000E+00 -2.49869034E-06  0.00000000E+00  0.00000000E+00
  7.61960719E-05  1.55023414E-05 -1.59644417E-04  0.00000000E+00  0.00000000E+00
 -5.37671975E-04 -2.71426302E-05  9.76829428E-01 -9.16317768E-03  4.34510486E-02
  1.72127927E-04 -1.16093948E-03 -1.56034156E-03  1.44023880E-03  0.00000000E+00
  1.57313341E-03 -1.28257340E-03  0.00000000E+00 -5.64881730E-04 -8.58361659E-04
  0.00000000E+00  5.73543960E-05 -3.86350429E-05  0.00000000E+00  2.91875872E-05
  0.00000000E+00  0.00000000E+00 -1.17680060E-04 -2.75447330E-06  7.56663087E-04
  0.00000000E+00  0.00000000E+00 -2.01011888E-04 -2.35023615E-04 -2.66965512E-04
  0.00000000E+00  0.00000000E+00  1.65435293E-04  1.27205772E-04  0.00000000E+00
 -6.40959310E-05  1.19860366E-06  0.00000000E+00  0.00000000E+00  1.86800763E-05
  1.01025133E-05  0.00000000E+00 -1.24071630E-06  1.22676929E-04  0.00000000E+00
  0.00000000E+00  2.56566860E-04  9.20019638E-05 -4.62556258E-03 -2.09998736E-04