 Entering Gaussian System, Link 0=g16
 Input=hoono_r4_1p181216.gjf
 Output=hoono_r4_1p181216.log
 Initial command:
 /sw/contrib/gaussian/g16/B01/g16/l1.exe "/scr/Gau-8639.inp" -scrdir="/scr/"
 Entering Link 1 = /sw/contrib/gaussian/g16/B01/g16/l1.exe PID=      8642.
  
 Copyright (c) 1988-2017, Gaussian, Inc.  All Rights Reserved.
  
 This is part of the Gaussian(R) 16 program.  It is based on
 the Gaussian(R) 09 system (copyright 2009, Gaussian, Inc.),
 the Gaussian(R) 03 system (copyright 2003, Gaussian, Inc.),
 the Gaussian(R) 98 system (copyright 1998, Gaussian, Inc.),
 the Gaussian(R) 94 system (copyright 1995, Gaussian, Inc.),
 the Gaussian 92(TM) system (copyright 1992, Gaussian, Inc.),
 the Gaussian 90(TM) system (copyright 1990, Gaussian, Inc.),
 the Gaussian 88(TM) system (copyright 1988, Gaussian, Inc.),
 the Gaussian 86(TM) system (copyright 1986, Carnegie Mellon
 University), and the Gaussian 82(TM) system (copyright 1983,
 Carnegie Mellon University). Gaussian is a federally registered
 trademark of Gaussian, Inc.
  
 This software contains proprietary and confidential information,
 including trade secrets, belonging to Gaussian, Inc.
  
 This software is provided under written license and may be
 used, copied, transmitted, or stored only in accord with that
 written license.
  
 The following legend is applicable only to US Government
 contracts under FAR:
  
                    RESTRICTED RIGHTS LEGEND
  
 Use, reproduction and disclosure by the US Government is
 subject to restrictions as set forth in subparagraphs (a)
 and (c) of the Commercial Computer Software - Restricted
 Rights clause in FAR 52.227-19.
  
 Gaussian, Inc.
 340 Quinnipiac St., Bldg. 40, Wallingford CT 06492
  
  
 ---------------------------------------------------------------
 Warning -- This program may not be used in any manner that
 competes with the business of Gaussian, Inc. or will provide
 assistance to any competitor of Gaussian, Inc.  The licensee
 of this program is prohibited from giving any competitor of
 Gaussian, Inc. access to this program.  By using this program,
 the user acknowledges that Gaussian, Inc. is engaged in the
 business of creating and licensing software in the field of
 computational chemistry and represents and warrants to the
 licensee that it is not a competitor of Gaussian, Inc. and that
 it will not use this program in any manner prohibited above.
 ---------------------------------------------------------------
  

 Cite this work as:
 Gaussian 16, Revision B.01,
 M. J. Frisch, G. W. Trucks, H. B. Schlegel, G. E. Scuseria, 
 M. A. Robb, J. R. Cheeseman, G. Scalmani, V. Barone, 
 G. A. Petersson, H. Nakatsuji, X. Li, M. Caricato, A. V. Marenich, 
 J. Bloino, B. G. Janesko, R. Gomperts, B. Mennucci, H. P. Hratchian, 
 J. V. Ortiz, A. F. Izmaylov, J. L. Sonnenberg, D. Williams-Young, 
 F. Ding, F. Lipparini, F. Egidi, J. Goings, B. Peng, A. Petrone, 
 T. Henderson, D. Ranasinghe, V. G. Zakrzewski, J. Gao, N. Rega, 
 G. Zheng, W. Liang, M. Hada, M. Ehara, K. Toyota, R. Fukuda, 
 J. Hasegawa, M. Ishida, T. Nakajima, Y. Honda, O. Kitao, H. Nakai, 
 T. Vreven, K. Throssell, J. A. Montgomery, Jr., J. E. Peralta, 
 F. Ogliaro, M. J. Bearpark, J. J. Heyd, E. N. Brothers, K. N. Kudin, 
 V. N. Staroverov, T. A. Keith, R. Kobayashi, J. Normand, 
 K. Raghavachari, A. P. Rendell, J. C. Burant, S. S. Iyengar, 
 J. Tomasi, M. Cossi, J. M. Millam, M. Klene, C. Adamo, R. Cammi, 
 J. W. Ochterski, R. L. Martin, K. Morokuma, O. Farkas, 
 J. B. Foresman, and D. J. Fox, Gaussian, Inc., Wallingford CT, 2016.
 
 ******************************************
 Gaussian 16:  ES64L-G16RevB.01 20-Dec-2017
                14-Feb-2022 
 ******************************************
 %nproc=28
 Will use up to   28 processors via shared memory.
 %mem=120GB
 %chk=hoono_r4_1p181216.chk
 -------------------------------------
 #p SP mp2/aug-cc-pvtz density=current
 -------------------------------------
 1/30=1,38=1,172=1/1;
 2/12=2,17=6,18=5,40=1/2;
 3/5=16,6=1,7=10,11=9,25=1,30=1,71=1/1,2,3;
 4//1;
 5/5=2,38=5/2;
 8/6=4,10=1/1;
 9/15=1,16=-3/6;
 10/5=1,13=10/2;
 6/7=2,8=2,9=2,10=2,22=-1/1;
 99/5=1,9=1/99;
 Leave Link    1 at Mon Feb 14 22:11:12 2022, MaxMem= 16106127360 cpu:               4.8 elap:               0.2
 (Enter /sw/contrib/gaussian/g16/B01/g16/l101.exe)
 -----
 title
 -----
 Symbolic Z-matrix:
 Charge =  0 Multiplicity = 1
 H
 O                    1    r1
 O                    2    r2       1    a1
 N                    3    r3       2    a2       1    d1       0
 O                    4    r4       3    a3       2    d2       0
       Variables:
  r1                    0.96898                  
  r2                    1.45492                  
  r3                    1.45878                  
  r4                    1.18122                  
  a1                   97.59495                  
  a2                  102.29752                  
  a3                  109.06955                  
  d1                  180.                       
  d2                  180.                       
 
 ITRead=  0  0  0  0  0
 MicOpt= -1 -1 -1 -1 -1
 NAtoms=      5 NQM=        5 NQMF=       0 NMMI=      0 NMMIF=      0
                NMic=       0 NMicF=      0.
                    Isotopes and Nuclear Properties:
 (Nuclear quadrupole moments (NQMom) in fm**2, nuclear magnetic moments (NMagM)
  in nuclear magnetons)

  Atom         1           2           3           4           5
 IAtWgt=           1          16          16          14          16
 AtmWgt=   1.0078250  15.9949146  15.9949146  14.0030740  15.9949146
 NucSpn=           1           0           0           2           0
 AtZEff=  -0.0000000  -0.0000000  -0.0000000  -0.0000000  -0.0000000
 NQMom=    0.0000000   0.0000000   0.0000000   2.0440000   0.0000000
 NMagM=    2.7928460   0.0000000   0.0000000   0.4037610   0.0000000
 AtZNuc=   1.0000000   8.0000000   8.0000000   7.0000000   8.0000000
 Leave Link  101 at Mon Feb 14 22:11:12 2022, MaxMem= 16106127360 cpu:               3.0 elap:               0.1
 (Enter /sw/contrib/gaussian/g16/B01/g16/l202.exe)
                          Input orientation:                          
 ---------------------------------------------------------------------
 Center     Atomic      Atomic             Coordinates (Angstroms)
 Number     Number       Type             X           Y           Z
 ---------------------------------------------------------------------
      1          1           0        0.000000    0.000000    0.000000
      2          8           0        0.000000    0.000000    0.968976
      3          8           0        1.442156    0.000000    1.161271
      4          7           0        1.561752    0.000000    2.615144
      5          8           0        2.706027    0.000000    2.908241
 ---------------------------------------------------------------------
                    Distance matrix (angstroms):
                    1          2          3          4          5
     1  H    0.000000
     2  O    0.968976   0.000000
     3  O    1.851584   1.454919   0.000000
     4  N    3.045989   2.269127   1.458784   0.000000
     5  O    3.972461   3.329164   2.156218   1.181216   0.000000
 Stoichiometry    HNO3
 Framework group  CS[SG(HNO3)]
 Deg. of freedom     7
 Full point group                 CS      NOp   2
 Largest Abelian subgroup         CS      NOp   2
 Largest concise Abelian subgroup C1      NOp   1
                         Standard orientation:                         
 ---------------------------------------------------------------------
 Center     Atomic      Atomic             Coordinates (Angstroms)
 Number     Number       Type             X           Y           Z
 ---------------------------------------------------------------------
      1          1           0        1.545198    1.693573   -0.000000
      2          8           0        1.453860    0.728911   -0.000000
      3          8           0        0.000000    0.673412   -0.000000
      4          7           0       -0.256108   -0.762714    0.000000
      5          8           0       -1.422916   -0.946645    0.000000
 ---------------------------------------------------------------------
 Rotational constants (GHZ):          54.8838714           4.9864918           4.5711761
 Leave Link  202 at Mon Feb 14 22:11:12 2022, MaxMem= 16106127360 cpu:               1.0 elap:               0.1
 (Enter /sw/contrib/gaussian/g16/B01/g16/l301.exe)
 Standard basis: Aug-CC-pVTZ (5D, 7F)
 Ernie: Thresh=  0.10000D-02 Tol=  0.10000D-05 Strict=F.
 Ernie:  12 primitive shells out of 131 were deleted.
 There are   166 symmetry adapted cartesian basis functions of A'  symmetry.
 There are    79 symmetry adapted cartesian basis functions of A"  symmetry.
 There are   136 symmetry adapted basis functions of A'  symmetry.
 There are    71 symmetry adapted basis functions of A"  symmetry.
   207 basis functions,   315 primitive gaussians,   245 cartesian basis functions
    16 alpha electrons       16 beta electrons
       nuclear repulsion energy       116.5560839455 Hartrees.
 IExCor=    0 DFT=F Ex=HF Corr=None ExCW=0 ScaHFX=  1.000000
 ScaDFX=  1.000000  1.000000  1.000000  1.000000 ScalE2=  1.000000  1.000000
 IRadAn=      5 IRanWt=     -1 IRanGd=            0 ICorTp=0 IEmpDi=  4
 NAtoms=    5 NActive=    5 NUniq=    5 SFac= 1.00D+00 NAtFMM=   60 NAOKFM=F Big=F
 Integral buffers will be    131072 words long.
 Raffenetti 1 integral format.
 Two-electron integral symmetry is turned on.
 Leave Link  301 at Mon Feb 14 22:11:12 2022, MaxMem= 16106127360 cpu:               1.6 elap:               0.1
 (Enter /sw/contrib/gaussian/g16/B01/g16/l302.exe)
 NPDir=0 NMtPBC=     1 NCelOv=     1 NCel=       1 NClECP=     1 NCelD=      1
         NCelK=      1 NCelE2=     1 NClLst=     1 CellRange=     0.0.
 One-electron integrals computed using PRISM.
 One-electron integral symmetry used in STVInt
 NBasis=   207 RedAO= T EigKep=  1.84D-04  NBF=   136    71
 NBsUse=   207 1.00D-06 EigRej= -1.00D+00 NBFU=   136    71
 Leave Link  302 at Mon Feb 14 22:11:12 2022, MaxMem= 16106127360 cpu:               4.4 elap:               0.2
 (Enter /sw/contrib/gaussian/g16/B01/g16/l303.exe)
 DipDrv:  MaxL=1.
 Leave Link  303 at Mon Feb 14 22:11:12 2022, MaxMem= 16106127360 cpu:               0.8 elap:               0.1
 (Enter /sw/contrib/gaussian/g16/B01/g16/l401.exe)
 ExpMin= 2.53D-02 ExpMax= 1.53D+04 ExpMxC= 5.22D+02 IAcc=3 IRadAn=         5 AccDes= 0.00D+00
 Harris functional with IExCor=  205 and IRadAn=       5 diagonalized for initial guess.
 HarFok:  IExCor=  205 AccDes= 0.00D+00 IRadAn=         5 IDoV= 1 UseB2=F ITyADJ=14
 ICtDFT=  3500011 ScaDFX=  1.000000  1.000000  1.000000  1.000000
 FoFCou: FMM=F IPFlag=           0 FMFlag=      100000 FMFlg1=           0
         NFxFlg=           0 DoJE=T BraDBF=F KetDBF=T FulRan=T
         wScrn=  0.000000 ICntrl=       500 IOpCl=  0 I1Cent=   200000004 NGrid=           0
         NMat0=    1 NMatS0=      1 NMatT0=    0 NMatD0=    1 NMtDS0=    0 NMtDT0=    0
 Petite list used in FoFCou.
 Harris En= -279.628718527828    
 JPrj=0 DoOrth=F DoCkMO=F.
 Initial guess orbital symmetries:
       Occupied  (A') (A') (A') (A') (A') (A') (A') (A') (A') (A')
                 (A") (A') (A') (A") (A") (A')
       Virtual   (A") (A') (A') (A') (A') (A') (A") (A') (A') (A')
                 (A") (A') (A") (A') (A') (A") (A') (A') (A") (A')
                 (A') (A') (A') (A') (A') (A") (A') (A") (A') (A')
                 (A") (A') (A") (A') (A') (A") (A') (A") (A') (A')
                 (A") (A') (A") (A') (A") (A') (A') (A') (A") (A")
                 (A') (A') (A') (A') (A") (A') (A") (A') (A") (A')
                 (A') (A') (A") (A') (A') (A") (A') (A") (A') (A')
                 (A") (A') (A') (A") (A") (A') (A') (A") (A') (A')
                 (A') (A") (A') (A") (A') (A") (A') (A") (A') (A')
                 (A') (A") (A') (A") (A') (A") (A") (A') (A') (A')
                 (A") (A') (A") (A') (A') (A') (A') (A") (A") (A')
                 (A") (A') (A') (A') (A") (A') (A') (A') (A") (A')
                 (A") (A') (A') (A") (A") (A') (A") (A') (A") (A')
                 (A') (A') (A') (A") (A") (A') (A") (A') (A') (A')
                 (A') (A") (A") (A') (A') (A") (A') (A') (A') (A')
                 (A") (A') (A') (A") (A') (A") (A') (A") (A') (A")
                 (A') (A") (A') (A") (A') (A") (A") (A") (A') (A')
                 (A") (A') (A") (A') (A") (A') (A") (A") (A') (A')
                 (A') (A') (A') (A') (A') (A') (A') (A') (A') (A')
                 (A')
 The electronic state of the initial guess is 1-A'.
 Leave Link  401 at Mon Feb 14 22:11:13 2022, MaxMem= 16106127360 cpu:               6.5 elap:               0.3
 (Enter /sw/contrib/gaussian/g16/B01/g16/l502.exe)
 Keep R1 ints in memory in symmetry-blocked form, NReq=348887737.
 FoFCou: FMM=F IPFlag=           0 FMFlag=           0 FMFlg1=           0
         NFxFlg=           0 DoJE=F BraDBF=F KetDBF=F FulRan=T
         wScrn=  0.000000 ICntrl=       600 IOpCl=  0 I1Cent=           0 NGrid=           0
         NMat0=    1 NMatS0=  21528 NMatT0=    0 NMatD0=    1 NMtDS0=    0 NMtDT0=    0
 Petite list used in FoFCou.
 Closed shell SCF:
 Using DIIS extrapolation, IDIIS=  1040.
 NGot= 16106127360 LenX= 15988850015 LenY= 15988789549
 Requested convergence on RMS density matrix=1.00D-08 within 128 cycles.
 Requested convergence on MAX density matrix=1.00D-06.
 Requested convergence on             energy=1.00D-06.
 No special actions if energy rises.

 Cycle   1  Pass 1  IDiag  1:
 E= -279.366336706294    
 DIIS: error= 2.66D-02 at cycle   1 NSaved=   1.
 NSaved= 1 IEnMin= 1 EnMin= -279.366336706294     IErMin= 1 ErrMin= 2.66D-02
 ErrMax= 2.66D-02  0.00D+00 EMaxC= 1.00D-01 BMatC= 4.40D-01 BMatP= 4.40D-01
 IDIUse=3 WtCom= 7.34D-01 WtEn= 2.66D-01
 Coeff-Com:  0.100D+01
 Coeff-En:   0.100D+01
 Coeff:      0.100D+01
 Gap=     0.509 Goal=   None    Shift=    0.000
 GapD=    0.509 DampG=2.000 DampE=0.500 DampFc=1.0000 IDamp=-1.
 RMSDP=1.64D-03 MaxDP=9.97D-02              OVMax= 1.17D-01

 Cycle   2  Pass 1  IDiag  1:
 E= -279.447258008313     Delta-E=       -0.080921302019 Rises=F Damp=F
 DIIS: error= 1.82D-02 at cycle   2 NSaved=   2.
 NSaved= 2 IEnMin= 2 EnMin= -279.447258008313     IErMin= 2 ErrMin= 1.82D-02
 ErrMax= 1.82D-02  0.00D+00 EMaxC= 1.00D-01 BMatC= 7.63D-02 BMatP= 4.40D-01
 IDIUse=3 WtCom= 8.18D-01 WtEn= 1.82D-01
 Coeff-Com:  0.203D+00 0.797D+00
 Coeff-En:   0.280D-01 0.972D+00
 Coeff:      0.171D+00 0.829D+00
 Gap=     0.533 Goal=   None    Shift=    0.000
 RMSDP=9.18D-04 MaxDP=3.79D-02 DE=-8.09D-02 OVMax= 7.04D-02

 Cycle   3  Pass 1  IDiag  1:
 E= -279.478883631332     Delta-E=       -0.031625623018 Rises=F Damp=F
 DIIS: error= 1.05D-02 at cycle   3 NSaved=   3.
 NSaved= 3 IEnMin= 3 EnMin= -279.478883631332     IErMin= 3 ErrMin= 1.05D-02
 ErrMax= 1.05D-02  0.00D+00 EMaxC= 1.00D-01 BMatC= 2.95D-02 BMatP= 7.63D-02
 IDIUse=3 WtCom= 8.95D-01 WtEn= 1.05D-01
 Coeff-Com: -0.333D-01 0.374D+00 0.659D+00
 Coeff-En:   0.000D+00 0.235D+00 0.765D+00
 Coeff:     -0.298D-01 0.359D+00 0.670D+00
 Gap=     0.512 Goal=   None    Shift=    0.000
 RMSDP=3.83D-04 MaxDP=1.60D-02 DE=-3.16D-02 OVMax= 3.98D-02

 Cycle   4  Pass 1  IDiag  1:
 E= -279.498610588985     Delta-E=       -0.019726957654 Rises=F Damp=F
 DIIS: error= 1.31D-03 at cycle   4 NSaved=   4.
 NSaved= 4 IEnMin= 4 EnMin= -279.498610588985     IErMin= 4 ErrMin= 1.31D-03
 ErrMax= 1.31D-03  0.00D+00 EMaxC= 1.00D-01 BMatC= 5.10D-04 BMatP= 2.95D-02
 IDIUse=3 WtCom= 9.87D-01 WtEn= 1.31D-02
 Coeff-Com: -0.117D-01 0.549D-01 0.157D+00 0.800D+00
 Coeff-En:   0.000D+00 0.000D+00 0.000D+00 0.100D+01
 Coeff:     -0.116D-01 0.542D-01 0.155D+00 0.802D+00
 Gap=     0.504 Goal=   None    Shift=    0.000
 RMSDP=9.19D-05 MaxDP=2.79D-03 DE=-1.97D-02 OVMax= 1.14D-02

 Cycle   5  Pass 1  IDiag  1:
 E= -279.499317066956     Delta-E=       -0.000706477971 Rises=F Damp=F
 DIIS: error= 7.48D-04 at cycle   5 NSaved=   5.
 NSaved= 5 IEnMin= 5 EnMin= -279.499317066956     IErMin= 5 ErrMin= 7.48D-04
 ErrMax= 7.48D-04  0.00D+00 EMaxC= 1.00D-01 BMatC= 9.01D-05 BMatP= 5.10D-04
 IDIUse=3 WtCom= 9.93D-01 WtEn= 7.48D-03
 Coeff-Com:  0.626D-02-0.721D-01-0.119D+00 0.166D-01 0.117D+01
 Coeff-En:   0.000D+00 0.000D+00 0.000D+00 0.000D+00 0.100D+01
 Coeff:      0.622D-02-0.716D-01-0.119D+00 0.165D-01 0.117D+01
 Gap=     0.504 Goal=   None    Shift=    0.000
 RMSDP=7.82D-05 MaxDP=2.16D-03 DE=-7.06D-04 OVMax= 1.15D-02

 Cycle   6  Pass 1  IDiag  1:
 E= -279.499647086751     Delta-E=       -0.000330019795 Rises=F Damp=F
 DIIS: error= 2.95D-04 at cycle   6 NSaved=   6.
 NSaved= 6 IEnMin= 6 EnMin= -279.499647086751     IErMin= 6 ErrMin= 2.95D-04
 ErrMax= 2.95D-04  0.00D+00 EMaxC= 1.00D-01 BMatC= 1.73D-05 BMatP= 9.01D-05
 IDIUse=3 WtCom= 9.97D-01 WtEn= 2.95D-03
 Coeff-Com:  0.397D-03 0.407D-02 0.906D-02-0.132D+00-0.265D+00 0.138D+01
 Coeff-En:   0.000D+00 0.000D+00 0.000D+00 0.000D+00 0.000D+00 0.100D+01
 Coeff:      0.396D-03 0.406D-02 0.903D-02-0.132D+00-0.264D+00 0.138D+01
 Gap=     0.504 Goal=   None    Shift=    0.000
 RMSDP=4.68D-05 MaxDP=1.29D-03 DE=-3.30D-04 OVMax= 5.81D-03

 Cycle   7  Pass 1  IDiag  1:
 E= -279.499723761600     Delta-E=       -0.000076674849 Rises=F Damp=F
 DIIS: error= 1.21D-04 at cycle   7 NSaved=   7.
 NSaved= 7 IEnMin= 7 EnMin= -279.499723761600     IErMin= 7 ErrMin= 1.21D-04
 ErrMax= 1.21D-04  0.00D+00 EMaxC= 1.00D-01 BMatC= 4.17D-06 BMatP= 1.73D-05
 IDIUse=3 WtCom= 9.99D-01 WtEn= 1.21D-03
 Coeff-Com: -0.969D-03 0.132D-01 0.263D-01-0.181D-01-0.272D+00 0.330D+00
 Coeff-Com:  0.921D+00
 Coeff-En:   0.000D+00 0.000D+00 0.000D+00 0.000D+00 0.000D+00 0.000D+00
 Coeff-En:   0.100D+01
 Coeff:     -0.968D-03 0.132D-01 0.263D-01-0.181D-01-0.271D+00 0.329D+00
 Coeff:      0.921D+00
 Gap=     0.504 Goal=   None    Shift=    0.000
 RMSDP=1.33D-05 MaxDP=3.82D-04 DE=-7.67D-05 OVMax= 1.58D-03

 Cycle   8  Pass 1  IDiag  1:
 E= -279.499732490145     Delta-E=       -0.000008728545 Rises=F Damp=F
 DIIS: error= 6.13D-05 at cycle   8 NSaved=   8.
 NSaved= 8 IEnMin= 8 EnMin= -279.499732490145     IErMin= 8 ErrMin= 6.13D-05
 ErrMax= 6.13D-05  0.00D+00 EMaxC= 1.00D-01 BMatC= 6.54D-07 BMatP= 4.17D-06
 IDIUse=1 WtCom= 1.00D+00 WtEn= 0.00D+00
 Coeff-Com: -0.445D-03 0.323D-02 0.735D-02 0.278D-01-0.372D-01-0.209D+00
 Coeff-Com:  0.232D+00 0.976D+00
 Coeff:     -0.445D-03 0.323D-02 0.735D-02 0.278D-01-0.372D-01-0.209D+00
 Coeff:      0.232D+00 0.976D+00
 Gap=     0.504 Goal=   None    Shift=    0.000
 RMSDP=6.73D-06 MaxDP=2.03D-04 DE=-8.73D-06 OVMax= 7.22D-04

 Cycle   9  Pass 1  IDiag  1:
 E= -279.499734280645     Delta-E=       -0.000001790500 Rises=F Damp=F
 DIIS: error= 1.74D-05 at cycle   9 NSaved=   9.
 NSaved= 9 IEnMin= 9 EnMin= -279.499734280645     IErMin= 9 ErrMin= 1.74D-05
 ErrMax= 1.74D-05  0.00D+00 EMaxC= 1.00D-01 BMatC= 8.04D-08 BMatP= 6.54D-07
 IDIUse=1 WtCom= 1.00D+00 WtEn= 0.00D+00
 Coeff-Com:  0.136D-03-0.180D-02-0.326D-02-0.274D-02 0.357D-01 0.371D-02
 Coeff-Com: -0.194D+00-0.893D-01 0.125D+01
 Coeff:      0.136D-03-0.180D-02-0.326D-02-0.274D-02 0.357D-01 0.371D-02
 Coeff:     -0.194D+00-0.893D-01 0.125D+01
 Gap=     0.504 Goal=   None    Shift=    0.000
 RMSDP=2.09D-06 MaxDP=7.33D-05 DE=-1.79D-06 OVMax= 1.96D-04

 Cycle  10  Pass 1  IDiag  1:
 E= -279.499734467810     Delta-E=       -0.000000187165 Rises=F Damp=F
 DIIS: error= 4.36D-06 at cycle  10 NSaved=  10.
 NSaved=10 IEnMin=10 EnMin= -279.499734467810     IErMin=10 ErrMin= 4.36D-06
 ErrMax= 4.36D-06  0.00D+00 EMaxC= 1.00D-01 BMatC= 6.43D-09 BMatP= 8.04D-08
 IDIUse=1 WtCom= 1.00D+00 WtEn= 0.00D+00
 Coeff-Com:  0.271D-04-0.183D-03-0.205D-03-0.275D-02 0.440D-03 0.205D-01
 Coeff-Com: -0.121D-01-0.676D-01-0.115D+00 0.118D+01
 Coeff:      0.271D-04-0.183D-03-0.205D-03-0.275D-02 0.440D-03 0.205D-01
 Coeff:     -0.121D-01-0.676D-01-0.115D+00 0.118D+01
 Gap=     0.504 Goal=   None    Shift=    0.000
 RMSDP=5.50D-07 MaxDP=2.32D-05 DE=-1.87D-07 OVMax= 4.89D-05

 Cycle  11  Pass 1  IDiag  1:
 E= -279.499734483058     Delta-E=       -0.000000015248 Rises=F Damp=F
 DIIS: error= 2.26D-06 at cycle  11 NSaved=  11.
 NSaved=11 IEnMin=11 EnMin= -279.499734483058     IErMin=11 ErrMin= 2.26D-06
 ErrMax= 2.26D-06  0.00D+00 EMaxC= 1.00D-01 BMatC= 7.94D-10 BMatP= 6.43D-09
 IDIUse=1 WtCom= 1.00D+00 WtEn= 0.00D+00
 Coeff-Com: -0.232D-04 0.257D-03 0.518D-03 0.619D-03-0.447D-02-0.432D-02
 Coeff-Com:  0.259D-01 0.290D-01-0.144D+00-0.179D+00 0.128D+01
 Coeff:     -0.232D-04 0.257D-03 0.518D-03 0.619D-03-0.447D-02-0.432D-02
 Coeff:      0.259D-01 0.290D-01-0.144D+00-0.179D+00 0.128D+01
 Gap=     0.504 Goal=   None    Shift=    0.000
 RMSDP=2.00D-07 MaxDP=7.32D-06 DE=-1.52D-08 OVMax= 1.91D-05

 Cycle  12  Pass 1  IDiag  1:
 E= -279.499734485314     Delta-E=       -0.000000002256 Rises=F Damp=F
 DIIS: error= 6.36D-07 at cycle  12 NSaved=  12.
 NSaved=12 IEnMin=12 EnMin= -279.499734485314     IErMin=12 ErrMin= 6.36D-07
 ErrMax= 6.36D-07  0.00D+00 EMaxC= 1.00D-01 BMatC= 8.63D-11 BMatP= 7.94D-10
 IDIUse=1 WtCom= 1.00D+00 WtEn= 0.00D+00
 Coeff-Com:  0.157D-05-0.334D-04-0.718D-04 0.203D-03 0.120D-02-0.256D-02
 Coeff-Com: -0.451D-02 0.617D-02 0.440D-01-0.128D+00-0.247D+00 0.133D+01
 Coeff:      0.157D-05-0.334D-04-0.718D-04 0.203D-03 0.120D-02-0.256D-02
 Coeff:     -0.451D-02 0.617D-02 0.440D-01-0.128D+00-0.247D+00 0.133D+01
 Gap=     0.504 Goal=   None    Shift=    0.000
 RMSDP=7.98D-08 MaxDP=3.12D-06 DE=-2.26D-09 OVMax= 7.39D-06

 Cycle  13  Pass 1  IDiag  1:
 E= -279.499734485591     Delta-E=       -0.000000000278 Rises=F Damp=F
 DIIS: error= 1.89D-07 at cycle  13 NSaved=  13.
 NSaved=13 IEnMin=13 EnMin= -279.499734485591     IErMin=13 ErrMin= 1.89D-07
 ErrMax= 1.89D-07  0.00D+00 EMaxC= 1.00D-01 BMatC= 4.82D-12 BMatP= 8.63D-11
 IDIUse=1 WtCom= 1.00D+00 WtEn= 0.00D+00
 Coeff-Com:  0.136D-05-0.145D-04-0.236D-04-0.993D-04 0.124D-03 0.849D-03
 Coeff-Com: -0.117D-02-0.319D-02 0.835D-03 0.435D-01-0.474D-01-0.307D+00
 Coeff-Com:  0.131D+01
 Coeff:      0.136D-05-0.145D-04-0.236D-04-0.993D-04 0.124D-03 0.849D-03
 Coeff:     -0.117D-02-0.319D-02 0.835D-03 0.435D-01-0.474D-01-0.307D+00
 Coeff:      0.131D+01
 Gap=     0.504 Goal=   None    Shift=    0.000
 RMSDP=2.08D-08 MaxDP=6.17D-07 DE=-2.78D-10 OVMax= 1.67D-06

 Cycle  14  Pass 1  IDiag  1:
 E= -279.499734485607     Delta-E=       -0.000000000016 Rises=F Damp=F
 DIIS: error= 2.65D-08 at cycle  14 NSaved=  14.
 NSaved=14 IEnMin=14 EnMin= -279.499734485607     IErMin=14 ErrMin= 2.65D-08
 ErrMax= 2.65D-08  0.00D+00 EMaxC= 1.00D-01 BMatC= 2.35D-13 BMatP= 4.82D-12
 IDIUse=1 WtCom= 1.00D+00 WtEn= 0.00D+00
 Coeff-Com: -0.200D-06 0.323D-05 0.578D-05 0.459D-05-0.862D-04 0.507D-04
 Coeff-Com:  0.322D-03 0.189D-03-0.253D-02 0.189D-02 0.162D-01-0.262D-01
 Coeff-Com: -0.194D+00 0.120D+01
 Coeff:     -0.200D-06 0.323D-05 0.578D-05 0.459D-05-0.862D-04 0.507D-04
 Coeff:      0.322D-03 0.189D-03-0.253D-02 0.189D-02 0.162D-01-0.262D-01
 Coeff:     -0.194D+00 0.120D+01
 Gap=     0.504 Goal=   None    Shift=    0.000
 RMSDP=4.08D-09 MaxDP=9.91D-08 DE=-1.60D-11 OVMax= 3.70D-07

 SCF Done:  E(RHF) =  -279.499734486     A.U. after   14 cycles
            NFock= 14  Conv=0.41D-08     -V/T= 2.0025
 KE= 2.787952465985D+02 PE=-8.943990241580D+02 EE= 2.195479591284D+02
 Leave Link  502 at Mon Feb 14 22:11:16 2022, MaxMem= 16106127360 cpu:              56.4 elap:               3.7
 (Enter /sw/contrib/gaussian/g16/B01/g16/l801.exe)
 ExpMin= 2.53D-02 ExpMax= 1.53D+04 ExpMxC= 5.22D+02 IAcc=3 IRadAn=         5 AccDes= 0.00D+00
 HarFok:  IExCor=  205 AccDes= 0.00D+00 IRadAn=         5 IDoV=-2 UseB2=F ITyADJ=14
 ICtDFT= 12500011 ScaDFX=  1.000000  1.000000  1.000000  1.000000
 Largest valence mixing into a core orbital is  2.09D-04
 Largest core mixing into a valence orbital is  3.67D-05
 Range of M.O.s used for correlation:     5   207
 NBasis=   207 NAE=    16 NBE=    16 NFC=     4 NFV=     0
 NROrb=    203 NOA=    12 NOB=    12 NVA=   191 NVB=   191

 **** Warning!!: The largest alpha MO coefficient is  0.17671892D+02

 Leave Link  801 at Mon Feb 14 22:11:16 2022, MaxMem= 16106127360 cpu:               2.1 elap:               0.1
 (Enter /sw/contrib/gaussian/g16/B01/g16/l906.exe)
 Frozen-core derivative calculation, NFC=   4 NFV=   0.
 FulOut=F Deriv=T AODrv=F NAtomX=     5
   MMem=          76  MDisk=          12 MDiskD=          12
  W3Min=      811440 MinDsk=     1524655 NBas6D=         245
 NBas2D=       30762    NTT=       30135    LW2=     3500000
    MDV= 16105579927 MDiskM=      328644 NBas2p=       30466
 Fully in-core method, ICMem=   960157634.
 IMap=   1   2   3   4   5   6   7   8   9  10  11  12  13  14  15  16
 JobTyp=1 Pass  1 fully in-core, NPsUse= 28.
 Compute canonical integrals.
 FoFCou: FMM=F IPFlag=           0 FMFlag=           0 FMFlg1=           0
         NFxFlg=           0 DoJE=F BraDBF=F KetDBF=F FulRan=T
         wScrn=  0.000000 ICntrl=       600 IOpCl=  1 I1Cent=           0 NGrid=           0
         NMat0=    1 NMatS0=  30762 NMatT0=    0 NMatD0=    1 NMtDS0=    0 NMtDT0=    0
 Symmetry not used in FoFCou.
 Spin components of T(2) and E(2):
     alpha-alpha T2 =       0.3424480225D-01 E2=     -0.1226347317D+00
     alpha-beta  T2 =       0.1880737216D+00 E2=     -0.7015832853D+00
     beta-beta   T2 =       0.3424480225D-01 E2=     -0.1226347317D+00
 The integrals were generated   1 times.
 ANorm=    0.1120965355D+01
 E2 =    -0.9468527486D+00 EUMP2 =    -0.28044658723424D+03
 Leave Link  906 at Mon Feb 14 22:11:25 2022, MaxMem= 16106127360 cpu:             242.2 elap:               8.7
 (Enter /sw/contrib/gaussian/g16/B01/g16/l1002.exe)
 Minotr:  Closed shell wavefunction.
          Computing MP2/KS-MP2 derivatives.
          Using Z-Vector for PSCF gradient.
          Skipping F1 and S1 gradient terms here.
          Frozen-core window.
          Direct CPHF calculation.
          Differentiating once with respect to electric field.
                with respect to dipole field.
          Electric field/nuclear overlap derivatives assumed to be zero.
          Using symmetry in CPHF.
          Requested convergence is 1.0D-10 RMS, and 1.0D-09 maximum.
          NewPWx=F KeepS1=T KeepF1=T KeepIn=T MapXYZ=F SortEE=F KeepMc=T.
 Keep R1 ints in memory in symmetry-blocked form, NReq=348888868.
 FoFCou: FMM=F IPFlag=           0 FMFlag=           0 FMFlg1=           0
         NFxFlg=           0 DoJE=F BraDBF=F KetDBF=F FulRan=T
         wScrn=  0.000000 ICntrl=       600 IOpCl=  0 I1Cent=           0 NGrid=           0
         NMat0=    1 NMatS0=  21528 NMatT0=    0 NMatD0=    1 NMtDS0=    0 NMtDT0=    0
 Petite list used in FoFCou.
          MDV=   16106127360 using IRadAn=       5.
          Solving linear equations separately, MaxMat=       0.
          There are     1 degrees of freedom in the 1st order CPHF.  IDoFFX=0 NUNeed=     1.
 LinEq1:  Iter=  0 NonCon=     1 RMS=6.02D-03 Max=1.36D-01 NDo=     1
 AX will form     1 AO Fock derivatives at one time.
 LinEq1:  Iter=  1 NonCon=     1 RMS=1.94D-03 Max=3.96D-02 NDo=     1
 LinEq1:  Iter=  2 NonCon=     1 RMS=8.90D-04 Max=1.45D-02 NDo=     1
 LinEq1:  Iter=  3 NonCon=     1 RMS=4.00D-04 Max=8.31D-03 NDo=     1
 LinEq1:  Iter=  4 NonCon=     1 RMS=1.23D-04 Max=1.98D-03 NDo=     1
 LinEq1:  Iter=  5 NonCon=     1 RMS=4.89D-05 Max=7.81D-04 NDo=     1
 LinEq1:  Iter=  6 NonCon=     1 RMS=2.17D-05 Max=2.43D-04 NDo=     1
 LinEq1:  Iter=  7 NonCon=     1 RMS=8.75D-06 Max=1.65D-04 NDo=     1
 LinEq1:  Iter=  8 NonCon=     1 RMS=3.72D-06 Max=3.59D-05 NDo=     1
 LinEq1:  Iter=  9 NonCon=     1 RMS=1.01D-06 Max=1.36D-05 NDo=     1
 LinEq1:  Iter= 10 NonCon=     1 RMS=1.98D-07 Max=2.14D-06 NDo=     1
 LinEq1:  Iter= 11 NonCon=     1 RMS=3.64D-08 Max=3.75D-07 NDo=     1
 LinEq1:  Iter= 12 NonCon=     1 RMS=8.83D-09 Max=1.35D-07 NDo=     1
 LinEq1:  Iter= 13 NonCon=     1 RMS=1.61D-09 Max=2.72D-08 NDo=     1
 LinEq1:  Iter= 14 NonCon=     1 RMS=2.89D-10 Max=4.03D-09 NDo=     1
 LinEq1:  Iter= 15 NonCon=     0 RMS=5.10D-11 Max=5.59D-10 NDo=     1
 Linear equations converged to 1.000D-10 1.000D-09 after    15 iterations.
 End of Minotr F.D. properties file   721 does not exist.
 End of Minotr F.D. properties file   722 does not exist.
 End of Minotr F.D. properties file   788 does not exist.
 Leave Link 1002 at Mon Feb 14 22:11:29 2022, MaxMem= 16106127360 cpu:              54.3 elap:               4.1
 (Enter /sw/contrib/gaussian/g16/B01/g16/l601.exe)
 Copying SCF densities to generalized density rwf, IOpCl= 0 IROHF=0.

 **********************************************************************

            Population analysis using the MP2 Density.

 **********************************************************************

 Orbital symmetries:
       Occupied  (A') (A') (A') (A') (A') (A') (A') (A') (A') (A')
                 (A") (A') (A") (A') (A") (A')
       Virtual   (A') (A") (A') (A') (A') (A") (A') (A') (A") (A')
                 (A") (A') (A') (A') (A") (A') (A') (A") (A') (A')
                 (A') (A') (A') (A') (A") (A') (A') (A") (A') (A')
                 (A") (A') (A") (A') (A') (A") (A') (A') (A") (A')
                 (A") (A') (A") (A') (A') (A") (A') (A') (A") (A')
                 (A") (A') (A') (A') (A") (A') (A") (A') (A") (A')
                 (A') (A') (A") (A') (A') (A") (A') (A") (A') (A')
                 (A") (A') (A') (A") (A") (A') (A') (A") (A') (A')
                 (A') (A") (A') (A") (A') (A") (A') (A") (A') (A')
                 (A") (A') (A') (A") (A') (A") (A') (A") (A') (A')
                 (A") (A') (A") (A') (A') (A") (A') (A') (A") (A')
                 (A") (A') (A') (A') (A") (A') (A') (A') (A") (A')
                 (A") (A') (A") (A') (A') (A") (A") (A') (A") (A')
                 (A') (A') (A') (A") (A") (A") (A') (A') (A') (A')
                 (A") (A') (A") (A') (A') (A") (A') (A') (A') (A')
                 (A") (A') (A') (A") (A') (A") (A') (A") (A') (A")
                 (A') (A") (A') (A') (A") (A") (A") (A') (A") (A')
                 (A") (A') (A") (A') (A") (A') (A") (A') (A") (A')
                 (A') (A') (A') (A') (A') (A') (A') (A') (A') (A')
                 (A')
 The electronic state is 1-A'.
 Alpha  occ. eigenvalues --  -20.69331 -20.68387 -20.66131 -15.81436  -1.61576
 Alpha  occ. eigenvalues --   -1.49546  -1.25545  -0.94951  -0.77166  -0.75645
 Alpha  occ. eigenvalues --   -0.70984  -0.67805  -0.61824  -0.59008  -0.48607
 Alpha  occ. eigenvalues --   -0.47452
 Alpha virt. eigenvalues --    0.02935   0.06845   0.08611   0.10172   0.13381
 Alpha virt. eigenvalues --    0.13415   0.14386   0.15428   0.17808   0.19429
 Alpha virt. eigenvalues --    0.19943   0.20634   0.22046   0.23456   0.23731
 Alpha virt. eigenvalues --    0.26593   0.29237   0.30347   0.30997   0.34354
 Alpha virt. eigenvalues --    0.34938   0.38681   0.42150   0.43150   0.52754
 Alpha virt. eigenvalues --    0.52754   0.55779   0.58140   0.62018   0.63880
 Alpha virt. eigenvalues --    0.67769   0.68379   0.70630   0.71090   0.72375
 Alpha virt. eigenvalues --    0.72879   0.74470   0.79098   0.79139   0.81070
 Alpha virt. eigenvalues --    0.81175   0.82789   0.86734   0.90731   0.92098
 Alpha virt. eigenvalues --    0.92534   0.95604   0.97525   0.98373   1.01595
 Alpha virt. eigenvalues --    1.05132   1.05412   1.08038   1.11623   1.14019
 Alpha virt. eigenvalues --    1.18887   1.21928   1.23112   1.33805   1.34977
 Alpha virt. eigenvalues --    1.38455   1.45289   1.48725   1.50768   1.53770
 Alpha virt. eigenvalues --    1.56691   1.57996   1.61246   1.66163   1.66920
 Alpha virt. eigenvalues --    1.70361   1.79261   1.83215   1.83429   1.87549
 Alpha virt. eigenvalues --    1.90997   1.95890   1.98945   2.00631   2.07733
 Alpha virt. eigenvalues --    2.12064   2.13098   2.14879   2.22387   2.26341
 Alpha virt. eigenvalues --    2.26404   2.28857   2.31307   2.34071   2.38517
 Alpha virt. eigenvalues --    2.42205   2.42629   2.45395   2.46142   2.47508
 Alpha virt. eigenvalues --    2.49916   2.58799   2.59458   2.61873   2.62053
 Alpha virt. eigenvalues --    2.63318   2.66444   2.75337   2.82004   2.85060
 Alpha virt. eigenvalues --    2.87931   2.89173   2.92037   2.95543   3.02272
 Alpha virt. eigenvalues --    3.06972   3.11824   3.20366   3.22379   3.31459
 Alpha virt. eigenvalues --    3.34015   3.51240   3.64239   3.83678   3.84098
 Alpha virt. eigenvalues --    4.14737   4.16134   4.18203   4.23272   4.35038
 Alpha virt. eigenvalues --    4.39155   4.46035   4.51704   4.64903   4.70857
 Alpha virt. eigenvalues --    4.79930   4.82260   4.82657   4.89640   5.02479
 Alpha virt. eigenvalues --    5.07654   5.09921   5.14881   5.17539   5.23833
 Alpha virt. eigenvalues --    5.27114   5.30822   5.32776   5.34721   5.60365
 Alpha virt. eigenvalues --    5.65647   5.75977   5.82460   5.96176   6.16579
 Alpha virt. eigenvalues --    6.30668   6.33723   6.39285   6.49361   6.50525
 Alpha virt. eigenvalues --    6.61219   6.66655   6.69524   6.75597   6.76147
 Alpha virt. eigenvalues --    6.82620   6.89426   7.00999   7.05315   7.05506
 Alpha virt. eigenvalues --    7.08847   7.11927   7.14685   7.18001   7.21733
 Alpha virt. eigenvalues --    7.23922   7.30126   7.30273   7.34084   7.39190
 Alpha virt. eigenvalues --    7.42958   7.48305   7.59922   7.60564   7.61600
 Alpha virt. eigenvalues --    7.66295   7.77996   7.86968   8.08846   8.31047
 Alpha virt. eigenvalues --    8.40787   8.54176  13.36869  14.30732  15.15652
 Alpha virt. eigenvalues --   15.84413
          Condensed to atoms (all electrons):
               1          2          3          4          5
     1  H    0.589267   0.128381   0.020070   0.012314  -0.000648
     2  O    0.128381   8.320694  -0.173389  -0.090384   0.015451
     3  O    0.020070  -0.173389   8.460606  -0.125768  -0.036643
     4  N    0.012314  -0.090384  -0.125768   6.967656  -0.054359
     5  O   -0.000648   0.015451  -0.036643  -0.054359   8.271726
 Mulliken charges:
               1
     1  H    0.250617
     2  O   -0.200753
     3  O   -0.144877
     4  N    0.290541
     5  O   -0.195528
 Sum of Mulliken charges =  -0.00000
 Mulliken charges with hydrogens summed into heavy atoms:
               1
     2  O    0.049863
     3  O   -0.144877
     4  N    0.290541
     5  O   -0.195528
 Electronic spatial extent (au):  <R**2>=            253.8763
 Charge=             -0.0000 electrons
 Dipole moment (field-independent basis, Debye):
    X=              0.5469    Y=              1.4066    Z=             -0.0000  Tot=              1.5092
 Quadrupole moment (field-independent basis, Debye-Ang):
   XX=            -22.5227   YY=            -18.6157   ZZ=            -22.0278
   XY=              3.2213   XZ=              0.0000   YZ=              0.0000
 Traceless Quadrupole moment (field-independent basis, Debye-Ang):
   XX=             -1.4673   YY=              2.4397   ZZ=             -0.9724
   XY=              3.2213   XZ=              0.0000   YZ=              0.0000
 Octapole moment (field-independent basis, Debye-Ang**2):
  XXX=              2.9396  YYY=             11.5563  ZZZ=              0.0000  XYY=              8.0047
  XXY=              6.6134  XXZ=             -0.0000  XZZ=             -1.5444  YZZ=             -0.8196
  YYZ=             -0.0000  XYZ=             -0.0000
 Hexadecapole moment (field-independent basis, Debye-Ang**3):
 XXXX=           -158.8750 YYYY=            -90.4451 ZZZZ=            -18.2579 XXXY=            -37.0711
 XXXZ=              0.0000 YYYX=            -31.0514 YYYZ=              0.0000 ZZZX=              0.0000
 ZZZY=              0.0000 XXYY=            -34.1801 XXZZ=            -30.9330 YYZZ=            -20.8257
 XXYZ=              0.0000 YYXZ=              0.0000 ZZXY=            -15.1865
 N-N= 1.165560839455D+02 E-N=-8.951958742029D+02  KE= 2.801541821810D+02
 Symmetry A'   KE= 2.661870672371D+02
 Symmetry A"   KE= 1.396711494390D+01
 No NMR shielding tensors so no spin-rotation constants.
 Leave Link  601 at Mon Feb 14 22:11:30 2022, MaxMem= 16106127360 cpu:               4.6 elap:               0.2
 (Enter /sw/contrib/gaussian/g16/B01/g16/l9999.exe)
 1\1\GINC-N2131\SP\RMP2-FC\Aug-CC-pVTZ\H1N1O3\CGAVINH\14-Feb-2022\0\\#p
  SP mp2/aug-cc-pvtz density=current\\title\\0,1\H\O,1,0.96897556\O,2,1
 .45491931,1,97.59494903\N,3,1.45878406,2,102.29752444,1,180.,0\O,4,1.1
 812160331,3,109.06955123,2,180.,0\\Version=ES64L-G16RevB.01\State=1-A'
 \HF=-279.4997345\MP2=-280.4465872\RMSD=4.078e-09\Dipole=-0.1620337,0.,
 -0.57121\Quadrupole=-1.5146015,-0.7229239,2.2375254,0.,2.0798406,0.\PG
 =CS [SG(H1N1O3)]\\@


 NEVER LISTEN TO CRITICISM
 OR YOU'LL BE DOIN' EVERYBODY ELSE'S THING BUT BUT YOUR OWN.

                                               -- ANDY CAPP
 Job cpu time:       0 days  0 hours  6 minutes 22.9 seconds.
 Elapsed time:       0 days  0 hours  0 minutes 17.8 seconds.
 File lengths (MBytes):  RWF=     22 Int=      0 D2E=      0 Chk=      8 Scr=      1
 Normal termination of Gaussian 16 at Mon Feb 14 22:11:30 2022.
