title                                                                   
SP        RMP2-FC                                                     Aug-CC-pVTZ         
Number of atoms                            I                5
Info1-9                                    I   N=           9
          33          24           0           0           0         110
           1           2           1
Full Title                                 C   N=           1
title       
Route                                      C   N=           4
#p SP mp2/aug-cc-pvtz density=current           
Charge                                     I                0
Multiplicity                               I                1
Number of electrons                        I               32
Number of alpha electrons                  I               16
Number of beta electrons                   I               16
Number of basis functions                  I              207
Number of independent functions            I              207
Number of point charges in /Mol/           I                0
Number of translation vectors              I                0
Atomic numbers                             I   N=           5
           1           8           8           7           8
Nuclear charges                            R   N=           5
  1.00000000E+00  8.00000000E+00  8.00000000E+00  7.00000000E+00  8.00000000E+00
Current cartesian coordinates              R   N=          15
 -4.24893848E+00  8.19969008E-01 -4.82404537E-02 -3.01972753E+00 -5.37176098E-01
 -3.73281413E-02 -7.56991082E-01  1.02260694E+00  4.20169344E-02  1.25476147E+00
 -8.61999350E-01  6.47904086E-02  3.20991964E+00  1.66322463E-01 -5.53503439E-02
Number of symbols in /Mol/                 I                0
Force Field                                I                0
Atom Types                                 C   N=           5
                                                            
Int Atom Types                             I   N=           5
           0           0           0           0           0
MM charges                                 R   N=           5
  0.00000000E+00  0.00000000E+00  0.00000000E+00  0.00000000E+00  0.00000000E+00
Integer atomic weights                     I   N=           5
           1          16          16          14          16
Real atomic weights                        R   N=           5
  1.00782504E+00  1.59949146E+01  1.59949146E+01  1.40030740E+01  1.59949146E+01
Atom fragment info                         I   N=           5
           0           0           0           0           0
Atom residue num                           I   N=           5
           0           0           0           0           0
Nuclear spins                              I   N=           5
           1           0           0           2           0
Nuclear ZEff                               R   N=           5
 -1.00000000E+00 -5.60000000E+00 -5.60000000E+00 -4.55000000E+00 -5.60000000E+00
Nuclear ZNuc                               R   N=           5
  1.00000000E+00  8.00000000E+00  8.00000000E+00  7.00000000E+00  8.00000000E+00
Nuclear QMom                               R   N=           5
  0.00000000E+00  0.00000000E+00  0.00000000E+00  2.04400000E+00  0.00000000E+00
Nuclear GFac                               R   N=           5
  2.79284600E+00  0.00000000E+00  0.00000000E+00  4.03761000E-01  0.00000000E+00
MicOpt                                     I   N=           5
          -1          -1          -1          -1          -1
Number of residues                         I                0
Number of secondary structures             I                0
SymInf integers                            I   N=          26
           1           1           1           1           1           0
           0           0           0           0           0           0
           0           0           0           0           0           0
           0           0           0           0           0           0
           0           0
RotTr to input orientation                 R   N=          12
  7.40767050E-01 -2.49894323E-02  6.71297033E-01  6.71164782E-01 -1.45964803E-02
 -7.41164475E-01  2.83198534E-02  9.99581148E-01  5.95943518E-03  2.59850546E+00
 -4.59896508E-02  3.46031918E+00
Number of contracted shells                I               65
Number of primitive shells                 I              119
Pure/Cartesian d shells                    I                0
Pure/Cartesian f shells                    I                0
Highest angular momentum                   I                3
Largest degree of contraction              I                7
Shell types                                I   N=          65
           0           0           0           0           1           1
           1          -2          -2           0           0           0
           0           0           1           1           1           1
          -2          -2          -2          -3          -3           0
           0           0           0           0           1           1
           1           1          -2          -2          -2          -3
          -3           0           0           0           0           0
           1           1           1           1          -2          -2
          -2          -3          -3           0           0           0
           0           0           1           1           1           1
          -2          -2          -2          -3          -3
Number of primitives per shell             I   N=          65
           3           1           1           1           1           1
           1           1           1           7           6           1
           1           1           3           1           1           1
           1           1           1           1           1           7
           6           1           1           1           3           1
           1           1           1           1           1           1
           1           7           6           1           1           1
           3           1           1           1           1           1
           1           1           1           7           6           1
           1           1           3           1           1           1
           1           1           1           1           1
Shell to atom map                          I   N=          65
           1           1           1           1           1           1
           1           1           1           2           2           2
           2           2           2           2           2           2
           2           2           2           2           2           3
           3           3           3           3           3           3
           3           3           3           3           3           3
           3           4           4           4           4           4
           4           4           4           4           4           4
           4           4           4           5           5           5
           5           5           5           5           5           5
           5           5           5           5           5
Primitive exponents                        R   N=         119
  3.38700000E+01  5.09500000E+00  1.15900000E+00  3.25800000E-01  1.02700000E-01
  2.52600000E-02  1.40700000E+00  3.88000000E-01  1.02000000E-01  1.05700000E+00
  2.47000000E-01  1.53300000E+04  2.29900000E+03  5.22400000E+02  1.47300000E+02
  4.75500000E+01  1.67600000E+01  6.20700000E+00  5.22400000E+02  1.47300000E+02
  4.75500000E+01  1.67600000E+01  6.20700000E+00  6.88200000E-01  1.75200000E+00
  2.38400000E-01  7.37600000E-02  3.44600000E+01  7.74900000E+00  2.28000000E+00
  7.15600000E-01  2.14000000E-01  5.97400000E-02  2.31400000E+00  6.45000000E-01
  2.14000000E-01  1.42800000E+00  5.00000000E-01  1.53300000E+04  2.29900000E+03
  5.22400000E+02  1.47300000E+02  4.75500000E+01  1.67600000E+01  6.20700000E+00
  5.22400000E+02  1.47300000E+02  4.75500000E+01  1.67600000E+01  6.20700000E+00
  6.88200000E-01  1.75200000E+00  2.38400000E-01  7.37600000E-02  3.44600000E+01
  7.74900000E+00  2.28000000E+00  7.15600000E-01  2.14000000E-01  5.97400000E-02
  2.31400000E+00  6.45000000E-01  2.14000000E-01  1.42800000E+00  5.00000000E-01
  1.14200000E+04  1.71200000E+03  3.89300000E+02  1.10000000E+02  3.55700000E+01
  1.25400000E+01  4.64400000E+00  3.89300000E+02  1.10000000E+02  3.55700000E+01
  1.25400000E+01  4.64400000E+00  5.11800000E-01  1.29300000E+00  1.78700000E-01
  5.76000000E-02  2.66300000E+01  5.94800000E+00  1.74200000E+00  5.55000000E-01
  1.72500000E-01  4.91000000E-02  1.65400000E+00  4.69000000E-01  1.51000000E-01
  1.09300000E+00  3.64000000E-01  1.53300000E+04  2.29900000E+03  5.22400000E+02
  1.47300000E+02  4.75500000E+01  1.67600000E+01  6.20700000E+00  5.22400000E+02
  1.47300000E+02  4.75500000E+01  1.67600000E+01  6.20700000E+00  6.88200000E-01
  1.75200000E+00  2.38400000E-01  7.37600000E-02  3.44600000E+01  7.74900000E+00
  2.28000000E+00  7.15600000E-01  2.14000000E-01  5.97400000E-02  2.31400000E+00
  6.45000000E-01  2.14000000E-01  1.42800000E+00  5.00000000E-01
Contraction coefficients                   R   N=         119
  2.54948632E-02  1.90362766E-01  8.52162022E-01  1.00000000E+00  1.00000000E+00
  1.00000000E+00  1.00000000E+00  1.00000000E+00  1.00000000E+00  1.00000000E+00
  1.00000000E+00  5.19808943E-04  4.02025621E-03  2.07128267E-02  8.10105536E-02
  2.35962985E-01  4.42653446E-01  3.57064423E-01 -4.42115008E-05 -1.22591041E-03
 -1.05517725E-02 -6.74452633E-02 -1.71198607E-01  1.07329856E+00  1.00000000E+00
  1.00000000E+00  1.00000000E+00  4.11634896E-02  2.57762836E-01  8.02419274E-01
  1.00000000E+00  1.00000000E+00  1.00000000E+00  1.00000000E+00  1.00000000E+00
  1.00000000E+00  1.00000000E+00  1.00000000E+00  5.19808943E-04  4.02025621E-03
  2.07128267E-02  8.10105536E-02  2.35962985E-01  4.42653446E-01  3.57064423E-01
 -4.42115008E-05 -1.22591041E-03 -1.05517725E-02 -6.74452633E-02 -1.71198607E-01
  1.07329856E+00  1.00000000E+00  1.00000000E+00  1.00000000E+00  4.11634896E-02
  2.57762836E-01  8.02419274E-01  1.00000000E+00  1.00000000E+00  1.00000000E+00
  1.00000000E+00  1.00000000E+00  1.00000000E+00  1.00000000E+00  1.00000000E+00
  5.34563860E-04  4.13435660E-03  2.12335358E-02  8.25006224E-02  2.38138871E-01
  4.42551547E-01  3.53757422E-01 -4.89867350E-05 -1.19527323E-03 -1.03490714E-02
 -6.48680190E-02 -1.71552477E-01  1.07289568E+00  1.00000000E+00  1.00000000E+00
  1.00000000E+00  3.98072123E-02  2.49002660E-01  8.10479727E-01  1.00000000E+00
  1.00000000E+00  1.00000000E+00  1.00000000E+00  1.00000000E+00  1.00000000E+00
  1.00000000E+00  1.00000000E+00  5.19808943E-04  4.02025621E-03  2.07128267E-02
  8.10105536E-02  2.35962985E-01  4.42653446E-01  3.57064423E-01 -4.42115008E-05
 -1.22591041E-03 -1.05517725E-02 -6.74452633E-02 -1.71198607E-01  1.07329856E+00
  1.00000000E+00  1.00000000E+00  1.00000000E+00  4.11634896E-02  2.57762836E-01
  8.02419274E-01  1.00000000E+00  1.00000000E+00  1.00000000E+00  1.00000000E+00
  1.00000000E+00  1.00000000E+00  1.00000000E+00  1.00000000E+00
Coordinates of each shell                  R   N=         195
 -4.24893848E+00  8.19969008E-01 -4.82404537E-02 -4.24893848E+00  8.19969008E-01
 -4.82404537E-02 -4.24893848E+00  8.19969008E-01 -4.82404537E-02 -4.24893848E+00
  8.19969008E-01 -4.82404537E-02 -4.24893848E+00  8.19969008E-01 -4.82404537E-02
 -4.24893848E+00  8.19969008E-01 -4.82404537E-02 -4.24893848E+00  8.19969008E-01
 -4.82404537E-02 -4.24893848E+00  8.19969008E-01 -4.82404537E-02 -4.24893848E+00
  8.19969008E-01 -4.82404537E-02 -3.01972753E+00 -5.37176098E-01 -3.73281413E-02
 -3.01972753E+00 -5.37176098E-01 -3.73281413E-02 -3.01972753E+00 -5.37176098E-01
 -3.73281413E-02 -3.01972753E+00 -5.37176098E-01 -3.73281413E-02 -3.01972753E+00
 -5.37176098E-01 -3.73281413E-02 -3.01972753E+00 -5.37176098E-01 -3.73281413E-02
 -3.01972753E+00 -5.37176098E-01 -3.73281413E-02 -3.01972753E+00 -5.37176098E-01
 -3.73281413E-02 -3.01972753E+00 -5.37176098E-01 -3.73281413E-02 -3.01972753E+00
 -5.37176098E-01 -3.73281413E-02 -3.01972753E+00 -5.37176098E-01 -3.73281413E-02
 -3.01972753E+00 -5.37176098E-01 -3.73281413E-02 -3.01972753E+00 -5.37176098E-01
 -3.73281413E-02 -3.01972753E+00 -5.37176098E-01 -3.73281413E-02 -7.56991082E-01
  1.02260694E+00  4.20169344E-02 -7.56991082E-01  1.02260694E+00  4.20169344E-02
 -7.56991082E-01  1.02260694E+00  4.20169344E-02 -7.56991082E-01  1.02260694E+00
  4.20169344E-02 -7.56991082E-01  1.02260694E+00  4.20169344E-02 -7.56991082E-01
  1.02260694E+00  4.20169344E-02 -7.56991082E-01  1.02260694E+00  4.20169344E-02
 -7.56991082E-01  1.02260694E+00  4.20169344E-02 -7.56991082E-01  1.02260694E+00
  4.20169344E-02 -7.56991082E-01  1.02260694E+00  4.20169344E-02 -7.56991082E-01
  1.02260694E+00  4.20169344E-02 -7.56991082E-01  1.02260694E+00  4.20169344E-02
 -7.56991082E-01  1.02260694E+00  4.20169344E-02 -7.56991082E-01  1.02260694E+00
  4.20169344E-02  1.25476147E+00 -8.61999350E-01  6.47904086E-02  1.25476147E+00
 -8.61999350E-01  6.47904086E-02  1.25476147E+00 -8.61999350E-01  6.47904086E-02
  1.25476147E+00 -8.61999350E-01  6.47904086E-02  1.25476147E+00 -8.61999350E-01
  6.47904086E-02  1.25476147E+00 -8.61999350E-01  6.47904086E-02  1.25476147E+00
 -8.61999350E-01  6.47904086E-02  1.25476147E+00 -8.61999350E-01  6.47904086E-02
  1.25476147E+00 -8.61999350E-01  6.47904086E-02  1.25476147E+00 -8.61999350E-01
  6.47904086E-02  1.25476147E+00 -8.61999350E-01  6.47904086E-02  1.25476147E+00
 -8.61999350E-01  6.47904086E-02  1.25476147E+00 -8.61999350E-01  6.47904086E-02
  1.25476147E+00 -8.61999350E-01  6.47904086E-02  3.20991964E+00  1.66322463E-01
 -5.53503439E-02  3.20991964E+00  1.66322463E-01 -5.53503439E-02  3.20991964E+00
  1.66322463E-01 -5.53503439E-02  3.20991964E+00  1.66322463E-01 -5.53503439E-02
  3.20991964E+00  1.66322463E-01 -5.53503439E-02  3.20991964E+00  1.66322463E-01
 -5.53503439E-02  3.20991964E+00  1.66322463E-01 -5.53503439E-02  3.20991964E+00
  1.66322463E-01 -5.53503439E-02  3.20991964E+00  1.66322463E-01 -5.53503439E-02
  3.20991964E+00  1.66322463E-01 -5.53503439E-02  3.20991964E+00  1.66322463E-01
 -5.53503439E-02  3.20991964E+00  1.66322463E-01 -5.53503439E-02  3.20991964E+00
  1.66322463E-01 -5.53503439E-02  3.20991964E+00  1.66322463E-01 -5.53503439E-02
Num ILSW                                   I              100
ILSW                                       I   N=         100
           0           0           0           0           2           0
           0           0           0           0           0          -1
           5           0           0           0           0           0
           0           0           0           0           0           0
           1           0           0           0           0           0
           0           0      100000           0          -1           0
           0           0           0           0           0           0
           0           0           0           1           0           0
           0 -2000000000           1           0           0           0
           0           0           4          52           0           0
           0           0           0           0           0           0
           0           0           0           5           0           1
           0           0           0           0           0           0
           0           0           0           0           0           0
           0           0           0           0           0           0
           0           0           0           0           0           0
           0           0           0           0
Num RLSW                                   I               52
RLSW                                       R   N=          52
  1.00000000E+00  1.00000000E+00  1.00000000E+00  1.00000000E+00  1.00000000E+00
  0.00000000E+00  0.00000000E+00  1.00000000E+00  0.00000000E+00  0.00000000E+00
  0.00000000E+00  0.00000000E+00  1.00000000E+00  0.00000000E+00  0.00000000E+00
  0.00000000E+00  0.00000000E+00  1.00000000E+00  0.00000000E+00  0.00000000E+00
  0.00000000E+00  0.00000000E+00  1.00000000E+00  0.00000000E+00  0.00000000E+00
  0.00000000E+00  0.00000000E+00  1.00000000E+00  0.00000000E+00  0.00000000E+00
  0.00000000E+00  0.00000000E+00  1.00000000E+00  0.00000000E+00  0.00000000E+00
  0.00000000E+00  0.00000000E+00  0.00000000E+00  1.00000000E+00  1.00000000E+00
  0.00000000E+00  1.00000000E+00  0.00000000E+00  0.00000000E+00  0.00000000E+00
  0.00000000E+00  0.00000000E+00  0.00000000E+00  0.00000000E+00  0.00000000E+00
  0.00000000E+00  0.00000000E+00
MxBond                                     I                2
NBond                                      I   N=           5
           1           2           2           2           1
IBond                                      I   N=          10
           2           0           1           3           2           4
           3           5           4           0
RBond                                      R   N=          10
  1.00000000E+00  0.00000000E+00  1.00000000E+00  1.00000000E+00  1.00000000E+00
  1.00000000E+00  1.00000000E+00  2.00000000E+00  2.00000000E+00  0.00000000E+00
Virial Ratio                               R      2.002351784979314E+00
SCF Energy                                 R     -2.795015826762636E+02
MP2 Energy                                 R     -2.804465755889838E+02
Total Energy                               R     -2.804465755889838E+02
Post-SCF wavefunction norm                 R      1.120208387387643E+00
RMS Density                                R      9.333717762416489E-09
Job Status                                 I                1
Nuclear derivative order                   I                0
External E-field                           R   N=          35
  0.00000000E+00  0.00000000E+00  0.00000000E+00  0.00000000E+00  0.00000000E+00
  0.00000000E+00  0.00000000E+00  0.00000000E+00  0.00000000E+00  0.00000000E+00
  0.00000000E+00  0.00000000E+00  0.00000000E+00  0.00000000E+00  0.00000000E+00
  0.00000000E+00  0.00000000E+00  0.00000000E+00  0.00000000E+00  0.00000000E+00
  0.00000000E+00  0.00000000E+00  0.00000000E+00  0.00000000E+00  0.00000000E+00
  0.00000000E+00  0.00000000E+00  0.00000000E+00  0.00000000E+00  0.00000000E+00
  0.00000000E+00  0.00000000E+00  0.00000000E+00  0.00000000E+00  0.00000000E+00
IOpCl                                      I                0
IROHF                                      I                0
Alpha Orbital Energies                     R   N=         207
 -2.06907542E+01 -2.06843809E+01 -2.06599935E+01 -1.58127771E+01 -1.62404630E+00
 -1.49571493E+00 -1.25439240E+00 -9.48062991E-01 -7.72760733E-01 -7.59158576E-01
 -7.12054018E-01 -6.79090413E-01 -6.20542845E-01 -5.89364772E-01 -4.85221432E-01
 -4.72486673E-01  2.96289236E-02  7.15594135E-02  8.60077773E-02  1.01716365E-01
  1.32399274E-01  1.35409777E-01  1.44095485E-01  1.54543099E-01  1.78087815E-01
  1.94119290E-01  1.99559936E-01  2.06596646E-01  2.20901284E-01  2.34537464E-01
  2.38451628E-01  2.65579916E-01  2.93426627E-01  3.03272124E-01  3.11443768E-01
  3.43406254E-01  3.49868673E-01  3.87201363E-01  4.21373112E-01  4.30852500E-01
  5.25632786E-01  5.31065855E-01  5.58352805E-01  5.81316961E-01  6.26011567E-01
  6.38433925E-01  6.72321197E-01  6.86826691E-01  7.06469659E-01  7.11340156E-01
  7.24936600E-01  7.29749661E-01  7.44744916E-01  7.89935391E-01  7.94055280E-01
  8.07964618E-01  8.15214731E-01  8.30218922E-01  8.68097454E-01  9.07918772E-01
  9.21919995E-01  9.26338782E-01  9.56200721E-01  9.76276888E-01  9.85311834E-01
  1.01616899E+00  1.04992758E+00  1.05523933E+00  1.08480890E+00  1.11702556E+00
  1.14005685E+00  1.19036116E+00  1.22155661E+00  1.23222836E+00  1.33839914E+00
  1.35105628E+00  1.38769076E+00  1.45200676E+00  1.48754186E+00  1.50862661E+00
  1.53807589E+00  1.56550836E+00  1.58138947E+00  1.61323393E+00  1.66327473E+00
  1.66914885E+00  1.70384569E+00  1.79172802E+00  1.82887836E+00  1.83731727E+00
  1.87964644E+00  1.91077052E+00  1.95601097E+00  1.99113407E+00  2.00746912E+00
  2.07755168E+00  2.12007930E+00  2.13088081E+00  2.15110220E+00  2.22532890E+00
  2.26397702E+00  2.26559379E+00  2.28991098E+00  2.31406345E+00  2.34487845E+00
  2.38641725E+00  2.41937532E+00  2.43246181E+00  2.45398160E+00  2.46270118E+00
  2.47740067E+00  2.50237440E+00  2.59027412E+00  2.59649302E+00  2.61900654E+00
  2.62451984E+00  2.63532035E+00  2.66683071E+00  2.75544332E+00  2.82158093E+00
  2.85426837E+00  2.88524088E+00  2.89969779E+00  2.92293947E+00  2.96112349E+00
  3.02654569E+00  3.06891475E+00  3.12182895E+00  3.20502780E+00  3.22588343E+00
  3.31547456E+00  3.34206989E+00  3.51545313E+00  3.64085291E+00  3.83711187E+00
  3.84649047E+00  4.14887942E+00  4.16212027E+00  4.18401287E+00  4.25684714E+00
  4.35178783E+00  4.39346791E+00  4.46411179E+00  4.51920075E+00  4.65918836E+00
  4.70988678E+00  4.80564448E+00  4.82428737E+00  4.82754293E+00  4.89826937E+00
  5.02280457E+00  5.07546267E+00  5.10436199E+00  5.14599650E+00  5.17908877E+00
  5.24344927E+00  5.27272495E+00  5.30617396E+00  5.32927230E+00  5.35517740E+00
  5.60603922E+00  5.67407410E+00  5.76895009E+00  5.82888132E+00  5.95789684E+00
  6.16893016E+00  6.30952341E+00  6.33751569E+00  6.39420118E+00  6.49348566E+00
  6.50539539E+00  6.61436197E+00  6.66747408E+00  6.69889570E+00  6.75692886E+00
  6.76384774E+00  6.83243851E+00  6.89814312E+00  7.01428521E+00  7.05442285E+00
  7.05834378E+00  7.09024558E+00  7.12490841E+00  7.15167914E+00  7.18156703E+00
  7.22528222E+00  7.24190225E+00  7.30775549E+00  7.32597677E+00  7.34805107E+00
  7.39932521E+00  7.43190085E+00  7.48374457E+00  7.59394006E+00  7.62552547E+00
  7.62991749E+00  7.66826977E+00  7.78971706E+00  7.88647236E+00  8.09219576E+00
  8.31344911E+00  8.40880856E+00  8.54360005E+00  1.33926726E+01  1.43910676E+01
  1.51627911E+01  1.61502583E+01
Alpha MO coefficients                      R   N=       42849
  9.19801613E-05 -6.45546556E-04 -7.30040960E-04 -4.71408242E-06  3.32471744E-05
 -8.83686954E-06  2.02182408E-07 -1.42033636E-06  7.55407863E-05 -2.17785257E-06
 -9.18748036E-05 -2.27260264E-05 -1.83594208E-06  3.18324965E-05 -2.74786022E-06
 -2.08483716E-06  5.79148769E-06 -5.36567492E-05 -5.51644839E-06  1.23192899E-06
 -3.55938729E-06  7.23388772E-05 -1.67098273E-04  4.60365963E-03 -2.81934587E-04
  1.54060288E-05  1.55943201E-03  1.82690013E-03 -8.97637452E-05 -5.71263121E-05
 -3.61194430E-06  5.16933949E-04  3.38280183E-04  2.00939536E-05  4.07234133E-04
  1.29672411E-03  2.71869763E-05  2.86080687E-04  2.91702210E-04  7.45820483E-06
  2.87317282E-05 -2.61695011E-06 -2.29969778E-06 -1.02250199E-05 -5.33921438E-05
 -3.77230022E-04  3.29566099E-05  2.71618491E-05  1.84814177E-04  7.16497908E-04
 -4.46466248E-04  1.76394346E-05  1.82826604E-05  5.42268475E-05  2.34516902E-04
 -5.21518095E-06 -7.17016115E-05 -3.72116966E-05  2.78049185E-06  7.25256370E-06
 -3.35629136E-05  1.04175368E-04 -2.08354230E-05 -1.86774883E-04 -1.73212641E-04
  2.89810158E-06  2.37601939E-05 -1.65646667E-04  3.16008624E-04  9.76910442E-01
 -9.21690775E-03  4.33189557E-02  2.04546317E-03 -9.19319381E-04 -3.93167972E-04
 -1.97842842E-03 -2.63888805E-05  3.29304950E-04  1.96697053E-03  3.18830528E-05
  6.27198883E-04 -9.84302415E-04  1.26166206E-05  1.15627020E-04  7.12826826E-05
  4.31487293E-06  4.64011407E-05 -2.73254997E-06 -2.44961004E-06  1.01256196E-05
 -3.98712805E-05  7.46137529E-04 -4.45462520E-05 -1.89933921E-05 -4.39337593E-04
 -1.08436200E-04 -3.58777705E-04  4.46704026E-06  1.22369338E-06 -4.51010585E-04
 -1.90644293E-04 -2.81734860E-06 -8.90462514E-06 -6.73975367E-05  2.59634208E-06
  4.92959048E-06  1.90285408E-06  4.19322199E-05 -1.85435695E-06 -3.13185712E-05
  3.69910876E-06 -1.88821339E-06  7.86984175E-06  2.86230488E-05  3.34109545E-04
  3.92915953E-05  4.72321740E-05 -2.64224709E-04 -7.08222842E-04 -1.47728993E-04
  7.96240774E-05 -6.22185811E-05 -1.67582614E-06 -6.38114134E-04  4.09412307E-04
  1.20798087E-05  9.58085860E-04  1.04891785E-04  1.89971450E-05  1.16651985E-04
  5.05191669E-05  1.15242423E-05 -1.80600981E-05  2.41532515E-06 -1.25307046E-06
  5.65231972E-06 -3.27057481E-05 -3.29428251E-04  7.32511205E-06  6.02263791E-06
 -1.18047563E-04 -8.30210337E-04 -3.62595930E-05 -1.69551222E-05  9.97764293E-06
 -8.04113835E-05  1.25554233E-04  4.84617213E-07  8.80071323E-05 -8.41142480E-05
  1.79479877E-06  4.75493760E-06  1.08973606E-04  1.05200919E-04  1.10272322E-05
  8.88397996E-05 -1.24949454E-04 -1.56346763E-05  1.11436879E-05  4.08301994E-04
  9.86327952E-05 -2.66014801E-03  1.20670338E-04 -1.27076187E-04 -2.39708181E-04
  1.40356950E-04  2.30848968E-05 -1.75122914E-05 -1.90863164E-06 -1.52621963E-04
  9.05776914E-05  1.40817414E-05 -3.12775128E-04  2.74996386E-05 -1.34725306E-05
 -1.16870980E-04 -5.51936189E-05 -8.33438037E-06 -3.44433372E-06  1.19662532E-06
  2.56741022E-07 -4.17114104E-06 -1.73191169E-05  1.24606787E-06 -1.11574807E-05
  2.28838388E-06  1.08059454E-04  5.04493971E-05 -1.00439958E-04  4.12190254E-06
 -7.79692071E-06  2.05513510E-04  1.09341497E-04  1.22024908E-06 -1.04629611E-05
 -1.19245297E-05  1.06829801E-06 -2.26440782E-06  9.79255125E-06  7.85258115E-06
 -2.12281833E-06 -3.59989729E-07  5.52787087E-05 -2.72227860E-06  7.64576842E-06
 -5.76407755E-05 -1.08053048E-04  3.83445269E-05 -9.70771378E-04 -4.79859066E-04
 -1.04802785E-05  8.57653507E-06  2.56197533E-05  3.46716198E-07 -1.59738632E-04
  2.16890128E-04 -2.87788872E-06 -4.62543069E-05  1.30704545E-04  1.37355115E-06
  2.55540018E-05 -3.28144697E-08  5.32690411E-07  1.40775592E-05  8.20244971E-06
 -2.69058563E-05  3.43048694E-07  1.08767046E-06  3.62794389E-05  3.02668592E-07
  1.12362807E-04  8.36957481E-05 -2.75845746E-05  7.32981510E-04  6.39155966E-04
 -9.57623072E-06 -3.89777294E-06  5.11730254E-08  4.91246938E-05  5.44351805E-05
 -1.37160101E-06 -7.96939313E-04  5.16341001E-04  2.19906366E-05 -5.03411323E-05
  6.12940811E-05  1.10046639E-05 -2.28747024E-06 -8.73317029E-07  6.08190512E-08
 -5.65519530E-06  1.56594462E-06 -3.49567515E-05  5.00470264E-06 -3.15514367E-07
  7.29679010E-05 -4.19787157E-05 -2.06639549E-05  1.67876906E-05  1.71099745E-06
 -2.30117213E-04 -2.04232511E-04  4.36682686E-07 -1.10838000E-05 -5.20648386E-07
 -4.26448637E-07  5.78087035E-07  1.81786525E-05  3.46119200E-06 -3.15793047E-06
  5.55170764E-05 -6.80780114E-06  7.37129904E-06  6.65601655E-07 -4.45773944E-05
  6.61024619E-05  2.69857551E-03  3.77775929E-05  9.51025294E-05 -7.47502246E-05
 -4.60269564E-04 -1.53356636E-05  8.05123117E-06 -6.15233928E-07  8.33968743E-05
 -6.61356382E-06  1.98711836E-06 -8.01149032E-05 -2.87475671E-04 -2.33708514E-05
  1.85315117E-04  5.83141091E-05 -6.75641596E-06 -8.67687154E-06 -1.88575897E-06
 -5.87067713E-08  2.54162200E-05  1.55004355E-05  4.63398150E-06  6.86446231E-06
  1.03889855E-07 -7.85619229E-05 -9.83656995E-05 -5.10558801E-06  1.06245461E-05
  1.83291389E-05 -2.59298366E-04 -1.50570258E-04 -1.50252635E-06 -2.24742702E-06
 -2.42054526E-06 -1.36286051E-06  4.51418818E-07  1.32196799E-05  2.95696797E-06
  3.61974315E-07  3.48752689E-05  3.04633798E-05  1.04230946E-05 -6.42062244E-06
 -2.01577308E-04  9.06903200E-06  2.58583141E-04  1.46449611E-03 -7.80334556E-05
 -1.53775826E-03  3.98363386E-04  1.15868762E-04  8.58258375E-05 -9.06176783E-06
  1.91657869E-03  9.16363607E-04 -1.07274583E-04 -1.29121051E-03 -4.41369643E-06
  3.25905126E-05  1.03850317E-04  1.46143360E-04 -6.39179133E-06 -1.22184132E-04
 -2.29628728E-05 -1.04639439E-05  1.60608064E-04  2.04359657E-04 -4.37444994E-04
 -8.56785864E-05 -5.34109702E-05  1.99346682E-04  8.74918617E-04  1.03190156E-05
  2.43340531E-05  3.86814340E-06 -2.14207848E-04 -2.88153908E-04 -2.94542275E-06
 -8.09156792E-06  1.29820339E-05  2.90140526E-06  9.15639587E-07 -6.13514806E-06
 -2.22189449E-05  3.47515108E-05 -8.68915399E-05 -1.53416083E-04 -1.69653824E-05
 -3.68187699E-05 -1.18976609E-04  2.12278821E-04  9.76648916E-01 -9.84964524E-03
  4.35677143E-02  4.50334448E-03 -4.45026969E-04 -2.00952675E-03 -8.89029911E-04
  1.22405554E-04  2.27204088E-03  9.31254286E-04 -1.25732976E-04 -9.13220942E-04
 -6.79076131E-04  8.23734888E-05  2.13838312E-05 -3.62528281E-05 -4.07113912E-06
 -2.31165998E-04 -1.87055886E-05 -2.03375577E-05  6.05793969E-05  8.81650578E-05
  3.87257122E-04  8.05697284E-05  1.97220806E-05 -6.42342045E-04 -6.73249352E-04
 -1.51149075E-04 -2.98809937E-05 -2.23140694E-05  9.08208667E-05  2.39347345E-04
  7.07145666E-06 -5.16994294E-05 -1.62705663E-05 -3.16884042E-06 -6.52831355E-06
  5.16041242E-06  2.49978378E-05  1.79578705E-05 -1.15043610E-04 -7.45303300E-05
 -2.03116339E-05 -1.64911408E-05  6.89186968E-05  2.24726862E-04  4.74851572E-04
  2.05867324E-03  1.16861484E-04  1.49471115E-05  1.79917423E-04 -1.73698698E-04
  2.40194560E-06  6.69400894E-04 -1.09035326E-03 -2.78875842E-06 -4.67643831E-05
 -4.56188522E-04 -1.14367469E-05 -2.54883271E-06  2.13754868E-06  1.11382968E-06
  3.68262791E-05  6.82066159E-05 -1.60305697E-04 -4.44342655E-06 -3.73623557E-06
 -1.78580783E-04 -5.06987373E-04  9.76829984E-01 -9.16328914E-03  4.34496878E-02
  1.67911829E-04 -1.13849571E-03  3.95452690E-04  2.08849950E-03  4.41671975E-05
 -4.98895992E-04 -1.96898618E-03 -4.33798197E-05  9.73705343E-04 -3.55195151E-04
  1.87175778E-05 -2.67569931E-05 -5.81535761E-05 -3.15381563E-06  2.93566643E-05
 -4.83399656E-06 -3.16742388E-06 -3.70710611E-05 -1.12035743E-04  7.56035040E-04
 -4.28713029E-05 -1.99584645E-05 -2.83503687E-04 -1.24402185E-04 -2.66588606E-04
  9.23275789E-06  1.04795380E-05  1.71223376E-04  1.24161953E-04  4.63576274E-06
  5.05629161E-05  3.90764983E-05 -1.40392678E-06 -3.01585219E-06 -2.96308611E-06
 -2.09882693E-05 -5.06010798E-07 -7.23946149E-05  9.89678698E-05 -2.07122673E-07
 -1.25888827E-05  8.90649639E-08 -2.72750950E-04 -4.69589916E-03 -2.10924032E-04