title                                                                   
SP        RMP2-FC                                                     Aug-CC-pVTZ         
Number of atoms                            I                5
Info1-9                                    I   N=           9
          33          24           0           0           0         110
           1           2           1
Full Title                                 C   N=           1
title       
Route                                      C   N=           4
#p SP mp2/aug-cc-pvtz density=current           
Charge                                     I                0
Multiplicity                               I                1
Number of electrons                        I               32
Number of alpha electrons                  I               16
Number of beta electrons                   I               16
Number of basis functions                  I              207
Number of independent functions            I              207
Number of point charges in /Mol/           I                0
Number of translation vectors              I                0
Atomic numbers                             I   N=           5
           1           8           8           7           8
Nuclear charges                            R   N=           5
  1.00000000E+00  8.00000000E+00  8.00000000E+00  7.00000000E+00  8.00000000E+00
Current cartesian coordinates              R   N=          15
  2.92483595E+00  3.16449775E+00 -5.90936415E-31  2.74777553E+00  1.36704895E+00
 -7.17327386E-31 -5.23173421E-17  1.27257859E+00  3.08967013E-31 -4.94250390E-01
 -1.43945467E+00 -1.14067705E-32 -2.68091093E+00 -1.77566693E+00  7.88348451E-31
Number of symbols in /Mol/                 I                0
Force Field                                I                0
Atom Types                                 C   N=           5
                                                            
Int Atom Types                             I   N=           5
           0           0           0           0           0
MM charges                                 R   N=           5
  0.00000000E+00  0.00000000E+00  0.00000000E+00  0.00000000E+00  0.00000000E+00
Integer atomic weights                     I   N=           5
           1          16          16          14          16
Real atomic weights                        R   N=           5
  1.00782504E+00  1.59949146E+01  1.59949146E+01  1.40030740E+01  1.59949146E+01
Atom fragment info                         I   N=           5
           0           0           0           0           0
Atom residue num                           I   N=           5
           0           0           0           0           0
Nuclear spins                              I   N=           5
           1           0           0           2           0
Nuclear ZEff                               R   N=           5
 -1.00000000E+00 -5.60000000E+00 -5.60000000E+00 -4.55000000E+00 -5.60000000E+00
Nuclear ZNuc                               R   N=           5
  1.00000000E+00  8.00000000E+00  8.00000000E+00  7.00000000E+00  8.00000000E+00
Nuclear QMom                               R   N=           5
  0.00000000E+00  0.00000000E+00  0.00000000E+00  2.04400000E+00  0.00000000E+00
Nuclear GFac                               R   N=           5
  2.79284600E+00  0.00000000E+00  0.00000000E+00  4.03761000E-01  0.00000000E+00
MicOpt                                     I   N=           5
          -1          -1          -1          -1          -1
Number of residues                         I                0
Number of secondary structures             I                0
SymInf integers                            I   N=          26
           1           2           1           1           1           1
           1          -1           0           0           0           0
           0           0           0           0           0           0
           0           0           0           0           0           0
           0           0
RotTr to input orientation                 R   N=          12
 -9.95183260E-01  7.21481362E-16 -9.80320353E-02  9.80320353E-02 -7.58033344E-16
 -9.95183260E-01 -7.92317725E-16 -1.00000000E+00  6.83653807E-16  2.60052562E+00
  0.00000000E+00  3.43598281E+00
Number of contracted shells                I               65
Number of primitive shells                 I              119
Pure/Cartesian d shells                    I                0
Pure/Cartesian f shells                    I                0
Highest angular momentum                   I                3
Largest degree of contraction              I                7
Shell types                                I   N=          65
           0           0           0           0           1           1
           1          -2          -2           0           0           0
           0           0           1           1           1           1
          -2          -2          -2          -3          -3           0
           0           0           0           0           1           1
           1           1          -2          -2          -2          -3
          -3           0           0           0           0           0
           1           1           1           1          -2          -2
          -2          -3          -3           0           0           0
           0           0           1           1           1           1
          -2          -2          -2          -3          -3
Number of primitives per shell             I   N=          65
           3           1           1           1           1           1
           1           1           1           7           6           1
           1           1           3           1           1           1
           1           1           1           1           1           7
           6           1           1           1           3           1
           1           1           1           1           1           1
           1           7           6           1           1           1
           3           1           1           1           1           1
           1           1           1           7           6           1
           1           1           3           1           1           1
           1           1           1           1           1
Shell to atom map                          I   N=          65
           1           1           1           1           1           1
           1           1           1           2           2           2
           2           2           2           2           2           2
           2           2           2           2           2           3
           3           3           3           3           3           3
           3           3           3           3           3           3
           3           4           4           4           4           4
           4           4           4           4           4           4
           4           4           4           5           5           5
           5           5           5           5           5           5
           5           5           5           5           5
Primitive exponents                        R   N=         119
  3.38700000E+01  5.09500000E+00  1.15900000E+00  3.25800000E-01  1.02700000E-01
  2.52600000E-02  1.40700000E+00  3.88000000E-01  1.02000000E-01  1.05700000E+00
  2.47000000E-01  1.53300000E+04  2.29900000E+03  5.22400000E+02  1.47300000E+02
  4.75500000E+01  1.67600000E+01  6.20700000E+00  5.22400000E+02  1.47300000E+02
  4.75500000E+01  1.67600000E+01  6.20700000E+00  6.88200000E-01  1.75200000E+00
  2.38400000E-01  7.37600000E-02  3.44600000E+01  7.74900000E+00  2.28000000E+00
  7.15600000E-01  2.14000000E-01  5.97400000E-02  2.31400000E+00  6.45000000E-01
  2.14000000E-01  1.42800000E+00  5.00000000E-01  1.53300000E+04  2.29900000E+03
  5.22400000E+02  1.47300000E+02  4.75500000E+01  1.67600000E+01  6.20700000E+00
  5.22400000E+02  1.47300000E+02  4.75500000E+01  1.67600000E+01  6.20700000E+00
  6.88200000E-01  1.75200000E+00  2.38400000E-01  7.37600000E-02  3.44600000E+01
  7.74900000E+00  2.28000000E+00  7.15600000E-01  2.14000000E-01  5.97400000E-02
  2.31400000E+00  6.45000000E-01  2.14000000E-01  1.42800000E+00  5.00000000E-01
  1.14200000E+04  1.71200000E+03  3.89300000E+02  1.10000000E+02  3.55700000E+01
  1.25400000E+01  4.64400000E+00  3.89300000E+02  1.10000000E+02  3.55700000E+01
  1.25400000E+01  4.64400000E+00  5.11800000E-01  1.29300000E+00  1.78700000E-01
  5.76000000E-02  2.66300000E+01  5.94800000E+00  1.74200000E+00  5.55000000E-01
  1.72500000E-01  4.91000000E-02  1.65400000E+00  4.69000000E-01  1.51000000E-01
  1.09300000E+00  3.64000000E-01  1.53300000E+04  2.29900000E+03  5.22400000E+02
  1.47300000E+02  4.75500000E+01  1.67600000E+01  6.20700000E+00  5.22400000E+02
  1.47300000E+02  4.75500000E+01  1.67600000E+01  6.20700000E+00  6.88200000E-01
  1.75200000E+00  2.38400000E-01  7.37600000E-02  3.44600000E+01  7.74900000E+00
  2.28000000E+00  7.15600000E-01  2.14000000E-01  5.97400000E-02  2.31400000E+00
  6.45000000E-01  2.14000000E-01  1.42800000E+00  5.00000000E-01
Contraction coefficients                   R   N=         119
  2.54948632E-02  1.90362766E-01  8.52162022E-01  1.00000000E+00  1.00000000E+00
  1.00000000E+00  1.00000000E+00  1.00000000E+00  1.00000000E+00  1.00000000E+00
  1.00000000E+00  5.19808943E-04  4.02025621E-03  2.07128267E-02  8.10105536E-02
  2.35962985E-01  4.42653446E-01  3.57064423E-01 -4.42115008E-05 -1.22591041E-03
 -1.05517725E-02 -6.74452633E-02 -1.71198607E-01  1.07329856E+00  1.00000000E+00
  1.00000000E+00  1.00000000E+00  4.11634896E-02  2.57762836E-01  8.02419274E-01
  1.00000000E+00  1.00000000E+00  1.00000000E+00  1.00000000E+00  1.00000000E+00
  1.00000000E+00  1.00000000E+00  1.00000000E+00  5.19808943E-04  4.02025621E-03
  2.07128267E-02  8.10105536E-02  2.35962985E-01  4.42653446E-01  3.57064423E-01
 -4.42115008E-05 -1.22591041E-03 -1.05517725E-02 -6.74452633E-02 -1.71198607E-01
  1.07329856E+00  1.00000000E+00  1.00000000E+00  1.00000000E+00  4.11634896E-02
  2.57762836E-01  8.02419274E-01  1.00000000E+00  1.00000000E+00  1.00000000E+00
  1.00000000E+00  1.00000000E+00  1.00000000E+00  1.00000000E+00  1.00000000E+00
  5.34563860E-04  4.13435660E-03  2.12335358E-02  8.25006224E-02  2.38138871E-01
  4.42551547E-01  3.53757422E-01 -4.89867350E-05 -1.19527323E-03 -1.03490714E-02
 -6.48680190E-02 -1.71552477E-01  1.07289568E+00  1.00000000E+00  1.00000000E+00
  1.00000000E+00  3.98072123E-02  2.49002660E-01  8.10479727E-01  1.00000000E+00
  1.00000000E+00  1.00000000E+00  1.00000000E+00  1.00000000E+00  1.00000000E+00
  1.00000000E+00  1.00000000E+00  5.19808943E-04  4.02025621E-03  2.07128267E-02
  8.10105536E-02  2.35962985E-01  4.42653446E-01  3.57064423E-01 -4.42115008E-05
 -1.22591041E-03 -1.05517725E-02 -6.74452633E-02 -1.71198607E-01  1.07329856E+00
  1.00000000E+00  1.00000000E+00  1.00000000E+00  4.11634896E-02  2.57762836E-01
  8.02419274E-01  1.00000000E+00  1.00000000E+00  1.00000000E+00  1.00000000E+00
  1.00000000E+00  1.00000000E+00  1.00000000E+00  1.00000000E+00
Coordinates of each shell                  R   N=         195
  2.92483595E+00  3.16449775E+00 -3.82213666E-31  2.92483595E+00  3.16449775E+00
 -3.82213666E-31  2.92483595E+00  3.16449775E+00 -3.82213666E-31  2.92483595E+00
  3.16449775E+00 -3.82213666E-31  2.92483595E+00  3.16449775E+00 -3.82213666E-31
  2.92483595E+00  3.16449775E+00 -3.82213666E-31  2.92483595E+00  3.16449775E+00
 -3.82213666E-31  2.92483595E+00  3.16449775E+00 -3.82213666E-31  2.92483595E+00
  3.16449775E+00 -3.82213666E-31  2.74777553E+00  1.36704895E+00 -5.16664901E-31
  2.74777553E+00  1.36704895E+00 -5.16664901E-31  2.74777553E+00  1.36704895E+00
 -5.16664901E-31  2.74777553E+00  1.36704895E+00 -5.16664901E-31  2.74777553E+00
  1.36704895E+00 -5.16664901E-31  2.74777553E+00  1.36704895E+00 -5.16664901E-31
  2.74777553E+00  1.36704895E+00 -5.16664901E-31  2.74777553E+00  1.36704895E+00
 -5.16664901E-31  2.74777553E+00  1.36704895E+00 -5.16664901E-31  2.74777553E+00
  1.36704895E+00 -5.16664901E-31  2.74777553E+00  1.36704895E+00 -5.16664901E-31
  2.74777553E+00  1.36704895E+00 -5.16664901E-31  2.74777553E+00  1.36704895E+00
 -5.16664901E-31  2.74777553E+00  1.36704895E+00 -5.16664901E-31  9.66003819E-19
  1.27257859E+00  1.24881504E-31  9.66003819E-19  1.27257859E+00  1.24881504E-31
  9.66003819E-19  1.27257859E+00  1.24881504E-31  9.66003819E-19  1.27257859E+00
  1.24881504E-31  9.66003819E-19  1.27257859E+00  1.24881504E-31  9.66003819E-19
  1.27257859E+00  1.24881504E-31  9.66003819E-19  1.27257859E+00  1.24881504E-31
  9.66003819E-19  1.27257859E+00  1.24881504E-31  9.66003819E-19  1.27257859E+00
  1.24881504E-31  9.66003819E-19  1.27257859E+00  1.24881504E-31  9.66003819E-19
  1.27257859E+00  1.24881504E-31  9.66003819E-19  1.27257859E+00  1.24881504E-31
  9.66003819E-19  1.27257859E+00  1.24881504E-31  9.66003819E-19  1.27257859E+00
  1.24881504E-31 -4.94250390E-01 -1.43945467E+00 -2.41931395E-32 -4.94250390E-01
 -1.43945467E+00 -2.41931395E-32 -4.94250390E-01 -1.43945467E+00 -2.41931395E-32
 -4.94250390E-01 -1.43945467E+00 -2.41931395E-32 -4.94250390E-01 -1.43945467E+00
 -2.41931395E-32 -4.94250390E-01 -1.43945467E+00 -2.41931395E-32 -4.94250390E-01
 -1.43945467E+00 -2.41931395E-32 -4.94250390E-01 -1.43945467E+00 -2.41931395E-32
 -4.94250390E-01 -1.43945467E+00 -2.41931395E-32 -4.94250390E-01 -1.43945467E+00
 -2.41931395E-32 -4.94250390E-01 -1.43945467E+00 -2.41931395E-32 -4.94250390E-01
 -1.43945467E+00 -2.41931395E-32 -4.94250390E-01 -1.43945467E+00 -2.41931395E-32
 -4.94250390E-01 -1.43945467E+00 -2.41931395E-32 -2.68091093E+00 -1.77566693E+00
  4.60729102E-31 -2.68091093E+00 -1.77566693E+00  4.60729102E-31 -2.68091093E+00
 -1.77566693E+00  4.60729102E-31 -2.68091093E+00 -1.77566693E+00  4.60729102E-31
 -2.68091093E+00 -1.77566693E+00  4.60729102E-31 -2.68091093E+00 -1.77566693E+00
  4.60729102E-31 -2.68091093E+00 -1.77566693E+00  4.60729102E-31 -2.68091093E+00
 -1.77566693E+00  4.60729102E-31 -2.68091093E+00 -1.77566693E+00  4.60729102E-31
 -2.68091093E+00 -1.77566693E+00  4.60729102E-31 -2.68091093E+00 -1.77566693E+00
  4.60729102E-31 -2.68091093E+00 -1.77566693E+00  4.60729102E-31 -2.68091093E+00
 -1.77566693E+00  4.60729102E-31 -2.68091093E+00 -1.77566693E+00  4.60729102E-31
Num ILSW                                   I              100
ILSW                                       I   N=         100
           0           0           0           0           2           0
           0           0           0           0           0          -1
           5           0           0           0           0           0
           0           0           0           0           0           0
           1           0           0           0           0           0
           0           0      100000           0          -1           0
           0           0           0           0           0           0
           0           0           0           1           0           0
           0 -2000000000           1           0           0           0
           0           0           4          52           0           0
           0           0           0           0           0           0
           0           0           0           5           0           1
           0           0           0           0           0           0
           0           0           0           0           0           0
           0           0           0           0           0           0
           0           0           0           0           0           0
           0           0           0           0
Num RLSW                                   I               52
RLSW                                       R   N=          52
  1.00000000E+00  1.00000000E+00  1.00000000E+00  1.00000000E+00  1.00000000E+00
  0.00000000E+00  0.00000000E+00  1.00000000E+00  0.00000000E+00  0.00000000E+00
  0.00000000E+00  0.00000000E+00  1.00000000E+00  0.00000000E+00  0.00000000E+00
  0.00000000E+00  0.00000000E+00  1.00000000E+00  0.00000000E+00  0.00000000E+00
  0.00000000E+00  0.00000000E+00  1.00000000E+00  0.00000000E+00  0.00000000E+00
  0.00000000E+00  0.00000000E+00  1.00000000E+00  0.00000000E+00  0.00000000E+00
  0.00000000E+00  0.00000000E+00  1.00000000E+00  0.00000000E+00  0.00000000E+00
  0.00000000E+00  0.00000000E+00  0.00000000E+00  1.00000000E+00  1.00000000E+00
  0.00000000E+00  1.00000000E+00  0.00000000E+00  0.00000000E+00  0.00000000E+00
  0.00000000E+00  0.00000000E+00  0.00000000E+00  0.00000000E+00  0.00000000E+00
  0.00000000E+00  0.00000000E+00
MxBond                                     I                2
NBond                                      I   N=           5
           1           2           2           2           1
IBond                                      I   N=          10
           2           0           1           3           2           4
           3           5           4           0
RBond                                      R   N=          10
  1.00000000E+00  0.00000000E+00  1.00000000E+00  1.00000000E+00  1.00000000E+00
  1.00000000E+00  1.00000000E+00  2.00000000E+00  2.00000000E+00  0.00000000E+00
Virial Ratio                               R      2.002264299732756E+00
SCF Energy                                 R     -2.795021529803518E+02
MP2 Energy                                 R     -2.804465704267510E+02
Total Energy                               R     -2.804465704267510E+02
Post-SCF wavefunction norm                 R      1.119995677987253E+00
RMS Density                                R      3.787625612287984E-09
Job Status                                 I                1
Nuclear derivative order                   I                0
External E-field                           R   N=          35
  0.00000000E+00  0.00000000E+00  0.00000000E+00  0.00000000E+00  0.00000000E+00
  0.00000000E+00  0.00000000E+00  0.00000000E+00  0.00000000E+00  0.00000000E+00
  0.00000000E+00  0.00000000E+00  0.00000000E+00  0.00000000E+00  0.00000000E+00
  0.00000000E+00  0.00000000E+00  0.00000000E+00  0.00000000E+00  0.00000000E+00
  0.00000000E+00  0.00000000E+00  0.00000000E+00  0.00000000E+00  0.00000000E+00
  0.00000000E+00  0.00000000E+00  0.00000000E+00  0.00000000E+00  0.00000000E+00
  0.00000000E+00  0.00000000E+00  0.00000000E+00  0.00000000E+00  0.00000000E+00
IOpCl                                      I                0
IROHF                                      I                0
Alpha Orbital Energies                     R   N=         207
 -2.06912416E+01 -2.06845525E+01 -2.06589361E+01 -1.58131091E+01 -1.62434221E+00
 -1.49741193E+00 -1.25702900E+00 -9.48375204E-01 -7.73926111E-01 -7.60225963E-01
 -7.12107320E-01 -6.81367438E-01 -6.20854943E-01 -5.90062262E-01 -4.85681667E-01
 -4.72862875E-01  2.98731199E-02  7.14690003E-02  8.58850562E-02  1.01682172E-01
  1.33858088E-01  1.33924125E-01  1.44604977E-01  1.55036096E-01  1.78063680E-01
  1.94138504E-01  1.99763549E-01  2.06369800E-01  2.20767977E-01  2.35053773E-01
  2.37255215E-01  2.66358299E-01  2.93668171E-01  3.04491716E-01  3.10965760E-01
  3.43321177E-01  3.49014803E-01  3.87380695E-01  4.23483468E-01  4.33571111E-01
  5.27232768E-01  5.29071432E-01  5.58457556E-01  5.81435783E-01  6.25793751E-01
  6.38263022E-01  6.74291494E-01  6.85672228E-01  7.06336596E-01  7.11635341E-01
  7.25219154E-01  7.29474202E-01  7.44936495E-01  7.91194437E-01  7.92234306E-01
  8.10519609E-01  8.12566822E-01  8.30769626E-01  8.68039809E-01  9.07996082E-01
  9.22622008E-01  9.26513615E-01  9.57678346E-01  9.75928955E-01  9.86406842E-01
  1.01924030E+00  1.05137439E+00  1.05487708E+00  1.08355432E+00  1.11972086E+00
  1.14275601E+00  1.18903741E+00  1.22158198E+00  1.23521756E+00  1.33844786E+00
  1.34976287E+00  1.38602400E+00  1.45718878E+00  1.49144074E+00  1.51123648E+00
  1.53766159E+00  1.56698472E+00  1.57891515E+00  1.61483732E+00  1.66294684E+00
  1.66900694E+00  1.70339320E+00  1.79350171E+00  1.83171877E+00  1.83441156E+00
  1.87785662E+00  1.91139913E+00  1.96295925E+00  1.99263525E+00  2.00842166E+00
  2.07784654E+00  2.12250046E+00  2.13184774E+00  2.14986966E+00  2.22514187E+00
  2.26315262E+00  2.26551617E+00  2.28960245E+00  2.31569758E+00  2.34474449E+00
  2.38880278E+00  2.42452919E+00  2.42992616E+00  2.45408107E+00  2.46304764E+00
  2.47737662E+00  2.50222593E+00  2.58447629E+00  2.59711104E+00  2.62035158E+00
  2.62636015E+00  2.63416253E+00  2.66566699E+00  2.75748036E+00  2.82063258E+00
  2.85622263E+00  2.88489177E+00  2.89362306E+00  2.92541808E+00  2.95768571E+00
  3.02731450E+00  3.06902183E+00  3.11989341E+00  3.20428250E+00  3.22772678E+00
  3.31851435E+00  3.34299889E+00  3.51649224E+00  3.64847602E+00  3.83860774E+00
  3.85904159E+00  4.16063089E+00  4.16755602E+00  4.18686742E+00  4.25891982E+00
  4.36311642E+00  4.39603006E+00  4.46770650E+00  4.52407154E+00  4.66319988E+00
  4.71569384E+00  4.80650677E+00  4.82415720E+00  4.85116491E+00  4.89600070E+00
  5.02319329E+00  5.07754649E+00  5.11461932E+00  5.15243558E+00  5.18645382E+00
  5.26238984E+00  5.27565957E+00  5.31138166E+00  5.35879629E+00  5.36229815E+00
  5.61344769E+00  5.67362059E+00  5.77318899E+00  5.83635964E+00  5.95889935E+00
  6.16580025E+00  6.30905388E+00  6.33632357E+00  6.39781190E+00  6.49358921E+00
  6.50541331E+00  6.61588712E+00  6.66674138E+00  6.69975189E+00  6.75706067E+00
  6.76308612E+00  6.83301147E+00  6.89820785E+00  7.02114338E+00  7.05753182E+00
  7.05902756E+00  7.09141769E+00  7.12697609E+00  7.15259661E+00  7.18154328E+00
  7.22840427E+00  7.26558451E+00  7.32033393E+00  7.32582766E+00  7.35209412E+00
  7.39879623E+00  7.43384824E+00  7.48443641E+00  7.60892292E+00  7.62072631E+00
  7.62957243E+00  7.67018033E+00  7.80509999E+00  7.88736827E+00  8.09849401E+00
  8.31841380E+00  8.42616921E+00  8.54906824E+00  1.33945780E+01  1.44057195E+01
  1.53597486E+01  1.61523905E+01
Alpha MO coefficients                      R   N=       42849
  9.34376114E-05 -6.43709480E-04 -7.36337907E-04 -4.93766567E-06 -2.02027706E-05
 -2.57711955E-05  0.00000000E+00 -7.21218564E-05  4.63652240E-05  0.00000000E+00
  6.74674285E-05  3.10295907E-05  0.00000000E+00  3.21999252E-05  0.00000000E+00
  0.00000000E+00 -5.10807618E-05  2.40268870E-05 -7.56562419E-06  0.00000000E+00
  0.00000000E+00 -1.41456740E-04  1.33611030E-04  4.37943669E-03 -2.85279440E-04
  5.15365457E-06  1.55383089E-03  1.83982225E-03  1.06516277E-04  7.29292655E-06
  0.00000000E+00 -6.17207458E-04 -4.20574083E-05  0.00000000E+00 -1.06517392E-03
  8.03385763E-04  0.00000000E+00 -3.97320971E-04  7.55000062E-05  0.00000000E+00
  2.92981390E-05  0.00000000E+00  0.00000000E+00 -5.41758269E-05  4.99359039E-06
 -3.79593645E-04  0.00000000E+00  0.00000000E+00  7.45029133E-04 -2.58390561E-05
 -4.46702778E-04  0.00000000E+00  0.00000000E+00  2.41384639E-04 -3.71533958E-06
  0.00000000E+00  8.05112942E-05  1.28543157E-05  0.00000000E+00  0.00000000E+00
 -1.09395666E-04 -3.06915806E-06  0.00000000E+00  2.52781005E-04 -2.90417378E-05
  0.00000000E+00  0.00000000E+00 -3.59896886E-04  5.31175262E-05  9.76912007E-01
 -9.21726939E-03  4.33190337E-02  2.04504972E-03 -9.23013814E-04  1.49550996E-03
 -1.35458085E-03  0.00000000E+00 -1.43870663E-03  1.38329188E-03  0.00000000E+00
  8.20910178E-05 -1.16314770E-03  0.00000000E+00 -1.47216463E-04 -2.45672947E-05
  0.00000000E+00  4.63235719E-05  0.00000000E+00  0.00000000E+00 -3.52519457E-05
  2.16155588E-05  7.47897303E-04  0.00000000E+00  0.00000000E+00 -2.34948960E-04
 -3.89922258E-04 -3.59193817E-04  0.00000000E+00  0.00000000E+00 -3.13916779E-04
 -3.74549960E-04  0.00000000E+00  4.74631757E-05 -4.90985554E-05  0.00000000E+00
  0.00000000E+00 -3.91577041E-05 -1.56612857E-05  0.00000000E+00  2.41994392E-05
  2.26922865E-05  0.00000000E+00  0.00000000E+00 -3.06048422E-04 -1.40565702E-04
  3.90036263E-05  4.57132645E-05 -2.64135027E-04 -6.98232902E-04 -1.40190493E-04
 -2.67288758E-05 -9.73591180E-05  0.00000000E+00  2.66081338E-04  7.08021631E-04
  0.00000000E+00 -8.32824048E-04 -4.75049903E-04  0.00000000E+00 -1.19388226E-04
 -2.57214825E-05  0.00000000E+00 -1.81505587E-05  0.00000000E+00  0.00000000E+00
 -2.95557618E-05  1.49312689E-05 -3.28693535E-04  0.00000000E+00  0.00000000E+00
 -8.26969366E-04  1.27401666E-04 -3.76361403E-05  0.00000000E+00  0.00000000E+00
  9.79091637E-05 -1.15263168E-04  0.00000000E+00 -2.02785731E-05 -1.19829532E-04
  0.00000000E+00  0.00000000E+00 -6.26837377E-05 -1.38187063E-04  0.00000000E+00
  1.41548502E-06 -1.53502258E-04  0.00000000E+00  0.00000000E+00  4.34408885E-05
 -4.15407295E-04 -2.53422564E-03  1.22184263E-04 -1.21280418E-04 -2.48262229E-04
  1.28604321E-04 -7.72155601E-06 -2.75512930E-05  0.00000000E+00  6.81943906E-05
  1.62454558E-04  0.00000000E+00  2.30071035E-04  1.97675633E-04  0.00000000E+00
  1.24536526E-04  2.06609440E-05  0.00000000E+00 -3.29821122E-06  0.00000000E+00
  0.00000000E+00 -1.78636836E-05  1.31455940E-06  9.11719223E-07  0.00000000E+00
  0.00000000E+00  7.93855060E-05  8.67154552E-05 -9.95447338E-05  0.00000000E+00
  0.00000000E+00  1.65694124E-04  1.60446699E-04  0.00000000E+00  1.59705297E-05
 -3.53260291E-06  0.00000000E+00  0.00000000E+00 -4.41373609E-06 -1.19698692E-05
  0.00000000E+00 -3.36345360E-05  4.54334844E-05  0.00000000E+00  0.00000000E+00
  8.32373786E-05  8.97530240E-05  3.84501077E-05 -1.01769529E-03 -5.08798754E-04
 -1.13750855E-05 -2.25168162E-05  1.75282209E-05  0.00000000E+00 -2.59524566E-06
  2.74496605E-04  0.00000000E+00 -4.31551357E-05  1.36334232E-04  0.00000000E+00
  2.62750927E-05  0.00000000E+00  0.00000000E+00  1.18867772E-05  1.09015958E-05
 -2.89473757E-05  0.00000000E+00  0.00000000E+00  1.04628606E-05  3.67467258E-05
  1.07732359E-04  8.62114621E-05 -2.78234378E-05  7.81431670E-04  6.73279949E-04
  1.02275502E-05  2.51559688E-06  0.00000000E+00 -7.21178486E-05  1.88154304E-05
  0.00000000E+00  3.38234737E-04  9.18175841E-04  0.00000000E+00  2.52092758E-06
  8.36758417E-05  0.00000000E+00 -2.33219412E-06  0.00000000E+00  0.00000000E+00
 -3.89105755E-07 -6.08952039E-06 -3.63090733E-05  0.00000000E+00  0.00000000E+00
 -1.93960413E-05  8.48396107E-05 -2.37259127E-05  0.00000000E+00  0.00000000E+00
 -2.69983585E-04 -1.62834411E-04  0.00000000E+00  9.16444101E-06  5.96860063E-06
  0.00000000E+00  0.00000000E+00  2.55538716E-06 -1.86306589E-05  0.00000000E+00
 -4.04753392E-05 -3.80240574E-05  0.00000000E+00  0.00000000E+00 -7.73887216E-05
  2.08946599E-05  2.57323363E-03  3.94462886E-05  8.95129594E-05 -6.94475979E-05
 -4.70365105E-04  7.31970016E-06  1.58778906E-05  0.00000000E+00 -6.27605901E-05
 -5.57541417E-05  0.00000000E+00  2.34034830E-04 -1.89903103E-04  0.00000000E+00
 -1.89235567E-04 -6.53674867E-05  0.00000000E+00 -8.71469899E-06  0.00000000E+00
  0.00000000E+00  2.24016497E-05  1.98164615E-05  4.51949959E-06  0.00000000E+00
  0.00000000E+00 -1.17717513E-04 -4.67678776E-05 -4.09482904E-06  0.00000000E+00
  0.00000000E+00 -2.23067035E-04 -2.07196515E-04  0.00000000E+00  3.30384432E-06
 -5.31775517E-07  0.00000000E+00  0.00000000E+00  1.72044305E-06 -1.36378517E-05
  0.00000000E+00 -4.65695362E-05  3.45675521E-06  0.00000000E+00  0.00000000E+00
 -7.66664296E-05  1.88021350E-04  2.58703756E-04  1.46526338E-03 -7.79752466E-05
 -1.53917659E-03  3.93247308E-04 -1.44421148E-04  1.53382668E-07  0.00000000E+00
 -2.09042213E-03 -4.04297026E-04  0.00000000E+00  1.03992882E-03  7.62662432E-04
  0.00000000E+00 -1.71507992E-04  5.36327898E-05  0.00000000E+00 -1.23351646E-04
  0.00000000E+00  0.00000000E+00  2.43125005E-04  9.40761194E-05 -4.42427867E-04
  0.00000000E+00  0.00000000E+00  8.99161237E-04 -6.61250325E-05  1.15944935E-05
  0.00000000E+00  0.00000000E+00 -3.38271008E-04 -1.22678416E-04  0.00000000E+00
 -1.24059896E-06  1.52992965E-05  0.00000000E+00  0.00000000E+00  1.88308116E-05
  1.32772166E-05  0.00000000E+00  1.64490799E-04 -7.18878362E-05  0.00000000E+00
  0.00000000E+00 -2.40515254E-04  4.25710276E-05  9.76649492E-01 -9.84825787E-03
  4.35679584E-02  4.50139138E-03 -4.45129432E-04  2.14826461E-03  4.81219790E-04
  0.00000000E+00 -2.38426884E-03 -6.04281125E-04  0.00000000E+00  1.13894761E-03
 -3.11674149E-06  0.00000000E+00  5.10947078E-06 -4.15496306E-05  0.00000000E+00
 -2.32368311E-04  0.00000000E+00  0.00000000E+00  1.02753515E-04  3.18579252E-05
  3.90690997E-04  0.00000000E+00  0.00000000E+00 -8.34194296E-04 -4.19471039E-04
 -1.53444875E-04  0.00000000E+00  0.00000000E+00  2.55627407E-04  1.70825323E-05
  0.00000000E+00  5.22733562E-05  1.77140827E-05  0.00000000E+00  0.00000000E+00
 -2.21292778E-05 -1.32930888E-05  0.00000000E+00  1.38427953E-04  9.24001398E-06
  0.00000000E+00  0.00000000E+00 -1.89879201E-04 -1.40736749E-04  5.02706159E-04
  1.74624029E-03 -8.13776645E-05  6.53792720E-06 -4.02615897E-05 -2.04895448E-04
  0.00000000E+00  1.25987226E-04 -1.12137717E-03  0.00000000E+00  3.18388697E-04
 -2.83278504E-04  0.00000000E+00  2.57890186E-05  0.00000000E+00  0.00000000E+00
  1.26467871E-04  9.50115520E-06 -1.52153377E-04  0.00000000E+00  0.00000000E+00
 -5.25651268E-04 -2.32744069E-05  9.76825279E-01 -9.12090073E-03  4.34640348E-02
  4.22984773E-04 -9.72792399E-04 -1.56088861E-03  1.44405402E-03  0.00000000E+00
  1.58443501E-03 -1.18720969E-03  0.00000000E+00 -5.21861616E-04 -6.83491497E-04
  0.00000000E+00  4.60979881E-05 -1.00925862E-05  0.00000000E+00  2.18561691E-05
  0.00000000E+00  0.00000000E+00 -1.29766463E-04 -1.50203503E-06  7.35652075E-04
  0.00000000E+00  0.00000000E+00 -2.43633393E-04 -2.22119371E-04 -2.82736873E-04
  0.00000000E+00  0.00000000E+00  1.28958683E-04  1.33305561E-04  0.00000000E+00
 -6.51292910E-05 -7.35719674E-06  0.00000000E+00  0.00000000E+00  1.46132875E-05
 -1.93023234E-06  0.00000000E+00 -3.48126361E-06  1.23701558E-04  0.00000000E+00
  0.00000000E+00  2.55546769E-04  9.23176357E-05 -4.47322918E-03 -2.17437893E-04