 Entering Gaussian System, Link 0=g16
 Input=hoono_r2_1p472736.gjf
 Output=hoono_r2_1p472736.log
 Initial command:
 /sw/contrib/gaussian/g16/B01/g16/l1.exe "/scr/Gau-6793.inp" -scrdir="/scr/"
 Entering Link 1 = /sw/contrib/gaussian/g16/B01/g16/l1.exe PID=      6794.
  
 Copyright (c) 1988-2017, Gaussian, Inc.  All Rights Reserved.
  
 This is part of the Gaussian(R) 16 program.  It is based on
 the Gaussian(R) 09 system (copyright 2009, Gaussian, Inc.),
 the Gaussian(R) 03 system (copyright 2003, Gaussian, Inc.),
 the Gaussian(R) 98 system (copyright 1998, Gaussian, Inc.),
 the Gaussian(R) 94 system (copyright 1995, Gaussian, Inc.),
 the Gaussian 92(TM) system (copyright 1992, Gaussian, Inc.),
 the Gaussian 90(TM) system (copyright 1990, Gaussian, Inc.),
 the Gaussian 88(TM) system (copyright 1988, Gaussian, Inc.),
 the Gaussian 86(TM) system (copyright 1986, Carnegie Mellon
 University), and the Gaussian 82(TM) system (copyright 1983,
 Carnegie Mellon University). Gaussian is a federally registered
 trademark of Gaussian, Inc.
  
 This software contains proprietary and confidential information,
 including trade secrets, belonging to Gaussian, Inc.
  
 This software is provided under written license and may be
 used, copied, transmitted, or stored only in accord with that
 written license.
  
 The following legend is applicable only to US Government
 contracts under FAR:
  
                    RESTRICTED RIGHTS LEGEND
  
 Use, reproduction and disclosure by the US Government is
 subject to restrictions as set forth in subparagraphs (a)
 and (c) of the Commercial Computer Software - Restricted
 Rights clause in FAR 52.227-19.
  
 Gaussian, Inc.
 340 Quinnipiac St., Bldg. 40, Wallingford CT 06492
  
  
 ---------------------------------------------------------------
 Warning -- This program may not be used in any manner that
 competes with the business of Gaussian, Inc. or will provide
 assistance to any competitor of Gaussian, Inc.  The licensee
 of this program is prohibited from giving any competitor of
 Gaussian, Inc. access to this program.  By using this program,
 the user acknowledges that Gaussian, Inc. is engaged in the
 business of creating and licensing software in the field of
 computational chemistry and represents and warrants to the
 licensee that it is not a competitor of Gaussian, Inc. and that
 it will not use this program in any manner prohibited above.
 ---------------------------------------------------------------
  

 Cite this work as:
 Gaussian 16, Revision B.01,
 M. J. Frisch, G. W. Trucks, H. B. Schlegel, G. E. Scuseria, 
 M. A. Robb, J. R. Cheeseman, G. Scalmani, V. Barone, 
 G. A. Petersson, H. Nakatsuji, X. Li, M. Caricato, A. V. Marenich, 
 J. Bloino, B. G. Janesko, R. Gomperts, B. Mennucci, H. P. Hratchian, 
 J. V. Ortiz, A. F. Izmaylov, J. L. Sonnenberg, D. Williams-Young, 
 F. Ding, F. Lipparini, F. Egidi, J. Goings, B. Peng, A. Petrone, 
 T. Henderson, D. Ranasinghe, V. G. Zakrzewski, J. Gao, N. Rega, 
 G. Zheng, W. Liang, M. Hada, M. Ehara, K. Toyota, R. Fukuda, 
 J. Hasegawa, M. Ishida, T. Nakajima, Y. Honda, O. Kitao, H. Nakai, 
 T. Vreven, K. Throssell, J. A. Montgomery, Jr., J. E. Peralta, 
 F. Ogliaro, M. J. Bearpark, J. J. Heyd, E. N. Brothers, K. N. Kudin, 
 V. N. Staroverov, T. A. Keith, R. Kobayashi, J. Normand, 
 K. Raghavachari, A. P. Rendell, J. C. Burant, S. S. Iyengar, 
 J. Tomasi, M. Cossi, J. M. Millam, M. Klene, C. Adamo, R. Cammi, 
 J. W. Ochterski, R. L. Martin, K. Morokuma, O. Farkas, 
 J. B. Foresman, and D. J. Fox, Gaussian, Inc., Wallingford CT, 2016.
 
 ******************************************
 Gaussian 16:  ES64L-G16RevB.01 20-Dec-2017
                14-Feb-2022 
 ******************************************
 %nproc=28
 Will use up to   28 processors via shared memory.
 %mem=120GB
 %chk=hoono_r2_1p472736.chk
 -------------------------------------
 #p SP mp2/aug-cc-pvtz density=current
 -------------------------------------
 1/30=1,38=1,172=1/1;
 2/12=2,17=6,18=5,40=1/2;
 3/5=16,6=1,7=10,11=9,25=1,30=1,71=1/1,2,3;
 4//1;
 5/5=2,38=5/2;
 8/6=4,10=1/1;
 9/15=1,16=-3/6;
 10/5=1,13=10/2;
 6/7=2,8=2,9=2,10=2,22=-1/1;
 99/5=1,9=1/99;
 Leave Link    1 at Mon Feb 14 22:09:59 2022, MaxMem= 16106127360 cpu:               5.5 elap:               0.2
 (Enter /sw/contrib/gaussian/g16/B01/g16/l101.exe)
 -----
 title
 -----
 Symbolic Z-matrix:
 Charge =  0 Multiplicity = 1
 H
 O                    1    r1
 O                    2    r2       1    a1
 N                    3    r3       2    a2       1    d1       0
 O                    4    r4       3    a3       2    d2       0
       Variables:
  r1                    0.96898                  
  r2                    1.47274                  
  r3                    1.45878                  
  r4                    1.17073                  
  a1                   97.59495                  
  a2                  102.29752                  
  a3                  109.06955                  
  d1                  180.                       
  d2                  180.                       
 
 ITRead=  0  0  0  0  0
 MicOpt= -1 -1 -1 -1 -1
 NAtoms=      5 NQM=        5 NQMF=       0 NMMI=      0 NMMIF=      0
                NMic=       0 NMicF=      0.
                    Isotopes and Nuclear Properties:
 (Nuclear quadrupole moments (NQMom) in fm**2, nuclear magnetic moments (NMagM)
  in nuclear magnetons)

  Atom         1           2           3           4           5
 IAtWgt=           1          16          16          14          16
 AtmWgt=   1.0078250  15.9949146  15.9949146  14.0030740  15.9949146
 NucSpn=           1           0           0           2           0
 AtZEff=  -0.0000000  -0.0000000  -0.0000000  -0.0000000  -0.0000000
 NQMom=    0.0000000   0.0000000   0.0000000   2.0440000   0.0000000
 NMagM=    2.7928460   0.0000000   0.0000000   0.4037610   0.0000000
 AtZNuc=   1.0000000   8.0000000   8.0000000   7.0000000   8.0000000
 Leave Link  101 at Mon Feb 14 22:09:59 2022, MaxMem= 16106127360 cpu:               2.2 elap:               0.1
 (Enter /sw/contrib/gaussian/g16/B01/g16/l202.exe)
                          Input orientation:                          
 ---------------------------------------------------------------------
 Center     Atomic      Atomic             Coordinates (Angstroms)
 Number     Number       Type             X           Y           Z
 ---------------------------------------------------------------------
      1          1           0        0.000000    0.000000    0.000000
      2          8           0        0.000000    0.000000    0.968976
      3          8           0        1.459817    0.000000    1.163626
      4          7           0        1.579413    0.000000    2.617499
      5          8           0        2.713529    0.000000    2.907994
 ---------------------------------------------------------------------
                    Distance matrix (angstroms):
                    1          2          3          4          5
     1  H    0.000000
     2  O    0.968976   0.000000
     3  O    1.866840   1.472737   0.000000
     4  N    3.057098   2.283019   1.458784   0.000000
     5  O    3.977394   3.335121   2.148165   1.170729   0.000000
 Stoichiometry    HNO3
 Framework group  CS[SG(HNO3)]
 Deg. of freedom     7
 Full point group                 CS      NOp   2
 Largest Abelian subgroup         CS      NOp   2
 Largest concise Abelian subgroup C1      NOp   1
                         Standard orientation:                         
 ---------------------------------------------------------------------
 Center     Atomic      Atomic             Coordinates (Angstroms)
 Number     Number       Type             X           Y           Z
 ---------------------------------------------------------------------
      1          1           0        1.574429    1.675982    0.000000
      2          8           0        1.472206    0.712414   -0.000000
      3          8           0       -0.000000    0.672856    0.000000
      4          7           0       -0.272307   -0.760288   -0.000000
      5          8           0       -1.430740   -0.929516    0.000000
 ---------------------------------------------------------------------
 Rotational constants (GHZ):          54.5212259           4.9694316           4.5543202
 Leave Link  202 at Mon Feb 14 22:09:59 2022, MaxMem= 16106127360 cpu:               0.4 elap:               0.0
 (Enter /sw/contrib/gaussian/g16/B01/g16/l301.exe)
 Standard basis: Aug-CC-pVTZ (5D, 7F)
 Ernie: Thresh=  0.10000D-02 Tol=  0.10000D-05 Strict=F.
 Ernie:  12 primitive shells out of 131 were deleted.
 There are   166 symmetry adapted cartesian basis functions of A'  symmetry.
 There are    79 symmetry adapted cartesian basis functions of A"  symmetry.
 There are   136 symmetry adapted basis functions of A'  symmetry.
 There are    71 symmetry adapted basis functions of A"  symmetry.
   207 basis functions,   315 primitive gaussians,   245 cartesian basis functions
    16 alpha electrons       16 beta electrons
       nuclear repulsion energy       116.4360114781 Hartrees.
 IExCor=    0 DFT=F Ex=HF Corr=None ExCW=0 ScaHFX=  1.000000
 ScaDFX=  1.000000  1.000000  1.000000  1.000000 ScalE2=  1.000000  1.000000
 IRadAn=      5 IRanWt=     -1 IRanGd=            0 ICorTp=0 IEmpDi=  4
 NAtoms=    5 NActive=    5 NUniq=    5 SFac= 1.00D+00 NAtFMM=   60 NAOKFM=F Big=F
 Integral buffers will be    131072 words long.
 Raffenetti 1 integral format.
 Two-electron integral symmetry is turned on.
 Leave Link  301 at Mon Feb 14 22:09:59 2022, MaxMem= 16106127360 cpu:               1.5 elap:               0.1
 (Enter /sw/contrib/gaussian/g16/B01/g16/l302.exe)
 NPDir=0 NMtPBC=     1 NCelOv=     1 NCel=       1 NClECP=     1 NCelD=      1
         NCelK=      1 NCelE2=     1 NClLst=     1 CellRange=     0.0.
 One-electron integrals computed using PRISM.
 One-electron integral symmetry used in STVInt
 NBasis=   207 RedAO= T EigKep=  1.84D-04  NBF=   136    71
 NBsUse=   207 1.00D-06 EigRej= -1.00D+00 NBFU=   136    71
 Leave Link  302 at Mon Feb 14 22:09:59 2022, MaxMem= 16106127360 cpu:               5.1 elap:               0.2
 (Enter /sw/contrib/gaussian/g16/B01/g16/l303.exe)
 DipDrv:  MaxL=1.
 Leave Link  303 at Mon Feb 14 22:09:59 2022, MaxMem= 16106127360 cpu:               1.0 elap:               0.1
 (Enter /sw/contrib/gaussian/g16/B01/g16/l401.exe)
 ExpMin= 2.53D-02 ExpMax= 1.53D+04 ExpMxC= 5.22D+02 IAcc=3 IRadAn=         5 AccDes= 0.00D+00
 Harris functional with IExCor=  205 and IRadAn=       5 diagonalized for initial guess.
 HarFok:  IExCor=  205 AccDes= 0.00D+00 IRadAn=         5 IDoV= 1 UseB2=F ITyADJ=14
 ICtDFT=  3500011 ScaDFX=  1.000000  1.000000  1.000000  1.000000
 FoFCou: FMM=F IPFlag=           0 FMFlag=      100000 FMFlg1=           0
         NFxFlg=           0 DoJE=T BraDBF=F KetDBF=T FulRan=T
         wScrn=  0.000000 ICntrl=       500 IOpCl=  0 I1Cent=   200000004 NGrid=           0
         NMat0=    1 NMatS0=      1 NMatT0=    0 NMatD0=    1 NMtDS0=    0 NMtDT0=    0
 Petite list used in FoFCou.
 Harris En= -279.627812146247    
 JPrj=0 DoOrth=F DoCkMO=F.
 Initial guess orbital symmetries:
       Occupied  (A') (A') (A') (A') (A') (A') (A') (A') (A') (A')
                 (A") (A') (A') (A") (A") (A')
       Virtual   (A") (A') (A') (A') (A') (A') (A") (A') (A') (A')
                 (A") (A') (A") (A') (A') (A") (A') (A") (A') (A')
                 (A') (A') (A') (A') (A') (A") (A') (A") (A') (A')
                 (A") (A') (A") (A') (A') (A") (A') (A") (A') (A')
                 (A") (A') (A") (A') (A") (A') (A') (A') (A") (A")
                 (A') (A') (A') (A') (A") (A') (A") (A') (A") (A')
                 (A') (A') (A") (A') (A') (A") (A') (A") (A') (A')
                 (A") (A') (A') (A") (A") (A') (A') (A") (A') (A')
                 (A') (A") (A') (A") (A') (A") (A') (A") (A') (A')
                 (A') (A") (A') (A") (A') (A") (A") (A') (A') (A")
                 (A') (A') (A") (A') (A') (A') (A') (A") (A") (A')
                 (A") (A') (A') (A') (A") (A') (A') (A') (A") (A')
                 (A") (A') (A') (A") (A") (A') (A") (A') (A") (A')
                 (A') (A') (A') (A") (A") (A') (A") (A') (A') (A')
                 (A') (A") (A") (A') (A') (A") (A') (A') (A') (A')
                 (A') (A") (A') (A") (A') (A") (A') (A") (A") (A')
                 (A') (A") (A') (A") (A') (A") (A") (A") (A') (A')
                 (A") (A') (A") (A') (A') (A") (A") (A") (A') (A')
                 (A') (A') (A') (A') (A') (A') (A') (A') (A') (A')
                 (A')
 The electronic state of the initial guess is 1-A'.
 Leave Link  401 at Mon Feb 14 22:10:00 2022, MaxMem= 16106127360 cpu:               6.9 elap:               0.3
 (Enter /sw/contrib/gaussian/g16/B01/g16/l502.exe)
 Keep R1 ints in memory in symmetry-blocked form, NReq=348887737.
 FoFCou: FMM=F IPFlag=           0 FMFlag=           0 FMFlg1=           0
         NFxFlg=           0 DoJE=F BraDBF=F KetDBF=F FulRan=T
         wScrn=  0.000000 ICntrl=       600 IOpCl=  0 I1Cent=           0 NGrid=           0
         NMat0=    1 NMatS0=  21528 NMatT0=    0 NMatD0=    1 NMtDS0=    0 NMtDT0=    0
 Petite list used in FoFCou.
 Closed shell SCF:
 Using DIIS extrapolation, IDIIS=  1040.
 NGot= 16106127360 LenX= 15988850015 LenY= 15988789549
 Requested convergence on RMS density matrix=1.00D-08 within 128 cycles.
 Requested convergence on MAX density matrix=1.00D-06.
 Requested convergence on             energy=1.00D-06.
 No special actions if energy rises.

 Cycle   1  Pass 1  IDiag  1:
 E= -279.368328725078    
 DIIS: error= 2.94D-02 at cycle   1 NSaved=   1.
 NSaved= 1 IEnMin= 1 EnMin= -279.368328725078     IErMin= 1 ErrMin= 2.94D-02
 ErrMax= 2.94D-02  0.00D+00 EMaxC= 1.00D-01 BMatC= 4.38D-01 BMatP= 4.38D-01
 IDIUse=3 WtCom= 7.06D-01 WtEn= 2.94D-01
 Coeff-Com:  0.100D+01
 Coeff-En:   0.100D+01
 Coeff:      0.100D+01
 Gap=     0.516 Goal=   None    Shift=    0.000
 GapD=    0.516 DampG=2.000 DampE=0.500 DampFc=1.0000 IDamp=-1.
 RMSDP=1.62D-03 MaxDP=9.92D-02              OVMax= 1.14D-01

 Cycle   2  Pass 1  IDiag  1:
 E= -279.449717682901     Delta-E=       -0.081388957822 Rises=F Damp=F
 DIIS: error= 1.82D-02 at cycle   2 NSaved=   2.
 NSaved= 2 IEnMin= 2 EnMin= -279.449717682901     IErMin= 2 ErrMin= 1.82D-02
 ErrMax= 1.82D-02  0.00D+00 EMaxC= 1.00D-01 BMatC= 7.34D-02 BMatP= 4.38D-01
 IDIUse=3 WtCom= 8.18D-01 WtEn= 1.82D-01
 Coeff-Com:  0.198D+00 0.802D+00
 Coeff-En:   0.555D-02 0.994D+00
 Coeff:      0.163D+00 0.837D+00
 Gap=     0.530 Goal=   None    Shift=    0.000
 RMSDP=9.07D-04 MaxDP=3.72D-02 DE=-8.14D-02 OVMax= 7.01D-02

 Cycle   3  Pass 1  IDiag  1:
 E= -279.479463800258     Delta-E=       -0.029746117357 Rises=F Damp=F
 DIIS: error= 1.06D-02 at cycle   3 NSaved=   3.
 NSaved= 3 IEnMin= 3 EnMin= -279.479463800258     IErMin= 3 ErrMin= 1.06D-02
 ErrMax= 1.06D-02  0.00D+00 EMaxC= 1.00D-01 BMatC= 2.93D-02 BMatP= 7.34D-02
 IDIUse=3 WtCom= 8.94D-01 WtEn= 1.06D-01
 Coeff-Com: -0.332D-01 0.378D+00 0.655D+00
 Coeff-En:   0.000D+00 0.242D+00 0.758D+00
 Coeff:     -0.297D-01 0.364D+00 0.666D+00
 Gap=     0.511 Goal=   None    Shift=    0.000
 RMSDP=3.79D-04 MaxDP=1.51D-02 DE=-2.97D-02 OVMax= 3.85D-02

 Cycle   4  Pass 1  IDiag  1:
 E= -279.498981113638     Delta-E=       -0.019517313380 Rises=F Damp=F
 DIIS: error= 1.31D-03 at cycle   4 NSaved=   4.
 NSaved= 4 IEnMin= 4 EnMin= -279.498981113638     IErMin= 4 ErrMin= 1.31D-03
 ErrMax= 1.31D-03  0.00D+00 EMaxC= 1.00D-01 BMatC= 5.08D-04 BMatP= 2.93D-02
 IDIUse=3 WtCom= 9.87D-01 WtEn= 1.31D-02
 Coeff-Com: -0.119D-01 0.589D-01 0.162D+00 0.792D+00
 Coeff-En:   0.000D+00 0.000D+00 0.000D+00 0.100D+01
 Coeff:     -0.118D-01 0.581D-01 0.159D+00 0.794D+00
 Gap=     0.503 Goal=   None    Shift=    0.000
 RMSDP=9.03D-05 MaxDP=2.84D-03 DE=-1.95D-02 OVMax= 1.13D-02

 Cycle   5  Pass 1  IDiag  1:
 E= -279.499660103855     Delta-E=       -0.000678990217 Rises=F Damp=F
 DIIS: error= 7.46D-04 at cycle   5 NSaved=   5.
 NSaved= 5 IEnMin= 5 EnMin= -279.499660103855     IErMin= 5 ErrMin= 7.46D-04
 ErrMax= 7.46D-04  0.00D+00 EMaxC= 1.00D-01 BMatC= 8.80D-05 BMatP= 5.08D-04
 IDIUse=3 WtCom= 9.93D-01 WtEn= 7.46D-03
 Coeff-Com:  0.610D-02-0.719D-01-0.117D+00 0.259D-01 0.116D+01
 Coeff-En:   0.000D+00 0.000D+00 0.000D+00 0.000D+00 0.100D+01
 Coeff:      0.606D-02-0.714D-01-0.116D+00 0.257D-01 0.116D+01
 Gap=     0.502 Goal=   None    Shift=    0.000
 RMSDP=7.53D-05 MaxDP=2.07D-03 DE=-6.79D-04 OVMax= 1.09D-02

 Cycle   6  Pass 1  IDiag  1:
 E= -279.499972266093     Delta-E=       -0.000312162238 Rises=F Damp=F
 DIIS: error= 2.96D-04 at cycle   6 NSaved=   6.
 NSaved= 6 IEnMin= 6 EnMin= -279.499972266093     IErMin= 6 ErrMin= 2.96D-04
 ErrMax= 2.96D-04  0.00D+00 EMaxC= 1.00D-01 BMatC= 1.70D-05 BMatP= 8.80D-05
 IDIUse=3 WtCom= 9.97D-01 WtEn= 2.96D-03
 Coeff-Com:  0.837D-03-0.139D-02-0.736D-03-0.125D+00-0.190D+00 0.132D+01
 Coeff-En:   0.000D+00 0.000D+00 0.000D+00 0.000D+00 0.000D+00 0.100D+01
 Coeff:      0.835D-03-0.139D-02-0.734D-03-0.124D+00-0.189D+00 0.131D+01
 Gap=     0.503 Goal=   None    Shift=    0.000
 RMSDP=4.42D-05 MaxDP=1.23D-03 DE=-3.12D-04 OVMax= 5.37D-03

 Cycle   7  Pass 1  IDiag  1:
 E= -279.500044000042     Delta-E=       -0.000071733949 Rises=F Damp=F
 DIIS: error= 1.30D-04 at cycle   7 NSaved=   7.
 NSaved= 7 IEnMin= 7 EnMin= -279.500044000042     IErMin= 7 ErrMin= 1.30D-04
 ErrMax= 1.30D-04  0.00D+00 EMaxC= 1.00D-01 BMatC= 5.38D-06 BMatP= 1.70D-05
 IDIUse=3 WtCom= 9.99D-01 WtEn= 1.30D-03
 Coeff-Com: -0.947D-03 0.140D-01 0.271D-01-0.304D-01-0.308D+00 0.456D+00
 Coeff-Com:  0.843D+00
 Coeff-En:   0.000D+00 0.000D+00 0.000D+00 0.000D+00 0.000D+00 0.000D+00
 Coeff-En:   0.100D+01
 Coeff:     -0.945D-03 0.139D-01 0.270D-01-0.304D-01-0.308D+00 0.455D+00
 Coeff:      0.843D+00
 Gap=     0.503 Goal=   None    Shift=    0.000
 RMSDP=1.39D-05 MaxDP=3.87D-04 DE=-7.17D-05 OVMax= 1.60D-03

 Cycle   8  Pass 1  IDiag  1:
 E= -279.500054035917     Delta-E=       -0.000010035875 Rises=F Damp=F
 DIIS: error= 5.34D-05 at cycle   8 NSaved=   8.
 NSaved= 8 IEnMin= 8 EnMin= -279.500054035917     IErMin= 8 ErrMin= 5.34D-05
 ErrMax= 5.34D-05  0.00D+00 EMaxC= 1.00D-01 BMatC= 6.08D-07 BMatP= 5.38D-06
 IDIUse=1 WtCom= 1.00D+00 WtEn= 0.00D+00
 Coeff-Com: -0.446D-03 0.341D-02 0.750D-02 0.275D-01-0.407D-01-0.191D+00
 Coeff-Com:  0.921D-01 0.110D+01
 Coeff:     -0.446D-03 0.341D-02 0.750D-02 0.275D-01-0.407D-01-0.191D+00
 Coeff:      0.921D-01 0.110D+01
 Gap=     0.502 Goal=   None    Shift=    0.000
 RMSDP=7.38D-06 MaxDP=2.14D-04 DE=-1.00D-05 OVMax= 7.98D-04

 Cycle   9  Pass 1  IDiag  1:
 E= -279.500055979923     Delta-E=       -0.000001944006 Rises=F Damp=F
 DIIS: error= 1.59D-05 at cycle   9 NSaved=   9.
 NSaved= 9 IEnMin= 9 EnMin= -279.500055979923     IErMin= 9 ErrMin= 1.59D-05
 ErrMax= 1.59D-05  0.00D+00 EMaxC= 1.00D-01 BMatC= 6.65D-08 BMatP= 6.08D-07
 IDIUse=1 WtCom= 1.00D+00 WtEn= 0.00D+00
 Coeff-Com:  0.124D-03-0.172D-02-0.306D-02-0.193D-02 0.342D-01 0.427D-03
 Coeff-Com: -0.143D+00-0.141D+00 0.126D+01
 Coeff:      0.124D-03-0.172D-02-0.306D-02-0.193D-02 0.342D-01 0.427D-03
 Coeff:     -0.143D+00-0.141D+00 0.126D+01
 Gap=     0.502 Goal=   None    Shift=    0.000
 RMSDP=1.94D-06 MaxDP=6.62D-05 DE=-1.94D-06 OVMax= 1.72D-04

 Cycle  10  Pass 1  IDiag  1:
 E= -279.500056139502     Delta-E=       -0.000000159579 Rises=F Damp=F
 DIIS: error= 4.09D-06 at cycle  10 NSaved=  10.
 NSaved=10 IEnMin=10 EnMin= -279.500056139502     IErMin=10 ErrMin= 4.09D-06
 ErrMax= 4.09D-06  0.00D+00 EMaxC= 1.00D-01 BMatC= 5.54D-09 BMatP= 6.65D-08
 IDIUse=1 WtCom= 1.00D+00 WtEn= 0.00D+00
 Coeff-Com:  0.299D-04-0.229D-03-0.300D-03-0.265D-02 0.130D-02 0.193D-01
 Coeff-Com: -0.691D-02-0.786D-01-0.849D-01 0.115D+01
 Coeff:      0.299D-04-0.229D-03-0.300D-03-0.265D-02 0.130D-02 0.193D-01
 Coeff:     -0.691D-02-0.786D-01-0.849D-01 0.115D+01
 Gap=     0.502 Goal=   None    Shift=    0.000
 RMSDP=5.08D-07 MaxDP=2.11D-05 DE=-1.60D-07 OVMax= 4.11D-05

 Cycle  11  Pass 1  IDiag  1:
 E= -279.500056152073     Delta-E=       -0.000000012572 Rises=F Damp=F
 DIIS: error= 2.01D-06 at cycle  11 NSaved=  11.
 NSaved=11 IEnMin=11 EnMin= -279.500056152073     IErMin=11 ErrMin= 2.01D-06
 ErrMax= 2.01D-06  0.00D+00 EMaxC= 1.00D-01 BMatC= 6.49D-10 BMatP= 5.54D-09
 IDIUse=1 WtCom= 1.00D+00 WtEn= 0.00D+00
 Coeff-Com: -0.213D-04 0.243D-03 0.481D-03 0.507D-03-0.428D-02-0.329D-02
 Coeff-Com:  0.166D-01 0.363D-01-0.138D+00-0.179D+00 0.127D+01
 Coeff:     -0.213D-04 0.243D-03 0.481D-03 0.507D-03-0.428D-02-0.329D-02
 Coeff:      0.166D-01 0.363D-01-0.138D+00-0.179D+00 0.127D+01
 Gap=     0.502 Goal=   None    Shift=    0.000
 RMSDP=1.77D-07 MaxDP=6.45D-06 DE=-1.26D-08 OVMax= 1.74D-05

 Cycle  12  Pass 1  IDiag  1:
 E= -279.500056153857     Delta-E=       -0.000000001784 Rises=F Damp=F
 DIIS: error= 5.81D-07 at cycle  12 NSaved=  12.
 NSaved=12 IEnMin=12 EnMin= -279.500056153857     IErMin=12 ErrMin= 5.81D-07
 ErrMax= 5.81D-07  0.00D+00 EMaxC= 1.00D-01 BMatC= 7.15D-11 BMatP= 6.49D-10
 IDIUse=1 WtCom= 1.00D+00 WtEn= 0.00D+00
 Coeff-Com:  0.123D-05-0.292D-04-0.625D-04 0.188D-03 0.109D-02-0.224D-02
 Coeff-Com: -0.408D-02 0.507D-02 0.419D-01-0.115D+00-0.275D+00 0.135D+01
 Coeff:      0.123D-05-0.292D-04-0.625D-04 0.188D-03 0.109D-02-0.224D-02
 Coeff:     -0.408D-02 0.507D-02 0.419D-01-0.115D+00-0.275D+00 0.135D+01
 Gap=     0.502 Goal=   None    Shift=    0.000
 RMSDP=7.16D-08 MaxDP=2.83D-06 DE=-1.78D-09 OVMax= 6.74D-06

 Cycle  13  Pass 1  IDiag  1:
 E= -279.500056154087     Delta-E=       -0.000000000230 Rises=F Damp=F
 DIIS: error= 1.75D-07 at cycle  13 NSaved=  13.
 NSaved=13 IEnMin=13 EnMin= -279.500056154087     IErMin=13 ErrMin= 1.75D-07
 ErrMax= 1.75D-07  0.00D+00 EMaxC= 1.00D-01 BMatC= 4.11D-12 BMatP= 7.15D-11
 IDIUse=1 WtCom= 1.00D+00 WtEn= 0.00D+00
 Coeff-Com:  0.130D-05-0.141D-04-0.227D-04-0.874D-04 0.121D-03 0.731D-03
 Coeff-Com: -0.556D-03-0.354D-02 0.580D-03 0.417D-01-0.387D-01-0.324D+00
 Coeff-Com:  0.132D+01
 Coeff:      0.130D-05-0.141D-04-0.227D-04-0.874D-04 0.121D-03 0.731D-03
 Coeff:     -0.556D-03-0.354D-02 0.580D-03 0.417D-01-0.387D-01-0.324D+00
 Coeff:      0.132D+01
 Gap=     0.502 Goal=   None    Shift=    0.000
 RMSDP=1.94D-08 MaxDP=5.64D-07 DE=-2.30D-10 OVMax= 1.61D-06

 Cycle  14  Pass 1  IDiag  1:
 E= -279.500056154100     Delta-E=       -0.000000000013 Rises=F Damp=F
 DIIS: error= 2.59D-08 at cycle  14 NSaved=  14.
 NSaved=14 IEnMin=14 EnMin= -279.500056154100     IErMin=14 ErrMin= 2.59D-08
 ErrMax= 2.59D-08  0.00D+00 EMaxC= 1.00D-01 BMatC= 2.17D-13 BMatP= 4.11D-12
 IDIUse=1 WtCom= 1.00D+00 WtEn= 0.00D+00
 Coeff-Com: -0.198D-06 0.324D-05 0.572D-05 0.450D-05-0.857D-04 0.476D-04
 Coeff-Com:  0.249D-03 0.287D-03-0.253D-02 0.148D-02 0.177D-01-0.260D-01
 Coeff-Com: -0.209D+00 0.122D+01
 Coeff:     -0.198D-06 0.324D-05 0.572D-05 0.450D-05-0.857D-04 0.476D-04
 Coeff:      0.249D-03 0.287D-03-0.253D-02 0.148D-02 0.177D-01-0.260D-01
 Coeff:     -0.209D+00 0.122D+01
 Gap=     0.502 Goal=   None    Shift=    0.000
 RMSDP=3.97D-09 MaxDP=9.27D-08 DE=-1.30D-11 OVMax= 3.68D-07

 SCF Done:  E(RHF) =  -279.500056154     A.U. after   14 cycles
            NFock= 14  Conv=0.40D-08     -V/T= 2.0025
 KE= 2.788156770502D+02 PE=-8.941794043859D+02 EE= 2.194276597034D+02
 Leave Link  502 at Mon Feb 14 22:10:03 2022, MaxMem= 16106127360 cpu:              55.0 elap:               3.6
 (Enter /sw/contrib/gaussian/g16/B01/g16/l801.exe)
 ExpMin= 2.53D-02 ExpMax= 1.53D+04 ExpMxC= 5.22D+02 IAcc=3 IRadAn=         5 AccDes= 0.00D+00
 HarFok:  IExCor=  205 AccDes= 0.00D+00 IRadAn=         5 IDoV=-2 UseB2=F ITyADJ=14
 ICtDFT= 12500011 ScaDFX=  1.000000  1.000000  1.000000  1.000000
 Largest valence mixing into a core orbital is  2.08D-04
 Largest core mixing into a valence orbital is  3.64D-05
 Range of M.O.s used for correlation:     5   207
 NBasis=   207 NAE=    16 NBE=    16 NFC=     4 NFV=     0
 NROrb=    203 NOA=    12 NOB=    12 NVA=   191 NVB=   191

 **** Warning!!: The largest alpha MO coefficient is  0.17537597D+02

 Leave Link  801 at Mon Feb 14 22:10:04 2022, MaxMem= 16106127360 cpu:               2.3 elap:               0.1
 (Enter /sw/contrib/gaussian/g16/B01/g16/l906.exe)
 Frozen-core derivative calculation, NFC=   4 NFV=   0.
 FulOut=F Deriv=T AODrv=F NAtomX=     5
   MMem=          76  MDisk=          12 MDiskD=          12
  W3Min=      811440 MinDsk=     1524655 NBas6D=         245
 NBas2D=       30762    NTT=       30135    LW2=     3500000
    MDV= 16105579927 MDiskM=      328644 NBas2p=       30466
 Fully in-core method, ICMem=   960157634.
 IMap=   1   2   3   4   5   6   7   8   9  10  11  12  13  14  15  16
 JobTyp=1 Pass  1 fully in-core, NPsUse= 28.
 Compute canonical integrals.
 FoFCou: FMM=F IPFlag=           0 FMFlag=           0 FMFlg1=           0
         NFxFlg=           0 DoJE=F BraDBF=F KetDBF=F FulRan=T
         wScrn=  0.000000 ICntrl=       600 IOpCl=  1 I1Cent=           0 NGrid=           0
         NMat0=    1 NMatS0=  30762 NMatT0=    0 NMatD0=    1 NMtDS0=    0 NMtDT0=    0
 Symmetry not used in FoFCou.
 Spin components of T(2) and E(2):
     alpha-alpha T2 =       0.3419276477D-01 E2=     -0.1225176006D+00
     alpha-beta  T2 =       0.1881555447D+00 E2=     -0.7014810347D+00
     beta-beta   T2 =       0.3419276477D-01 E2=     -0.1225176006D+00
 The integrals were generated   1 times.
 ANorm=    0.1120955429D+01
 E2 =    -0.9465162359D+00 EUMP2 =    -0.28044657238998D+03
 Leave Link  906 at Mon Feb 14 22:10:13 2022, MaxMem= 16106127360 cpu:             251.0 elap:               9.0
 (Enter /sw/contrib/gaussian/g16/B01/g16/l1002.exe)
 Minotr:  Closed shell wavefunction.
          Computing MP2/KS-MP2 derivatives.
          Using Z-Vector for PSCF gradient.
          Skipping F1 and S1 gradient terms here.
          Frozen-core window.
          Direct CPHF calculation.
          Differentiating once with respect to electric field.
                with respect to dipole field.
          Electric field/nuclear overlap derivatives assumed to be zero.
          Using symmetry in CPHF.
          Requested convergence is 1.0D-10 RMS, and 1.0D-09 maximum.
          NewPWx=F KeepS1=T KeepF1=T KeepIn=T MapXYZ=F SortEE=F KeepMc=T.
 Keep R1 ints in memory in symmetry-blocked form, NReq=348888868.
 FoFCou: FMM=F IPFlag=           0 FMFlag=           0 FMFlg1=           0
         NFxFlg=           0 DoJE=F BraDBF=F KetDBF=F FulRan=T
         wScrn=  0.000000 ICntrl=       600 IOpCl=  0 I1Cent=           0 NGrid=           0
         NMat0=    1 NMatS0=  21528 NMatT0=    0 NMatD0=    1 NMtDS0=    0 NMtDT0=    0
 Petite list used in FoFCou.
          MDV=   16106127360 using IRadAn=       5.
          Solving linear equations separately, MaxMat=       0.
          There are     1 degrees of freedom in the 1st order CPHF.  IDoFFX=0 NUNeed=     1.
 LinEq1:  Iter=  0 NonCon=     1 RMS=5.99D-03 Max=1.34D-01 NDo=     1
 AX will form     1 AO Fock derivatives at one time.
 LinEq1:  Iter=  1 NonCon=     1 RMS=1.91D-03 Max=3.80D-02 NDo=     1
 LinEq1:  Iter=  2 NonCon=     1 RMS=8.71D-04 Max=1.44D-02 NDo=     1
 LinEq1:  Iter=  3 NonCon=     1 RMS=3.87D-04 Max=7.73D-03 NDo=     1
 LinEq1:  Iter=  4 NonCon=     1 RMS=1.19D-04 Max=1.87D-03 NDo=     1
 LinEq1:  Iter=  5 NonCon=     1 RMS=4.38D-05 Max=6.93D-04 NDo=     1
 LinEq1:  Iter=  6 NonCon=     1 RMS=2.00D-05 Max=2.14D-04 NDo=     1
 LinEq1:  Iter=  7 NonCon=     1 RMS=8.17D-06 Max=1.38D-04 NDo=     1
 LinEq1:  Iter=  8 NonCon=     1 RMS=3.51D-06 Max=3.39D-05 NDo=     1
 LinEq1:  Iter=  9 NonCon=     1 RMS=9.57D-07 Max=1.33D-05 NDo=     1
 LinEq1:  Iter= 10 NonCon=     1 RMS=1.88D-07 Max=2.07D-06 NDo=     1
 LinEq1:  Iter= 11 NonCon=     1 RMS=3.50D-08 Max=3.54D-07 NDo=     1
 LinEq1:  Iter= 12 NonCon=     1 RMS=8.54D-09 Max=1.07D-07 NDo=     1
 LinEq1:  Iter= 13 NonCon=     1 RMS=1.58D-09 Max=2.21D-08 NDo=     1
 LinEq1:  Iter= 14 NonCon=     1 RMS=2.88D-10 Max=4.04D-09 NDo=     1
 LinEq1:  Iter= 15 NonCon=     0 RMS=5.23D-11 Max=5.24D-10 NDo=     1
 Linear equations converged to 1.000D-10 1.000D-09 after    15 iterations.
 End of Minotr F.D. properties file   721 does not exist.
 End of Minotr F.D. properties file   722 does not exist.
 End of Minotr F.D. properties file   788 does not exist.
 Leave Link 1002 at Mon Feb 14 22:10:17 2022, MaxMem= 16106127360 cpu:              53.9 elap:               4.0
 (Enter /sw/contrib/gaussian/g16/B01/g16/l601.exe)
 Copying SCF densities to generalized density rwf, IOpCl= 0 IROHF=0.

 **********************************************************************

            Population analysis using the MP2 Density.

 **********************************************************************

 Orbital symmetries:
       Occupied  (A') (A') (A') (A') (A') (A') (A') (A') (A') (A')
                 (A") (A') (A") (A') (A") (A')
       Virtual   (A') (A") (A') (A') (A') (A") (A') (A') (A") (A')
                 (A") (A') (A') (A') (A") (A') (A') (A") (A') (A')
                 (A') (A') (A') (A') (A") (A') (A') (A") (A') (A')
                 (A") (A') (A") (A') (A') (A") (A') (A') (A") (A')
                 (A") (A') (A") (A') (A') (A") (A') (A') (A") (A')
                 (A") (A') (A') (A') (A") (A') (A") (A') (A") (A')
                 (A') (A') (A") (A') (A') (A") (A') (A") (A') (A')
                 (A") (A') (A') (A") (A") (A') (A') (A") (A') (A')
                 (A') (A") (A') (A") (A') (A") (A') (A") (A') (A')
                 (A") (A') (A') (A") (A') (A") (A') (A") (A') (A')
                 (A") (A') (A") (A') (A') (A") (A') (A') (A") (A')
                 (A") (A') (A') (A') (A") (A') (A') (A') (A") (A')
                 (A") (A') (A") (A') (A') (A") (A") (A') (A") (A')
                 (A') (A') (A') (A") (A") (A") (A') (A') (A') (A')
                 (A") (A') (A") (A') (A') (A") (A') (A') (A') (A')
                 (A') (A") (A') (A") (A') (A") (A') (A") (A") (A')
                 (A') (A") (A') (A") (A') (A") (A") (A') (A") (A')
                 (A") (A') (A") (A') (A") (A') (A") (A") (A') (A')
                 (A') (A') (A') (A') (A') (A') (A') (A') (A') (A')
                 (A')
 The electronic state is 1-A'.
 Alpha  occ. eigenvalues --  -20.69188 -20.68460 -20.66151 -15.81318  -1.62355
 Alpha  occ. eigenvalues --   -1.48880  -1.25756  -0.94783  -0.77096  -0.75778
 Alpha  occ. eigenvalues --   -0.71026  -0.67938  -0.61876  -0.58691  -0.48836
 Alpha  occ. eigenvalues --   -0.47289
 Alpha virt. eigenvalues --    0.02959   0.07165   0.08547   0.10163   0.13300
 Alpha virt. eigenvalues --    0.13397   0.14399   0.15445   0.17829   0.19434
 Alpha virt. eigenvalues --    0.19988   0.20614   0.21714   0.22950   0.23723
 Alpha virt. eigenvalues --    0.26593   0.29329   0.30373   0.31005   0.34243
 Alpha virt. eigenvalues --    0.34906   0.38698   0.42116   0.43135   0.52705
 Alpha virt. eigenvalues --    0.52889   0.55821   0.58114   0.62562   0.63842
 Alpha virt. eigenvalues --    0.67456   0.68466   0.70494   0.71166   0.72316
 Alpha virt. eigenvalues --    0.72984   0.74483   0.79030   0.79185   0.81033
 Alpha virt. eigenvalues --    0.81240   0.82937   0.86805   0.90650   0.92164
 Alpha virt. eigenvalues --    0.92482   0.95730   0.97660   0.98347   1.01640
 Alpha virt. eigenvalues --    1.05073   1.05522   1.08070   1.11574   1.13856
 Alpha virt. eigenvalues --    1.18827   1.22076   1.23137   1.33834   1.34935
 Alpha virt. eigenvalues --    1.38603   1.45291   1.48809   1.51017   1.53697
 Alpha virt. eigenvalues --    1.56551   1.57861   1.61216   1.66091   1.66882
 Alpha virt. eigenvalues --    1.70300   1.79088   1.83006   1.83434   1.87653
 Alpha virt. eigenvalues --    1.90859   1.95591   1.99000   2.00758   2.07670
 Alpha virt. eigenvalues --    2.11688   2.13174   2.14650   2.22359   2.26072
 Alpha virt. eigenvalues --    2.26348   2.28848   2.31241   2.33901   2.38814
 Alpha virt. eigenvalues --    2.42150   2.42598   2.45284   2.46309   2.47462
 Alpha virt. eigenvalues --    2.49950   2.58718   2.59412   2.61489   2.62213
 Alpha virt. eigenvalues --    2.62965   2.66233   2.75638   2.82351   2.85073
 Alpha virt. eigenvalues --    2.87547   2.88506   2.91835   2.95370   3.01285
 Alpha virt. eigenvalues --    3.06836   3.12531   3.18295   3.22155   3.31008
 Alpha virt. eigenvalues --    3.34794   3.51090   3.64053   3.83823   3.84018
 Alpha virt. eigenvalues --    4.14555   4.15728   4.18098   4.25544   4.34747
 Alpha virt. eigenvalues --    4.38918   4.44687   4.52194   4.65920   4.70122
 Alpha virt. eigenvalues --    4.80320   4.82342   4.83105   4.89424   5.02187
 Alpha virt. eigenvalues --    5.07683   5.09966   5.14482   5.17839   5.24012
 Alpha virt. eigenvalues --    5.27201   5.30767   5.32716   5.35090   5.59598
 Alpha virt. eigenvalues --    5.67335   5.76439   5.79735   5.95139   6.16494
 Alpha virt. eigenvalues --    6.33555   6.33669   6.39858   6.49510   6.50564
 Alpha virt. eigenvalues --    6.61763   6.67953   6.70166   6.75579   6.75892
 Alpha virt. eigenvalues --    6.83198   6.89670   6.99928   7.03108   7.04283
 Alpha virt. eigenvalues --    7.07773   7.12229   7.13843   7.17616   7.22043
 Alpha virt. eigenvalues --    7.23734   7.30394   7.32452   7.34752   7.39508
 Alpha virt. eigenvalues --    7.40986   7.48276   7.59477   7.61153   7.61818
 Alpha virt. eigenvalues --    7.65924   7.77165   7.88261   8.06351   8.29109
 Alpha virt. eigenvalues --    8.38959   8.54496  13.33937  14.37214  15.14322
 Alpha virt. eigenvalues --   16.15020
          Condensed to atoms (all electrons):
               1          2          3          4          5
     1  H    0.588382   0.127972   0.020925   0.012025  -0.000580
     2  O    0.127972   8.300578  -0.152219  -0.087538   0.014944
     3  O    0.020925  -0.152219   8.449225  -0.131842  -0.038062
     4  N    0.012025  -0.087538  -0.131842   6.969349  -0.055160
     5  O   -0.000580   0.014944  -0.038062  -0.055160   8.271534
 Mulliken charges:
               1
     1  H    0.251276
     2  O   -0.203737
     3  O   -0.148028
     4  N    0.293166
     5  O   -0.192677
 Sum of Mulliken charges =  -0.00000
 Mulliken charges with hydrogens summed into heavy atoms:
               1
     2  O    0.047539
     3  O   -0.148028
     4  N    0.293166
     5  O   -0.192677
 Electronic spatial extent (au):  <R**2>=            254.6059
 Charge=             -0.0000 electrons
 Dipole moment (field-independent basis, Debye):
    X=              0.5115    Y=              1.3450    Z=              0.0000  Tot=              1.4390
 Quadrupole moment (field-independent basis, Debye-Ang):
   XX=            -22.3711   YY=            -18.6813   ZZ=            -22.0350
   XY=              3.3113   XZ=              0.0000   YZ=             -0.0000
 Traceless Quadrupole moment (field-independent basis, Debye-Ang):
   XX=             -1.3419   YY=              2.3478   ZZ=             -1.0059
   XY=              3.3113   XZ=              0.0000   YZ=             -0.0000
 Octapole moment (field-independent basis, Debye-Ang**2):
  XXX=              3.1223  YYY=             11.0564  ZZZ=              0.0000  XYY=              7.9279
  XXY=              6.7559  XXZ=              0.0000  XZZ=             -1.6138  YZZ=             -0.8666
  YYZ=              0.0000  XYZ=              0.0000
 Hexadecapole moment (field-independent basis, Debye-Ang**3):
 XXXX=           -161.1292 YYYY=            -88.9433 ZZZZ=            -18.2894 XXXY=            -36.2727
 XXXZ=              0.0000 YYYX=            -30.8268 YYYZ=             -0.0000 ZZZX=              0.0000
 ZZZY=             -0.0000 XXYY=            -33.9913 XXZZ=            -31.4388 YYZZ=            -20.4781
 XXYZ=             -0.0000 YYXZ=              0.0000 ZZXY=            -15.0873
 N-N= 1.164360114781D+02 E-N=-8.949711269819D+02  KE= 2.801733506207D+02
 Symmetry A'   KE= 2.662119140324D+02
 Symmetry A"   KE= 1.396143658835D+01
 No NMR shielding tensors so no spin-rotation constants.
 Leave Link  601 at Mon Feb 14 22:10:17 2022, MaxMem= 16106127360 cpu:               4.6 elap:               0.2
 (Enter /sw/contrib/gaussian/g16/B01/g16/l9999.exe)
 1\1\GINC-N2131\SP\RMP2-FC\Aug-CC-pVTZ\H1N1O3\CGAVINH\14-Feb-2022\0\\#p
  SP mp2/aug-cc-pvtz density=current\\title\\0,1\H\O,1,0.96897556\O,2,1
 .4727369729,1,97.59494903\N,3,1.45878406,2,102.29752444,1,180.,0\O,4,1
 .17072885,3,109.06955123,2,180.,0\\Version=ES64L-G16RevB.01\State=1-A'
 \HF=-279.5000562\MP2=-280.4465724\RMSD=3.970e-09\Dipole=-0.1442917,0.,
 -0.547445\Quadrupole=-1.4837071,-0.7478316,2.2315387,0.,2.1192539,0.\P
 G=CS [SG(H1N1O3)]\\@


 BULLDOZER: SOMEONE WHO SLEEPS THROUGH SPEECHES.
 Job cpu time:       0 days  0 hours  6 minutes 31.5 seconds.
 Elapsed time:       0 days  0 hours  0 minutes 18.0 seconds.
 File lengths (MBytes):  RWF=     22 Int=      0 D2E=      0 Chk=      8 Scr=      1
 Normal termination of Gaussian 16 at Mon Feb 14 22:10:17 2022.
