title                                                                   
SP        RMP2-FC                                                     Aug-CC-pVTZ         
Number of atoms                            I                5
Info1-9                                    I   N=           9
          33          24           0           0           0         110
           1           2           1
Full Title                                 C   N=           1
title       
Route                                      C   N=           4
#p SP mp2/aug-cc-pvtz density=current           
Charge                                     I                0
Multiplicity                               I                1
Number of electrons                        I               32
Number of alpha electrons                  I               16
Number of beta electrons                   I               16
Number of basis functions                  I              207
Number of independent functions            I              207
Number of point charges in /Mol/           I                0
Number of translation vectors              I                0
Atomic numbers                             I   N=           5
           1           8           8           7           8
Nuclear charges                            R   N=           5
  1.00000000E+00  8.00000000E+00  8.00000000E+00  7.00000000E+00  8.00000000E+00
Current cartesian coordinates              R   N=          15
  2.93088027E+00  3.19707000E+00 -2.81003229E-31  2.74794829E+00  1.37513220E+00
 -2.14183506E-31  1.13275668E-16  1.28582800E+00 -3.75662167E-32 -4.99348309E-01
 -1.42527124E+00  5.23849957E-32 -2.67737855E+00 -1.81348161E+00  1.60298855E-31
Number of symbols in /Mol/                 I                0
Force Field                                I                0
Atom Types                                 C   N=           5
                                                            
Int Atom Types                             I   N=           5
           0           0           0           0           0
MM charges                                 R   N=           5
  0.00000000E+00  0.00000000E+00  0.00000000E+00  0.00000000E+00  0.00000000E+00
Integer atomic weights                     I   N=           5
           1          16          16          14          16
Real atomic weights                        R   N=           5
  1.00782504E+00  1.59949146E+01  1.59949146E+01  1.40030740E+01  1.59949146E+01
Atom fragment info                         I   N=           5
           0           0           0           0           0
Atom residue num                           I   N=           5
           0           0           0           0           0
Nuclear spins                              I   N=           5
           1           0           0           2           0
Nuclear ZEff                               R   N=           5
 -1.00000000E+00 -5.60000000E+00 -5.60000000E+00 -4.55000000E+00 -5.60000000E+00
Nuclear ZNuc                               R   N=           5
  1.00000000E+00  8.00000000E+00  8.00000000E+00  7.00000000E+00  8.00000000E+00
Nuclear QMom                               R   N=           5
  0.00000000E+00  0.00000000E+00  0.00000000E+00  2.04400000E+00  0.00000000E+00
Nuclear GFac                               R   N=           5
  2.79284600E+00  0.00000000E+00  0.00000000E+00  4.03761000E-01  0.00000000E+00
MicOpt                                     I   N=           5
          -1          -1          -1          -1          -1
Number of residues                         I                0
Number of secondary structures             I                0
SymInf integers                            I   N=          26
           1           2           1           1           1           1
           1          -1           0           0           0           0
           0           0           0           0           0           0
           0           0           0           0           0           0
           0           0
RotTr to input orientation                 R   N=          12
 -9.94997194E-01 -9.80369556E-17 -9.99028690E-02  9.99028690E-02 -7.33917785E-17
 -9.94997194E-01  9.02144466E-17 -1.00000000E+00  8.28187869E-17  2.59682118E+00
  0.00000000E+00  3.47387903E+00
Number of contracted shells                I               65
Number of primitive shells                 I              119
Pure/Cartesian d shells                    I                0
Pure/Cartesian f shells                    I                0
Highest angular momentum                   I                3
Largest degree of contraction              I                7
Shell types                                I   N=          65
           0           0           0           0           1           1
           1          -2          -2           0           0           0
           0           0           1           1           1           1
          -2          -2          -2          -3          -3           0
           0           0           0           0           1           1
           1           1          -2          -2          -2          -3
          -3           0           0           0           0           0
           1           1           1           1          -2          -2
          -2          -3          -3           0           0           0
           0           0           1           1           1           1
          -2          -2          -2          -3          -3
Number of primitives per shell             I   N=          65
           3           1           1           1           1           1
           1           1           1           7           6           1
           1           1           3           1           1           1
           1           1           1           1           1           7
           6           1           1           1           3           1
           1           1           1           1           1           1
           1           7           6           1           1           1
           3           1           1           1           1           1
           1           1           1           7           6           1
           1           1           3           1           1           1
           1           1           1           1           1
Shell to atom map                          I   N=          65
           1           1           1           1           1           1
           1           1           1           2           2           2
           2           2           2           2           2           2
           2           2           2           2           2           3
           3           3           3           3           3           3
           3           3           3           3           3           3
           3           4           4           4           4           4
           4           4           4           4           4           4
           4           4           4           5           5           5
           5           5           5           5           5           5
           5           5           5           5           5
Primitive exponents                        R   N=         119
  3.38700000E+01  5.09500000E+00  1.15900000E+00  3.25800000E-01  1.02700000E-01
  2.52600000E-02  1.40700000E+00  3.88000000E-01  1.02000000E-01  1.05700000E+00
  2.47000000E-01  1.53300000E+04  2.29900000E+03  5.22400000E+02  1.47300000E+02
  4.75500000E+01  1.67600000E+01  6.20700000E+00  5.22400000E+02  1.47300000E+02
  4.75500000E+01  1.67600000E+01  6.20700000E+00  6.88200000E-01  1.75200000E+00
  2.38400000E-01  7.37600000E-02  3.44600000E+01  7.74900000E+00  2.28000000E+00
  7.15600000E-01  2.14000000E-01  5.97400000E-02  2.31400000E+00  6.45000000E-01
  2.14000000E-01  1.42800000E+00  5.00000000E-01  1.53300000E+04  2.29900000E+03
  5.22400000E+02  1.47300000E+02  4.75500000E+01  1.67600000E+01  6.20700000E+00
  5.22400000E+02  1.47300000E+02  4.75500000E+01  1.67600000E+01  6.20700000E+00
  6.88200000E-01  1.75200000E+00  2.38400000E-01  7.37600000E-02  3.44600000E+01
  7.74900000E+00  2.28000000E+00  7.15600000E-01  2.14000000E-01  5.97400000E-02
  2.31400000E+00  6.45000000E-01  2.14000000E-01  1.42800000E+00  5.00000000E-01
  1.14200000E+04  1.71200000E+03  3.89300000E+02  1.10000000E+02  3.55700000E+01
  1.25400000E+01  4.64400000E+00  3.89300000E+02  1.10000000E+02  3.55700000E+01
  1.25400000E+01  4.64400000E+00  5.11800000E-01  1.29300000E+00  1.78700000E-01
  5.76000000E-02  2.66300000E+01  5.94800000E+00  1.74200000E+00  5.55000000E-01
  1.72500000E-01  4.91000000E-02  1.65400000E+00  4.69000000E-01  1.51000000E-01
  1.09300000E+00  3.64000000E-01  1.53300000E+04  2.29900000E+03  5.22400000E+02
  1.47300000E+02  4.75500000E+01  1.67600000E+01  6.20700000E+00  5.22400000E+02
  1.47300000E+02  4.75500000E+01  1.67600000E+01  6.20700000E+00  6.88200000E-01
  1.75200000E+00  2.38400000E-01  7.37600000E-02  3.44600000E+01  7.74900000E+00
  2.28000000E+00  7.15600000E-01  2.14000000E-01  5.97400000E-02  2.31400000E+00
  6.45000000E-01  2.14000000E-01  1.42800000E+00  5.00000000E-01
Contraction coefficients                   R   N=         119
  2.54948632E-02  1.90362766E-01  8.52162022E-01  1.00000000E+00  1.00000000E+00
  1.00000000E+00  1.00000000E+00  1.00000000E+00  1.00000000E+00  1.00000000E+00
  1.00000000E+00  5.19808943E-04  4.02025621E-03  2.07128267E-02  8.10105536E-02
  2.35962985E-01  4.42653446E-01  3.57064423E-01 -4.42115008E-05 -1.22591041E-03
 -1.05517725E-02 -6.74452633E-02 -1.71198607E-01  1.07329856E+00  1.00000000E+00
  1.00000000E+00  1.00000000E+00  4.11634896E-02  2.57762836E-01  8.02419274E-01
  1.00000000E+00  1.00000000E+00  1.00000000E+00  1.00000000E+00  1.00000000E+00
  1.00000000E+00  1.00000000E+00  1.00000000E+00  5.19808943E-04  4.02025621E-03
  2.07128267E-02  8.10105536E-02  2.35962985E-01  4.42653446E-01  3.57064423E-01
 -4.42115008E-05 -1.22591041E-03 -1.05517725E-02 -6.74452633E-02 -1.71198607E-01
  1.07329856E+00  1.00000000E+00  1.00000000E+00  1.00000000E+00  4.11634896E-02
  2.57762836E-01  8.02419274E-01  1.00000000E+00  1.00000000E+00  1.00000000E+00
  1.00000000E+00  1.00000000E+00  1.00000000E+00  1.00000000E+00  1.00000000E+00
  5.34563860E-04  4.13435660E-03  2.12335358E-02  8.25006224E-02  2.38138871E-01
  4.42551547E-01  3.53757422E-01 -4.89867350E-05 -1.19527323E-03 -1.03490714E-02
 -6.48680190E-02 -1.71552477E-01  1.07289568E+00  1.00000000E+00  1.00000000E+00
  1.00000000E+00  3.98072123E-02  2.49002660E-01  8.10479727E-01  1.00000000E+00
  1.00000000E+00  1.00000000E+00  1.00000000E+00  1.00000000E+00  1.00000000E+00
  1.00000000E+00  1.00000000E+00  5.19808943E-04  4.02025621E-03  2.07128267E-02
  8.10105536E-02  2.35962985E-01  4.42653446E-01  3.57064423E-01 -4.42115008E-05
 -1.22591041E-03 -1.05517725E-02 -6.74452633E-02 -1.71198607E-01  1.07329856E+00
  1.00000000E+00  1.00000000E+00  1.00000000E+00  4.11634896E-02  2.57762836E-01
  8.02419274E-01  1.00000000E+00  1.00000000E+00  1.00000000E+00  1.00000000E+00
  1.00000000E+00  1.00000000E+00  1.00000000E+00  1.00000000E+00
Coordinates of each shell                  R   N=         195
  2.93088027E+00  3.19707000E+00 -1.49556010E-31  2.93088027E+00  3.19707000E+00
 -1.49556010E-31  2.93088027E+00  3.19707000E+00 -1.49556010E-31  2.93088027E+00
  3.19707000E+00 -1.49556010E-31  2.93088027E+00  3.19707000E+00 -1.49556010E-31
  2.93088027E+00  3.19707000E+00 -1.49556010E-31  2.93088027E+00  3.19707000E+00
 -1.49556010E-31  2.93088027E+00  3.19707000E+00 -1.49556010E-31  2.93088027E+00
  3.19707000E+00 -1.49556010E-31  2.74794829E+00  1.37513220E+00 -1.30322700E-31
  2.74794829E+00  1.37513220E+00 -1.30322700E-31  2.74794829E+00  1.37513220E+00
 -1.30322700E-31  2.74794829E+00  1.37513220E+00 -1.30322700E-31  2.74794829E+00
  1.37513220E+00 -1.30322700E-31  2.74794829E+00  1.37513220E+00 -1.30322700E-31
  2.74794829E+00  1.37513220E+00 -1.30322700E-31  2.74794829E+00  1.37513220E+00
 -1.30322700E-31  2.74794829E+00  1.37513220E+00 -1.30322700E-31  2.74794829E+00
  1.37513220E+00 -1.30322700E-31  2.74794829E+00  1.37513220E+00 -1.30322700E-31
  2.74794829E+00  1.37513220E+00 -1.30322700E-31  2.74794829E+00  1.37513220E+00
 -1.30322700E-31  2.74794829E+00  1.37513220E+00 -1.30322700E-31 -1.11127589E-17
  1.28582800E+00 -7.84523715E-33 -1.11127589E-17  1.28582800E+00 -7.84523715E-33
 -1.11127589E-17  1.28582800E+00 -7.84523715E-33 -1.11127589E-17  1.28582800E+00
 -7.84523715E-33 -1.11127589E-17  1.28582800E+00 -7.84523715E-33 -1.11127589E-17
  1.28582800E+00 -7.84523715E-33 -1.11127589E-17  1.28582800E+00 -7.84523715E-33
 -1.11127589E-17  1.28582800E+00 -7.84523715E-33 -1.11127589E-17  1.28582800E+00
 -7.84523715E-33 -1.11127589E-17  1.28582800E+00 -7.84523715E-33 -1.11127589E-17
  1.28582800E+00 -7.84523715E-33 -1.11127589E-17  1.28582800E+00 -7.84523715E-33
 -1.11127589E-17  1.28582800E+00 -7.84523715E-33 -1.11127589E-17  1.28582800E+00
 -7.84523715E-33 -4.99348309E-01 -1.42527124E+00  3.08532212E-32 -4.99348309E-01
 -1.42527124E+00  3.08532212E-32 -4.99348309E-01 -1.42527124E+00  3.08532212E-32
 -4.99348309E-01 -1.42527124E+00  3.08532212E-32 -4.99348309E-01 -1.42527124E+00
  3.08532212E-32 -4.99348309E-01 -1.42527124E+00  3.08532212E-32 -4.99348309E-01
 -1.42527124E+00  3.08532212E-32 -4.99348309E-01 -1.42527124E+00  3.08532212E-32
 -4.99348309E-01 -1.42527124E+00  3.08532212E-32 -4.99348309E-01 -1.42527124E+00
  3.08532212E-32 -4.99348309E-01 -1.42527124E+00  3.08532212E-32 -4.99348309E-01
 -1.42527124E+00  3.08532212E-32 -4.99348309E-01 -1.42527124E+00  3.08532212E-32
 -4.99348309E-01 -1.42527124E+00  3.08532212E-32 -2.67737855E+00 -1.81348161E+00
  1.29865869E-31 -2.67737855E+00 -1.81348161E+00  1.29865869E-31 -2.67737855E+00
 -1.81348161E+00  1.29865869E-31 -2.67737855E+00 -1.81348161E+00  1.29865869E-31
 -2.67737855E+00 -1.81348161E+00  1.29865869E-31 -2.67737855E+00 -1.81348161E+00
  1.29865869E-31 -2.67737855E+00 -1.81348161E+00  1.29865869E-31 -2.67737855E+00
 -1.81348161E+00  1.29865869E-31 -2.67737855E+00 -1.81348161E+00  1.29865869E-31
 -2.67737855E+00 -1.81348161E+00  1.29865869E-31 -2.67737855E+00 -1.81348161E+00
  1.29865869E-31 -2.67737855E+00 -1.81348161E+00  1.29865869E-31 -2.67737855E+00
 -1.81348161E+00  1.29865869E-31 -2.67737855E+00 -1.81348161E+00  1.29865869E-31
Num ILSW                                   I              100
ILSW                                       I   N=         100
           0           0           0           0           2           0
           0           0           0           0           0          -1
           5           0           0           0           0           0
           0           0           0           0           0           0
           1           0           0           0           0           0
           0           0      100000           0          -1           0
           0           0           0           0           0           0
           0           0           0           1           0           0
           0 -2000000000           1           0           0           0
           0           0           4          52           0           0
           0           0           0           0           0           0
           0           0           0           5           0           1
           0           0           0           0           0           0
           0           0           0           0           0           0
           0           0           0           0           0           0
           0           0           0           0           0           0
           0           0           0           0
Num RLSW                                   I               52
RLSW                                       R   N=          52
  1.00000000E+00  1.00000000E+00  1.00000000E+00  1.00000000E+00  1.00000000E+00
  0.00000000E+00  0.00000000E+00  1.00000000E+00  0.00000000E+00  0.00000000E+00
  0.00000000E+00  0.00000000E+00  1.00000000E+00  0.00000000E+00  0.00000000E+00
  0.00000000E+00  0.00000000E+00  1.00000000E+00  0.00000000E+00  0.00000000E+00
  0.00000000E+00  0.00000000E+00  1.00000000E+00  0.00000000E+00  0.00000000E+00
  0.00000000E+00  0.00000000E+00  1.00000000E+00  0.00000000E+00  0.00000000E+00
  0.00000000E+00  0.00000000E+00  1.00000000E+00  0.00000000E+00  0.00000000E+00
  0.00000000E+00  0.00000000E+00  0.00000000E+00  1.00000000E+00  1.00000000E+00
  0.00000000E+00  1.00000000E+00  0.00000000E+00  0.00000000E+00  0.00000000E+00
  0.00000000E+00  0.00000000E+00  0.00000000E+00  0.00000000E+00  0.00000000E+00
  0.00000000E+00  0.00000000E+00
MxBond                                     I                2
NBond                                      I   N=           5
           1           2           2           2           1
IBond                                      I   N=          10
           2           0           1           3           2           4
           3           5           4           0
RBond                                      R   N=          10
  1.00000000E+00  0.00000000E+00  1.00000000E+00  1.00000000E+00  1.00000000E+00
  1.00000000E+00  1.00000000E+00  2.00000000E+00  2.00000000E+00  0.00000000E+00
Virial Ratio                               R      2.002387111655275E+00
SCF Energy                                 R     -2.795014146194346E+02
MP2 Energy                                 R     -2.804465761918810E+02
Total Energy                               R     -2.804465761918810E+02
Post-SCF wavefunction norm                 R      1.120292558298192E+00
RMS Density                                R      3.863652446843098E-09
Job Status                                 I                1
Nuclear derivative order                   I                0
External E-field                           R   N=          35
  0.00000000E+00  0.00000000E+00  0.00000000E+00  0.00000000E+00  0.00000000E+00
  0.00000000E+00  0.00000000E+00  0.00000000E+00  0.00000000E+00  0.00000000E+00
  0.00000000E+00  0.00000000E+00  0.00000000E+00  0.00000000E+00  0.00000000E+00
  0.00000000E+00  0.00000000E+00  0.00000000E+00  0.00000000E+00  0.00000000E+00
  0.00000000E+00  0.00000000E+00  0.00000000E+00  0.00000000E+00  0.00000000E+00
  0.00000000E+00  0.00000000E+00  0.00000000E+00  0.00000000E+00  0.00000000E+00
  0.00000000E+00  0.00000000E+00  0.00000000E+00  0.00000000E+00  0.00000000E+00
IOpCl                                      I                0
IROHF                                      I                0
Alpha Orbital Energies                     R   N=         207
 -2.06914993E+01 -2.06848057E+01 -2.06608956E+01 -1.58123109E+01 -1.62283358E+00
 -1.49680780E+00 -1.25557587E+00 -9.47694820E-01 -7.73556334E-01 -7.58697500E-01
 -7.11523369E-01 -6.79746148E-01 -6.21020162E-01 -5.90677309E-01 -4.85906578E-01
 -4.70664465E-01  2.95155352E-02  7.22919511E-02  8.56526340E-02  1.01733140E-01
  1.34036868E-01  1.34040915E-01  1.44025740E-01  1.54627054E-01  1.78103337E-01
  1.94230089E-01  1.99754119E-01  2.06066845E-01  2.20809751E-01  2.33980192E-01
  2.37185570E-01  2.65011006E-01  2.94518151E-01  3.04352451E-01  3.10720088E-01
  3.42943025E-01  3.49956523E-01  3.86703845E-01  4.21378068E-01  4.31158704E-01
  5.25964722E-01  5.30412197E-01  5.59114878E-01  5.83118495E-01  6.26814843E-01
  6.35084441E-01  6.74046882E-01  6.84180766E-01  7.08630397E-01  7.10680986E-01
  7.24589189E-01  7.29781663E-01  7.46149514E-01  7.89183764E-01  7.91325413E-01
  8.09557631E-01  8.12163323E-01  8.29985645E-01  8.68293943E-01  9.07294753E-01
  9.21595344E-01  9.23217730E-01  9.56773294E-01  9.80218476E-01  9.84316922E-01
  1.01589035E+00  1.05218477E+00  1.05461813E+00  1.08158620E+00  1.11834462E+00
  1.14030851E+00  1.18867850E+00  1.22378652E+00  1.23197516E+00  1.33813577E+00
  1.34851198E+00  1.38363156E+00  1.45124914E+00  1.48806732E+00  1.51045967E+00
  1.53910017E+00  1.56543715E+00  1.58011284E+00  1.61417135E+00  1.66339584E+00
  1.66766275E+00  1.70462124E+00  1.79352821E+00  1.83328418E+00  1.83385668E+00
  1.87574354E+00  1.91226333E+00  1.95547810E+00  1.99057978E+00  2.00984062E+00
  2.07394706E+00  2.11872555E+00  2.13368467E+00  2.14835775E+00  2.22261190E+00
  2.26078067E+00  2.26352461E+00  2.28988375E+00  2.31416381E+00  2.34004727E+00
  2.38601527E+00  2.42159782E+00  2.42866133E+00  2.45710540E+00  2.46724874E+00
  2.47581214E+00  2.50224275E+00  2.58980854E+00  2.59407072E+00  2.61635938E+00
  2.62736458E+00  2.63498677E+00  2.66400782E+00  2.76220294E+00  2.83417225E+00
  2.86397436E+00  2.87495516E+00  2.89463915E+00  2.90666606E+00  2.96490093E+00
  3.02261993E+00  3.07315991E+00  3.11604975E+00  3.20486271E+00  3.23054163E+00
  3.31378953E+00  3.34646209E+00  3.50652648E+00  3.64948112E+00  3.83856583E+00
  3.84485658E+00  4.14766544E+00  4.15773086E+00  4.18277255E+00  4.25723508E+00
  4.35572812E+00  4.39285725E+00  4.46331267E+00  4.51797418E+00  4.66821162E+00
  4.70902105E+00  4.80827606E+00  4.81915959E+00  4.82677861E+00  4.89480773E+00
  5.02145345E+00  5.07867141E+00  5.09886858E+00  5.14207170E+00  5.18529378E+00
  5.24041606E+00  5.26946783E+00  5.31226555E+00  5.32835380E+00  5.35899855E+00
  5.60999403E+00  5.67353713E+00  5.75250330E+00  5.82928358E+00  5.95811145E+00
  6.16742025E+00  6.30643524E+00  6.34020515E+00  6.39368164E+00  6.49068538E+00
  6.50140203E+00  6.61215839E+00  6.66757259E+00  6.69342647E+00  6.75671817E+00
  6.76132662E+00  6.82550130E+00  6.90374350E+00  7.01240286E+00  7.05457807E+00
  7.05686756E+00  7.08792874E+00  7.12620305E+00  7.14687045E+00  7.18055417E+00
  7.22413147E+00  7.24068589E+00  7.30686011E+00  7.32468125E+00  7.34830961E+00
  7.40028960E+00  7.43271244E+00  7.48654639E+00  7.60621884E+00  7.61523452E+00
  7.63025330E+00  7.66067940E+00  7.77997857E+00  7.89486211E+00  8.09162822E+00
  8.31401306E+00  8.40914690E+00  8.54533610E+00  1.33771198E+01  1.44110173E+01
  1.51532944E+01  1.61503793E+01
Alpha MO coefficients                      R   N=       42849
  9.16154840E-05 -6.59207209E-04 -7.26093483E-04 -5.39570434E-06 -2.11343870E-05
 -2.63788946E-05  0.00000000E+00 -4.37576959E-05  6.60093541E-05  0.00000000E+00
  8.70072461E-05  3.52476169E-05  0.00000000E+00  3.19572471E-05  0.00000000E+00
  0.00000000E+00 -4.89126837E-05  2.14878219E-05 -6.66750709E-06  0.00000000E+00
  0.00000000E+00 -1.36061333E-04  1.17440515E-04  4.62600890E-03 -2.82973861E-04
  1.69920961E-05  1.58273987E-03  1.82218002E-03  1.05645812E-04  7.20034094E-06
  0.00000000E+00 -6.15333770E-04 -3.31514783E-05  0.00000000E+00 -1.10246404E-03
  8.18473344E-04  0.00000000E+00 -4.02423512E-04  6.58096324E-05  0.00000000E+00
  2.87075296E-05  0.00000000E+00  0.00000000E+00 -5.37636654E-05  5.81703692E-06
 -3.77803262E-04  0.00000000E+00  0.00000000E+00  7.36586131E-04 -3.33471077E-05
 -4.47470034E-04  0.00000000E+00  0.00000000E+00  2.36398519E-04 -2.40412861E-05
  0.00000000E+00  7.98076229E-05  1.25433356E-05  0.00000000E+00  0.00000000E+00
 -1.09541244E-04 -3.05129993E-06  0.00000000E+00  2.53497249E-04 -2.84536380E-05
  0.00000000E+00  0.00000000E+00 -3.51699515E-04  5.14803704E-05  9.76911359E-01
 -9.21554749E-03  4.33182080E-02  2.05295252E-03 -9.37043889E-04  1.48572422E-03
 -1.37046114E-03  0.00000000E+00 -1.42669249E-03  1.40008000E-03  0.00000000E+00
  7.73512004E-05 -1.18246537E-03  0.00000000E+00 -1.34343194E-04 -9.44152257E-06
  0.00000000E+00  4.56668503E-05  0.00000000E+00  0.00000000E+00 -3.67330331E-05
  2.04852490E-05  7.45517476E-04  0.00000000E+00  0.00000000E+00 -2.27627272E-04
 -3.88326238E-04 -3.51563089E-04  0.00000000E+00  0.00000000E+00 -3.26062586E-04
 -3.92653871E-04  0.00000000E+00  4.76874362E-05 -4.94833514E-05  0.00000000E+00
  0.00000000E+00 -3.84461984E-05 -1.68501260E-05  0.00000000E+00  2.14673722E-05
  2.14353398E-05  0.00000000E+00  0.00000000E+00 -3.07711913E-04 -1.37407466E-04
  3.93066411E-05  4.65715485E-05 -2.66553208E-04 -6.77018927E-04 -1.14451986E-04
 -2.79623587E-05 -9.86023009E-05  0.00000000E+00  2.67638299E-04  7.18827165E-04
  0.00000000E+00 -8.67505500E-04 -5.04765402E-04  0.00000000E+00 -1.26368418E-04
 -2.24024252E-05  0.00000000E+00 -1.79366604E-05  0.00000000E+00  0.00000000E+00
 -2.91889343E-05  1.34807240E-05 -3.30975735E-04  0.00000000E+00  0.00000000E+00
 -8.33909836E-04  1.33760349E-04 -3.66699698E-05  0.00000000E+00  0.00000000E+00
  1.04343639E-04 -1.08059696E-04  0.00000000E+00 -2.11426329E-05 -1.20643722E-04
  0.00000000E+00  0.00000000E+00 -6.31053669E-05 -1.38586220E-04  0.00000000E+00
  7.54320796E-07 -1.51801821E-04  0.00000000E+00  0.00000000E+00  4.43435617E-05
 -4.25376383E-04 -2.48483356E-03  1.10440110E-04 -1.23277292E-04 -2.70702454E-04
  1.12858167E-04 -8.28180915E-06 -3.05763390E-05  0.00000000E+00  6.31540364E-05
  1.76593214E-04  0.00000000E+00  2.17872734E-04  2.15155381E-04  0.00000000E+00
  1.21515971E-04  2.20224735E-05  0.00000000E+00 -2.47796818E-06  0.00000000E+00
  0.00000000E+00 -1.72584809E-05  1.60000754E-07 -6.19071011E-06  0.00000000E+00
  0.00000000E+00  6.79059149E-05  9.89827967E-05 -1.05631388E-04  0.00000000E+00
  0.00000000E+00  1.52517357E-04  1.66751159E-04  0.00000000E+00  1.49966867E-05
 -4.80161106E-06  0.00000000E+00  0.00000000E+00 -6.23725212E-06 -1.17116753E-05
  0.00000000E+00 -3.72389421E-05  4.68241619E-05  0.00000000E+00  0.00000000E+00
  7.51675445E-05  9.12097389E-05  3.85133731E-05 -1.00350503E-03 -4.98176075E-04
 -1.10915792E-05 -2.43249986E-05  1.74321226E-05  0.00000000E+00  5.40698843E-06
  2.85909326E-04  0.00000000E+00 -3.78543654E-05  1.36714006E-04  0.00000000E+00
  2.65707107E-05  0.00000000E+00  0.00000000E+00  1.41188690E-05  1.10334576E-05
 -2.43913275E-05  0.00000000E+00  0.00000000E+00  1.02926621E-05  3.42274499E-05
  1.11203906E-04  8.41053054E-05 -2.87153739E-05  7.82453875E-04  6.43707848E-04
  1.00406304E-05  2.44092115E-06  0.00000000E+00 -7.04845507E-05  2.01729297E-05
  0.00000000E+00  3.26575819E-04  8.85087609E-04  0.00000000E+00  6.72540105E-06
  7.78117410E-05  0.00000000E+00 -2.19249421E-06  0.00000000E+00  0.00000000E+00
 -9.34262991E-09 -7.43556044E-06 -3.74471581E-05  0.00000000E+00  0.00000000E+00
 -2.41205160E-05  9.18271848E-05 -2.25226726E-05  0.00000000E+00  0.00000000E+00
 -2.62185895E-04 -1.50396680E-04  0.00000000E+00  9.54101174E-06  5.80486130E-06
  0.00000000E+00  0.00000000E+00  3.05667940E-06 -1.92839510E-05  0.00000000E+00
 -4.23989473E-05 -3.71359741E-05  0.00000000E+00  0.00000000E+00 -7.84304626E-05
  1.50816131E-05  2.52219930E-03  3.69594006E-05  8.14819019E-05 -4.31895865E-05
 -4.31140249E-04  9.51171753E-06  1.94641053E-05  0.00000000E+00 -6.93719193E-05
 -6.98115191E-05  0.00000000E+00  1.88271162E-04 -1.91094575E-04  0.00000000E+00
 -1.76507569E-04 -5.90677044E-05  0.00000000E+00 -8.13192233E-06  0.00000000E+00
  0.00000000E+00  2.24932798E-05  1.71173121E-05 -3.19669609E-06  0.00000000E+00
  0.00000000E+00 -1.21537981E-04 -2.79487212E-05 -1.32665145E-05  0.00000000E+00
  0.00000000E+00 -2.22227731E-04 -1.65439166E-04  0.00000000E+00  5.42187060E-06
  2.67971877E-06  0.00000000E+00  0.00000000E+00  4.81975380E-06 -1.60052689E-05
  0.00000000E+00 -4.81581829E-05  6.81899038E-08  0.00000000E+00  0.00000000E+00
 -7.18402755E-05  1.96109921E-04  2.59563609E-04  1.47372937E-03 -7.48027765E-05
 -1.61210377E-03  3.76709195E-04 -1.43270071E-04 -4.96662805E-07  0.00000000E+00
 -2.09474671E-03 -4.58052680E-04  0.00000000E+00  1.08837321E-03  7.90344375E-04
  0.00000000E+00 -1.77560125E-04  4.18830479E-05  0.00000000E+00 -1.24462083E-04
  0.00000000E+00  0.00000000E+00  2.37517121E-04  1.04019168E-04 -4.35890660E-04
  0.00000000E+00  0.00000000E+00  9.15478433E-04 -3.14429973E-05  1.94877558E-05
  0.00000000E+00  0.00000000E+00 -3.36543762E-04 -1.28168711E-04  0.00000000E+00
 -4.90690628E-08  1.63469248E-05  0.00000000E+00  0.00000000E+00  1.77692640E-05
  1.60432333E-05  0.00000000E+00  1.60661806E-04 -6.81920614E-05  0.00000000E+00
  0.00000000E+00 -2.49662100E-04  3.65289060E-05  9.76651942E-01 -9.84616199E-03
  4.35646613E-02  4.53908052E-03 -4.38153404E-04  2.13457937E-03  5.46743578E-04
  0.00000000E+00 -2.37000141E-03 -6.73268374E-04  0.00000000E+00  1.14510265E-03
 -2.21890555E-06  0.00000000E+00  6.52322027E-06 -3.81420915E-05  0.00000000E+00
 -2.31229214E-04  0.00000000E+00  0.00000000E+00  1.02388767E-04  3.56062882E-05
  3.92500125E-04  0.00000000E+00  0.00000000E+00 -8.13199738E-04 -4.69807782E-04
 -1.46898238E-04  0.00000000E+00  0.00000000E+00  2.62642695E-04  1.41503399E-05
  0.00000000E+00  5.18419413E-05  1.81567676E-05  0.00000000E+00  0.00000000E+00
 -2.21551059E-05 -1.55147390E-05  0.00000000E+00  1.38910450E-04  1.63018667E-05
  0.00000000E+00  0.00000000E+00 -1.76351257E-04 -1.56896711E-04  4.74577193E-04
  2.06959576E-03  1.24122817E-04  1.51006355E-05 -4.16150405E-05 -2.46672205E-04
  0.00000000E+00  1.08160752E-04 -1.27858470E-03  0.00000000E+00  3.02901375E-04
 -3.42782716E-04  0.00000000E+00 -2.82017695E-06  0.00000000E+00  0.00000000E+00
  7.57500093E-05  1.53251044E-05 -1.60680825E-04  0.00000000E+00  0.00000000E+00
 -5.37000703E-04 -1.97216299E-05  9.76830788E-01 -9.16312242E-03  4.34485317E-02
  1.56624459E-04 -1.12116847E-03 -1.56295522E-03  1.44542032E-03  0.00000000E+00
  1.57462906E-03 -1.28845979E-03  0.00000000E+00 -5.75020729E-04 -8.73350619E-04
  0.00000000E+00  5.41584257E-05 -2.46935162E-05  0.00000000E+00  2.98331718E-05
  0.00000000E+00  0.00000000E+00 -1.18425242E-04 -2.90678130E-06  7.58311219E-04
  0.00000000E+00  0.00000000E+00 -2.03423272E-04 -2.35461561E-04 -2.65427921E-04
  0.00000000E+00  0.00000000E+00  1.72498790E-04  1.27854438E-04  0.00000000E+00
 -6.41500155E-05  1.38288498E-06  0.00000000E+00  0.00000000E+00  1.90293839E-05
  9.57742938E-06  0.00000000E+00 -1.10083325E-06  1.22955805E-04  0.00000000E+00
  0.00000000E+00  2.57842058E-04  9.09616684E-05 -4.71891792E-03 -2.12776036E-04