 Entering Gaussian System, Link 0=g16
 Input=hoono_d1_187p6000.gjf
 Output=hoono_d1_187p6000.log
 Initial command:
 /sw/contrib/gaussian/g16/B01/g16/l1.exe "/scr/Gau-15377.inp" -scrdir="/scr/"
 Entering Link 1 = /sw/contrib/gaussian/g16/B01/g16/l1.exe PID=     15378.
  
 Copyright (c) 1988-2017, Gaussian, Inc.  All Rights Reserved.
  
 This is part of the Gaussian(R) 16 program.  It is based on
 the Gaussian(R) 09 system (copyright 2009, Gaussian, Inc.),
 the Gaussian(R) 03 system (copyright 2003, Gaussian, Inc.),
 the Gaussian(R) 98 system (copyright 1998, Gaussian, Inc.),
 the Gaussian(R) 94 system (copyright 1995, Gaussian, Inc.),
 the Gaussian 92(TM) system (copyright 1992, Gaussian, Inc.),
 the Gaussian 90(TM) system (copyright 1990, Gaussian, Inc.),
 the Gaussian 88(TM) system (copyright 1988, Gaussian, Inc.),
 the Gaussian 86(TM) system (copyright 1986, Carnegie Mellon
 University), and the Gaussian 82(TM) system (copyright 1983,
 Carnegie Mellon University). Gaussian is a federally registered
 trademark of Gaussian, Inc.
  
 This software contains proprietary and confidential information,
 including trade secrets, belonging to Gaussian, Inc.
  
 This software is provided under written license and may be
 used, copied, transmitted, or stored only in accord with that
 written license.
  
 The following legend is applicable only to US Government
 contracts under FAR:
  
                    RESTRICTED RIGHTS LEGEND
  
 Use, reproduction and disclosure by the US Government is
 subject to restrictions as set forth in subparagraphs (a)
 and (c) of the Commercial Computer Software - Restricted
 Rights clause in FAR 52.227-19.
  
 Gaussian, Inc.
 340 Quinnipiac St., Bldg. 40, Wallingford CT 06492
  
  
 ---------------------------------------------------------------
 Warning -- This program may not be used in any manner that
 competes with the business of Gaussian, Inc. or will provide
 assistance to any competitor of Gaussian, Inc.  The licensee
 of this program is prohibited from giving any competitor of
 Gaussian, Inc. access to this program.  By using this program,
 the user acknowledges that Gaussian, Inc. is engaged in the
 business of creating and licensing software in the field of
 computational chemistry and represents and warrants to the
 licensee that it is not a competitor of Gaussian, Inc. and that
 it will not use this program in any manner prohibited above.
 ---------------------------------------------------------------
  

 Cite this work as:
 Gaussian 16, Revision B.01,
 M. J. Frisch, G. W. Trucks, H. B. Schlegel, G. E. Scuseria, 
 M. A. Robb, J. R. Cheeseman, G. Scalmani, V. Barone, 
 G. A. Petersson, H. Nakatsuji, X. Li, M. Caricato, A. V. Marenich, 
 J. Bloino, B. G. Janesko, R. Gomperts, B. Mennucci, H. P. Hratchian, 
 J. V. Ortiz, A. F. Izmaylov, J. L. Sonnenberg, D. Williams-Young, 
 F. Ding, F. Lipparini, F. Egidi, J. Goings, B. Peng, A. Petrone, 
 T. Henderson, D. Ranasinghe, V. G. Zakrzewski, J. Gao, N. Rega, 
 G. Zheng, W. Liang, M. Hada, M. Ehara, K. Toyota, R. Fukuda, 
 J. Hasegawa, M. Ishida, T. Nakajima, Y. Honda, O. Kitao, H. Nakai, 
 T. Vreven, K. Throssell, J. A. Montgomery, Jr., J. E. Peralta, 
 F. Ogliaro, M. J. Bearpark, J. J. Heyd, E. N. Brothers, K. N. Kudin, 
 V. N. Staroverov, T. A. Keith, R. Kobayashi, J. Normand, 
 K. Raghavachari, A. P. Rendell, J. C. Burant, S. S. Iyengar, 
 J. Tomasi, M. Cossi, J. M. Millam, M. Klene, C. Adamo, R. Cammi, 
 J. W. Ochterski, R. L. Martin, K. Morokuma, O. Farkas, 
 J. B. Foresman, and D. J. Fox, Gaussian, Inc., Wallingford CT, 2016.
 
 ******************************************
 Gaussian 16:  ES64L-G16RevB.01 20-Dec-2017
                14-Feb-2022 
 ******************************************
 %nproc=28
 Will use up to   28 processors via shared memory.
 %mem=120GB
 %chk=hoono_d1_187p6000.chk
 -------------------------------------
 #p SP mp2/aug-cc-pvtz density=current
 -------------------------------------
 1/30=1,38=1,172=1/1;
 2/12=2,17=6,18=5,40=1/2;
 3/5=16,6=1,7=10,11=9,25=1,30=1,71=1/1,2,3;
 4//1;
 5/5=2,38=5/2;
 8/6=4,10=1/1;
 9/15=1,16=-3/6;
 10/5=1,13=10/2;
 6/7=2,8=2,9=2,10=2,22=-1/1;
 99/5=1,9=1/99;
 Leave Link    1 at Mon Feb 14 22:13:16 2022, MaxMem= 16106127360 cpu:               2.9 elap:               0.1
 (Enter /sw/contrib/gaussian/g16/B01/g16/l101.exe)
 -----
 title
 -----
 Symbolic Z-matrix:
 Charge =  0 Multiplicity = 1
 H
 O                    1    r1
 O                    2    r2       1    a1
 N                    3    r3       2    a2       1    d1       0
 O                    4    r4       3    a3       2    d2       0
       Variables:
  r1                    0.96898                  
  r2                    1.45492                  
  r3                    1.45878                  
  r4                    1.17073                  
  a1                   97.59495                  
  a2                  102.29752                  
  a3                  109.06955                  
  d1                  187.60005                  
  d2                  180.                       
 
 ITRead=  0  0  0  0  0
 MicOpt= -1 -1 -1 -1 -1
 NAtoms=      5 NQM=        5 NQMF=       0 NMMI=      0 NMMIF=      0
                NMic=       0 NMicF=      0.
                    Isotopes and Nuclear Properties:
 (Nuclear quadrupole moments (NQMom) in fm**2, nuclear magnetic moments (NMagM)
  in nuclear magnetons)

  Atom         1           2           3           4           5
 IAtWgt=           1          16          16          14          16
 AtmWgt=   1.0078250  15.9949146  15.9949146  14.0030740  15.9949146
 NucSpn=           1           0           0           2           0
 AtZEff=  -0.0000000  -0.0000000  -0.0000000  -0.0000000  -0.0000000
 NQMom=    0.0000000   0.0000000   0.0000000   2.0440000   0.0000000
 NMagM=    2.7928460   0.0000000   0.0000000   0.4037610   0.0000000
 AtZNuc=   1.0000000   8.0000000   8.0000000   7.0000000   8.0000000
 Leave Link  101 at Mon Feb 14 22:13:16 2022, MaxMem= 16106127360 cpu:               2.4 elap:               0.1
 (Enter /sw/contrib/gaussian/g16/B01/g16/l202.exe)
                          Input orientation:                          
 ---------------------------------------------------------------------
 Center     Atomic      Atomic             Coordinates (Angstroms)
 Number     Number       Type             X           Y           Z
 ---------------------------------------------------------------------
      1          1           0        0.000000    0.000000    0.000000
      2          8           0        0.000000    0.000000    0.968976
      3          8           0        1.442156    0.000000    1.161271
      4          7           0        1.563406   -0.188508    2.602733
      5          8           0        2.697683   -0.206766    2.892026
 ---------------------------------------------------------------------
                    Distance matrix (angstroms):
                    1          2          3          4          5
     1  H    0.000000
     2  O    0.968976   0.000000
     3  O    1.851584   1.454919   0.000000
     4  N    3.042038   2.269127   1.458784   0.000000
     5  O    3.960310   3.319392   2.148165   1.170729   0.000000
 Stoichiometry    HNO3
 Framework group  C1[X(HNO3)]
 Deg. of freedom     9
 Full point group                 C1      NOp   1
 Largest Abelian subgroup         C1      NOp   1
 Largest concise Abelian subgroup C1      NOp   1
                         Standard orientation:                         
 ---------------------------------------------------------------------
 Center     Atomic      Atomic             Coordinates (Angstroms)
 Number     Number       Type             X           Y           Z
 ---------------------------------------------------------------------
      1          1           0        2.244725    0.430044    0.105978
      2          8           0        1.599055   -0.283215   -0.009284
      3          8           0        0.400279    0.541234   -0.012425
      4          7           0       -0.663365   -0.456970    0.004921
      5          8           0       -1.699480    0.088074    0.004156
 ---------------------------------------------------------------------
 Rotational constants (GHZ):          54.9035032           5.0114267           4.5934932
 Leave Link  202 at Mon Feb 14 22:13:16 2022, MaxMem= 16106127360 cpu:               0.2 elap:               0.0
 (Enter /sw/contrib/gaussian/g16/B01/g16/l301.exe)
 Standard basis: Aug-CC-pVTZ (5D, 7F)
 Ernie: Thresh=  0.10000D-02 Tol=  0.10000D-05 Strict=F.
 Ernie:  12 primitive shells out of 131 were deleted.
 There are   245 symmetry adapted cartesian basis functions of A   symmetry.
 There are   207 symmetry adapted basis functions of A   symmetry.
   207 basis functions,   315 primitive gaussians,   245 cartesian basis functions
    16 alpha electrons       16 beta electrons
       nuclear repulsion energy       116.8744887659 Hartrees.
 IExCor=    0 DFT=F Ex=HF Corr=None ExCW=0 ScaHFX=  1.000000
 ScaDFX=  1.000000  1.000000  1.000000  1.000000 ScalE2=  1.000000  1.000000
 IRadAn=      5 IRanWt=     -1 IRanGd=            0 ICorTp=0 IEmpDi=  4
 NAtoms=    5 NActive=    5 NUniq=    5 SFac= 1.00D+00 NAtFMM=   60 NAOKFM=F Big=F
 Integral buffers will be    131072 words long.
 Raffenetti 1 integral format.
 Two-electron integral symmetry is turned on.
 Leave Link  301 at Mon Feb 14 22:13:16 2022, MaxMem= 16106127360 cpu:               1.8 elap:               0.1
 (Enter /sw/contrib/gaussian/g16/B01/g16/l302.exe)
 NPDir=0 NMtPBC=     1 NCelOv=     1 NCel=       1 NClECP=     1 NCelD=      1
         NCelK=      1 NCelE2=     1 NClLst=     1 CellRange=     0.0.
 One-electron integrals computed using PRISM.
 One-electron integral symmetry used in STVInt
 NBasis=   207 RedAO= T EigKep=  1.82D-04  NBF=   207
 NBsUse=   207 1.00D-06 EigRej= -1.00D+00 NBFU=   207
 Leave Link  302 at Mon Feb 14 22:13:16 2022, MaxMem= 16106127360 cpu:               4.8 elap:               0.2
 (Enter /sw/contrib/gaussian/g16/B01/g16/l303.exe)
 DipDrv:  MaxL=1.
 Leave Link  303 at Mon Feb 14 22:13:16 2022, MaxMem= 16106127360 cpu:               1.6 elap:               0.1
 (Enter /sw/contrib/gaussian/g16/B01/g16/l401.exe)
 ExpMin= 2.53D-02 ExpMax= 1.53D+04 ExpMxC= 5.22D+02 IAcc=3 IRadAn=         5 AccDes= 0.00D+00
 Harris functional with IExCor=  205 and IRadAn=       5 diagonalized for initial guess.
 HarFok:  IExCor=  205 AccDes= 0.00D+00 IRadAn=         5 IDoV= 1 UseB2=F ITyADJ=14
 ICtDFT=  3500011 ScaDFX=  1.000000  1.000000  1.000000  1.000000
 FoFCou: FMM=F IPFlag=           0 FMFlag=      100000 FMFlg1=           0
         NFxFlg=           0 DoJE=T BraDBF=F KetDBF=T FulRan=T
         wScrn=  0.000000 ICntrl=       500 IOpCl=  0 I1Cent=   200000004 NGrid=           0
         NMat0=    1 NMatS0=      1 NMatT0=    0 NMatD0=    1 NMtDS0=    0 NMtDT0=    0
 Petite list used in FoFCou.
 Harris En= -279.628733130366    
 JPrj=0 DoOrth=F DoCkMO=F.
 Leave Link  401 at Mon Feb 14 22:13:16 2022, MaxMem= 16106127360 cpu:               8.4 elap:               0.4
 (Enter /sw/contrib/gaussian/g16/B01/g16/l502.exe)
 Keep R1 ints in memory in canonical form, NReq=245616937.
 FoFCou: FMM=F IPFlag=           0 FMFlag=           0 FMFlg1=           0
         NFxFlg=           0 DoJE=F BraDBF=F KetDBF=F FulRan=T
         wScrn=  0.000000 ICntrl=       600 IOpCl=  0 I1Cent=           0 NGrid=           0
         NMat0=    1 NMatS0=  21528 NMatT0=    0 NMatD0=    1 NMtDS0=    0 NMtDT0=    0
 Symmetry not used in FoFCou.
 Two-electron integral symmetry not used.
 Closed shell SCF:
 Using DIIS extrapolation, IDIIS=  1040.
 NGot= 16106127360 LenX= 15874260251 LenY= 15874199785
 Requested convergence on RMS density matrix=1.00D-08 within 128 cycles.
 Requested convergence on MAX density matrix=1.00D-06.
 Requested convergence on             energy=1.00D-06.
 No special actions if energy rises.

 Cycle   1  Pass 1  IDiag  1:
 E= -279.370537283451    
 DIIS: error= 2.48D-02 at cycle   1 NSaved=   1.
 NSaved= 1 IEnMin= 1 EnMin= -279.370537283451     IErMin= 1 ErrMin= 2.48D-02
 ErrMax= 2.48D-02  0.00D+00 EMaxC= 1.00D-01 BMatC= 4.38D-01 BMatP= 4.38D-01
 IDIUse=3 WtCom= 7.52D-01 WtEn= 2.48D-01
 Coeff-Com:  0.100D+01
 Coeff-En:   0.100D+01
 Coeff:      0.100D+01
 Gap=     0.518 Goal=   None    Shift=    0.000
 GapD=    0.518 DampG=2.000 DampE=0.500 DampFc=1.0000 IDamp=-1.
 RMSDP=1.62D-03 MaxDP=9.92D-02              OVMax= 1.13D-01

 Cycle   2  Pass 1  IDiag  1:
 E= -279.452469461272     Delta-E=       -0.081932177822 Rises=F Damp=F
 DIIS: error= 1.75D-02 at cycle   2 NSaved=   2.
 NSaved= 2 IEnMin= 2 EnMin= -279.452469461272     IErMin= 2 ErrMin= 1.75D-02
 ErrMax= 1.75D-02  0.00D+00 EMaxC= 1.00D-01 BMatC= 7.18D-02 BMatP= 4.38D-01
 IDIUse=3 WtCom= 8.25D-01 WtEn= 1.75D-01
 Coeff-Com:  0.195D+00 0.805D+00
 Coeff-En:   0.000D+00 0.100D+01
 Coeff:      0.161D+00 0.839D+00
 Gap=     0.532 Goal=   None    Shift=    0.000
 RMSDP=9.00D-04 MaxDP=3.73D-02 DE=-8.19D-02 OVMax= 6.81D-02

 Cycle   3  Pass 1  IDiag  1:
 E= -279.481668503527     Delta-E=       -0.029199042254 Rises=F Damp=F
 DIIS: error= 1.01D-02 at cycle   3 NSaved=   3.
 NSaved= 3 IEnMin= 3 EnMin= -279.481668503527     IErMin= 3 ErrMin= 1.01D-02
 ErrMax= 1.01D-02  0.00D+00 EMaxC= 1.00D-01 BMatC= 2.86D-02 BMatP= 7.18D-02
 IDIUse=3 WtCom= 8.99D-01 WtEn= 1.01D-01
 Coeff-Com: -0.330D-01 0.378D+00 0.655D+00
 Coeff-En:   0.000D+00 0.240D+00 0.760D+00
 Coeff:     -0.297D-01 0.364D+00 0.666D+00
 Gap=     0.510 Goal=   None    Shift=    0.000
 RMSDP=3.76D-04 MaxDP=1.54D-02 DE=-2.92D-02 OVMax= 3.80D-02

 Cycle   4  Pass 1  IDiag  1:
 E= -279.500666723736     Delta-E=       -0.018998220209 Rises=F Damp=F
 DIIS: error= 1.27D-03 at cycle   4 NSaved=   4.
 NSaved= 4 IEnMin= 4 EnMin= -279.500666723736     IErMin= 4 ErrMin= 1.27D-03
 ErrMax= 1.27D-03  0.00D+00 EMaxC= 1.00D-01 BMatC= 4.90D-04 BMatP= 2.86D-02
 IDIUse=3 WtCom= 9.87D-01 WtEn= 1.27D-02
 Coeff-Com: -0.117D-01 0.575D-01 0.158D+00 0.796D+00
 Coeff-En:   0.000D+00 0.000D+00 0.000D+00 0.100D+01
 Coeff:     -0.115D-01 0.568D-01 0.156D+00 0.798D+00
 Gap=     0.502 Goal=   None    Shift=    0.000
 RMSDP=9.01D-05 MaxDP=2.18D-03 DE=-1.90D-02 OVMax= 1.10D-02

 Cycle   5  Pass 1  IDiag  1:
 E= -279.501339842860     Delta-E=       -0.000673119124 Rises=F Damp=F
 DIIS: error= 7.20D-04 at cycle   5 NSaved=   5.
 NSaved= 5 IEnMin= 5 EnMin= -279.501339842860     IErMin= 5 ErrMin= 7.20D-04
 ErrMax= 7.20D-04  0.00D+00 EMaxC= 1.00D-01 BMatC= 8.70D-05 BMatP= 4.90D-04
 IDIUse=3 WtCom= 9.93D-01 WtEn= 7.20D-03
 Coeff-Com:  0.613D-02-0.723D-01-0.118D+00 0.202D-01 0.116D+01
 Coeff-En:   0.000D+00 0.000D+00 0.000D+00 0.000D+00 0.100D+01
 Coeff:      0.608D-02-0.717D-01-0.117D+00 0.201D-01 0.116D+01
 Gap=     0.502 Goal=   None    Shift=    0.000
 RMSDP=7.62D-05 MaxDP=2.10D-03 DE=-6.73D-04 OVMax= 1.10D-02

 Cycle   6  Pass 1  IDiag  1:
 E= -279.501654456629     Delta-E=       -0.000314613769 Rises=F Damp=F
 DIIS: error= 2.83D-04 at cycle   6 NSaved=   6.
 NSaved= 6 IEnMin= 6 EnMin= -279.501654456629     IErMin= 6 ErrMin= 2.83D-04
 ErrMax= 2.83D-04  0.00D+00 EMaxC= 1.00D-01 BMatC= 1.67D-05 BMatP= 8.70D-05
 IDIUse=3 WtCom= 9.97D-01 WtEn= 2.83D-03
 Coeff-Com:  0.596D-03 0.156D-02 0.453D-02-0.130D+00-0.231D+00 0.135D+01
 Coeff-En:   0.000D+00 0.000D+00 0.000D+00 0.000D+00 0.000D+00 0.100D+01
 Coeff:      0.595D-03 0.156D-02 0.452D-02-0.129D+00-0.230D+00 0.135D+01
 Gap=     0.502 Goal=   None    Shift=    0.000
 RMSDP=4.53D-05 MaxDP=1.06D-03 DE=-3.15D-04 OVMax= 5.53D-03

 Cycle   7  Pass 1  IDiag  1:
 E= -279.501727033683     Delta-E=       -0.000072577054 Rises=F Damp=F
 DIIS: error= 1.01D-04 at cycle   7 NSaved=   7.
 NSaved= 7 IEnMin= 7 EnMin= -279.501727033683     IErMin= 7 ErrMin= 1.01D-04
 ErrMax= 1.01D-04  0.00D+00 EMaxC= 1.00D-01 BMatC= 4.51D-06 BMatP= 1.67D-05
 IDIUse=3 WtCom= 9.99D-01 WtEn= 1.01D-03
 Coeff-Com: -0.938D-03 0.135D-01 0.265D-01-0.243D-01-0.287D+00 0.391D+00
 Coeff-Com:  0.881D+00
 Coeff-En:   0.000D+00 0.000D+00 0.000D+00 0.000D+00 0.000D+00 0.000D+00
 Coeff-En:   0.100D+01
 Coeff:     -0.937D-03 0.135D-01 0.265D-01-0.242D-01-0.287D+00 0.391D+00
 Coeff:      0.881D+00
 Gap=     0.502 Goal=   None    Shift=    0.000
 RMSDP=1.33D-05 MaxDP=3.78D-04 DE=-7.26D-05 OVMax= 1.54D-03

 Cycle   8  Pass 1  IDiag  1:
 E= -279.501735925752     Delta-E=       -0.000008892069 Rises=F Damp=F
 DIIS: error= 4.84D-05 at cycle   8 NSaved=   8.
 NSaved= 8 IEnMin= 8 EnMin= -279.501735925752     IErMin= 8 ErrMin= 4.84D-05
 ErrMax= 4.84D-05  0.00D+00 EMaxC= 1.00D-01 BMatC= 6.07D-07 BMatP= 4.51D-06
 IDIUse=1 WtCom= 1.00D+00 WtEn= 0.00D+00
 Coeff-Com: -0.449D-03 0.345D-02 0.760D-02 0.274D-01-0.410D-01-0.198D+00
 Coeff-Com:  0.171D+00 0.103D+01
 Coeff:     -0.449D-03 0.345D-02 0.760D-02 0.274D-01-0.410D-01-0.198D+00
 Coeff:      0.171D+00 0.103D+01
 Gap=     0.502 Goal=   None    Shift=    0.000
 RMSDP=6.91D-06 MaxDP=2.03D-04 DE=-8.89D-06 OVMax= 7.47D-04

 Cycle   9  Pass 1  IDiag  1:
 E= -279.501737702357     Delta-E=       -0.000001776604 Rises=F Damp=F
 DIIS: error= 1.57D-05 at cycle   9 NSaved=   9.
 NSaved= 9 IEnMin= 9 EnMin= -279.501737702357     IErMin= 9 ErrMin= 1.57D-05
 ErrMax= 1.57D-05  0.00D+00 EMaxC= 1.00D-01 BMatC= 6.92D-08 BMatP= 6.07D-07
 IDIUse=1 WtCom= 1.00D+00 WtEn= 0.00D+00
 Coeff-Com:  0.123D-03-0.172D-02-0.307D-02-0.205D-02 0.342D-01-0.394D-04
 Coeff-Com: -0.167D+00-0.103D+00 0.124D+01
 Coeff:      0.123D-03-0.172D-02-0.307D-02-0.205D-02 0.342D-01-0.394D-04
 Coeff:     -0.167D+00-0.103D+00 0.124D+01
 Gap=     0.502 Goal=   None    Shift=    0.000
 RMSDP=1.94D-06 MaxDP=5.17D-05 DE=-1.78D-06 OVMax= 1.74D-04

 Cycle  10  Pass 1  IDiag  1:
 E= -279.501737862664     Delta-E=       -0.000000160308 Rises=F Damp=F
 DIIS: error= 4.01D-06 at cycle  10 NSaved=  10.
 NSaved=10 IEnMin=10 EnMin= -279.501737862664     IErMin=10 ErrMin= 4.01D-06
 ErrMax= 4.01D-06  0.00D+00 EMaxC= 1.00D-01 BMatC= 5.55D-09 BMatP= 6.92D-08
 IDIUse=1 WtCom= 1.00D+00 WtEn= 0.00D+00
 Coeff-Com:  0.310D-04-0.243D-03-0.324D-03-0.270D-02 0.164D-02 0.197D-01
 Coeff-Com: -0.130D-01-0.744D-01-0.804D-01 0.115D+01
 Coeff:      0.310D-04-0.243D-03-0.324D-03-0.270D-02 0.164D-02 0.197D-01
 Coeff:     -0.130D-01-0.744D-01-0.804D-01 0.115D+01
 Gap=     0.502 Goal=   None    Shift=    0.000
 RMSDP=5.06D-07 MaxDP=2.10D-05 DE=-1.60D-07 OVMax= 4.13D-05

 Cycle  11  Pass 1  IDiag  1:
 E= -279.501737875280     Delta-E=       -0.000000012616 Rises=F Damp=F
 DIIS: error= 1.77D-06 at cycle  11 NSaved=  11.
 NSaved=11 IEnMin=11 EnMin= -279.501737875280     IErMin=11 ErrMin= 1.77D-06
 ErrMax= 1.77D-06  0.00D+00 EMaxC= 1.00D-01 BMatC= 6.67D-10 BMatP= 5.55D-09
 IDIUse=1 WtCom= 1.00D+00 WtEn= 0.00D+00
 Coeff-Com: -0.214D-04 0.245D-03 0.489D-03 0.536D-03-0.430D-02-0.359D-02
 Coeff-Com:  0.211D-01 0.312D-01-0.139D+00-0.180D+00 0.127D+01
 Coeff:     -0.214D-04 0.245D-03 0.489D-03 0.536D-03-0.430D-02-0.359D-02
 Coeff:      0.211D-01 0.312D-01-0.139D+00-0.180D+00 0.127D+01
 Gap=     0.502 Goal=   None    Shift=    0.000
 RMSDP=1.81D-07 MaxDP=6.51D-06 DE=-1.26D-08 OVMax= 1.71D-05

 Cycle  12  Pass 1  IDiag  1:
 E= -279.501737877136     Delta-E=       -0.000000001856 Rises=F Damp=F
 DIIS: error= 5.60D-07 at cycle  12 NSaved=  12.
 NSaved=12 IEnMin=12 EnMin= -279.501737877136     IErMin=12 ErrMin= 5.60D-07
 ErrMax= 5.60D-07  0.00D+00 EMaxC= 1.00D-01 BMatC= 7.48D-11 BMatP= 6.67D-10
 IDIUse=1 WtCom= 1.00D+00 WtEn= 0.00D+00
 Coeff-Com:  0.131D-05-0.299D-04-0.651D-04 0.183D-03 0.110D-02-0.231D-02
 Coeff-Com: -0.420D-02 0.542D-02 0.425D-01-0.114D+00-0.286D+00 0.136D+01
 Coeff:      0.131D-05-0.299D-04-0.651D-04 0.183D-03 0.110D-02-0.231D-02
 Coeff:     -0.420D-02 0.542D-02 0.425D-01-0.114D+00-0.286D+00 0.136D+01
 Gap=     0.502 Goal=   None    Shift=    0.000
 RMSDP=7.54D-08 MaxDP=2.83D-06 DE=-1.86D-09 OVMax= 6.93D-06

 Cycle  13  Pass 1  IDiag  1:
 E= -279.501737877390     Delta-E=       -0.000000000254 Rises=F Damp=F
 DIIS: error= 1.67D-07 at cycle  13 NSaved=  13.
 NSaved=13 IEnMin=13 EnMin= -279.501737877390     IErMin=13 ErrMin= 1.67D-07
 ErrMax= 1.67D-07  0.00D+00 EMaxC= 1.00D-01 BMatC= 5.24D-12 BMatP= 7.48D-11
 IDIUse=1 WtCom= 1.00D+00 WtEn= 0.00D+00
 Coeff-Com:  0.133D-05-0.143D-04-0.229D-04-0.959D-04 0.112D-03 0.834D-03
 Coeff-Com: -0.819D-03-0.353D-02 0.187D-04 0.449D-01-0.336D-01-0.359D+00
 Coeff-Com:  0.135D+01
 Coeff:      0.133D-05-0.143D-04-0.229D-04-0.959D-04 0.112D-03 0.834D-03
 Coeff:     -0.819D-03-0.353D-02 0.187D-04 0.449D-01-0.336D-01-0.359D+00
 Coeff:      0.135D+01
 Gap=     0.502 Goal=   None    Shift=    0.000
 RMSDP=2.34D-08 MaxDP=5.69D-07 DE=-2.54D-10 OVMax= 2.92D-06

 Cycle  14  Pass 1  IDiag  1:
 E= -279.501737877411     Delta-E=       -0.000000000021 Rises=F Damp=F
 DIIS: error= 7.36D-08 at cycle  14 NSaved=  14.
 NSaved=14 IEnMin=14 EnMin= -279.501737877411     IErMin=14 ErrMin= 7.36D-08
 ErrMax= 7.36D-08  0.00D+00 EMaxC= 1.00D-01 BMatC= 7.21D-13 BMatP= 5.24D-12
 IDIUse=1 WtCom= 1.00D+00 WtEn= 0.00D+00
 Coeff-Com: -0.374D-06 0.547D-05 0.949D-05 0.139D-04-0.120D-03-0.118D-04
 Coeff-Com:  0.463D-03 0.564D-03-0.325D-02-0.193D-02 0.261D-01-0.470D-02
 Coeff-Com: -0.367D+00 0.135D+01
 Coeff:     -0.374D-06 0.547D-05 0.949D-05 0.139D-04-0.120D-03-0.118D-04
 Coeff:      0.463D-03 0.564D-03-0.325D-02-0.193D-02 0.261D-01-0.470D-02
 Coeff:     -0.367D+00 0.135D+01
 Gap=     0.502 Goal=   None    Shift=    0.000
 RMSDP=9.03D-09 MaxDP=2.41D-07 DE=-2.15D-11 OVMax= 1.54D-06

 SCF Done:  E(RHF) =  -279.501737877     A.U. after   14 cycles
            NFock= 14  Conv=0.90D-08     -V/T= 2.0024
 KE= 2.788454297720D+02 PE=-8.950754417309D+02 EE= 2.198537853155D+02
 Leave Link  502 at Mon Feb 14 22:13:23 2022, MaxMem= 16106127360 cpu:              40.7 elap:               6.7
 (Enter /sw/contrib/gaussian/g16/B01/g16/l801.exe)
 ExpMin= 2.53D-02 ExpMax= 1.53D+04 ExpMxC= 5.22D+02 IAcc=3 IRadAn=         5 AccDes= 0.00D+00
 HarFok:  IExCor=  205 AccDes= 0.00D+00 IRadAn=         5 IDoV=-2 UseB2=F ITyADJ=14
 ICtDFT= 12500011 ScaDFX=  1.000000  1.000000  1.000000  1.000000
 Largest valence mixing into a core orbital is  2.08D-04
 Largest core mixing into a valence orbital is  3.63D-05
 Range of M.O.s used for correlation:     5   207
 NBasis=   207 NAE=    16 NBE=    16 NFC=     4 NFV=     0
 NROrb=    203 NOA=    12 NOB=    12 NVA=   191 NVB=   191

 **** Warning!!: The largest alpha MO coefficient is  0.17780930D+02

 Leave Link  801 at Mon Feb 14 22:13:23 2022, MaxMem= 16106127360 cpu:               2.0 elap:               0.1
 (Enter /sw/contrib/gaussian/g16/B01/g16/l906.exe)
 Frozen-core derivative calculation, NFC=   4 NFV=   0.
 FulOut=F Deriv=T AODrv=F NAtomX=     5
   MMem=          76  MDisk=          12 MDiskD=          12
  W3Min=      811440 MinDsk=     1524655 NBas6D=         245
 NBas2D=       30762    NTT=       30135    LW2=     3500000
    MDV= 16105643539 MDiskM=      328645 NBas2p=       30466
 Fully in-core method, ICMem=   960157634.
 IMap=   1   2   3   4   5   6   7   8   9  10  11  12  13  14  15  16
 JobTyp=1 Pass  1 fully in-core, NPsUse= 28.
 Compute canonical integrals.
 FoFCou: FMM=F IPFlag=           0 FMFlag=           0 FMFlg1=           0
         NFxFlg=           0 DoJE=F BraDBF=F KetDBF=F FulRan=T
         wScrn=  0.000000 ICntrl=       600 IOpCl=  1 I1Cent=           0 NGrid=           0
         NMat0=    1 NMatS0=  30762 NMatT0=    0 NMatD0=    1 NMtDS0=    0 NMtDT0=    0
 Symmetry not used in FoFCou.
 Spin components of T(2) and E(2):
     alpha-alpha T2 =       0.3402606342D-01 E2=     -0.1224080241D+00
     alpha-beta  T2 =       0.1868532804D+00 E2=     -0.7002486694D+00
     beta-beta   T2 =       0.3402606342D-01 E2=     -0.1224080241D+00
 The integrals were generated   1 times.
 ANorm=    0.1120225606D+01
 E2 =    -0.9450647177D+00 EUMP2 =    -0.28044680259508D+03
 Leave Link  906 at Mon Feb 14 22:13:32 2022, MaxMem= 16106127360 cpu:             247.0 elap:               8.9
 (Enter /sw/contrib/gaussian/g16/B01/g16/l1002.exe)
 Minotr:  Closed shell wavefunction.
          Computing MP2/KS-MP2 derivatives.
          Using Z-Vector for PSCF gradient.
          Skipping F1 and S1 gradient terms here.
          Frozen-core window.
          Direct CPHF calculation.
          Differentiating once with respect to electric field.
                with respect to dipole field.
          Electric field/nuclear overlap derivatives assumed to be zero.
          Requested convergence is 1.0D-10 RMS, and 1.0D-09 maximum.
          NewPWx=F KeepS1=T KeepF1=T KeepIn=T MapXYZ=F SortEE=F KeepMc=T.
 Keep R1 ints in memory in canonical form, NReq=245621348.
 FoFCou: FMM=F IPFlag=           0 FMFlag=           0 FMFlg1=           0
         NFxFlg=           0 DoJE=F BraDBF=F KetDBF=F FulRan=T
         wScrn=  0.000000 ICntrl=       600 IOpCl=  0 I1Cent=           0 NGrid=           0
         NMat0=    1 NMatS0=  21528 NMatT0=    0 NMatD0=    1 NMtDS0=    0 NMtDT0=    0
 Symmetry not used in FoFCou.
 Two-electron integral symmetry not used.
          MDV=   16106127360 using IRadAn=       5.
          Solving linear equations separately, MaxMat=       0.
          There are     1 degrees of freedom in the 1st order CPHF.  IDoFFX=0 NUNeed=     1.
 LinEq1:  Iter=  0 NonCon=     1 RMS=5.96D-03 Max=1.31D-01 NDo=     1
 AX will form     1 AO Fock derivatives at one time.
 LinEq1:  Iter=  1 NonCon=     1 RMS=1.90D-03 Max=3.79D-02 NDo=     1
 LinEq1:  Iter=  2 NonCon=     1 RMS=8.68D-04 Max=1.34D-02 NDo=     1
 LinEq1:  Iter=  3 NonCon=     1 RMS=3.86D-04 Max=7.71D-03 NDo=     1
 LinEq1:  Iter=  4 NonCon=     1 RMS=1.19D-04 Max=1.82D-03 NDo=     1
 LinEq1:  Iter=  5 NonCon=     1 RMS=4.55D-05 Max=7.16D-04 NDo=     1
 LinEq1:  Iter=  6 NonCon=     1 RMS=2.04D-05 Max=2.36D-04 NDo=     1
 LinEq1:  Iter=  7 NonCon=     1 RMS=8.20D-06 Max=1.58D-04 NDo=     1
 LinEq1:  Iter=  8 NonCon=     1 RMS=3.55D-06 Max=3.57D-05 NDo=     1
 LinEq1:  Iter=  9 NonCon=     1 RMS=1.01D-06 Max=1.70D-05 NDo=     1
 LinEq1:  Iter= 10 NonCon=     1 RMS=2.43D-07 Max=6.68D-06 NDo=     1
 LinEq1:  Iter= 11 NonCon=     1 RMS=7.05D-08 Max=2.00D-06 NDo=     1
 LinEq1:  Iter= 12 NonCon=     1 RMS=1.96D-08 Max=2.95D-07 NDo=     1
 LinEq1:  Iter= 13 NonCon=     1 RMS=3.84D-09 Max=4.15D-08 NDo=     1
 LinEq1:  Iter= 14 NonCon=     1 RMS=6.18D-10 Max=9.87D-09 NDo=     1
 LinEq1:  Iter= 15 NonCon=     1 RMS=1.29D-10 Max=2.14D-09 NDo=     1
 LinEq1:  Iter= 16 NonCon=     0 RMS=3.24D-11 Max=3.96D-10 NDo=     1
 Linear equations converged to 1.000D-10 1.000D-09 after    16 iterations.
 End of Minotr F.D. properties file   721 does not exist.
 End of Minotr F.D. properties file   722 does not exist.
 End of Minotr F.D. properties file   788 does not exist.
 Leave Link 1002 at Mon Feb 14 22:13:40 2022, MaxMem= 16106127360 cpu:              39.5 elap:               7.9
 (Enter /sw/contrib/gaussian/g16/B01/g16/l601.exe)
 Copying SCF densities to generalized density rwf, IOpCl= 0 IROHF=0.

 **********************************************************************

            Population analysis using the MP2 Density.

 **********************************************************************

 Orbital symmetries:
       Occupied  (A) (A) (A) (A) (A) (A) (A) (A) (A) (A) (A) (A)
                 (A) (A) (A) (A)
       Virtual   (A) (A) (A) (A) (A) (A) (A) (A) (A) (A) (A) (A)
                 (A) (A) (A) (A) (A) (A) (A) (A) (A) (A) (A) (A)
                 (A) (A) (A) (A) (A) (A) (A) (A) (A) (A) (A) (A)
                 (A) (A) (A) (A) (A) (A) (A) (A) (A) (A) (A) (A)
                 (A) (A) (A) (A) (A) (A) (A) (A) (A) (A) (A) (A)
                 (A) (A) (A) (A) (A) (A) (A) (A) (A) (A) (A) (A)
                 (A) (A) (A) (A) (A) (A) (A) (A) (A) (A) (A) (A)
                 (A) (A) (A) (A) (A) (A) (A) (A) (A) (A) (A) (A)
                 (A) (A) (A) (A) (A) (A) (A) (A) (A) (A) (A) (A)
                 (A) (A) (A) (A) (A) (A) (A) (A) (A) (A) (A) (A)
                 (A) (A) (A) (A) (A) (A) (A) (A) (A) (A) (A) (A)
                 (A) (A) (A) (A) (A) (A) (A) (A) (A) (A) (A) (A)
                 (A) (A) (A) (A) (A) (A) (A) (A) (A) (A) (A) (A)
                 (A) (A) (A) (A) (A) (A) (A) (A) (A) (A) (A) (A)
                 (A) (A) (A) (A) (A) (A) (A) (A) (A) (A) (A) (A)
                 (A) (A) (A) (A) (A) (A) (A) (A) (A) (A) (A)
 The electronic state is 1-A.
 Alpha  occ. eigenvalues --  -20.69095 -20.68428 -20.66005 -15.81278  -1.62403
 Alpha  occ. eigenvalues --   -1.49578  -1.25442  -0.94808  -0.77267  -0.75930
 Alpha  occ. eigenvalues --   -0.71226  -0.67913  -0.62021  -0.58917  -0.48597
 Alpha  occ. eigenvalues --   -0.47214
 Alpha virt. eigenvalues --    0.02961   0.07166   0.08594   0.10173   0.13302
 Alpha virt. eigenvalues --    0.13469   0.14400   0.15449   0.17820   0.19415
 Alpha virt. eigenvalues --    0.19956   0.20647   0.22081   0.23540   0.23733
 Alpha virt. eigenvalues --    0.26645   0.29305   0.30185   0.31132   0.34346
 Alpha virt. eigenvalues --    0.35163   0.38736   0.41982   0.43028   0.52722
 Alpha virt. eigenvalues --    0.53013   0.55855   0.58136   0.62596   0.63821
 Alpha virt. eigenvalues --    0.67413   0.68400   0.70662   0.71207   0.72129
 Alpha virt. eigenvalues --    0.73131   0.74616   0.78786   0.79405   0.81034
 Alpha virt. eigenvalues --    0.81334   0.83227   0.86797   0.90833   0.91836
 Alpha virt. eigenvalues --    0.93049   0.95612   0.97349   0.98725   1.01597
 Alpha virt. eigenvalues --    1.05460   1.05549   1.08294   1.11604   1.13454
 Alpha virt. eigenvalues --    1.19474   1.21990   1.23333   1.33796   1.35060
 Alpha virt. eigenvalues --    1.38739   1.45442   1.49002   1.50862   1.53760
 Alpha virt. eigenvalues --    1.56710   1.58019   1.60858   1.66511   1.66761
 Alpha virt. eigenvalues --    1.70452   1.79113   1.83044   1.83601   1.87954
 Alpha virt. eigenvalues --    1.90773   1.95614   1.98565   2.01739   2.07767
 Alpha virt. eigenvalues --    2.11832   2.12959   2.15291   2.22289   2.26029
 Alpha virt. eigenvalues --    2.26937   2.28852   2.31301   2.34381   2.38700
 Alpha virt. eigenvalues --    2.41098   2.44287   2.45395   2.46477   2.47604
 Alpha virt. eigenvalues --    2.50402   2.58958   2.59765   2.61969   2.62530
 Alpha virt. eigenvalues --    2.63627   2.66661   2.75413   2.82672   2.85108
 Alpha virt. eigenvalues --    2.88767   2.89547   2.92095   2.95913   3.02261
 Alpha virt. eigenvalues --    3.07233   3.12078   3.20463   3.22797   3.31624
 Alpha virt. eigenvalues --    3.34119   3.51550   3.64550   3.83786   3.84666
 Alpha virt. eigenvalues --    4.14130   4.16346   4.19420   4.25593   4.34578
 Alpha virt. eigenvalues --    4.39377   4.46931   4.52146   4.65680   4.71093
 Alpha virt. eigenvalues --    4.80467   4.82391   4.82750   4.89632   5.02291
 Alpha virt. eigenvalues --    5.07490   5.10250   5.14518   5.18123   5.24595
 Alpha virt. eigenvalues --    5.27183   5.30628   5.32981   5.35357   5.60349
 Alpha virt. eigenvalues --    5.67360   5.76578   5.83060   5.95597   6.16904
 Alpha virt. eigenvalues --    6.31033   6.33968   6.39339   6.49394   6.50526
 Alpha virt. eigenvalues --    6.61761   6.66134   6.70316   6.75162   6.76760
 Alpha virt. eigenvalues --    6.83378   6.89835   7.01262   7.05521   7.05743
 Alpha virt. eigenvalues --    7.09218   7.12566   7.14787   7.18540   7.22490
 Alpha virt. eigenvalues --    7.24010   7.30574   7.32349   7.35201   7.39599
 Alpha virt. eigenvalues --    7.42983   7.48542   7.60716   7.61824   7.62984
 Alpha virt. eigenvalues --    7.66972   7.78728   7.88557   8.09224   8.31339
 Alpha virt. eigenvalues --    8.40454   8.54283  13.38819  14.39660  15.16118
 Alpha virt. eigenvalues --   16.15137
          Condensed to atoms (all electrons):
               1          2          3          4          5
     1  H    0.589923   0.128407   0.020121   0.012015  -0.000626
     2  O    0.128407   8.321095  -0.173049  -0.090153   0.015312
     3  O    0.020121  -0.173049   8.468431  -0.129653  -0.038747
     4  N    0.012015  -0.090153  -0.129653   6.971079  -0.055144
     5  O   -0.000626   0.015312  -0.038747  -0.055144   8.272506
 Mulliken charges:
               1
     1  H    0.250159
     2  O   -0.201611
     3  O   -0.147103
     4  N    0.291856
     5  O   -0.193301
 Sum of Mulliken charges =  -0.00000
 Mulliken charges with hydrogens summed into heavy atoms:
               1
     2  O    0.048548
     3  O   -0.147103
     4  N    0.291856
     5  O   -0.193301
 Electronic spatial extent (au):  <R**2>=            252.8690
 Charge=             -0.0000 electrons
 Dipole moment (field-independent basis, Debye):
    X=              1.2113    Y=              0.7825    Z=              0.2012  Tot=              1.4560
 Quadrupole moment (field-independent basis, Debye-Ang):
   XX=            -18.0331   YY=            -23.1055   ZZ=            -21.9783
   XY=              2.7638   XZ=              0.5310   YZ=              0.1633
 Traceless Quadrupole moment (field-independent basis, Debye-Ang):
   XX=              3.0059   YY=             -2.0666   ZZ=             -0.9393
   XY=              2.7638   XZ=              0.5310   YZ=              0.1633
 Octapole moment (field-independent basis, Debye-Ang**2):
  XXX=             18.0524  YYY=              1.7551  ZZZ=              0.0649  XYY=              1.0646
  XXY=              6.1210  XXZ=              1.2731  XZZ=             -1.7077  YZZ=              0.2603
  YYZ=              0.0267  XYZ=              0.2793
 Hexadecapole moment (field-independent basis, Debye-Ang**3):
 XXXX=           -190.5393 YYYY=            -41.0870 ZZZZ=            -18.2638 XXXY=             11.9232
 XXXZ=              3.2293 YYYX=              0.9856 YYYZ=              0.1510 ZZZX=              0.1944
 ZZZY=              0.1079 XXYY=            -42.5085 XXZZ=            -41.5065 YYZZ=             -9.8727
 XXYZ=              0.6633 YYXZ=              0.1417 ZZXY=              0.4961
 N-N= 1.168744887659D+02 E-N=-8.958594387037D+02  KE= 2.801976097940D+02
 No NMR shielding tensors so no spin-rotation constants.
 Leave Link  601 at Mon Feb 14 22:13:40 2022, MaxMem= 16106127360 cpu:               4.2 elap:               0.2
 (Enter /sw/contrib/gaussian/g16/B01/g16/l9999.exe)
 1\1\GINC-N2132\SP\RMP2-FC\Aug-CC-pVTZ\H1N1O3\CGAVINH\14-Feb-2022\0\\#p
  SP mp2/aug-cc-pvtz density=current\\title\\0,1\H\O,1,0.96897556\O,2,1
 .45491931,1,97.59494903\N,3,1.45878406,2,102.29752444,1,187.60004846,0
 \O,4,1.17072885,3,109.06955123,2,180.,0\\Version=ES64L-G16RevB.01\Stat
 e=1-A\HF=-279.5017379\MP2=-280.4468026\RMSD=9.026e-09\Dipole=-0.146514
 3,-0.0154404,-0.553579\Quadrupole=-1.5071911,-0.7422894,2.2494805,-0.0
 483441,2.0903361,0.0305939\PG=C01 [X(H1N1O3)]\\@


 ERWIN WITH HIS PSI CAN DO
 CALCULATIONS QUITE A FEW.
 BUT ONE THING HAS NOT BEEN SEEN
 JUST WHAT DOES PSI REALLY MEAN.
 -- WALTER HUCKEL, TRANS. BY FELIX BLOCH
 Job cpu time:       0 days  0 hours  5 minutes 57.4 seconds.
 Elapsed time:       0 days  0 hours  0 minutes 24.9 seconds.
 File lengths (MBytes):  RWF=     21 Int=      0 D2E=      0 Chk=      8 Scr=      1
 Normal termination of Gaussian 16 at Mon Feb 14 22:13:40 2022.
