title                                                                   
SP        RMP2-FC                                                     Aug-CC-pVTZ         
Number of atoms                            I                5
Info1-9                                    I   N=           9
          33          24           0           0           0         110
           1           2           1
Full Title                                 C   N=           1
title       
Route                                      C   N=           4
#p SP mp2/aug-cc-pvtz density=current           
Charge                                     I                0
Multiplicity                               I                1
Number of electrons                        I               32
Number of alpha electrons                  I               16
Number of beta electrons                   I               16
Number of basis functions                  I              207
Number of independent functions            I              207
Number of point charges in /Mol/           I                0
Number of translation vectors              I                0
Atomic numbers                             I   N=           5
           1           8           8           7           8
Nuclear charges                            R   N=           5
  1.00000000E+00  8.00000000E+00  8.00000000E+00  7.00000000E+00  8.00000000E+00
Current cartesian coordinates              R   N=          15
  2.88135417E+00  3.23983044E+00  8.93628152E-32  2.74479058E+00  1.41383158E+00
  3.01104918E-32  6.88973355E-17  1.25470997E+00  3.19488747E-32 -4.90039417E-01
 -1.45808733E+00 -2.66175410E-32 -2.67617536E+00 -1.79769394E+00 -1.01795405E-31
Number of symbols in /Mol/                 I                0
Force Field                                I                0
Atom Types                                 C   N=           5
                                                            
Int Atom Types                             I   N=           5
           0           0           0           0           0
MM charges                                 R   N=           5
  0.00000000E+00  0.00000000E+00  0.00000000E+00  0.00000000E+00  0.00000000E+00
Integer atomic weights                     I   N=           5
           1          16          16          14          16
Real atomic weights                        R   N=           5
  1.00782504E+00  1.59949146E+01  1.59949146E+01  1.40030740E+01  1.59949146E+01
Atom fragment info                         I   N=           5
           0           0           0           0           0
Atom residue num                           I   N=           5
           0           0           0           0           0
Nuclear spins                              I   N=           5
           1           0           0           2           0
Nuclear ZEff                               R   N=           5
 -1.00000000E+00 -5.60000000E+00 -5.60000000E+00 -4.55000000E+00 -5.60000000E+00
Nuclear ZNuc                               R   N=           5
  1.00000000E+00  8.00000000E+00  8.00000000E+00  7.00000000E+00  8.00000000E+00
Nuclear QMom                               R   N=           5
  0.00000000E+00  0.00000000E+00  0.00000000E+00  2.04400000E+00  0.00000000E+00
Nuclear GFac                               R   N=           5
  2.79284600E+00  0.00000000E+00  0.00000000E+00  4.03761000E-01  0.00000000E+00
MicOpt                                     I   N=           5
          -1          -1          -1          -1          -1
Number of residues                         I                0
Number of secondary structures             I                0
SymInf integers                            I   N=          26
           1           2           1           1           1           1
           1          -1           0           0           0           0
           0           0           0           0           0           0
           0           0           0           0           0           0
           0           0
RotTr to input orientation                 R   N=          12
 -9.97215023E-01 -9.77300520E-17 -7.45801462E-02  7.45801462E-02 -7.37999645E-17
 -9.97215023E-01  9.19538639E-17 -1.00000000E+00  8.08831548E-17  2.63170264E+00
  0.00000000E+00  3.44569940E+00
Number of contracted shells                I               65
Number of primitive shells                 I              119
Pure/Cartesian d shells                    I                0
Pure/Cartesian f shells                    I                0
Highest angular momentum                   I                3
Largest degree of contraction              I                7
Shell types                                I   N=          65
           0           0           0           0           1           1
           1          -2          -2           0           0           0
           0           0           1           1           1           1
          -2          -2          -2          -3          -3           0
           0           0           0           0           1           1
           1           1          -2          -2          -2          -3
          -3           0           0           0           0           0
           1           1           1           1          -2          -2
          -2          -3          -3           0           0           0
           0           0           1           1           1           1
          -2          -2          -2          -3          -3
Number of primitives per shell             I   N=          65
           3           1           1           1           1           1
           1           1           1           7           6           1
           1           1           3           1           1           1
           1           1           1           1           1           7
           6           1           1           1           3           1
           1           1           1           1           1           1
           1           7           6           1           1           1
           3           1           1           1           1           1
           1           1           1           7           6           1
           1           1           3           1           1           1
           1           1           1           1           1
Shell to atom map                          I   N=          65
           1           1           1           1           1           1
           1           1           1           2           2           2
           2           2           2           2           2           2
           2           2           2           2           2           3
           3           3           3           3           3           3
           3           3           3           3           3           3
           3           4           4           4           4           4
           4           4           4           4           4           4
           4           4           4           5           5           5
           5           5           5           5           5           5
           5           5           5           5           5
Primitive exponents                        R   N=         119
  3.38700000E+01  5.09500000E+00  1.15900000E+00  3.25800000E-01  1.02700000E-01
  2.52600000E-02  1.40700000E+00  3.88000000E-01  1.02000000E-01  1.05700000E+00
  2.47000000E-01  1.53300000E+04  2.29900000E+03  5.22400000E+02  1.47300000E+02
  4.75500000E+01  1.67600000E+01  6.20700000E+00  5.22400000E+02  1.47300000E+02
  4.75500000E+01  1.67600000E+01  6.20700000E+00  6.88200000E-01  1.75200000E+00
  2.38400000E-01  7.37600000E-02  3.44600000E+01  7.74900000E+00  2.28000000E+00
  7.15600000E-01  2.14000000E-01  5.97400000E-02  2.31400000E+00  6.45000000E-01
  2.14000000E-01  1.42800000E+00  5.00000000E-01  1.53300000E+04  2.29900000E+03
  5.22400000E+02  1.47300000E+02  4.75500000E+01  1.67600000E+01  6.20700000E+00
  5.22400000E+02  1.47300000E+02  4.75500000E+01  1.67600000E+01  6.20700000E+00
  6.88200000E-01  1.75200000E+00  2.38400000E-01  7.37600000E-02  3.44600000E+01
  7.74900000E+00  2.28000000E+00  7.15600000E-01  2.14000000E-01  5.97400000E-02
  2.31400000E+00  6.45000000E-01  2.14000000E-01  1.42800000E+00  5.00000000E-01
  1.14200000E+04  1.71200000E+03  3.89300000E+02  1.10000000E+02  3.55700000E+01
  1.25400000E+01  4.64400000E+00  3.89300000E+02  1.10000000E+02  3.55700000E+01
  1.25400000E+01  4.64400000E+00  5.11800000E-01  1.29300000E+00  1.78700000E-01
  5.76000000E-02  2.66300000E+01  5.94800000E+00  1.74200000E+00  5.55000000E-01
  1.72500000E-01  4.91000000E-02  1.65400000E+00  4.69000000E-01  1.51000000E-01
  1.09300000E+00  3.64000000E-01  1.53300000E+04  2.29900000E+03  5.22400000E+02
  1.47300000E+02  4.75500000E+01  1.67600000E+01  6.20700000E+00  5.22400000E+02
  1.47300000E+02  4.75500000E+01  1.67600000E+01  6.20700000E+00  6.88200000E-01
  1.75200000E+00  2.38400000E-01  7.37600000E-02  3.44600000E+01  7.74900000E+00
  2.28000000E+00  7.15600000E-01  2.14000000E-01  5.97400000E-02  2.31400000E+00
  6.45000000E-01  2.14000000E-01  1.42800000E+00  5.00000000E-01
Contraction coefficients                   R   N=         119
  2.54948632E-02  1.90362766E-01  8.52162022E-01  1.00000000E+00  1.00000000E+00
  1.00000000E+00  1.00000000E+00  1.00000000E+00  1.00000000E+00  1.00000000E+00
  1.00000000E+00  5.19808943E-04  4.02025621E-03  2.07128267E-02  8.10105536E-02
  2.35962985E-01  4.42653446E-01  3.57064423E-01 -4.42115008E-05 -1.22591041E-03
 -1.05517725E-02 -6.74452633E-02 -1.71198607E-01  1.07329856E+00  1.00000000E+00
  1.00000000E+00  1.00000000E+00  4.11634896E-02  2.57762836E-01  8.02419274E-01
  1.00000000E+00  1.00000000E+00  1.00000000E+00  1.00000000E+00  1.00000000E+00
  1.00000000E+00  1.00000000E+00  1.00000000E+00  5.19808943E-04  4.02025621E-03
  2.07128267E-02  8.10105536E-02  2.35962985E-01  4.42653446E-01  3.57064423E-01
 -4.42115008E-05 -1.22591041E-03 -1.05517725E-02 -6.74452633E-02 -1.71198607E-01
  1.07329856E+00  1.00000000E+00  1.00000000E+00  1.00000000E+00  4.11634896E-02
  2.57762836E-01  8.02419274E-01  1.00000000E+00  1.00000000E+00  1.00000000E+00
  1.00000000E+00  1.00000000E+00  1.00000000E+00  1.00000000E+00  1.00000000E+00
  5.34563860E-04  4.13435660E-03  2.12335358E-02  8.25006224E-02  2.38138871E-01
  4.42551547E-01  3.53757422E-01 -4.89867350E-05 -1.19527323E-03 -1.03490714E-02
 -6.48680190E-02 -1.71552477E-01  1.07289568E+00  1.00000000E+00  1.00000000E+00
  1.00000000E+00  3.98072123E-02  2.49002660E-01  8.10479727E-01  1.00000000E+00
  1.00000000E+00  1.00000000E+00  1.00000000E+00  1.00000000E+00  1.00000000E+00
  1.00000000E+00  1.00000000E+00  5.19808943E-04  4.02025621E-03  2.07128267E-02
  8.10105536E-02  2.35962985E-01  4.42653446E-01  3.57064423E-01 -4.42115008E-05
 -1.22591041E-03 -1.05517725E-02 -6.74452633E-02 -1.71198607E-01  1.07329856E+00
  1.00000000E+00  1.00000000E+00  1.00000000E+00  4.11634896E-02  2.57762836E-01
  8.02419274E-01  1.00000000E+00  1.00000000E+00  1.00000000E+00  1.00000000E+00
  1.00000000E+00  1.00000000E+00  1.00000000E+00  1.00000000E+00
Coordinates of each shell                  R   N=         195
  2.88135417E+00  3.23983044E+00  6.37072863E-32  2.88135417E+00  3.23983044E+00
  6.37072863E-32  2.88135417E+00  3.23983044E+00  6.37072863E-32  2.88135417E+00
  3.23983044E+00  6.37072863E-32  2.88135417E+00  3.23983044E+00  6.37072863E-32
  2.88135417E+00  3.23983044E+00  6.37072863E-32  2.88135417E+00  3.23983044E+00
  6.37072863E-32  2.88135417E+00  3.23983044E+00  6.37072863E-32  2.88135417E+00
  3.23983044E+00  6.37072863E-32  2.74479058E+00  1.41383158E+00  2.98522403E-32
  2.74479058E+00  1.41383158E+00  2.98522403E-32  2.74479058E+00  1.41383158E+00
  2.98522403E-32  2.74479058E+00  1.41383158E+00  2.98522403E-32  2.74479058E+00
  1.41383158E+00  2.98522403E-32  2.74479058E+00  1.41383158E+00  2.98522403E-32
  2.74479058E+00  1.41383158E+00  2.98522403E-32  2.74479058E+00  1.41383158E+00
  2.98522403E-32  2.74479058E+00  1.41383158E+00  2.98522403E-32  2.74479058E+00
  1.41383158E+00  2.98522403E-32  2.74479058E+00  1.41383158E+00  2.98522403E-32
  2.74479058E+00  1.41383158E+00  2.98522403E-32  2.74479058E+00  1.41383158E+00
  2.98522403E-32  2.74479058E+00  1.41383158E+00  2.98522403E-32 -6.63896787E-18
  1.25470997E+00  2.31336350E-32 -6.63896787E-18  1.25470997E+00  2.31336350E-32
 -6.63896787E-18  1.25470997E+00  2.31336350E-32 -6.63896787E-18  1.25470997E+00
  2.31336350E-32 -6.63896787E-18  1.25470997E+00  2.31336350E-32 -6.63896787E-18
  1.25470997E+00  2.31336350E-32 -6.63896787E-18  1.25470997E+00  2.31336350E-32
 -6.63896787E-18  1.25470997E+00  2.31336350E-32 -6.63896787E-18  1.25470997E+00
  2.31336350E-32 -6.63896787E-18  1.25470997E+00  2.31336350E-32 -6.63896787E-18
  1.25470997E+00  2.31336350E-32 -6.63896787E-18  1.25470997E+00  2.31336350E-32
 -6.63896787E-18  1.25470997E+00  2.31336350E-32 -6.63896787E-18  1.25470997E+00
  2.31336350E-32 -4.90039417E-01 -1.45808733E+00 -2.75591110E-32 -4.90039417E-01
 -1.45808733E+00 -2.75591110E-32 -4.90039417E-01 -1.45808733E+00 -2.75591110E-32
 -4.90039417E-01 -1.45808733E+00 -2.75591110E-32 -4.90039417E-01 -1.45808733E+00
 -2.75591110E-32 -4.90039417E-01 -1.45808733E+00 -2.75591110E-32 -4.90039417E-01
 -1.45808733E+00 -2.75591110E-32 -4.90039417E-01 -1.45808733E+00 -2.75591110E-32
 -4.90039417E-01 -1.45808733E+00 -2.75591110E-32 -4.90039417E-01 -1.45808733E+00
 -2.75591110E-32 -4.90039417E-01 -1.45808733E+00 -2.75591110E-32 -4.90039417E-01
 -1.45808733E+00 -2.75591110E-32 -4.90039417E-01 -1.45808733E+00 -2.75591110E-32
 -4.90039417E-01 -1.45808733E+00 -2.75591110E-32 -2.67617536E+00 -1.79769394E+00
 -3.68350640E-32 -2.67617536E+00 -1.79769394E+00 -3.68350640E-32 -2.67617536E+00
 -1.79769394E+00 -3.68350640E-32 -2.67617536E+00 -1.79769394E+00 -3.68350640E-32
 -2.67617536E+00 -1.79769394E+00 -3.68350640E-32 -2.67617536E+00 -1.79769394E+00
 -3.68350640E-32 -2.67617536E+00 -1.79769394E+00 -3.68350640E-32 -2.67617536E+00
 -1.79769394E+00 -3.68350640E-32 -2.67617536E+00 -1.79769394E+00 -3.68350640E-32
 -2.67617536E+00 -1.79769394E+00 -3.68350640E-32 -2.67617536E+00 -1.79769394E+00
 -3.68350640E-32 -2.67617536E+00 -1.79769394E+00 -3.68350640E-32 -2.67617536E+00
 -1.79769394E+00 -3.68350640E-32 -2.67617536E+00 -1.79769394E+00 -3.68350640E-32
Num ILSW                                   I              100
ILSW                                       I   N=         100
           0           0           0           0           2           0
           0           0           0           0           0          -1
           5           0           0           0           0           0
           0           0           0           0           0           0
           1           0           0           0           0           0
           0           0      100000           0          -1           0
           0           0           0           0           0           0
           0           0           0           1           0           0
           0 -2000000000           1           0           0           0
           0           0           4          52           0           0
           0           0           0           0           0           0
           0           0           0           5           0           1
           0           0           0           0           0           0
           0           0           0           0           0           0
           0           0           0           0           0           0
           0           0           0           0           0           0
           0           0           0           0
Num RLSW                                   I               52
RLSW                                       R   N=          52
  1.00000000E+00  1.00000000E+00  1.00000000E+00  1.00000000E+00  1.00000000E+00
  0.00000000E+00  0.00000000E+00  1.00000000E+00  0.00000000E+00  0.00000000E+00
  0.00000000E+00  0.00000000E+00  1.00000000E+00  0.00000000E+00  0.00000000E+00
  0.00000000E+00  0.00000000E+00  1.00000000E+00  0.00000000E+00  0.00000000E+00
  0.00000000E+00  0.00000000E+00  1.00000000E+00  0.00000000E+00  0.00000000E+00
  0.00000000E+00  0.00000000E+00  1.00000000E+00  0.00000000E+00  0.00000000E+00
  0.00000000E+00  0.00000000E+00  1.00000000E+00  0.00000000E+00  0.00000000E+00
  0.00000000E+00  0.00000000E+00  0.00000000E+00  1.00000000E+00  1.00000000E+00
  0.00000000E+00  1.00000000E+00  0.00000000E+00  0.00000000E+00  0.00000000E+00
  0.00000000E+00  0.00000000E+00  0.00000000E+00  0.00000000E+00  0.00000000E+00
  0.00000000E+00  0.00000000E+00
MxBond                                     I                2
NBond                                      I   N=           5
           1           2           2           2           1
IBond                                      I   N=          10
           2           0           1           3           2           4
           3           5           4           0
RBond                                      R   N=          10
  1.00000000E+00  0.00000000E+00  1.00000000E+00  1.00000000E+00  1.00000000E+00
  1.00000000E+00  1.00000000E+00  2.00000000E+00  2.00000000E+00  0.00000000E+00
Virial Ratio                               R      2.002379241574644E+00
SCF Energy                                 R     -2.795017090778043E+02
MP2 Energy                                 R     -2.804466665354395E+02
Total Energy                               R     -2.804466665354395E+02
Post-SCF wavefunction norm                 R      1.120228497726373E+00
RMS Density                                R      3.802719216301133E-09
Job Status                                 I                1
Nuclear derivative order                   I                0
External E-field                           R   N=          35
  0.00000000E+00  0.00000000E+00  0.00000000E+00  0.00000000E+00  0.00000000E+00
  0.00000000E+00  0.00000000E+00  0.00000000E+00  0.00000000E+00  0.00000000E+00
  0.00000000E+00  0.00000000E+00  0.00000000E+00  0.00000000E+00  0.00000000E+00
  0.00000000E+00  0.00000000E+00  0.00000000E+00  0.00000000E+00  0.00000000E+00
  0.00000000E+00  0.00000000E+00  0.00000000E+00  0.00000000E+00  0.00000000E+00
  0.00000000E+00  0.00000000E+00  0.00000000E+00  0.00000000E+00  0.00000000E+00
  0.00000000E+00  0.00000000E+00  0.00000000E+00  0.00000000E+00  0.00000000E+00
IOpCl                                      I                0
IROHF                                      I                0
Alpha Orbital Energies                     R   N=         207
 -2.06905107E+01 -2.06845821E+01 -2.06604043E+01 -1.58132235E+01 -1.62399070E+00
 -1.49538221E+00 -1.25500139E+00 -9.47830344E-01 -7.71826018E-01 -7.59684773E-01
 -7.11607801E-01 -6.81245518E-01 -6.20789283E-01 -5.88481636E-01 -4.85113881E-01
 -4.72244952E-01  2.96321155E-02  7.15243812E-02  8.59680627E-02  1.02056347E-01
  1.33808466E-01  1.33821335E-01  1.43918380E-01  1.54103740E-01  1.78309034E-01
  1.94300761E-01  1.99938496E-01  2.06176600E-01  2.20677724E-01  2.35258852E-01
  2.37274816E-01  2.66981475E-01  2.93612203E-01  3.03199714E-01  3.10786887E-01
  3.43751466E-01  3.49322747E-01  3.86662983E-01  4.22367478E-01  4.32595287E-01
  5.27519770E-01  5.28164049E-01  5.57025252E-01  5.79736451E-01  6.25632863E-01
  6.39282534E-01  6.74741966E-01  6.84551451E-01  7.07114332E-01  7.10319237E-01
  7.24495690E-01  7.28713382E-01  7.44638142E-01  7.92120484E-01  7.92924910E-01
  8.11036416E-01  8.12623107E-01  8.29370701E-01  8.68213285E-01  9.08565688E-01
  9.21677840E-01  9.26679110E-01  9.54570211E-01  9.73189372E-01  9.83559957E-01
  1.01639612E+00  1.05101378E+00  1.05576151E+00  1.07889744E+00  1.11459392E+00
  1.13910498E+00  1.19103029E+00  1.21957094E+00  1.23426611E+00  1.33996056E+00
  1.35135442E+00  1.38467954E+00  1.45453126E+00  1.48810801E+00  1.50881304E+00
  1.53655485E+00  1.56570163E+00  1.57883147E+00  1.61157385E+00  1.66100547E+00
  1.67206725E+00  1.70329143E+00  1.79216110E+00  1.83481954E+00  1.83640413E+00
  1.87729321E+00  1.90791109E+00  1.95409371E+00  1.99117473E+00  2.00583470E+00
  2.07841922E+00  2.12394085E+00  2.13285606E+00  2.14957457E+00  2.22347803E+00
  2.26413193E+00  2.26524332E+00  2.29076751E+00  2.31244988E+00  2.33715039E+00
  2.38461019E+00  2.42215548E+00  2.42933627E+00  2.45500680E+00  2.46141651E+00
  2.47658702E+00  2.49755418E+00  2.58820312E+00  2.59771300E+00  2.61966799E+00
  2.62685383E+00  2.63768362E+00  2.66532810E+00  2.75439863E+00  2.81947427E+00
  2.84289959E+00  2.87683549E+00  2.89472839E+00  2.92647347E+00  2.96122098E+00
  3.01728149E+00  3.06495844E+00  3.11853698E+00  3.20315378E+00  3.22360471E+00
  3.31804042E+00  3.34792967E+00  3.52608369E+00  3.63605436E+00  3.83701750E+00
  3.84377267E+00  4.14716567E+00  4.16364034E+00  4.18242455E+00  4.25503665E+00
  4.35512859E+00  4.39058779E+00  4.46298702E+00  4.52042265E+00  4.65428567E+00
  4.70968530E+00  4.80070559E+00  4.82408037E+00  4.83079064E+00  4.89474159E+00
  5.02463272E+00  5.07771181E+00  5.10391061E+00  5.14991888E+00  5.17434153E+00
  5.23939860E+00  5.27310473E+00  5.30808539E+00  5.32624783E+00  5.34906389E+00
  5.59567180E+00  5.67341435E+00  5.76563277E+00  5.83077682E+00  5.95748594E+00
  6.16436653E+00  6.30889473E+00  6.33960184E+00  6.39573007E+00  6.49414531E+00
  6.50650466E+00  6.61131075E+00  6.67028991E+00  6.70087631E+00  6.75351024E+00
  6.76318880E+00  6.83166423E+00  6.90010045E+00  7.01662025E+00  7.05608034E+00
  7.06018849E+00  7.08983474E+00  7.12310834E+00  7.14728801E+00  7.18079451E+00
  7.22657511E+00  7.24008911E+00  7.30613996E+00  7.32558935E+00  7.33972524E+00
  7.39635757E+00  7.43350278E+00  7.48233620E+00  7.61208404E+00  7.61694354E+00
  7.62096454E+00  7.66215005E+00  7.78677725E+00  7.88076784E+00  8.09545708E+00
  8.31397524E+00  8.40937776E+00  8.54538759E+00  1.33797868E+01  1.44180524E+01
  1.51481586E+01  1.61504568E+01
Alpha MO coefficients                      R   N=       42849
  9.26754791E-05 -6.59971908E-04 -7.39194478E-04 -5.95939339E-06 -2.23374421E-05
 -2.72449066E-05  0.00000000E+00 -4.11164477E-05  6.64703614E-05  0.00000000E+00
  9.12173680E-05  4.07528704E-05  0.00000000E+00  3.23592496E-05  0.00000000E+00
  0.00000000E+00 -5.04577846E-05  1.86515710E-05 -4.39073372E-06  0.00000000E+00
  0.00000000E+00 -1.46730027E-04  1.11638569E-04  4.70181695E-03 -2.81048851E-04
  1.78651566E-05  1.61322648E-03  1.83842356E-03  1.07247098E-04  1.00448081E-05
  0.00000000E+00 -6.24859190E-04 -5.04631829E-05  0.00000000E+00 -1.14587456E-03
  7.82550771E-04  0.00000000E+00 -4.08478153E-04  5.44862532E-05  0.00000000E+00
  2.88076627E-05  0.00000000E+00  0.00000000E+00 -5.44946528E-05  3.23583888E-06
 -3.80994935E-04  0.00000000E+00  0.00000000E+00  7.44055289E-04  4.35004398E-06
 -4.49642763E-04  0.00000000E+00  0.00000000E+00  2.51184765E-04 -5.83843357E-06
  0.00000000E+00  8.02825935E-05  1.47622350E-05  0.00000000E+00  0.00000000E+00
 -1.08647848E-04 -1.08087217E-05  0.00000000E+00  2.54208367E-04 -2.30877536E-05
  0.00000000E+00  0.00000000E+00 -3.60927440E-04  2.39897539E-05  9.76909525E-01
 -9.20767526E-03  4.33225362E-02  1.98663753E-03 -9.23278548E-04  1.51221445E-03
 -1.33452698E-03  0.00000000E+00 -1.44738473E-03  1.35655879E-03  0.00000000E+00
  6.55111171E-05 -1.16264796E-03  0.00000000E+00 -1.40809215E-04 -1.40412719E-05
  0.00000000E+00  4.43515954E-05  0.00000000E+00  0.00000000E+00 -3.50563140E-05
  2.37097257E-05  7.52328946E-04  0.00000000E+00  0.00000000E+00 -2.26398377E-04
 -4.22506923E-04 -3.58613602E-04  0.00000000E+00  0.00000000E+00 -3.08368349E-04
 -3.72548067E-04  0.00000000E+00  4.74052736E-05 -4.78479408E-05  0.00000000E+00
  0.00000000E+00 -3.85953111E-05 -1.79039002E-05  0.00000000E+00  2.47885592E-05
  2.25543553E-05  0.00000000E+00  0.00000000E+00 -3.06087486E-04 -1.57022221E-04
  3.99155095E-05  5.00134676E-05 -2.66703348E-04 -6.77432980E-04 -1.39261164E-04
 -2.73354604E-05 -9.84088263E-05  0.00000000E+00  2.78883453E-04  7.23095783E-04
  0.00000000E+00 -8.54589961E-04 -4.78780014E-04  0.00000000E+00 -1.21696684E-04
 -2.62096279E-05  0.00000000E+00 -1.85345628E-05  0.00000000E+00  0.00000000E+00
 -3.06700292E-05  1.49923766E-05 -3.30124469E-04  0.00000000E+00  0.00000000E+00
 -8.32054352E-04  1.28477057E-04 -3.61987980E-05  0.00000000E+00  0.00000000E+00
  1.00238636E-04 -1.20363394E-04  0.00000000E+00 -2.10823663E-05 -1.20485412E-04
  0.00000000E+00  0.00000000E+00 -6.06375863E-05 -1.37832148E-04  0.00000000E+00
  7.71992106E-06 -1.48564431E-04  0.00000000E+00  0.00000000E+00  4.44093941E-05
 -4.25641761E-04 -2.83439200E-03  1.24088859E-04 -1.35983602E-04 -2.63187800E-04
  1.30099294E-04 -8.49971959E-06 -2.87128891E-05  0.00000000E+00  6.96699179E-05
  1.69704960E-04  0.00000000E+00  2.32367216E-04  1.92762478E-04  0.00000000E+00
  1.25581694E-04  1.96584060E-05  0.00000000E+00 -3.48034771E-06  0.00000000E+00
  0.00000000E+00 -1.80098909E-05  1.16815382E-06  2.73951884E-07  0.00000000E+00
  0.00000000E+00  8.16195310E-05  9.02018245E-05 -1.00571854E-04  0.00000000E+00
  0.00000000E+00  1.71761870E-04  1.58660192E-04  0.00000000E+00  1.57378252E-05
 -3.69625389E-06  0.00000000E+00  0.00000000E+00 -4.54596918E-06 -1.17528927E-05
  0.00000000E+00 -3.38654420E-05  4.58555460E-05  0.00000000E+00  0.00000000E+00
  8.61863875E-05  9.04682840E-05  3.67418493E-05 -9.81586760E-04 -4.99725686E-04
 -9.71886350E-06 -2.23839082E-05  1.65105570E-05  0.00000000E+00 -4.27125084E-06
  2.77332397E-04  0.00000000E+00 -3.70761407E-05  1.37999850E-04  0.00000000E+00
  2.53992943E-05  0.00000000E+00  0.00000000E+00  1.33335463E-05  1.19101314E-05
 -2.37436638E-05  0.00000000E+00  0.00000000E+00  8.26456785E-06  3.18252989E-05
  1.13061534E-04  7.50344103E-05 -2.76221357E-05  7.77633536E-04  6.99885574E-04
  1.00677962E-05  2.67010923E-06  0.00000000E+00 -6.87609422E-05  1.81084630E-05
  0.00000000E+00  2.85317845E-04  8.65199887E-04  0.00000000E+00 -1.19484652E-05
  7.43222678E-05  0.00000000E+00 -1.75537892E-06  0.00000000E+00  0.00000000E+00
  1.00073893E-07 -7.55606185E-06 -3.79320740E-05  0.00000000E+00  0.00000000E+00
 -2.62877396E-05  9.01642891E-05 -2.74749789E-05  0.00000000E+00  0.00000000E+00
 -2.57042663E-04 -1.51118931E-04  0.00000000E+00  9.14444649E-06  5.98258417E-06
  0.00000000E+00  0.00000000E+00  3.04418850E-06 -1.90244771E-05  0.00000000E+00
 -3.84425137E-05 -3.68653074E-05  0.00000000E+00  0.00000000E+00 -7.25472374E-05
  7.33161117E-06  2.87356166E-03  3.77332099E-05  1.02289905E-04 -6.94823358E-05
 -4.82583045E-04  7.46162681E-06  1.58037821E-05  0.00000000E+00 -6.23633745E-05
 -5.80586471E-05  0.00000000E+00  2.33321216E-04 -1.61767789E-04  0.00000000E+00
 -2.01286333E-04 -6.92306160E-05  0.00000000E+00 -8.68202130E-06  0.00000000E+00
  0.00000000E+00  2.24940537E-05  1.92886478E-05  4.10866775E-06  0.00000000E+00
  0.00000000E+00 -1.18140908E-04 -4.43587487E-05 -2.94378870E-06  0.00000000E+00
  0.00000000E+00 -2.21531625E-04 -1.90255502E-04  0.00000000E+00  3.33079359E-06
  6.36750311E-08  0.00000000E+00  0.00000000E+00  1.86142111E-06 -1.43556424E-05
  0.00000000E+00 -4.69801687E-05  8.64821796E-07  0.00000000E+00  0.00000000E+00
 -7.86717721E-05  1.94216765E-04  2.58739065E-04  1.46571581E-03 -7.82957769E-05
 -1.55041575E-03  3.73666588E-04 -1.44648965E-04 -2.66058965E-07  0.00000000E+00
 -2.08205420E-03 -4.03623551E-04  0.00000000E+00  1.00022456E-03  7.43866949E-04
  0.00000000E+00 -1.69189875E-04  5.21735348E-05  0.00000000E+00 -1.23467855E-04
  0.00000000E+00  0.00000000E+00  2.42682851E-04  9.53649973E-05 -4.41023921E-04
  0.00000000E+00  0.00000000E+00  8.99370768E-04 -6.78471758E-05  1.36356077E-05
  0.00000000E+00  0.00000000E+00 -3.32536251E-04 -1.31458995E-04  0.00000000E+00
 -2.05139407E-06  1.48699511E-05  0.00000000E+00  0.00000000E+00  1.97359706E-05
  1.48295348E-05  0.00000000E+00  1.69766514E-04 -6.95670705E-05  0.00000000E+00
  0.00000000E+00 -2.41925535E-04  3.57321988E-05  9.76648861E-01 -9.85050321E-03
  4.35661369E-02  4.48394076E-03 -4.40742686E-04  2.14836244E-03  4.86881408E-04
  0.00000000E+00 -2.38369642E-03 -6.08596506E-04  0.00000000E+00  1.14470139E-03
 -1.12302814E-06  0.00000000E+00  6.50025434E-06 -4.50902784E-05  0.00000000E+00
 -2.31845507E-04  0.00000000E+00  0.00000000E+00  1.02888974E-04  3.16678280E-05
  3.90453275E-04  0.00000000E+00  0.00000000E+00 -8.30532559E-04 -4.22122300E-04
 -1.57074336E-04  0.00000000E+00  0.00000000E+00  2.60391690E-04  2.04005191E-05
  0.00000000E+00  5.22585861E-05  1.79711230E-05  0.00000000E+00  0.00000000E+00
 -2.17225973E-05 -1.36032670E-05  0.00000000E+00  1.37425180E-04  8.97535963E-06
  0.00000000E+00  0.00000000E+00 -1.88326551E-04 -1.41405583E-04  4.71800241E-04
  1.98898359E-03  9.21811233E-05  1.44497913E-05 -3.66899193E-05 -2.45024084E-04
  0.00000000E+00  1.45142610E-04 -1.25023910E-03  0.00000000E+00  3.41862859E-04
 -3.20642926E-04  0.00000000E+00 -1.68275759E-06  0.00000000E+00  0.00000000E+00
  7.63500949E-05  2.04083578E-05 -1.61443485E-04  0.00000000E+00  0.00000000E+00
 -5.34824764E-04 -5.08729641E-05  9.76830941E-01 -9.15999134E-03  4.34469611E-02
  2.19329176E-04 -1.20520153E-03 -1.60143887E-03  1.40125409E-03  0.00000000E+00
  1.61082272E-03 -1.24208905E-03  0.00000000E+00 -5.43295361E-04 -7.87133377E-04
  0.00000000E+00  5.99691220E-05 -5.26795954E-05  0.00000000E+00  3.02603347E-05
  0.00000000E+00  0.00000000E+00 -1.16631415E-04 -1.00763800E-05  7.53639685E-04
  0.00000000E+00  0.00000000E+00 -2.00888538E-04 -2.42795840E-04 -2.66684093E-04
  0.00000000E+00  0.00000000E+00  1.61139602E-04  1.08359735E-04  0.00000000E+00
 -6.46189773E-05  7.12537118E-07  0.00000000E+00  0.00000000E+00  1.95547481E-05
  1.09627925E-05  0.00000000E+00 -4.44629414E-06  1.16196726E-04  0.00000000E+00
  0.00000000E+00  2.44114946E-04  1.07061412E-04 -4.79344530E-03 -2.10172598E-04