title                                                                   
SP        RMP2-FC                                                     Aug-CC-pVTZ         
Number of atoms                            I                5
Info1-9                                    I   N=           9
          33          24           0           0           0         110
           1           2           1
Full Title                                 C   N=           1
title       
Route                                      C   N=           4
#p SP mp2/aug-cc-pvtz density=current           
Charge                                     I                0
Multiplicity                               I                1
Number of electrons                        I               32
Number of alpha electrons                  I               16
Number of beta electrons                   I               16
Number of basis functions                  I              207
Number of independent functions            I              207
Number of point charges in /Mol/           I                0
Number of translation vectors              I                0
Atomic numbers                             I   N=           5
           1           8           8           7           8
Nuclear charges                            R   N=           5
  1.00000000E+00  8.00000000E+00  8.00000000E+00  7.00000000E+00  8.00000000E+00
Current cartesian coordinates              R   N=          15
  2.92907533E+00  3.20400704E+00  3.78176377E-32  2.74778492E+00  1.36549170E+00
  2.51949915E-33 -7.30256654E-17  1.27129471E+00 -1.20041759E-33 -4.94520188E-01
 -1.44068937E+00  2.49148022E-32 -2.68121417E+00 -1.77668409E+00  1.27228988E-31
Number of symbols in /Mol/                 I                0
Force Field                                I                0
Atom Types                                 C   N=           5
                                                            
Int Atom Types                             I   N=           5
           0           0           0           0           0
MM charges                                 R   N=           5
  0.00000000E+00  0.00000000E+00  0.00000000E+00  0.00000000E+00  0.00000000E+00
Integer atomic weights                     I   N=           5
           1          16          16          14          16
Real atomic weights                        R   N=           5
  1.00782504E+00  1.59949146E+01  1.59949146E+01  1.40030740E+01  1.59949146E+01
Atom fragment info                         I   N=           5
           0           0           0           0           0
Atom residue num                           I   N=           5
           0           0           0           0           0
Nuclear spins                              I   N=           5
           1           0           0           2           0
Nuclear ZEff                               R   N=           5
 -1.00000000E+00 -5.60000000E+00 -5.60000000E+00 -4.55000000E+00 -5.60000000E+00
Nuclear ZNuc                               R   N=           5
  1.00000000E+00  8.00000000E+00  8.00000000E+00  7.00000000E+00  8.00000000E+00
Nuclear QMom                               R   N=           5
  0.00000000E+00  0.00000000E+00  0.00000000E+00  2.04400000E+00  0.00000000E+00
Nuclear GFac                               R   N=           5
  2.79284600E+00  0.00000000E+00  0.00000000E+00  4.03761000E-01  0.00000000E+00
MicOpt                                     I   N=           5
          -1          -1          -1          -1          -1
Number of residues                         I                0
Number of secondary structures             I                0
SymInf integers                            I   N=          26
           1           2           1           1           1           1
           1          -1           0           0           0           0
           0           0           0           0           0           0
           0           0           0           0           0           0
           0           0
RotTr to input orientation                 R   N=          12
 -9.95173502E-01 -9.84172558E-17 -9.81310382E-02  9.81310382E-02 -7.28810098E-17
 -9.95173502E-01  9.07903560E-17 -1.00000000E+00  8.21870373E-17  2.60052562E+00
  0.00000000E+00  3.47597611E+00
Number of contracted shells                I               65
Number of primitive shells                 I              119
Pure/Cartesian d shells                    I                0
Pure/Cartesian f shells                    I                0
Highest angular momentum                   I                3
Largest degree of contraction              I                7
Shell types                                I   N=          65
           0           0           0           0           1           1
           1          -2          -2           0           0           0
           0           0           1           1           1           1
          -2          -2          -2          -3          -3           0
           0           0           0           0           1           1
           1           1          -2          -2          -2          -3
          -3           0           0           0           0           0
           1           1           1           1          -2          -2
          -2          -3          -3           0           0           0
           0           0           1           1           1           1
          -2          -2          -2          -3          -3
Number of primitives per shell             I   N=          65
           3           1           1           1           1           1
           1           1           1           7           6           1
           1           1           3           1           1           1
           1           1           1           1           1           7
           6           1           1           1           3           1
           1           1           1           1           1           1
           1           7           6           1           1           1
           3           1           1           1           1           1
           1           1           1           7           6           1
           1           1           3           1           1           1
           1           1           1           1           1
Shell to atom map                          I   N=          65
           1           1           1           1           1           1
           1           1           1           2           2           2
           2           2           2           2           2           2
           2           2           2           2           2           3
           3           3           3           3           3           3
           3           3           3           3           3           3
           3           4           4           4           4           4
           4           4           4           4           4           4
           4           4           4           5           5           5
           5           5           5           5           5           5
           5           5           5           5           5
Primitive exponents                        R   N=         119
  3.38700000E+01  5.09500000E+00  1.15900000E+00  3.25800000E-01  1.02700000E-01
  2.52600000E-02  1.40700000E+00  3.88000000E-01  1.02000000E-01  1.05700000E+00
  2.47000000E-01  1.53300000E+04  2.29900000E+03  5.22400000E+02  1.47300000E+02
  4.75500000E+01  1.67600000E+01  6.20700000E+00  5.22400000E+02  1.47300000E+02
  4.75500000E+01  1.67600000E+01  6.20700000E+00  6.88200000E-01  1.75200000E+00
  2.38400000E-01  7.37600000E-02  3.44600000E+01  7.74900000E+00  2.28000000E+00
  7.15600000E-01  2.14000000E-01  5.97400000E-02  2.31400000E+00  6.45000000E-01
  2.14000000E-01  1.42800000E+00  5.00000000E-01  1.53300000E+04  2.29900000E+03
  5.22400000E+02  1.47300000E+02  4.75500000E+01  1.67600000E+01  6.20700000E+00
  5.22400000E+02  1.47300000E+02  4.75500000E+01  1.67600000E+01  6.20700000E+00
  6.88200000E-01  1.75200000E+00  2.38400000E-01  7.37600000E-02  3.44600000E+01
  7.74900000E+00  2.28000000E+00  7.15600000E-01  2.14000000E-01  5.97400000E-02
  2.31400000E+00  6.45000000E-01  2.14000000E-01  1.42800000E+00  5.00000000E-01
  1.14200000E+04  1.71200000E+03  3.89300000E+02  1.10000000E+02  3.55700000E+01
  1.25400000E+01  4.64400000E+00  3.89300000E+02  1.10000000E+02  3.55700000E+01
  1.25400000E+01  4.64400000E+00  5.11800000E-01  1.29300000E+00  1.78700000E-01
  5.76000000E-02  2.66300000E+01  5.94800000E+00  1.74200000E+00  5.55000000E-01
  1.72500000E-01  4.91000000E-02  1.65400000E+00  4.69000000E-01  1.51000000E-01
  1.09300000E+00  3.64000000E-01  1.53300000E+04  2.29900000E+03  5.22400000E+02
  1.47300000E+02  4.75500000E+01  1.67600000E+01  6.20700000E+00  5.22400000E+02
  1.47300000E+02  4.75500000E+01  1.67600000E+01  6.20700000E+00  6.88200000E-01
  1.75200000E+00  2.38400000E-01  7.37600000E-02  3.44600000E+01  7.74900000E+00
  2.28000000E+00  7.15600000E-01  2.14000000E-01  5.97400000E-02  2.31400000E+00
  6.45000000E-01  2.14000000E-01  1.42800000E+00  5.00000000E-01
Contraction coefficients                   R   N=         119
  2.54948632E-02  1.90362766E-01  8.52162022E-01  1.00000000E+00  1.00000000E+00
  1.00000000E+00  1.00000000E+00  1.00000000E+00  1.00000000E+00  1.00000000E+00
  1.00000000E+00  5.19808943E-04  4.02025621E-03  2.07128267E-02  8.10105536E-02
  2.35962985E-01  4.42653446E-01  3.57064423E-01 -4.42115008E-05 -1.22591041E-03
 -1.05517725E-02 -6.74452633E-02 -1.71198607E-01  1.07329856E+00  1.00000000E+00
  1.00000000E+00  1.00000000E+00  4.11634896E-02  2.57762836E-01  8.02419274E-01
  1.00000000E+00  1.00000000E+00  1.00000000E+00  1.00000000E+00  1.00000000E+00
  1.00000000E+00  1.00000000E+00  1.00000000E+00  5.19808943E-04  4.02025621E-03
  2.07128267E-02  8.10105536E-02  2.35962985E-01  4.42653446E-01  3.57064423E-01
 -4.42115008E-05 -1.22591041E-03 -1.05517725E-02 -6.74452633E-02 -1.71198607E-01
  1.07329856E+00  1.00000000E+00  1.00000000E+00  1.00000000E+00  4.11634896E-02
  2.57762836E-01  8.02419274E-01  1.00000000E+00  1.00000000E+00  1.00000000E+00
  1.00000000E+00  1.00000000E+00  1.00000000E+00  1.00000000E+00  1.00000000E+00
  5.34563860E-04  4.13435660E-03  2.12335358E-02  8.25006224E-02  2.38138871E-01
  4.42551547E-01  3.53757422E-01 -4.89867350E-05 -1.19527323E-03 -1.03490714E-02
 -6.48680190E-02 -1.71552477E-01  1.07289568E+00  1.00000000E+00  1.00000000E+00
  1.00000000E+00  3.98072123E-02  2.49002660E-01  8.10479727E-01  1.00000000E+00
  1.00000000E+00  1.00000000E+00  1.00000000E+00  1.00000000E+00  1.00000000E+00
  1.00000000E+00  1.00000000E+00  5.19808943E-04  4.02025621E-03  2.07128267E-02
  8.10105536E-02  2.35962985E-01  4.42653446E-01  3.57064423E-01 -4.42115008E-05
 -1.22591041E-03 -1.05517725E-02 -6.74452633E-02 -1.71198607E-01  1.07329856E+00
  1.00000000E+00  1.00000000E+00  1.00000000E+00  4.11634896E-02  2.57762836E-01
  8.02419274E-01  1.00000000E+00  1.00000000E+00  1.00000000E+00  1.00000000E+00
  1.00000000E+00  1.00000000E+00  1.00000000E+00  1.00000000E+00
Coordinates of each shell                  R   N=         195
  2.92907533E+00  3.20400704E+00 -3.37053624E-33  2.92907533E+00  3.20400704E+00
 -3.37053624E-33  2.92907533E+00  3.20400704E+00 -3.37053624E-33  2.92907533E+00
  3.20400704E+00 -3.37053624E-33  2.92907533E+00  3.20400704E+00 -3.37053624E-33
  2.92907533E+00  3.20400704E+00 -3.37053624E-33  2.92907533E+00  3.20400704E+00
 -3.37053624E-33  2.92907533E+00  3.20400704E+00 -3.37053624E-33  2.92907533E+00
  3.20400704E+00 -3.37053624E-33  2.74778492E+00  1.36549170E+00  6.89785380E-33
  2.74778492E+00  1.36549170E+00  6.89785380E-33  2.74778492E+00  1.36549170E+00
  6.89785380E-33  2.74778492E+00  1.36549170E+00  6.89785380E-33  2.74778492E+00
  1.36549170E+00  6.89785380E-33  2.74778492E+00  1.36549170E+00  6.89785380E-33
  2.74778492E+00  1.36549170E+00  6.89785380E-33  2.74778492E+00  1.36549170E+00
  6.89785380E-33  2.74778492E+00  1.36549170E+00  6.89785380E-33  2.74778492E+00
  1.36549170E+00  6.89785380E-33  2.74778492E+00  1.36549170E+00  6.89785380E-33
  2.74778492E+00  1.36549170E+00  6.89785380E-33  2.74778492E+00  1.36549170E+00
  6.89785380E-33  2.74778492E+00  1.36549170E+00  6.89785380E-33  6.02271966E-18
  1.27129471E+00 -7.79714313E-33  6.02271966E-18  1.27129471E+00 -7.79714313E-33
  6.02271966E-18  1.27129471E+00 -7.79714313E-33  6.02271966E-18  1.27129471E+00
 -7.79714313E-33  6.02271966E-18  1.27129471E+00 -7.79714313E-33  6.02271966E-18
  1.27129471E+00 -7.79714313E-33  6.02271966E-18  1.27129471E+00 -7.79714313E-33
  6.02271966E-18  1.27129471E+00 -7.79714313E-33  6.02271966E-18  1.27129471E+00
 -7.79714313E-33  6.02271966E-18  1.27129471E+00 -7.79714313E-33  6.02271966E-18
  1.27129471E+00 -7.79714313E-33  6.02271966E-18  1.27129471E+00 -7.79714313E-33
  6.02271966E-18  1.27129471E+00 -7.79714313E-33  6.02271966E-18  1.27129471E+00
 -7.79714313E-33 -4.94520188E-01 -1.44068937E+00  6.08743916E-33 -4.94520188E-01
 -1.44068937E+00  6.08743916E-33 -4.94520188E-01 -1.44068937E+00  6.08743916E-33
 -4.94520188E-01 -1.44068937E+00  6.08743916E-33 -4.94520188E-01 -1.44068937E+00
  6.08743916E-33 -4.94520188E-01 -1.44068937E+00  6.08743916E-33 -4.94520188E-01
 -1.44068937E+00  6.08743916E-33 -4.94520188E-01 -1.44068937E+00  6.08743916E-33
 -4.94520188E-01 -1.44068937E+00  6.08743916E-33 -4.94520188E-01 -1.44068937E+00
  6.08743916E-33 -4.94520188E-01 -1.44068937E+00  6.08743916E-33 -4.94520188E-01
 -1.44068937E+00  6.08743916E-33 -4.94520188E-01 -1.44068937E+00  6.08743916E-33
 -4.94520188E-01 -1.44068937E+00  6.08743916E-33 -2.68121417E+00 -1.77668409E+00
 -4.00590291E-33 -2.68121417E+00 -1.77668409E+00 -4.00590291E-33 -2.68121417E+00
 -1.77668409E+00 -4.00590291E-33 -2.68121417E+00 -1.77668409E+00 -4.00590291E-33
 -2.68121417E+00 -1.77668409E+00 -4.00590291E-33 -2.68121417E+00 -1.77668409E+00
 -4.00590291E-33 -2.68121417E+00 -1.77668409E+00 -4.00590291E-33 -2.68121417E+00
 -1.77668409E+00 -4.00590291E-33 -2.68121417E+00 -1.77668409E+00 -4.00590291E-33
 -2.68121417E+00 -1.77668409E+00 -4.00590291E-33 -2.68121417E+00 -1.77668409E+00
 -4.00590291E-33 -2.68121417E+00 -1.77668409E+00 -4.00590291E-33 -2.68121417E+00
 -1.77668409E+00 -4.00590291E-33 -2.68121417E+00 -1.77668409E+00 -4.00590291E-33
Num ILSW                                   I              100
ILSW                                       I   N=         100
           0           0           0           0           2           0
           0           0           0           0           0          -1
           5           0           0           0           0           0
           0           0           0           0           0           0
           1           0           0           0           0           0
           0           0      100000           0          -1           0
           0           0           0           0           0           0
           0           0           0           1           0           0
           0 -2000000000           1           0           0           0
           0           0           4          52           0           0
           0           0           0           0           0           0
           0           0           0           5           0           1
           0           0           0           0           0           0
           0           0           0           0           0           0
           0           0           0           0           0           0
           0           0           0           0           0           0
           0           0           0           0
Num RLSW                                   I               52
RLSW                                       R   N=          52
  1.00000000E+00  1.00000000E+00  1.00000000E+00  1.00000000E+00  1.00000000E+00
  0.00000000E+00  0.00000000E+00  1.00000000E+00  0.00000000E+00  0.00000000E+00
  0.00000000E+00  0.00000000E+00  1.00000000E+00  0.00000000E+00  0.00000000E+00
  0.00000000E+00  0.00000000E+00  1.00000000E+00  0.00000000E+00  0.00000000E+00
  0.00000000E+00  0.00000000E+00  1.00000000E+00  0.00000000E+00  0.00000000E+00
  0.00000000E+00  0.00000000E+00  1.00000000E+00  0.00000000E+00  0.00000000E+00
  0.00000000E+00  0.00000000E+00  1.00000000E+00  0.00000000E+00  0.00000000E+00
  0.00000000E+00  0.00000000E+00  0.00000000E+00  1.00000000E+00  1.00000000E+00
  0.00000000E+00  1.00000000E+00  0.00000000E+00  0.00000000E+00  0.00000000E+00
  0.00000000E+00  0.00000000E+00  0.00000000E+00  0.00000000E+00  0.00000000E+00
  0.00000000E+00  0.00000000E+00
MxBond                                     I                2
NBond                                      I   N=           5
           1           2           2           2           1
IBond                                      I   N=          10
           2           0           1           3           2           4
           3           5           4           0
RBond                                      R   N=          10
  1.00000000E+00  0.00000000E+00  1.00000000E+00  1.00000000E+00  1.00000000E+00
  1.00000000E+00  1.00000000E+00  2.00000000E+00  2.00000000E+00  0.00000000E+00
Virial Ratio                               R      2.002409458700283E+00
SCF Energy                                 R     -2.795012071685061E+02
MP2 Energy                                 R     -2.804466677098834E+02
Total Energy                               R     -2.804466677098834E+02
Post-SCF wavefunction norm                 R      1.120373493511114E+00
RMS Density                                R      3.792234229082367E-09
Job Status                                 I                1
Nuclear derivative order                   I                0
External E-field                           R   N=          35
  0.00000000E+00  0.00000000E+00  0.00000000E+00  0.00000000E+00  0.00000000E+00
  0.00000000E+00  0.00000000E+00  0.00000000E+00  0.00000000E+00  0.00000000E+00
  0.00000000E+00  0.00000000E+00  0.00000000E+00  0.00000000E+00  0.00000000E+00
  0.00000000E+00  0.00000000E+00  0.00000000E+00  0.00000000E+00  0.00000000E+00
  0.00000000E+00  0.00000000E+00  0.00000000E+00  0.00000000E+00  0.00000000E+00
  0.00000000E+00  0.00000000E+00  0.00000000E+00  0.00000000E+00  0.00000000E+00
  0.00000000E+00  0.00000000E+00  0.00000000E+00  0.00000000E+00  0.00000000E+00
IOpCl                                      I                0
IROHF                                      I                0
Alpha Orbital Energies                     R   N=         207
 -2.06906528E+01 -2.06841311E+01 -2.06606469E+01 -1.58126564E+01 -1.62383225E+00
 -1.49469670E+00 -1.25273755E+00 -9.47867959E-01 -7.72096120E-01 -7.58476077E-01
 -7.11591281E-01 -6.78035794E-01 -6.20200875E-01 -5.89014312E-01 -4.84930138E-01
 -4.72265757E-01  2.94616097E-02  7.18054030E-02  8.59821684E-02  1.01741071E-01
  1.33959099E-01  1.34020860E-01  1.43703603E-01  1.54215157E-01  1.78378726E-01
  1.94197472E-01  1.99835445E-01  2.06360702E-01  2.20844431E-01  2.35661823E-01
  2.37460302E-01  2.65828555E-01  2.93261876E-01  3.03502895E-01  3.10136339E-01
  3.43509148E-01  3.50205372E-01  3.87082761E-01  4.20832547E-01  4.30619103E-01
  5.27405056E-01  5.29359425E-01  5.58534988E-01  5.81784454E-01  6.26053938E-01
  6.38310370E-01  6.74578036E-01  6.83657756E-01  7.06424702E-01  7.10780387E-01
  7.23423126E-01  7.29401628E-01  7.44504782E-01  7.91786690E-01  7.91943946E-01
  8.10193951E-01  8.12814556E-01  8.30477249E-01  8.68357172E-01  9.08336377E-01
  9.21664949E-01  9.26181029E-01  9.55860052E-01  9.78524785E-01  9.83449203E-01
  1.01487673E+00  1.05238880E+00  1.05482319E+00  1.08158927E+00  1.11635826E+00
  1.14017133E+00  1.18977644E+00  1.22023392E+00  1.23099812E+00  1.33909850E+00
  1.35095045E+00  1.38636070E+00  1.45109480E+00  1.48536707E+00  1.50754950E+00
  1.53828322E+00  1.56689961E+00  1.58026631E+00  1.61231818E+00  1.66485016E+00
  1.67024560E+00  1.70321653E+00  1.79280546E+00  1.83103226E+00  1.83491326E+00
  1.87858370E+00  1.90903836E+00  1.95140858E+00  1.99186020E+00  2.00430679E+00
  2.07762491E+00  2.11990527E+00  2.13212924E+00  2.15014519E+00  2.22398239E+00
  2.26408801E+00  2.26552007E+00  2.28956517E+00  2.31350862E+00  2.34347073E+00
  2.38462641E+00  2.42440412E+00  2.42809636E+00  2.45421501E+00  2.46267964E+00
  2.47627306E+00  2.50072022E+00  2.59244711E+00  2.59625858E+00  2.62132325E+00
  2.62381122E+00  2.63487333E+00  2.66915888E+00  2.75744244E+00  2.82797621E+00
  2.85532724E+00  2.88383277E+00  2.89434712E+00  2.92328432E+00  2.95816095E+00
  3.02360906E+00  3.06759251E+00  3.12301075E+00  3.20487528E+00  3.22599470E+00
  3.31550643E+00  3.34080843E+00  3.51741831E+00  3.63978279E+00  3.83515943E+00
  3.83831829E+00  4.14102162E+00  4.16000970E+00  4.18195877E+00  4.25677823E+00
  4.34421882E+00  4.39130219E+00  4.46066677E+00  4.51589627E+00  4.66097385E+00
  4.70716131E+00  4.80292412E+00  4.81419574E+00  4.82558438E+00  4.89561614E+00
  5.02329762E+00  5.07746629E+00  5.09446429E+00  5.13796558E+00  5.17450324E+00
  5.23206208E+00  5.26669061E+00  5.30684972E+00  5.31141363E+00  5.35333605E+00
  5.60207080E+00  5.67367615E+00  5.76717668E+00  5.82460397E+00  5.95650528E+00
  6.17056710E+00  6.30855491E+00  6.33986448E+00  6.39243893E+00  6.49363316E+00
  6.50539876E+00  6.61241288E+00  6.66883600E+00  6.69937349E+00  6.75818138E+00
  6.76362177E+00  6.83246012E+00  6.89837260E+00  7.00787411E+00  7.05512661E+00
  7.05611168E+00  7.08885616E+00  7.12220522E+00  7.14786345E+00  7.18012808E+00
  7.22289270E+00  7.22915251E+00  7.29874450E+00  7.32512659E+00  7.34546902E+00
  7.39977946E+00  7.42990086E+00  7.48456863E+00  7.60733218E+00  7.61643678E+00
  7.62528282E+00  7.66329248E+00  7.78054232E+00  7.88677203E+00  8.08883165E+00
  8.31157560E+00  8.39850940E+00  8.54150998E+00  1.33886337E+01  1.43819190E+01
  1.50416283E+01  1.61525409E+01
Alpha MO coefficients                      R   N=       42849
  9.09895936E-05 -6.36573992E-04 -7.21823313E-04 -4.34376745E-06 -2.21683531E-05
 -2.76864318E-05  0.00000000E+00 -2.58653819E-05  6.93429248E-05  0.00000000E+00
  9.94972274E-05  3.96685531E-05  0.00000000E+00  3.16465041E-05  0.00000000E+00
  0.00000000E+00 -4.88090859E-05  1.91466347E-05 -3.48244877E-06  0.00000000E+00
  0.00000000E+00 -1.37065800E-04  1.07672710E-04  4.72350204E-03 -2.79996940E-04
  2.08723947E-05  1.55930920E-03  1.81485592E-03  1.06040885E-04  7.59319678E-06
  0.00000000E+00 -6.16894796E-04 -3.18318773E-05  0.00000000E+00 -1.12645681E-03
  7.86098118E-04  0.00000000E+00 -4.07085277E-04  5.57283422E-05  0.00000000E+00
  2.85656345E-05  0.00000000E+00  0.00000000E+00 -5.41403046E-05  6.31064583E-06
 -3.77725346E-04  0.00000000E+00  0.00000000E+00  7.37395873E-04 -3.58618373E-05
 -4.46935504E-04  0.00000000E+00  0.00000000E+00  2.43994222E-04 -2.25999449E-05
  0.00000000E+00  7.97837028E-05  1.25930188E-05  0.00000000E+00  0.00000000E+00
 -1.09776726E-04 -3.56433310E-06  0.00000000E+00  2.56307142E-04 -2.67814783E-05
  0.00000000E+00  0.00000000E+00 -3.49280740E-04  4.81180385E-05  9.76910640E-01
 -9.21522256E-03  4.33180582E-02  2.03390161E-03 -9.16507211E-04  1.49338000E-03
 -1.35537044E-03  0.00000000E+00 -1.43444618E-03  1.38411681E-03  0.00000000E+00
  8.02328207E-05 -1.16063064E-03  0.00000000E+00 -1.27687905E-04 -4.44310691E-06
  0.00000000E+00  4.62171555E-05  0.00000000E+00  0.00000000E+00 -3.52200314E-05
  2.12320381E-05  7.46916176E-04  0.00000000E+00  0.00000000E+00 -2.31214035E-04
 -3.89512144E-04 -3.59877083E-04  0.00000000E+00  0.00000000E+00 -3.12309607E-04
 -3.74025512E-04  0.00000000E+00  4.74351187E-05 -4.88680468E-05  0.00000000E+00
  0.00000000E+00 -3.88887983E-05 -1.58060312E-05  0.00000000E+00  2.30036519E-05
  2.15271064E-05  0.00000000E+00  0.00000000E+00 -3.04722418E-04 -1.39097222E-04
  3.90827728E-05  4.58134307E-05 -2.64591375E-04 -7.04998919E-04 -1.44695752E-04
 -2.71903522E-05 -9.75378623E-05  0.00000000E+00  2.72169998E-04  7.10284783E-04
  0.00000000E+00 -8.38749876E-04 -4.80998522E-04  0.00000000E+00 -1.29083053E-04
 -2.83787044E-05  0.00000000E+00 -1.81128485E-05  0.00000000E+00  0.00000000E+00
 -2.96625899E-05  1.51734141E-05 -3.28664017E-04  0.00000000E+00  0.00000000E+00
 -8.29150481E-04  1.27896620E-04 -3.55311319E-05  0.00000000E+00  0.00000000E+00
  9.61305810E-05 -1.17703930E-04  0.00000000E+00 -2.09047911E-05 -1.20222761E-04
  0.00000000E+00  0.00000000E+00 -6.25838692E-05 -1.37561159E-04  0.00000000E+00
  3.95426793E-06 -1.52093085E-04  0.00000000E+00  0.00000000E+00  4.45137489E-05
 -4.19755162E-04 -2.60088317E-03  1.21681337E-04 -1.24676216E-04 -2.43389521E-04
  1.39827967E-04 -8.09761594E-06 -2.78864265E-05  0.00000000E+00  6.97679860E-05
  1.64442161E-04  0.00000000E+00  2.35118202E-04  2.01845909E-04  0.00000000E+00
  1.28245717E-04  2.59076132E-05  0.00000000E+00 -3.37326842E-06  0.00000000E+00
  0.00000000E+00 -1.79117175E-05  1.17085041E-06  5.64110187E-07  0.00000000E+00
  0.00000000E+00  8.08713897E-05  8.82947500E-05 -1.00551942E-04  0.00000000E+00
  0.00000000E+00  1.67024371E-04  1.62490815E-04  0.00000000E+00  1.57979857E-05
 -3.52670946E-06  0.00000000E+00  0.00000000E+00 -4.26200322E-06 -1.19461417E-05
  0.00000000E+00 -3.35574884E-05  4.53590288E-05  0.00000000E+00  0.00000000E+00
  8.38628495E-05  9.01579427E-05  3.94616936E-05 -9.71569562E-04 -4.73841114E-04
 -1.05255947E-05 -2.18943166E-05  1.50716547E-05  0.00000000E+00  2.24801699E-06
  2.75005186E-04  0.00000000E+00 -4.08394147E-05  1.32144051E-04  0.00000000E+00
  2.58055027E-05  0.00000000E+00  0.00000000E+00  1.28516323E-05  1.10163896E-05
 -2.65480587E-05  0.00000000E+00  0.00000000E+00  1.18891497E-05  3.35164093E-05
  1.15533990E-04  8.27480237E-05 -2.81689773E-05  7.34295013E-04  6.39809490E-04
  1.02499089E-05  2.49006935E-06  0.00000000E+00 -7.33867128E-05  1.42731746E-05
  0.00000000E+00  3.30575750E-04  8.91241448E-04  0.00000000E+00  4.13507854E-06
  8.01022988E-05  0.00000000E+00 -2.23644819E-06  0.00000000E+00  0.00000000E+00
  5.32195073E-08 -6.04241621E-06 -3.56218713E-05  0.00000000E+00  0.00000000E+00
 -2.03402076E-05  8.26996760E-05 -2.27350278E-05  0.00000000E+00  0.00000000E+00
 -2.66387491E-04 -1.62241683E-04  0.00000000E+00  9.20379342E-06  6.03737843E-06
  0.00000000E+00  0.00000000E+00  2.75418657E-06 -1.87996603E-05  0.00000000E+00
 -4.02513914E-05 -3.82807694E-05  0.00000000E+00  0.00000000E+00 -7.62532489E-05
  1.91501459E-05  2.63975503E-03  3.92435668E-05  9.22294333E-05 -6.90761902E-05
 -4.67617356E-04  7.26972549E-06  1.57288083E-05  0.00000000E+00 -6.18868165E-05
 -5.52848494E-05  0.00000000E+00  2.35703947E-04 -1.87238372E-04  0.00000000E+00
 -1.87171841E-04 -6.36919441E-05  0.00000000E+00 -8.71836415E-06  0.00000000E+00
  0.00000000E+00  2.23921314E-05  1.97674071E-05  4.36584575E-06  0.00000000E+00
  0.00000000E+00 -1.17295649E-04 -4.63967685E-05 -4.33727999E-06  0.00000000E+00
  0.00000000E+00 -2.21583117E-04 -2.06033170E-04  0.00000000E+00  3.23317548E-06
 -5.54739232E-07  0.00000000E+00  0.00000000E+00  1.72015863E-06 -1.35521937E-05
  0.00000000E+00 -4.63787715E-05  3.56828906E-06  0.00000000E+00  0.00000000E+00
 -7.62215004E-05  1.87891621E-04  2.58681511E-04  1.46510911E-03 -7.80731394E-05
 -1.53920066E-03  4.00475694E-04 -1.44522355E-04  1.35428490E-07  0.00000000E+00
 -2.08896017E-03 -4.03677699E-04  0.00000000E+00  1.03640840E-03  7.62562184E-04
  0.00000000E+00 -1.70150357E-04  5.70522599E-05  0.00000000E+00 -1.23346090E-04
  0.00000000E+00  0.00000000E+00  2.43088683E-04  9.40557604E-05 -4.42157109E-04
  0.00000000E+00  0.00000000E+00  8.98887080E-04 -6.62618085E-05  1.16790620E-05
  0.00000000E+00  0.00000000E+00 -3.38308430E-04 -1.23681663E-04  0.00000000E+00
 -1.33889564E-06  1.52790256E-05  0.00000000E+00  0.00000000E+00  1.88885033E-05
  1.34248244E-05  0.00000000E+00  1.64774020E-04 -7.17051948E-05  0.00000000E+00
  0.00000000E+00 -2.40775446E-04  4.16709089E-05  9.76649154E-01 -9.84825991E-03
  4.35680824E-02  4.50040765E-03 -4.46687640E-04  2.14806338E-03  4.80690760E-04
  0.00000000E+00 -2.38390523E-03 -6.03360842E-04  0.00000000E+00  1.13944021E-03
 -4.07926804E-06  0.00000000E+00  4.32658250E-06 -4.29951654E-05  0.00000000E+00
 -2.32327612E-04  0.00000000E+00  0.00000000E+00  1.02720270E-04  3.18354780E-05
  3.90516173E-04  0.00000000E+00  0.00000000E+00 -8.34003537E-04 -4.19013143E-04
 -1.53800606E-04  0.00000000E+00  0.00000000E+00  2.56322012E-04  1.67159153E-05
  0.00000000E+00  5.22717921E-05  1.76805548E-05  0.00000000E+00  0.00000000E+00
 -2.21078330E-05 -1.32759166E-05  0.00000000E+00  1.38232378E-04  9.30561349E-06
  0.00000000E+00  0.00000000E+00 -1.89699075E-04 -1.40646880E-04  4.55054365E-04
  2.24873209E-03  2.34411281E-04  2.01988684E-05 -4.15992750E-05 -2.71171442E-04
  0.00000000E+00  1.02417243E-04 -1.36846735E-03  0.00000000E+00  3.05809162E-04
 -3.71803469E-04  0.00000000E+00 -2.06600560E-05  0.00000000E+00  0.00000000E+00
  4.39510703E-05  1.91254868E-05 -1.64951530E-04  0.00000000E+00  0.00000000E+00
 -5.43978730E-04 -2.38236726E-05  9.76833712E-01 -9.18545349E-03  4.34415007E-02
  1.51140597E-05 -1.23997600E-03 -1.56265228E-03  1.44200236E-03  0.00000000E+00
  1.56838976E-03 -1.34313118E-03  0.00000000E+00 -6.03040467E-04 -9.79487851E-04
  0.00000000E+00  6.11049615E-05 -4.52691774E-05  0.00000000E+00  3.39972044E-05
  0.00000000E+00  0.00000000E+00 -1.11369423E-04 -3.55877902E-06  7.71387722E-04
  0.00000000E+00  0.00000000E+00 -1.75619481E-04 -2.43669651E-04 -2.56200886E-04
  0.00000000E+00  0.00000000E+00  1.95355042E-04  1.24012158E-04  0.00000000E+00
 -6.35618854E-05  6.58412041E-06  0.00000000E+00  0.00000000E+00  2.14396907E-05
  1.71351256E-05  0.00000000E+00  5.40603526E-07  1.22803562E-04  0.00000000E+00
  0.00000000E+00  2.58449582E-04  9.17195443E-05 -4.81484793E-03 -2.07280418E-04