title                                                                   
SP        RMP2-FC                                                     Aug-CC-pVTZ         
Number of atoms                            I                5
Info1-9                                    I   N=           9
          33          24           0           0           0         110
           1           2           1
Full Title                                 C   N=           1
title       
Route                                      C   N=           4
#p SP mp2/aug-cc-pvtz density=current           
Charge                                     I                0
Multiplicity                               I                1
Number of electrons                        I               32
Number of alpha electrons                  I               16
Number of beta electrons                   I               16
Number of basis functions                  I              207
Number of independent functions            I              207
Number of point charges in /Mol/           I                0
Number of translation vectors              I                0
Atomic numbers                             I   N=           5
           1           8           8           7           8
Nuclear charges                            R   N=           5
  1.00000000E+00  8.00000000E+00  8.00000000E+00  7.00000000E+00  8.00000000E+00
Current cartesian coordinates              R   N=          15
  2.93177010E+00  3.16593455E+00  7.83521603E-31  2.74798958E+00  1.34408215E+00
  1.99889118E-31  2.09127677E-16  1.25605779E+00  3.12427957E-31 -4.94409401E-01
 -1.42122661E+00 -1.54398691E-31 -2.68185262E+00 -1.75230847E+00 -5.49114131E-31
Number of symbols in /Mol/                 I                0
Force Field                                I                0
Atom Types                                 C   N=           5
                                                            
Int Atom Types                             I   N=           5
           0           0           0           0           0
MM charges                                 R   N=           5
  0.00000000E+00  0.00000000E+00  0.00000000E+00  0.00000000E+00  0.00000000E+00
Integer atomic weights                     I   N=           5
           1          16          16          14          16
Real atomic weights                        R   N=           5
  1.00782504E+00  1.59949146E+01  1.59949146E+01  1.40030740E+01  1.59949146E+01
Atom fragment info                         I   N=           5
           0           0           0           0           0
Atom residue num                           I   N=           5
           0           0           0           0           0
Nuclear spins                              I   N=           5
           1           0           0           2           0
Nuclear ZEff                               R   N=           5
 -1.00000000E+00 -5.60000000E+00 -5.60000000E+00 -4.55000000E+00 -5.60000000E+00
Nuclear ZNuc                               R   N=           5
  1.00000000E+00  8.00000000E+00  8.00000000E+00  7.00000000E+00  8.00000000E+00
Nuclear QMom                               R   N=           5
  0.00000000E+00  0.00000000E+00  0.00000000E+00  2.04400000E+00  0.00000000E+00
Nuclear GFac                               R   N=           5
  2.79284600E+00  0.00000000E+00  0.00000000E+00  4.03761000E-01  0.00000000E+00
MicOpt                                     I   N=           5
          -1          -1          -1          -1          -1
Number of residues                         I                0
Number of secondary structures             I                0
SymInf integers                            I   N=          26
           1           2           1           1           1           1
           1          -1           0           0           0           0
           0           0           0           0           0           0
           0           0           0           0           0           0
           0           0
RotTr to input orientation                 R   N=          12
 -9.94950558E-01 -8.64043341E-16 -1.00366269E-01  1.00366269E-01  7.86533298E-16
 -9.94950558E-01  9.38621817E-16 -1.00000000E+00 -6.95840937E-16  2.59921325E+00
  0.00000000E+00  3.44419917E+00
Number of contracted shells                I               65
Number of primitive shells                 I              119
Pure/Cartesian d shells                    I                0
Pure/Cartesian f shells                    I                0
Highest angular momentum                   I                3
Largest degree of contraction              I                7
Shell types                                I   N=          65
           0           0           0           0           1           1
           1          -2          -2           0           0           0
           0           0           1           1           1           1
          -2          -2          -2          -3          -3           0
           0           0           0           0           1           1
           1           1          -2          -2          -2          -3
          -3           0           0           0           0           0
           1           1           1           1          -2          -2
          -2          -3          -3           0           0           0
           0           0           1           1           1           1
          -2          -2          -2          -3          -3
Number of primitives per shell             I   N=          65
           3           1           1           1           1           1
           1           1           1           7           6           1
           1           1           3           1           1           1
           1           1           1           1           1           7
           6           1           1           1           3           1
           1           1           1           1           1           1
           1           7           6           1           1           1
           3           1           1           1           1           1
           1           1           1           7           6           1
           1           1           3           1           1           1
           1           1           1           1           1
Shell to atom map                          I   N=          65
           1           1           1           1           1           1
           1           1           1           2           2           2
           2           2           2           2           2           2
           2           2           2           2           2           3
           3           3           3           3           3           3
           3           3           3           3           3           3
           3           4           4           4           4           4
           4           4           4           4           4           4
           4           4           4           5           5           5
           5           5           5           5           5           5
           5           5           5           5           5
Primitive exponents                        R   N=         119
  3.38700000E+01  5.09500000E+00  1.15900000E+00  3.25800000E-01  1.02700000E-01
  2.52600000E-02  1.40700000E+00  3.88000000E-01  1.02000000E-01  1.05700000E+00
  2.47000000E-01  1.53300000E+04  2.29900000E+03  5.22400000E+02  1.47300000E+02
  4.75500000E+01  1.67600000E+01  6.20700000E+00  5.22400000E+02  1.47300000E+02
  4.75500000E+01  1.67600000E+01  6.20700000E+00  6.88200000E-01  1.75200000E+00
  2.38400000E-01  7.37600000E-02  3.44600000E+01  7.74900000E+00  2.28000000E+00
  7.15600000E-01  2.14000000E-01  5.97400000E-02  2.31400000E+00  6.45000000E-01
  2.14000000E-01  1.42800000E+00  5.00000000E-01  1.53300000E+04  2.29900000E+03
  5.22400000E+02  1.47300000E+02  4.75500000E+01  1.67600000E+01  6.20700000E+00
  5.22400000E+02  1.47300000E+02  4.75500000E+01  1.67600000E+01  6.20700000E+00
  6.88200000E-01  1.75200000E+00  2.38400000E-01  7.37600000E-02  3.44600000E+01
  7.74900000E+00  2.28000000E+00  7.15600000E-01  2.14000000E-01  5.97400000E-02
  2.31400000E+00  6.45000000E-01  2.14000000E-01  1.42800000E+00  5.00000000E-01
  1.14200000E+04  1.71200000E+03  3.89300000E+02  1.10000000E+02  3.55700000E+01
  1.25400000E+01  4.64400000E+00  3.89300000E+02  1.10000000E+02  3.55700000E+01
  1.25400000E+01  4.64400000E+00  5.11800000E-01  1.29300000E+00  1.78700000E-01
  5.76000000E-02  2.66300000E+01  5.94800000E+00  1.74200000E+00  5.55000000E-01
  1.72500000E-01  4.91000000E-02  1.65400000E+00  4.69000000E-01  1.51000000E-01
  1.09300000E+00  3.64000000E-01  1.53300000E+04  2.29900000E+03  5.22400000E+02
  1.47300000E+02  4.75500000E+01  1.67600000E+01  6.20700000E+00  5.22400000E+02
  1.47300000E+02  4.75500000E+01  1.67600000E+01  6.20700000E+00  6.88200000E-01
  1.75200000E+00  2.38400000E-01  7.37600000E-02  3.44600000E+01  7.74900000E+00
  2.28000000E+00  7.15600000E-01  2.14000000E-01  5.97400000E-02  2.31400000E+00
  6.45000000E-01  2.14000000E-01  1.42800000E+00  5.00000000E-01
Contraction coefficients                   R   N=         119
  2.54948632E-02  1.90362766E-01  8.52162022E-01  1.00000000E+00  1.00000000E+00
  1.00000000E+00  1.00000000E+00  1.00000000E+00  1.00000000E+00  1.00000000E+00
  1.00000000E+00  5.19808943E-04  4.02025621E-03  2.07128267E-02  8.10105536E-02
  2.35962985E-01  4.42653446E-01  3.57064423E-01 -4.42115008E-05 -1.22591041E-03
 -1.05517725E-02 -6.74452633E-02 -1.71198607E-01  1.07329856E+00  1.00000000E+00
  1.00000000E+00  1.00000000E+00  4.11634896E-02  2.57762836E-01  8.02419274E-01
  1.00000000E+00  1.00000000E+00  1.00000000E+00  1.00000000E+00  1.00000000E+00
  1.00000000E+00  1.00000000E+00  1.00000000E+00  5.19808943E-04  4.02025621E-03
  2.07128267E-02  8.10105536E-02  2.35962985E-01  4.42653446E-01  3.57064423E-01
 -4.42115008E-05 -1.22591041E-03 -1.05517725E-02 -6.74452633E-02 -1.71198607E-01
  1.07329856E+00  1.00000000E+00  1.00000000E+00  1.00000000E+00  4.11634896E-02
  2.57762836E-01  8.02419274E-01  1.00000000E+00  1.00000000E+00  1.00000000E+00
  1.00000000E+00  1.00000000E+00  1.00000000E+00  1.00000000E+00  1.00000000E+00
  5.34563860E-04  4.13435660E-03  2.12335358E-02  8.25006224E-02  2.38138871E-01
  4.42551547E-01  3.53757422E-01 -4.89867350E-05 -1.19527323E-03 -1.03490714E-02
 -6.48680190E-02 -1.71552477E-01  1.07289568E+00  1.00000000E+00  1.00000000E+00
  1.00000000E+00  3.98072123E-02  2.49002660E-01  8.10479727E-01  1.00000000E+00
  1.00000000E+00  1.00000000E+00  1.00000000E+00  1.00000000E+00  1.00000000E+00
  1.00000000E+00  1.00000000E+00  5.19808943E-04  4.02025621E-03  2.07128267E-02
  8.10105536E-02  2.35962985E-01  4.42653446E-01  3.57064423E-01 -4.42115008E-05
 -1.22591041E-03 -1.05517725E-02 -6.74452633E-02 -1.71198607E-01  1.07329856E+00
  1.00000000E+00  1.00000000E+00  1.00000000E+00  4.11634896E-02  2.57762836E-01
  8.02419274E-01  1.00000000E+00  1.00000000E+00  1.00000000E+00  1.00000000E+00
  1.00000000E+00  1.00000000E+00  1.00000000E+00  1.00000000E+00
Coordinates of each shell                  R   N=         195
  2.93177010E+00  3.16593455E+00  5.46246293E-31  2.93177010E+00  3.16593455E+00
  5.46246293E-31  2.93177010E+00  3.16593455E+00  5.46246293E-31  2.93177010E+00
  3.16593455E+00  5.46246293E-31  2.93177010E+00  3.16593455E+00  5.46246293E-31
  2.93177010E+00  3.16593455E+00  5.46246293E-31  2.93177010E+00  3.16593455E+00
  5.46246293E-31  2.93177010E+00  3.16593455E+00  5.46246293E-31  2.93177010E+00
  3.16593455E+00  5.46246293E-31  2.74798958E+00  1.34408215E+00  1.13423701E-31
  2.74798958E+00  1.34408215E+00  1.13423701E-31  2.74798958E+00  1.34408215E+00
  1.13423701E-31  2.74798958E+00  1.34408215E+00  1.13423701E-31  2.74798958E+00
  1.34408215E+00  1.13423701E-31  2.74798958E+00  1.34408215E+00  1.13423701E-31
  2.74798958E+00  1.34408215E+00  1.13423701E-31  2.74798958E+00  1.34408215E+00
  1.13423701E-31  2.74798958E+00  1.34408215E+00  1.13423701E-31  2.74798958E+00
  1.34408215E+00  1.13423701E-31  2.74798958E+00  1.34408215E+00  1.13423701E-31
  2.74798958E+00  1.34408215E+00  1.13423701E-31  2.74798958E+00  1.34408215E+00
  1.13423701E-31  2.74798958E+00  1.34408215E+00  1.13423701E-31 -1.05506336E-17
  1.25605779E+00  3.08391336E-31 -1.05506336E-17  1.25605779E+00  3.08391336E-31
 -1.05506336E-17  1.25605779E+00  3.08391336E-31 -1.05506336E-17  1.25605779E+00
  3.08391336E-31 -1.05506336E-17  1.25605779E+00  3.08391336E-31 -1.05506336E-17
  1.25605779E+00  3.08391336E-31 -1.05506336E-17  1.25605779E+00  3.08391336E-31
 -1.05506336E-17  1.25605779E+00  3.08391336E-31 -1.05506336E-17  1.25605779E+00
  3.08391336E-31 -1.05506336E-17  1.25605779E+00  3.08391336E-31 -1.05506336E-17
  1.25605779E+00  3.08391336E-31 -1.05506336E-17  1.25605779E+00  3.08391336E-31
 -1.05506336E-17  1.25605779E+00  3.08391336E-31 -1.05506336E-17  1.25605779E+00
  3.08391336E-31 -4.94409401E-01 -1.42122661E+00 -3.09977803E-31 -4.94409401E-01
 -1.42122661E+00 -3.09977803E-31 -4.94409401E-01 -1.42122661E+00 -3.09977803E-31
 -4.94409401E-01 -1.42122661E+00 -3.09977803E-31 -4.94409401E-01 -1.42122661E+00
 -3.09977803E-31 -4.94409401E-01 -1.42122661E+00 -3.09977803E-31 -4.94409401E-01
 -1.42122661E+00 -3.09977803E-31 -4.94409401E-01 -1.42122661E+00 -3.09977803E-31
 -4.94409401E-01 -1.42122661E+00 -3.09977803E-31 -4.94409401E-01 -1.42122661E+00
 -3.09977803E-31 -4.94409401E-01 -1.42122661E+00 -3.09977803E-31 -4.94409401E-01
 -1.42122661E+00 -3.09977803E-31 -4.94409401E-01 -1.42122661E+00 -3.09977803E-31
 -4.94409401E-01 -1.42122661E+00 -3.09977803E-31 -2.68185262E+00 -1.75230847E+00
 -2.18865247E-31 -2.68185262E+00 -1.75230847E+00 -2.18865247E-31 -2.68185262E+00
 -1.75230847E+00 -2.18865247E-31 -2.68185262E+00 -1.75230847E+00 -2.18865247E-31
 -2.68185262E+00 -1.75230847E+00 -2.18865247E-31 -2.68185262E+00 -1.75230847E+00
 -2.18865247E-31 -2.68185262E+00 -1.75230847E+00 -2.18865247E-31 -2.68185262E+00
 -1.75230847E+00 -2.18865247E-31 -2.68185262E+00 -1.75230847E+00 -2.18865247E-31
 -2.68185262E+00 -1.75230847E+00 -2.18865247E-31 -2.68185262E+00 -1.75230847E+00
 -2.18865247E-31 -2.68185262E+00 -1.75230847E+00 -2.18865247E-31 -2.68185262E+00
 -1.75230847E+00 -2.18865247E-31 -2.68185262E+00 -1.75230847E+00 -2.18865247E-31
Num ILSW                                   I              100
ILSW                                       I   N=         100
           0           0           0           0           2           0
           0           0           0           0           0          -1
           5           0           0           0           0           0
           0           0           0           0           0           0
           1           0           0           0           0           0
           0           0      100000           0          -1           0
           0           0           0           0           0           0
           0           0           0           1           0           0
           0 -2000000000           1           0           0           0
           0           0           4          52           0           0
           0           0           0           0           0           0
           0           0           0           5           0           1
           0           0           0           0           0           0
           0           0           0           0           0           0
           0           0           0           0           0           0
           0           0           0           0           0           0
           0           0           0           0
Num RLSW                                   I               52
RLSW                                       R   N=          52
  1.00000000E+00  1.00000000E+00  1.00000000E+00  1.00000000E+00  1.00000000E+00
  0.00000000E+00  0.00000000E+00  1.00000000E+00  0.00000000E+00  0.00000000E+00
  0.00000000E+00  0.00000000E+00  1.00000000E+00  0.00000000E+00  0.00000000E+00
  0.00000000E+00  0.00000000E+00  1.00000000E+00  0.00000000E+00  0.00000000E+00
  0.00000000E+00  0.00000000E+00  1.00000000E+00  0.00000000E+00  0.00000000E+00
  0.00000000E+00  0.00000000E+00  1.00000000E+00  0.00000000E+00  0.00000000E+00
  0.00000000E+00  0.00000000E+00  1.00000000E+00  0.00000000E+00  0.00000000E+00
  0.00000000E+00  0.00000000E+00  0.00000000E+00  1.00000000E+00  1.00000000E+00
  0.00000000E+00  1.00000000E+00  0.00000000E+00  0.00000000E+00  0.00000000E+00
  0.00000000E+00  0.00000000E+00  0.00000000E+00  0.00000000E+00  0.00000000E+00
  0.00000000E+00  0.00000000E+00
MxBond                                     I                2
NBond                                      I   N=           5
           1           2           2           2           1
IBond                                      I   N=          10
           2           0           1           3           2           4
           3           5           4           0
RBond                                      R   N=          10
  1.00000000E+00  0.00000000E+00  1.00000000E+00  1.00000000E+00  1.00000000E+00
  1.00000000E+00  1.00000000E+00  2.00000000E+00  2.00000000E+00  0.00000000E+00
Virial Ratio                               R      2.002250938521351E+00
SCF Energy                                 R     -2.795033433657795E+02
MP2 Energy                                 R     -2.804466661732231E+02
Total Energy                               R     -2.804466661732231E+02
Post-SCF wavefunction norm                 R      1.119470964198733E+00
RMS Density                                R      3.556583965175684E-09
Job Status                                 I                1
Nuclear derivative order                   I                0
External E-field                           R   N=          35
  0.00000000E+00  0.00000000E+00  0.00000000E+00  0.00000000E+00  0.00000000E+00
  0.00000000E+00  0.00000000E+00  0.00000000E+00  0.00000000E+00  0.00000000E+00
  0.00000000E+00  0.00000000E+00  0.00000000E+00  0.00000000E+00  0.00000000E+00
  0.00000000E+00  0.00000000E+00  0.00000000E+00  0.00000000E+00  0.00000000E+00
  0.00000000E+00  0.00000000E+00  0.00000000E+00  0.00000000E+00  0.00000000E+00
  0.00000000E+00  0.00000000E+00  0.00000000E+00  0.00000000E+00  0.00000000E+00
  0.00000000E+00  0.00000000E+00  0.00000000E+00  0.00000000E+00  0.00000000E+00
IOpCl                                      I                0
IROHF                                      I                0
Alpha Orbital Energies                     R   N=         207
 -2.06939412E+01 -2.06799854E+01 -2.06621873E+01 -1.58099411E+01 -1.62521499E+00
 -1.49820632E+00 -1.25987004E+00 -9.46758541E-01 -7.74258088E-01 -7.61378225E-01
 -7.15022097E-01 -6.78439348E-01 -6.19506285E-01 -5.90362086E-01 -4.87046913E-01
 -4.73177148E-01  2.91301659E-02  7.40107776E-02  8.62654272E-02  1.01911808E-01
  1.33799750E-01  1.34037501E-01  1.43711118E-01  1.54177161E-01  1.77860272E-01
  1.94204329E-01  1.99902626E-01  2.08592795E-01  2.20270530E-01  2.34610998E-01
  2.37605552E-01  2.66146620E-01  2.99772423E-01  3.03491694E-01  3.12215331E-01
  3.44792075E-01  3.50544400E-01  3.88123270E-01  4.21317357E-01  4.31050442E-01
  5.28204441E-01  5.30001313E-01  5.60520989E-01  5.82623273E-01  6.27260803E-01
  6.39365975E-01  6.74993734E-01  6.84393633E-01  7.05710837E-01  7.10738936E-01
  7.23907986E-01  7.28174289E-01  7.44071646E-01  7.91395210E-01  7.92724014E-01
  8.11038100E-01  8.11461851E-01  8.31506422E-01  8.69572177E-01  9.08358993E-01
  9.21271231E-01  9.27647837E-01  9.54891970E-01  9.80060911E-01  9.83924141E-01
  1.01498705E+00  1.05283136E+00  1.05572107E+00  1.08407213E+00  1.11904121E+00
  1.14306903E+00  1.19043330E+00  1.22127000E+00  1.23315166E+00  1.34090902E+00
  1.35385420E+00  1.38418468E+00  1.45624678E+00  1.48789891E+00  1.50813448E+00
  1.53921425E+00  1.56904577E+00  1.58325349E+00  1.61418189E+00  1.66544428E+00
  1.66991742E+00  1.70498323E+00  1.79328467E+00  1.83227299E+00  1.83782245E+00
  1.87788683E+00  1.91237592E+00  1.95634056E+00  1.99580341E+00  2.00729978E+00
  2.08357126E+00  2.12295789E+00  2.13454694E+00  2.14746592E+00  2.22797985E+00
  2.26332383E+00  2.26479425E+00  2.29260268E+00  2.31485157E+00  2.34861369E+00
  2.38600884E+00  2.42706413E+00  2.43300241E+00  2.45653425E+00  2.46501379E+00
  2.47962447E+00  2.50407875E+00  2.58785750E+00  2.59808062E+00  2.62534455E+00
  2.62621104E+00  2.63320454E+00  2.66970297E+00  2.76056162E+00  2.83288099E+00
  2.86357972E+00  2.89092213E+00  2.89288060E+00  2.93887629E+00  2.95894821E+00
  3.03208660E+00  3.07508130E+00  3.12747495E+00  3.20213764E+00  3.23083336E+00
  3.31989170E+00  3.34693274E+00  3.51988139E+00  3.65025090E+00  3.84701072E+00
  3.84919301E+00  4.14880896E+00  4.15923084E+00  4.18665022E+00  4.26568753E+00
  4.35149713E+00  4.39393896E+00  4.46228273E+00  4.52141501E+00  4.66834597E+00
  4.71301703E+00  4.80855483E+00  4.82646296E+00  4.83905585E+00  4.89756734E+00
  5.02929667E+00  5.08291724E+00  5.11009463E+00  5.14376256E+00  5.18415899E+00
  5.24727223E+00  5.27851343E+00  5.31215790E+00  5.33147372E+00  5.36277444E+00
  5.61055941E+00  5.67693479E+00  5.77991463E+00  5.82779209E+00  5.96253066E+00
  6.17639518E+00  6.30901374E+00  6.34552370E+00  6.39853399E+00  6.49790132E+00
  6.50928420E+00  6.61446784E+00  6.66708707E+00  6.70624471E+00  6.75585445E+00
  6.76311558E+00  6.83767987E+00  6.90440640E+00  7.01839543E+00  7.05539521E+00
  7.05939028E+00  7.08988883E+00  7.12999189E+00  7.15481736E+00  7.18232352E+00
  7.23317553E+00  7.24058981E+00  7.30413439E+00  7.32828611E+00  7.35231376E+00
  7.40485565E+00  7.44003479E+00  7.48941386E+00  7.61124896E+00  7.62565511E+00
  7.64280670E+00  7.67626806E+00  7.79626910E+00  7.89201128E+00  8.11456828E+00
  8.32250393E+00  8.40913687E+00  8.55315351E+00  1.34399614E+01  1.44948742E+01
  1.51774720E+01  1.61885661E+01
Alpha MO coefficients                      R   N=       42849
  9.08067022E-05 -6.13294849E-04 -6.97882811E-04 -4.19368900E-06 -2.02873361E-05
 -2.70070463E-05  0.00000000E+00 -3.90100274E-05  5.18638590E-05  0.00000000E+00
  8.56337404E-05  2.68455682E-05  0.00000000E+00  3.12718845E-05  0.00000000E+00
  0.00000000E+00 -5.05577584E-05  2.02384081E-05 -5.72566944E-06  0.00000000E+00
  0.00000000E+00 -1.37566518E-04  1.18496052E-04  4.45980912E-03 -2.83807898E-04
  9.89411527E-06  1.56978955E-03  1.82053166E-03  1.06250487E-04  7.03327530E-06
  0.00000000E+00 -6.18877654E-04 -3.58069377E-05  0.00000000E+00 -1.13526670E-03
  7.78593440E-04  0.00000000E+00 -4.06592804E-04  6.16447824E-05  0.00000000E+00
  2.89231950E-05  0.00000000E+00  0.00000000E+00 -5.37008100E-05  6.65587840E-06
 -3.78021735E-04  0.00000000E+00  0.00000000E+00  7.39984328E-04 -4.03025621E-05
 -4.45548752E-04  0.00000000E+00  0.00000000E+00  2.55082036E-04 -2.35032715E-05
  0.00000000E+00  7.98870401E-05  1.24843927E-05  0.00000000E+00  0.00000000E+00
 -1.09408682E-04 -2.64791970E-06  0.00000000E+00  2.54871869E-04 -2.82902071E-05
  0.00000000E+00  0.00000000E+00 -3.48774458E-04  5.54984439E-05  9.76902756E-01
 -9.22802902E-03  4.33430574E-02  1.89052026E-03 -9.85530307E-04  1.48174956E-03
 -1.39720703E-03  0.00000000E+00 -1.41407013E-03  1.44700342E-03  0.00000000E+00
  5.64831712E-05 -1.11181842E-03  0.00000000E+00 -1.34300073E-04 -1.36045369E-06
  0.00000000E+00  4.12857989E-05  0.00000000E+00  0.00000000E+00 -4.00283329E-05
  2.29879871E-05  7.63644711E-04  0.00000000E+00  0.00000000E+00 -2.06123949E-04
 -4.01399931E-04 -3.46259427E-04  0.00000000E+00  0.00000000E+00 -3.13182537E-04
 -3.78855212E-04  0.00000000E+00  4.57774266E-05 -5.08311278E-05  0.00000000E+00
  0.00000000E+00 -3.99765191E-05 -1.64943724E-05  0.00000000E+00  2.61123183E-05
  1.39617221E-05  0.00000000E+00  0.00000000E+00 -3.10214120E-04 -1.50119835E-04
  4.65320914E-05  9.26906080E-05 -2.79651433E-04 -6.53699943E-04 -1.24103018E-04
 -2.72753796E-05 -1.00091997E-04  0.00000000E+00  2.81553264E-04  7.98840935E-04
  0.00000000E+00 -8.13866654E-04 -3.80417966E-04  0.00000000E+00 -1.24114558E-04
 -1.82985012E-05  0.00000000E+00 -2.57657048E-05  0.00000000E+00  0.00000000E+00
 -4.33500541E-05  1.94694567E-05 -3.47715475E-04  0.00000000E+00  0.00000000E+00
 -8.57677588E-04  1.32845437E-04 -4.35149409E-05  0.00000000E+00  0.00000000E+00
  8.64314509E-05 -1.26063896E-04  0.00000000E+00 -2.12947620E-05 -1.22474751E-04
  0.00000000E+00  0.00000000E+00 -6.66102516E-05 -1.37959570E-04  0.00000000E+00
 -2.39426012E-06 -1.59923704E-04  0.00000000E+00  0.00000000E+00  2.68609299E-05
 -4.09990296E-04 -1.23207092E-03  1.03088343E-04 -6.22349596E-05 -2.10381226E-04
  1.61727306E-04 -5.58962469E-06 -2.48697369E-05  0.00000000E+00  6.90029292E-05
  1.52376769E-04  0.00000000E+00  2.58681426E-04  1.68682445E-04  0.00000000E+00
  1.34858319E-04  2.44204037E-05  0.00000000E+00 -2.88847687E-06  0.00000000E+00
  0.00000000E+00 -1.81314779E-05  1.89599292E-06 -1.64529165E-06  0.00000000E+00
  0.00000000E+00  8.52249832E-05  7.62409663E-05 -1.04503600E-04  0.00000000E+00
  0.00000000E+00  1.73724797E-04  1.49649272E-04  0.00000000E+00  1.65368801E-05
 -2.18042769E-06  0.00000000E+00  0.00000000E+00 -1.90006811E-06 -1.35692983E-05
  0.00000000E+00 -3.69116816E-05  4.38527650E-05  0.00000000E+00  0.00000000E+00
  8.38353453E-05  8.58792406E-05  3.97245351E-05 -9.97417540E-04 -4.85062418E-04
 -9.25808157E-06 -2.14927644E-05  1.56050893E-05  0.00000000E+00 -2.59895147E-06
  2.73741316E-04  0.00000000E+00 -4.39131085E-05  1.33126002E-04  0.00000000E+00
  2.60803358E-05  0.00000000E+00  0.00000000E+00  1.19027554E-05  1.14685257E-05
 -2.99171365E-05  0.00000000E+00  0.00000000E+00  1.37646652E-05  3.76058823E-05
  1.40907008E-04  8.38952284E-05 -2.68883245E-05  7.76862549E-04  6.62931017E-04
  1.05046674E-05  2.61943478E-06  0.00000000E+00 -7.57121770E-05  1.36400625E-05
  0.00000000E+00  3.31561596E-04  9.28255422E-04  0.00000000E+00  1.90263203E-06
  8.43754402E-05  0.00000000E+00 -2.31993907E-06  0.00000000E+00  0.00000000E+00
 -1.93814345E-07 -5.42252812E-06 -3.58934619E-05  0.00000000E+00  0.00000000E+00
 -1.74280877E-05  8.10167591E-05 -2.30070200E-05  0.00000000E+00  0.00000000E+00
 -2.70405549E-04 -1.75030842E-04  0.00000000E+00  9.24635446E-06  6.28100352E-06
  0.00000000E+00  0.00000000E+00  2.37643573E-06 -1.89000433E-05  0.00000000E+00
 -4.05446083E-05 -3.96883673E-05  0.00000000E+00  0.00000000E+00 -7.81902594E-05
  2.45744000E-05  1.26942481E-03  5.18177916E-05  3.24048344E-05 -4.92139562E-05
 -4.50280743E-04  3.70306735E-06  1.75553980E-05  0.00000000E+00 -5.66294796E-05
 -6.08571022E-05  0.00000000E+00  2.18003450E-04 -2.60358306E-04  0.00000000E+00
 -1.96722329E-04 -7.67116879E-05  0.00000000E+00 -9.14639031E-06  0.00000000E+00
  0.00000000E+00  2.39966200E-05  2.10888260E-05  3.91237996E-06  0.00000000E+00
  0.00000000E+00 -1.29915294E-04 -5.47204579E-05 -7.00232195E-06  0.00000000E+00
  0.00000000E+00 -2.50702269E-04 -2.18921604E-04  0.00000000E+00  1.45373152E-06
 -1.64664643E-06  0.00000000E+00  0.00000000E+00 -6.01496431E-07 -1.03873007E-05
  0.00000000E+00 -4.43049983E-05  7.51653997E-06  0.00000000E+00  0.00000000E+00
 -7.58808121E-05  1.90117709E-04  2.57333393E-04  1.46213720E-03 -7.43155855E-05
 -1.60649237E-03  3.70986573E-04 -1.43049999E-04  1.37116946E-06  0.00000000E+00
 -2.11006460E-03 -4.13699291E-04  0.00000000E+00  1.05515977E-03  7.50897423E-04
  0.00000000E+00 -1.68216940E-04  5.36949832E-05  0.00000000E+00 -1.23200257E-04
  0.00000000E+00  0.00000000E+00  2.45115313E-04  9.38683033E-05 -4.38833979E-04
  0.00000000E+00  0.00000000E+00  9.03809149E-04 -8.83181169E-05  1.65700375E-05
  0.00000000E+00  0.00000000E+00 -3.42022177E-04 -1.30930587E-04  0.00000000E+00
 -2.13226820E-07  1.59313045E-05  0.00000000E+00  0.00000000E+00  2.04353701E-05
  1.36098698E-05  0.00000000E+00  1.61395275E-04 -7.46559360E-05  0.00000000E+00
  0.00000000E+00 -2.33630794E-04  5.26814409E-05  9.76647683E-01 -9.84446219E-03
  4.35782788E-02  4.52433700E-03 -4.40547102E-04  2.15237163E-03  4.79565353E-04
  0.00000000E+00 -2.38649414E-03 -6.04710293E-04  0.00000000E+00  1.13533793E-03
 -1.37508921E-05  0.00000000E+00  4.90017090E-06 -4.47837769E-05  0.00000000E+00
 -2.32546903E-04  0.00000000E+00  0.00000000E+00  1.01717321E-04  3.24709179E-05
  3.93907984E-04  0.00000000E+00  0.00000000E+00 -8.39673849E-04 -4.21294521E-04
 -1.50498887E-04  0.00000000E+00  0.00000000E+00  2.50314654E-04  1.04035517E-05
  0.00000000E+00  5.25367866E-05  1.77157653E-05  0.00000000E+00  0.00000000E+00
 -2.18373436E-05 -1.30414444E-05  0.00000000E+00  1.40676269E-04  9.22324994E-06
  0.00000000E+00  0.00000000E+00 -1.92000995E-04 -1.42626189E-04  4.74534994E-04
  2.09013147E-03  1.38156622E-04  1.59499849E-05 -4.12470457E-05 -2.47602699E-04
  0.00000000E+00  1.06571904E-04 -1.28551241E-03  0.00000000E+00  3.11700857E-04
 -3.47528058E-04  0.00000000E+00 -3.42769366E-06  0.00000000E+00  0.00000000E+00
  7.54030621E-05  1.52598699E-05 -1.60693517E-04  0.00000000E+00  0.00000000E+00
 -5.37628747E-04 -2.09340604E-05  9.76830542E-01 -9.16628155E-03  4.34505040E-02
  1.43984439E-04 -1.17125805E-03 -1.56081880E-03  1.44892119E-03  0.00000000E+00
  1.57431320E-03 -1.29366577E-03  0.00000000E+00 -5.76599066E-04 -8.89598073E-04
  0.00000000E+00  5.70661596E-05 -3.75481507E-05  0.00000000E+00  2.96225246E-05
  0.00000000E+00  0.00000000E+00 -1.18627368E-04 -1.88486321E-06  7.60163726E-04
  0.00000000E+00  0.00000000E+00 -2.04278632E-04 -2.35117737E-04 -2.62340805E-04
  0.00000000E+00  0.00000000E+00  1.71552362E-04  1.27661797E-04  0.00000000E+00
 -6.41186856E-05  1.46828653E-06  0.00000000E+00  0.00000000E+00  1.88261307E-05
  9.59382683E-06  0.00000000E+00 -1.98019407E-06  1.23740787E-04  0.00000000E+00
  0.00000000E+00  2.60794166E-04  9.12403077E-05 -4.55378565E-03 -2.19835655E-04