title                                                                   
SP        RMP2-FC                                                     Aug-CC-pVTZ         
Number of atoms                            I                5
Info1-9                                    I   N=           9
          33          24           0           0           0         110
           1           2           1
Full Title                                 C   N=           1
title       
Route                                      C   N=           4
#p SP mp2/aug-cc-pvtz density=current           
Charge                                     I                0
Multiplicity                               I                1
Number of electrons                        I               32
Number of alpha electrons                  I               16
Number of beta electrons                   I               16
Number of basis functions                  I              207
Number of independent functions            I              207
Number of point charges in /Mol/           I                0
Number of translation vectors              I                0
Atomic numbers                             I   N=           5
           1           8           8           7           8
Nuclear charges                            R   N=           5
  1.00000000E+00  8.00000000E+00  8.00000000E+00  7.00000000E+00  8.00000000E+00
Current cartesian coordinates              R   N=          15
  2.92255853E+00  3.19624245E+00 -4.16663338E-32  2.74753486E+00  1.37352794E+00
 -5.36255209E-32  1.35460696E-17  1.27229942E+00 -2.20924088E-32 -4.87578353E-01
 -1.44094129E+00 -1.15299205E-32 -2.68622362E+00 -1.78453404E+00  2.61634641E-32
Number of symbols in /Mol/                 I                0
Force Field                                I                0
Atom Types                                 C   N=           5
                                                            
Int Atom Types                             I   N=           5
           0           0           0           0           0
MM charges                                 R   N=           5
  0.00000000E+00  0.00000000E+00  0.00000000E+00  0.00000000E+00  0.00000000E+00
Integer atomic weights                     I   N=           5
           1          16          16          14          16
Real atomic weights                        R   N=           5
  1.00782504E+00  1.59949146E+01  1.59949146E+01  1.40030740E+01  1.59949146E+01
Atom fragment info                         I   N=           5
           0           0           0           0           0
Atom residue num                           I   N=           5
           0           0           0           0           0
Nuclear spins                              I   N=           5
           1           0           0           2           0
Nuclear ZEff                               R   N=           5
 -1.00000000E+00 -5.60000000E+00 -5.60000000E+00 -4.55000000E+00 -5.60000000E+00
Nuclear ZNuc                               R   N=           5
  1.00000000E+00  8.00000000E+00  8.00000000E+00  7.00000000E+00  8.00000000E+00
Nuclear QMom                               R   N=           5
  0.00000000E+00  0.00000000E+00  0.00000000E+00  2.04400000E+00  0.00000000E+00
Nuclear GFac                               R   N=           5
  2.79284600E+00  0.00000000E+00  0.00000000E+00  4.03761000E-01  0.00000000E+00
MicOpt                                     I   N=           5
          -1          -1          -1          -1          -1
Number of residues                         I                0
Number of secondary structures             I                0
SymInf integers                            I   N=          26
           1           2           1           1           1           1
           1          -1           0           0           0           0
           0           0           0           0           0           0
           0           0           0           0           0           0
           0           0
RotTr to input orientation                 R   N=          12
 -9.95421370E-01 -9.83283430E-17 -9.55839769E-02  9.55839769E-02 -7.30009232E-17
 -9.95421370E-01  9.09004153E-17 -1.00000000E+00  8.20652931E-17  2.60366765E+00
  0.00000000E+00  3.46095781E+00
Number of contracted shells                I               65
Number of primitive shells                 I              119
Pure/Cartesian d shells                    I                0
Pure/Cartesian f shells                    I                0
Highest angular momentum                   I                3
Largest degree of contraction              I                7
Shell types                                I   N=          65
           0           0           0           0           1           1
           1          -2          -2           0           0           0
           0           0           1           1           1           1
          -2          -2          -2          -3          -3           0
           0           0           0           0           1           1
           1           1          -2          -2          -2          -3
          -3           0           0           0           0           0
           1           1           1           1          -2          -2
          -2          -3          -3           0           0           0
           0           0           1           1           1           1
          -2          -2          -2          -3          -3
Number of primitives per shell             I   N=          65
           3           1           1           1           1           1
           1           1           1           7           6           1
           1           1           3           1           1           1
           1           1           1           1           1           7
           6           1           1           1           3           1
           1           1           1           1           1           1
           1           7           6           1           1           1
           3           1           1           1           1           1
           1           1           1           7           6           1
           1           1           3           1           1           1
           1           1           1           1           1
Shell to atom map                          I   N=          65
           1           1           1           1           1           1
           1           1           1           2           2           2
           2           2           2           2           2           2
           2           2           2           2           2           3
           3           3           3           3           3           3
           3           3           3           3           3           3
           3           4           4           4           4           4
           4           4           4           4           4           4
           4           4           4           5           5           5
           5           5           5           5           5           5
           5           5           5           5           5
Primitive exponents                        R   N=         119
  3.38700000E+01  5.09500000E+00  1.15900000E+00  3.25800000E-01  1.02700000E-01
  2.52600000E-02  1.40700000E+00  3.88000000E-01  1.02000000E-01  1.05700000E+00
  2.47000000E-01  1.53300000E+04  2.29900000E+03  5.22400000E+02  1.47300000E+02
  4.75500000E+01  1.67600000E+01  6.20700000E+00  5.22400000E+02  1.47300000E+02
  4.75500000E+01  1.67600000E+01  6.20700000E+00  6.88200000E-01  1.75200000E+00
  2.38400000E-01  7.37600000E-02  3.44600000E+01  7.74900000E+00  2.28000000E+00
  7.15600000E-01  2.14000000E-01  5.97400000E-02  2.31400000E+00  6.45000000E-01
  2.14000000E-01  1.42800000E+00  5.00000000E-01  1.53300000E+04  2.29900000E+03
  5.22400000E+02  1.47300000E+02  4.75500000E+01  1.67600000E+01  6.20700000E+00
  5.22400000E+02  1.47300000E+02  4.75500000E+01  1.67600000E+01  6.20700000E+00
  6.88200000E-01  1.75200000E+00  2.38400000E-01  7.37600000E-02  3.44600000E+01
  7.74900000E+00  2.28000000E+00  7.15600000E-01  2.14000000E-01  5.97400000E-02
  2.31400000E+00  6.45000000E-01  2.14000000E-01  1.42800000E+00  5.00000000E-01
  1.14200000E+04  1.71200000E+03  3.89300000E+02  1.10000000E+02  3.55700000E+01
  1.25400000E+01  4.64400000E+00  3.89300000E+02  1.10000000E+02  3.55700000E+01
  1.25400000E+01  4.64400000E+00  5.11800000E-01  1.29300000E+00  1.78700000E-01
  5.76000000E-02  2.66300000E+01  5.94800000E+00  1.74200000E+00  5.55000000E-01
  1.72500000E-01  4.91000000E-02  1.65400000E+00  4.69000000E-01  1.51000000E-01
  1.09300000E+00  3.64000000E-01  1.53300000E+04  2.29900000E+03  5.22400000E+02
  1.47300000E+02  4.75500000E+01  1.67600000E+01  6.20700000E+00  5.22400000E+02
  1.47300000E+02  4.75500000E+01  1.67600000E+01  6.20700000E+00  6.88200000E-01
  1.75200000E+00  2.38400000E-01  7.37600000E-02  3.44600000E+01  7.74900000E+00
  2.28000000E+00  7.15600000E-01  2.14000000E-01  5.97400000E-02  2.31400000E+00
  6.45000000E-01  2.14000000E-01  1.42800000E+00  5.00000000E-01
Contraction coefficients                   R   N=         119
  2.54948632E-02  1.90362766E-01  8.52162022E-01  1.00000000E+00  1.00000000E+00
  1.00000000E+00  1.00000000E+00  1.00000000E+00  1.00000000E+00  1.00000000E+00
  1.00000000E+00  5.19808943E-04  4.02025621E-03  2.07128267E-02  8.10105536E-02
  2.35962985E-01  4.42653446E-01  3.57064423E-01 -4.42115008E-05 -1.22591041E-03
 -1.05517725E-02 -6.74452633E-02 -1.71198607E-01  1.07329856E+00  1.00000000E+00
  1.00000000E+00  1.00000000E+00  4.11634896E-02  2.57762836E-01  8.02419274E-01
  1.00000000E+00  1.00000000E+00  1.00000000E+00  1.00000000E+00  1.00000000E+00
  1.00000000E+00  1.00000000E+00  1.00000000E+00  5.19808943E-04  4.02025621E-03
  2.07128267E-02  8.10105536E-02  2.35962985E-01  4.42653446E-01  3.57064423E-01
 -4.42115008E-05 -1.22591041E-03 -1.05517725E-02 -6.74452633E-02 -1.71198607E-01
  1.07329856E+00  1.00000000E+00  1.00000000E+00  1.00000000E+00  4.11634896E-02
  2.57762836E-01  8.02419274E-01  1.00000000E+00  1.00000000E+00  1.00000000E+00
  1.00000000E+00  1.00000000E+00  1.00000000E+00  1.00000000E+00  1.00000000E+00
  5.34563860E-04  4.13435660E-03  2.12335358E-02  8.25006224E-02  2.38138871E-01
  4.42551547E-01  3.53757422E-01 -4.89867350E-05 -1.19527323E-03 -1.03490714E-02
 -6.48680190E-02 -1.71552477E-01  1.07289568E+00  1.00000000E+00  1.00000000E+00
  1.00000000E+00  3.98072123E-02  2.49002660E-01  8.10479727E-01  1.00000000E+00
  1.00000000E+00  1.00000000E+00  1.00000000E+00  1.00000000E+00  1.00000000E+00
  1.00000000E+00  1.00000000E+00  5.19808943E-04  4.02025621E-03  2.07128267E-02
  8.10105536E-02  2.35962985E-01  4.42653446E-01  3.57064423E-01 -4.42115008E-05
 -1.22591041E-03 -1.05517725E-02 -6.74452633E-02 -1.71198607E-01  1.07329856E+00
  1.00000000E+00  1.00000000E+00  1.00000000E+00  4.11634896E-02  2.57762836E-01
  8.02419274E-01  1.00000000E+00  1.00000000E+00  1.00000000E+00  1.00000000E+00
  1.00000000E+00  1.00000000E+00  1.00000000E+00  1.00000000E+00
Coordinates of each shell                  R   N=         195
  2.92255853E+00  3.19624245E+00 -3.93414568E-32  2.92255853E+00  3.19624245E+00
 -3.93414568E-32  2.92255853E+00  3.19624245E+00 -3.93414568E-32  2.92255853E+00
  3.19624245E+00 -3.93414568E-32  2.92255853E+00  3.19624245E+00 -3.93414568E-32
  2.92255853E+00  3.19624245E+00 -3.93414568E-32  2.92255853E+00  3.19624245E+00
 -3.93414568E-32  2.92255853E+00  3.19624245E+00 -3.93414568E-32  2.92255853E+00
  3.19624245E+00 -3.93414568E-32  2.74753486E+00  1.37352794E+00 -2.69777748E-32
  2.74753486E+00  1.37352794E+00 -2.69777748E-32  2.74753486E+00  1.37352794E+00
 -2.69777748E-32  2.74753486E+00  1.37352794E+00 -2.69777748E-32  2.74753486E+00
  1.37352794E+00 -2.69777748E-32  2.74753486E+00  1.37352794E+00 -2.69777748E-32
  2.74753486E+00  1.37352794E+00 -2.69777748E-32  2.74753486E+00  1.37352794E+00
 -2.69777748E-32  2.74753486E+00  1.37352794E+00 -2.69777748E-32  2.74753486E+00
  1.37352794E+00 -2.69777748E-32  2.74753486E+00  1.37352794E+00 -2.69777748E-32
  2.74753486E+00  1.37352794E+00 -2.69777748E-32  2.74753486E+00  1.37352794E+00
 -2.69777748E-32  2.74753486E+00  1.37352794E+00 -2.69777748E-32 -9.81411244E-18
  1.27229942E+00 -7.80524885E-33 -9.81411244E-18  1.27229942E+00 -7.80524885E-33
 -9.81411244E-18  1.27229942E+00 -7.80524885E-33 -9.81411244E-18  1.27229942E+00
 -7.80524885E-33 -9.81411244E-18  1.27229942E+00 -7.80524885E-33 -9.81411244E-18
  1.27229942E+00 -7.80524885E-33 -9.81411244E-18  1.27229942E+00 -7.80524885E-33
 -9.81411244E-18  1.27229942E+00 -7.80524885E-33 -9.81411244E-18  1.27229942E+00
 -7.80524885E-33 -9.81411244E-18  1.27229942E+00 -7.80524885E-33 -9.81411244E-18
  1.27229942E+00 -7.80524885E-33 -9.81411244E-18  1.27229942E+00 -7.80524885E-33
 -9.81411244E-18  1.27229942E+00 -7.80524885E-33 -9.81411244E-18  1.27229942E+00
 -7.80524885E-33 -4.87578353E-01 -1.44094129E+00  1.21319830E-32 -4.87578353E-01
 -1.44094129E+00  1.21319830E-32 -4.87578353E-01 -1.44094129E+00  1.21319830E-32
 -4.87578353E-01 -1.44094129E+00  1.21319830E-32 -4.87578353E-01 -1.44094129E+00
  1.21319830E-32 -4.87578353E-01 -1.44094129E+00  1.21319830E-32 -4.87578353E-01
 -1.44094129E+00  1.21319830E-32 -4.87578353E-01 -1.44094129E+00  1.21319830E-32
 -4.87578353E-01 -1.44094129E+00  1.21319830E-32 -4.87578353E-01 -1.44094129E+00
  1.21319830E-32 -4.87578353E-01 -1.44094129E+00  1.21319830E-32 -4.87578353E-01
 -1.44094129E+00  1.21319830E-32 -4.87578353E-01 -1.44094129E+00  1.21319830E-32
 -4.87578353E-01 -1.44094129E+00  1.21319830E-32 -2.68622362E+00 -1.78453404E+00
  2.90852207E-32 -2.68622362E+00 -1.78453404E+00  2.90852207E-32 -2.68622362E+00
 -1.78453404E+00  2.90852207E-32 -2.68622362E+00 -1.78453404E+00  2.90852207E-32
 -2.68622362E+00 -1.78453404E+00  2.90852207E-32 -2.68622362E+00 -1.78453404E+00
  2.90852207E-32 -2.68622362E+00 -1.78453404E+00  2.90852207E-32 -2.68622362E+00
 -1.78453404E+00  2.90852207E-32 -2.68622362E+00 -1.78453404E+00  2.90852207E-32
 -2.68622362E+00 -1.78453404E+00  2.90852207E-32 -2.68622362E+00 -1.78453404E+00
  2.90852207E-32 -2.68622362E+00 -1.78453404E+00  2.90852207E-32 -2.68622362E+00
 -1.78453404E+00  2.90852207E-32 -2.68622362E+00 -1.78453404E+00  2.90852207E-32
Num ILSW                                   I              100
ILSW                                       I   N=         100
           0           0           0           0           2           0
           0           0           0           0           0          -1
           5           0           0           0           0           0
           0           0           0           0           0           0
           1           0           0           0           0           0
           0           0      100000           0          -1           0
           0           0           0           0           0           0
           0           0           0           1           0           0
           0 -2000000000           1           0           0           0
           0           0           4          52           0           0
           0           0           0           0           0           0
           0           0           0           5           0           1
           0           0           0           0           0           0
           0           0           0           0           0           0
           0           0           0           0           0           0
           0           0           0           0           0           0
           0           0           0           0
Num RLSW                                   I               52
RLSW                                       R   N=          52
  1.00000000E+00  1.00000000E+00  1.00000000E+00  1.00000000E+00  1.00000000E+00
  0.00000000E+00  0.00000000E+00  1.00000000E+00  0.00000000E+00  0.00000000E+00
  0.00000000E+00  0.00000000E+00  1.00000000E+00  0.00000000E+00  0.00000000E+00
  0.00000000E+00  0.00000000E+00  1.00000000E+00  0.00000000E+00  0.00000000E+00
  0.00000000E+00  0.00000000E+00  1.00000000E+00  0.00000000E+00  0.00000000E+00
  0.00000000E+00  0.00000000E+00  1.00000000E+00  0.00000000E+00  0.00000000E+00
  0.00000000E+00  0.00000000E+00  1.00000000E+00  0.00000000E+00  0.00000000E+00
  0.00000000E+00  0.00000000E+00  0.00000000E+00  1.00000000E+00  1.00000000E+00
  0.00000000E+00  1.00000000E+00  0.00000000E+00  0.00000000E+00  0.00000000E+00
  0.00000000E+00  0.00000000E+00  0.00000000E+00  0.00000000E+00  0.00000000E+00
  0.00000000E+00  0.00000000E+00
MxBond                                     I                2
NBond                                      I   N=           5
           1           2           2           2           1
IBond                                      I   N=          10
           2           0           1           3           2           4
           3           5           4           0
RBond                                      R   N=          10
  1.00000000E+00  0.00000000E+00  1.00000000E+00  1.00000000E+00  1.00000000E+00
  1.00000000E+00  1.00000000E+00  2.00000000E+00  2.00000000E+00  0.00000000E+00
Virial Ratio                               R      2.002468185944155E+00
SCF Energy                                 R     -2.795004462382499E+02
MP2 Energy                                 R     -2.804466725989968E+02
Total Energy                               R     -2.804466725989968E+02
Post-SCF wavefunction norm                 R      1.120707292269397E+00
RMS Density                                R      3.977519974717418E-09
Job Status                                 I                1
Nuclear derivative order                   I                0
External E-field                           R   N=          35
  0.00000000E+00  0.00000000E+00  0.00000000E+00  0.00000000E+00  0.00000000E+00
  0.00000000E+00  0.00000000E+00  0.00000000E+00  0.00000000E+00  0.00000000E+00
  0.00000000E+00  0.00000000E+00  0.00000000E+00  0.00000000E+00  0.00000000E+00
  0.00000000E+00  0.00000000E+00  0.00000000E+00  0.00000000E+00  0.00000000E+00
  0.00000000E+00  0.00000000E+00  0.00000000E+00  0.00000000E+00  0.00000000E+00
  0.00000000E+00  0.00000000E+00  0.00000000E+00  0.00000000E+00  0.00000000E+00
  0.00000000E+00  0.00000000E+00  0.00000000E+00  0.00000000E+00  0.00000000E+00
IOpCl                                      I                0
IROHF                                      I                0
Alpha Orbital Energies                     R   N=         207
 -2.06924785E+01 -2.06840159E+01 -2.06608525E+01 -1.58138316E+01 -1.61856930E+00
 -1.49558575E+00 -1.25509574E+00 -9.49011087E-01 -7.72026260E-01 -7.57382703E-01
 -7.10476305E-01 -6.78519630E-01 -6.19023586E-01 -5.89863708E-01 -4.85782968E-01
 -4.73831170E-01  2.94420619E-02  6.95592171E-02  8.60543935E-02  1.01720107E-01
  1.33855787E-01  1.34085352E-01  1.43934552E-01  1.54364666E-01  1.78139821E-01
  1.94250183E-01  1.99559372E-01  2.06352480E-01  2.20581970E-01  2.34855534E-01
  2.37333351E-01  2.65970102E-01  2.92736981E-01  3.03613787E-01  3.10141728E-01
  3.43506040E-01  3.49501639E-01  3.86953663E-01  4.21670890E-01  4.31547917E-01
  5.27469594E-01  5.28173290E-01  5.58052815E-01  5.81488435E-01  6.22177646E-01
  6.38614521E-01  6.76580893E-01  6.84004935E-01  7.06329004E-01  7.10972615E-01
  7.23873313E-01  7.28995572E-01  7.44683691E-01  7.91181582E-01  7.91615219E-01
  8.10561951E-01  8.12079302E-01  8.28808203E-01  8.67648317E-01  9.07651396E-01
  9.21315030E-01  9.25675185E-01  9.56234724E-01  9.76038211E-01  9.84041920E-01
  1.01612927E+00  1.05155181E+00  1.05432717E+00  1.08103983E+00  1.11671665E+00
  1.14053490E+00  1.18907883E+00  1.21979248E+00  1.23164996E+00  1.33832766E+00
  1.35000822E+00  1.38512945E+00  1.45309208E+00  1.48743988E+00  1.50812370E+00
  1.53782671E+00  1.56692955E+00  1.57987804E+00  1.61273542E+00  1.66252866E+00
  1.66933975E+00  1.70350524E+00  1.79280479E+00  1.83185877E+00  1.83444173E+00
  1.87645080E+00  1.91009192E+00  1.95800621E+00  1.99037877E+00  2.00601815E+00
  2.07742147E+00  2.12076531E+00  2.13133402E+00  2.14916569E+00  2.22407493E+00
  2.26381978E+00  2.26425415E+00  2.28891974E+00  2.31350599E+00  2.34186665E+00
  2.38550917E+00  2.42287780E+00  2.42717233E+00  2.45400550E+00  2.46191049E+00
  2.47563167E+00  2.49991884E+00  2.58850517E+00  2.59524654E+00  2.61958693E+00
  2.62191519E+00  2.63366292E+00  2.66548167E+00  2.75480843E+00  2.82176226E+00
  2.85242683E+00  2.88100358E+00  2.89239551E+00  2.92161621E+00  2.95632898E+00
  3.02355855E+00  3.06917933E+00  3.11940188E+00  3.20402251E+00  3.22476333E+00
  3.31531099E+00  3.34063599E+00  3.51402710E+00  3.64278334E+00  3.83737719E+00
  3.84224939E+00  4.14782456E+00  4.16195540E+00  4.18264003E+00  4.24125954E+00
  4.35080646E+00  4.39213992E+00  4.46138486E+00  4.51776096E+00  4.65340704E+00
  4.70928983E+00  4.80140762E+00  4.82336244E+00  4.82729379E+00  4.89616388E+00
  5.02427202E+00  5.07686899E+00  5.10068011E+00  5.14739441E+00  5.17670630E+00
  5.23978775E+00  5.27150907E+00  5.30851649E+00  5.32841173E+00  5.34951127E+00
  5.60471669E+00  5.66234018E+00  5.76303604E+00  5.82605176E+00  5.96007512E+00
  6.16675119E+00  6.30739167E+00  6.33758004E+00  6.39338153E+00  6.49360963E+00
  6.50529576E+00  6.61271979E+00  6.66704588E+00  6.69670452E+00  6.75659909E+00
  6.76212862E+00  6.82843490E+00  6.89567041E+00  7.01118399E+00  7.05426119E+00
  7.05570330E+00  7.08902678E+00  7.12100543E+00  7.14783814E+00  7.18053064E+00
  7.21999001E+00  7.24013793E+00  7.30342138E+00  7.31065604E+00  7.34293621E+00
  7.39415652E+00  7.43023325E+00  7.48357314E+00  7.60570666E+00  7.60643311E+00
  7.61959972E+00  7.66387665E+00  7.78322583E+00  7.87553439E+00  8.08994003E+00
  8.31189786E+00  8.40832313E+00  8.54263904E+00  1.33768920E+01  1.43372156E+01
  1.51584898E+01  1.59482185E+01
Alpha MO coefficients                      R   N=       42849
  9.16863509E-05 -6.47004701E-04 -7.26162401E-04 -5.02138349E-06 -2.13143203E-05
 -2.67324414E-05  0.00000000E+00 -4.38443468E-05  6.15747823E-05  0.00000000E+00
  8.60879968E-05  3.55552388E-05  0.00000000E+00  3.17908518E-05  0.00000000E+00
  0.00000000E+00 -4.96622076E-05  2.09539648E-05 -5.81845787E-06  0.00000000E+00
  0.00000000E+00 -1.39037339E-04  1.17693363E-04  4.47898849E-03 -2.81186510E-04
  9.94726242E-06  1.56369668E-03  1.82316746E-03  1.06281575E-04  7.57805854E-06
  0.00000000E+00 -6.17073831E-04 -3.71078339E-05  0.00000000E+00 -1.10371719E-03
  7.98323031E-04  0.00000000E+00 -4.02691274E-04  6.37855535E-05  0.00000000E+00
  2.88375585E-05  0.00000000E+00  0.00000000E+00 -5.40589593E-05  5.44073037E-06
 -3.78495496E-04  0.00000000E+00  0.00000000E+00  7.39621208E-04 -2.78750958E-05
 -4.46895271E-04  0.00000000E+00  0.00000000E+00  2.41196170E-04 -1.66304478E-05
  0.00000000E+00  8.00095906E-05  1.29273626E-05  0.00000000E+00  0.00000000E+00
 -1.09480771E-04 -4.22724022E-06  0.00000000E+00  2.54555015E-04 -2.73582770E-05
  0.00000000E+00  0.00000000E+00 -3.53890396E-04  4.71703107E-05  9.76915227E-01
 -9.21459047E-03  4.33155455E-02  2.01859103E-03 -9.26719392E-04  1.49659456E-03
 -1.36160748E-03  0.00000000E+00 -1.43747347E-03  1.39052020E-03  0.00000000E+00
  8.13277942E-05 -1.16095182E-03  0.00000000E+00 -1.36238416E-04 -1.22081051E-05
  0.00000000E+00  4.64259372E-05  0.00000000E+00  0.00000000E+00 -3.48861714E-05
  2.08181869E-05  7.48723957E-04  0.00000000E+00  0.00000000E+00 -2.27029280E-04
 -3.91177657E-04 -3.59590067E-04  0.00000000E+00  0.00000000E+00 -3.12746801E-04
 -3.77434777E-04  0.00000000E+00  4.74552994E-05 -4.92511796E-05  0.00000000E+00
  0.00000000E+00 -3.89729792E-05 -1.62827039E-05  0.00000000E+00  2.35313316E-05
  2.23075842E-05  0.00000000E+00  0.00000000E+00 -3.04003042E-04 -1.42632649E-04
  4.00191532E-05  5.13049910E-05 -2.64598176E-04 -6.81212839E-04 -1.29449042E-04
 -2.72041639E-05 -9.82819247E-05  0.00000000E+00  2.64381013E-04  7.12839858E-04
  0.00000000E+00 -8.29062152E-04 -4.61707384E-04  0.00000000E+00 -1.24406336E-04
 -2.45509515E-05  0.00000000E+00 -1.81850755E-05  0.00000000E+00  0.00000000E+00
 -2.91498522E-05  1.48883714E-05 -3.30743117E-04  0.00000000E+00  0.00000000E+00
 -8.31742067E-04  1.25287693E-04 -3.84770206E-05  0.00000000E+00  0.00000000E+00
  9.30642284E-05 -1.16434033E-04  0.00000000E+00 -2.06353158E-05 -1.20461409E-04
  0.00000000E+00  0.00000000E+00 -6.20074610E-05 -1.39240023E-04  0.00000000E+00
  2.62043587E-06 -1.54076605E-04  0.00000000E+00  0.00000000E+00  4.52301992E-05
 -4.18619300E-04 -1.98056695E-03  1.15609588E-04 -9.75366621E-05 -2.46302966E-04
  1.24939363E-04 -6.44485516E-06 -2.77569909E-05  0.00000000E+00  6.63918118E-05
  1.63514061E-04  0.00000000E+00  2.22375767E-04  1.93690301E-04  0.00000000E+00
  1.24025738E-04  2.21249041E-05  0.00000000E+00 -3.60267201E-06  0.00000000E+00
  0.00000000E+00 -1.73886338E-05  9.50770790E-07  6.23851278E-07  0.00000000E+00
  0.00000000E+00  7.69470084E-05  8.94587893E-05 -9.78849184E-05  0.00000000E+00
  0.00000000E+00  1.63542794E-04  1.58575060E-04  0.00000000E+00  1.59099044E-05
 -3.87551830E-06  0.00000000E+00  0.00000000E+00 -5.02421024E-06 -1.17295281E-05
  0.00000000E+00 -3.33114615E-05  4.52034498E-05  0.00000000E+00  0.00000000E+00
  8.27230845E-05  9.07997412E-05  3.83182242E-05 -9.96926274E-04 -4.97856055E-04
 -1.23655726E-05 -2.23514882E-05  1.65329520E-05  0.00000000E+00 -1.59119996E-06
  2.77847437E-04  0.00000000E+00 -4.37651272E-05  1.36481575E-04  0.00000000E+00
  2.60695572E-05  0.00000000E+00  0.00000000E+00  1.28428893E-05  1.14085936E-05
 -2.73595943E-05  0.00000000E+00  0.00000000E+00  1.07673312E-05  3.58764776E-05
  1.13331474E-04  8.39161711E-05 -2.77927686E-05  7.52051011E-04  6.60779874E-04
  9.73478912E-06  2.69511910E-06  0.00000000E+00 -6.97875056E-05  1.57456719E-05
  0.00000000E+00  3.41751114E-04  9.02032795E-04  0.00000000E+00  5.85263048E-06
  8.53537390E-05  0.00000000E+00 -2.20087368E-06  0.00000000E+00  0.00000000E+00
  1.72911418E-07 -6.42189317E-06 -3.57776480E-05  0.00000000E+00  0.00000000E+00
 -2.43040769E-05  8.62855817E-05 -2.15361889E-05  0.00000000E+00  0.00000000E+00
 -2.69903563E-04 -1.58819403E-04  0.00000000E+00  9.21207299E-06  6.18665732E-06
  0.00000000E+00  0.00000000E+00  3.31337449E-06 -1.91172612E-05  0.00000000E+00
 -4.15746215E-05 -3.89086380E-05  0.00000000E+00  0.00000000E+00 -7.66864037E-05
  1.82467540E-05  2.01950484E-03  4.58295596E-05  6.38104606E-05 -6.61226824E-05
 -4.75037036E-04  7.01247485E-06  1.65400619E-05  0.00000000E+00 -6.39569414E-05
 -5.79182911E-05  0.00000000E+00  2.29715811E-04 -1.69428326E-04  0.00000000E+00
 -1.92643814E-04 -6.48863692E-05  0.00000000E+00 -8.73868326E-06  0.00000000E+00
  0.00000000E+00  2.14977151E-05  1.84412714E-05  3.05909657E-06  0.00000000E+00
  0.00000000E+00 -1.12426503E-04 -3.78861777E-05 -3.17928596E-06  0.00000000E+00
  0.00000000E+00 -2.15947777E-04 -1.92594566E-04  0.00000000E+00  3.51941330E-06
 -1.95078899E-07  0.00000000E+00  0.00000000E+00  1.92877288E-06 -1.50889519E-05
  0.00000000E+00 -4.66244618E-05  1.22756009E-06  0.00000000E+00  0.00000000E+00
 -7.00029499E-05  1.88575736E-04  2.56958455E-04  1.45334318E-03 -1.07669784E-04
 -1.39788111E-03  4.35436964E-04 -1.27205500E-04  2.92887707E-06  0.00000000E+00
 -2.10988323E-03 -4.17684858E-04  0.00000000E+00  9.67115765E-04  7.60796336E-04
  0.00000000E+00 -1.77287612E-04  5.50223419E-05  0.00000000E+00 -1.24994832E-04
  0.00000000E+00  0.00000000E+00  2.44280796E-04  9.48327407E-05 -4.61308093E-04
  0.00000000E+00  0.00000000E+00  9.34807871E-04 -3.93186536E-05  1.94036925E-06
  0.00000000E+00  0.00000000E+00 -3.18303992E-04 -1.16411357E-04  0.00000000E+00
  9.64136732E-06  1.74756055E-05  0.00000000E+00  0.00000000E+00  5.77228894E-06
  6.13502968E-06  0.00000000E+00  1.67857776E-04 -7.18011261E-05  0.00000000E+00
  0.00000000E+00 -2.56943054E-04  4.29223139E-05  9.76662208E-01 -9.85606615E-03
  4.35489451E-02  4.37180333E-03 -4.92114910E-04  2.14019825E-03  4.84610230E-04
  0.00000000E+00 -2.41264515E-03 -6.12269862E-04  0.00000000E+00  1.11022098E-03
 -9.48458673E-06  0.00000000E+00 -2.48201546E-07 -4.43208427E-05  0.00000000E+00
 -2.27583977E-04  0.00000000E+00  0.00000000E+00  9.45002390E-05  2.95413386E-05
  3.95042254E-04  0.00000000E+00  0.00000000E+00 -8.43642926E-04 -4.25527070E-04
 -1.59665250E-04  0.00000000E+00  0.00000000E+00  2.64142142E-04  1.80450980E-05
  0.00000000E+00  5.61548685E-05  1.82592944E-05  0.00000000E+00  0.00000000E+00
 -2.68149540E-05 -1.55057320E-05  0.00000000E+00  1.33993551E-04  8.92365453E-06
  0.00000000E+00  0.00000000E+00 -1.87033243E-04 -1.40470638E-04  4.74781161E-04
  2.05950870E-03  1.13802982E-04  1.52706207E-05 -4.06181667E-05 -2.46878156E-04
  0.00000000E+00  1.14734764E-04 -1.27445835E-03  0.00000000E+00  3.12911395E-04
 -3.36821193E-04  0.00000000E+00 -2.67572413E-06  0.00000000E+00  0.00000000E+00
  7.58912454E-05  1.58955882E-05 -1.60074760E-04  0.00000000E+00  0.00000000E+00
 -5.37325062E-04 -2.65096737E-05  9.76830818E-01 -9.16313836E-03  4.34494912E-02
  1.62730094E-04 -1.14051388E-03 -1.56677099E-03  1.43883143E-03  0.00000000E+00
  1.57833073E-03 -1.28136453E-03  0.00000000E+00 -5.66736197E-04 -8.65664800E-04
  0.00000000E+00  5.52047251E-05 -3.32129808E-05  0.00000000E+00  2.96398336E-05
  0.00000000E+00  0.00000000E+00 -1.18191162E-04 -3.55707774E-06  7.57689772E-04
  0.00000000E+00  0.00000000E+00 -2.01650106E-04 -2.36314096E-04 -2.66468368E-04
  0.00000000E+00  0.00000000E+00  1.68022219E-04  1.28295473E-04  0.00000000E+00
 -6.41855940E-05  1.14473334E-06  0.00000000E+00  0.00000000E+00  1.88329748E-05
  9.98886099E-06  0.00000000E+00 -1.46643454E-06  1.22717085E-04  0.00000000E+00
  0.00000000E+00  2.56414239E-04  9.33880846E-05 -4.57129182E-03 -2.12309439E-04