 Entering Gaussian System, Link 0=g16
 Input=hoono_a3_110p0337.gjf
 Output=hoono_a3_110p0337.log
 Initial command:
 /sw/contrib/gaussian/g16/B01/g16/l1.exe "/scr/Gau-14504.inp" -scrdir="/scr/"
 Entering Link 1 = /sw/contrib/gaussian/g16/B01/g16/l1.exe PID=     14505.
  
 Copyright (c) 1988-2017, Gaussian, Inc.  All Rights Reserved.
  
 This is part of the Gaussian(R) 16 program.  It is based on
 the Gaussian(R) 09 system (copyright 2009, Gaussian, Inc.),
 the Gaussian(R) 03 system (copyright 2003, Gaussian, Inc.),
 the Gaussian(R) 98 system (copyright 1998, Gaussian, Inc.),
 the Gaussian(R) 94 system (copyright 1995, Gaussian, Inc.),
 the Gaussian 92(TM) system (copyright 1992, Gaussian, Inc.),
 the Gaussian 90(TM) system (copyright 1990, Gaussian, Inc.),
 the Gaussian 88(TM) system (copyright 1988, Gaussian, Inc.),
 the Gaussian 86(TM) system (copyright 1986, Carnegie Mellon
 University), and the Gaussian 82(TM) system (copyright 1983,
 Carnegie Mellon University). Gaussian is a federally registered
 trademark of Gaussian, Inc.
  
 This software contains proprietary and confidential information,
 including trade secrets, belonging to Gaussian, Inc.
  
 This software is provided under written license and may be
 used, copied, transmitted, or stored only in accord with that
 written license.
  
 The following legend is applicable only to US Government
 contracts under FAR:
  
                    RESTRICTED RIGHTS LEGEND
  
 Use, reproduction and disclosure by the US Government is
 subject to restrictions as set forth in subparagraphs (a)
 and (c) of the Commercial Computer Software - Restricted
 Rights clause in FAR 52.227-19.
  
 Gaussian, Inc.
 340 Quinnipiac St., Bldg. 40, Wallingford CT 06492
  
  
 ---------------------------------------------------------------
 Warning -- This program may not be used in any manner that
 competes with the business of Gaussian, Inc. or will provide
 assistance to any competitor of Gaussian, Inc.  The licensee
 of this program is prohibited from giving any competitor of
 Gaussian, Inc. access to this program.  By using this program,
 the user acknowledges that Gaussian, Inc. is engaged in the
 business of creating and licensing software in the field of
 computational chemistry and represents and warrants to the
 licensee that it is not a competitor of Gaussian, Inc. and that
 it will not use this program in any manner prohibited above.
 ---------------------------------------------------------------
  

 Cite this work as:
 Gaussian 16, Revision B.01,
 M. J. Frisch, G. W. Trucks, H. B. Schlegel, G. E. Scuseria, 
 M. A. Robb, J. R. Cheeseman, G. Scalmani, V. Barone, 
 G. A. Petersson, H. Nakatsuji, X. Li, M. Caricato, A. V. Marenich, 
 J. Bloino, B. G. Janesko, R. Gomperts, B. Mennucci, H. P. Hratchian, 
 J. V. Ortiz, A. F. Izmaylov, J. L. Sonnenberg, D. Williams-Young, 
 F. Ding, F. Lipparini, F. Egidi, J. Goings, B. Peng, A. Petrone, 
 T. Henderson, D. Ranasinghe, V. G. Zakrzewski, J. Gao, N. Rega, 
 G. Zheng, W. Liang, M. Hada, M. Ehara, K. Toyota, R. Fukuda, 
 J. Hasegawa, M. Ishida, T. Nakajima, Y. Honda, O. Kitao, H. Nakai, 
 T. Vreven, K. Throssell, J. A. Montgomery, Jr., J. E. Peralta, 
 F. Ogliaro, M. J. Bearpark, J. J. Heyd, E. N. Brothers, K. N. Kudin, 
 V. N. Staroverov, T. A. Keith, R. Kobayashi, J. Normand, 
 K. Raghavachari, A. P. Rendell, J. C. Burant, S. S. Iyengar, 
 J. Tomasi, M. Cossi, J. M. Millam, M. Klene, C. Adamo, R. Cammi, 
 J. W. Ochterski, R. L. Martin, K. Morokuma, O. Farkas, 
 J. B. Foresman, and D. J. Fox, Gaussian, Inc., Wallingford CT, 2016.
 
 ******************************************
 Gaussian 16:  ES64L-G16RevB.01 20-Dec-2017
                14-Feb-2022 
 ******************************************
 %nproc=28
 Will use up to   28 processors via shared memory.
 %mem=120GB
 %chk=hoono_a3_110p0337.chk
 -------------------------------------
 #p SP mp2/aug-cc-pvtz density=current
 -------------------------------------
 1/30=1,38=1,172=1/1;
 2/12=2,17=6,18=5,40=1/2;
 3/5=16,6=1,7=10,11=9,25=1,30=1,71=1/1,2,3;
 4//1;
 5/5=2,38=5/2;
 8/6=4,10=1/1;
 9/15=1,16=-3/6;
 10/5=1,13=10/2;
 6/7=2,8=2,9=2,10=2,22=-1/1;
 99/5=1,9=1/99;
 Leave Link    1 at Mon Feb 14 22:12:39 2022, MaxMem= 16106127360 cpu:               3.0 elap:               0.1
 (Enter /sw/contrib/gaussian/g16/B01/g16/l101.exe)
 -----
 title
 -----
 Symbolic Z-matrix:
 Charge =  0 Multiplicity = 1
 H
 O                    1    r1
 O                    2    r2       1    a1
 N                    3    r3       2    a2       1    d1       0
 O                    4    r4       3    a3       2    d2       0
       Variables:
  r1                    0.96898                  
  r2                    1.45492                  
  r3                    1.45878                  
  r4                    1.17073                  
  a1                   97.59495                  
  a2                  102.29752                  
  a3                  110.03374                  
  d1                  180.                       
  d2                  180.                       
 
 ITRead=  0  0  0  0  0
 MicOpt= -1 -1 -1 -1 -1
 NAtoms=      5 NQM=        5 NQMF=       0 NMMI=      0 NMMIF=      0
                NMic=       0 NMicF=      0.
                    Isotopes and Nuclear Properties:
 (Nuclear quadrupole moments (NQMom) in fm**2, nuclear magnetic moments (NMagM)
  in nuclear magnetons)

  Atom         1           2           3           4           5
 IAtWgt=           1          16          16          14          16
 AtmWgt=   1.0078250  15.9949146  15.9949146  14.0030740  15.9949146
 NucSpn=           1           0           0           2           0
 AtZEff=  -0.0000000  -0.0000000  -0.0000000  -0.0000000  -0.0000000
 NQMom=    0.0000000   0.0000000   0.0000000   2.0440000   0.0000000
 NMagM=    2.7928460   0.0000000   0.0000000   0.4037610   0.0000000
 AtZNuc=   1.0000000   8.0000000   8.0000000   7.0000000   8.0000000
 Leave Link  101 at Mon Feb 14 22:12:39 2022, MaxMem= 16106127360 cpu:               3.2 elap:               0.1
 (Enter /sw/contrib/gaussian/g16/B01/g16/l202.exe)
                          Input orientation:                          
 ---------------------------------------------------------------------
 Center     Atomic      Atomic             Coordinates (Angstroms)
 Number     Number       Type             X           Y           Z
 ---------------------------------------------------------------------
      1          1           0        0.000000    0.000000    0.000000
      2          8           0        0.000000    0.000000    0.968976
      3          8           0        1.442156    0.000000    1.161271
      4          7           0        1.561752    0.000000    2.615144
      5          8           0        2.690819    0.000000    2.924682
 ---------------------------------------------------------------------
                    Distance matrix (angstroms):
                    1          2          3          4          5
     1  H    0.000000
     2  O    0.968976   0.000000
     3  O    1.851584   1.454919   0.000000
     4  N    3.045989   2.269127   1.458784   0.000000
     5  O    3.974201   3.326453   2.160736   1.170729   0.000000
 Stoichiometry    HNO3
 Framework group  CS[SG(HNO3)]
 Deg. of freedom     7
 Full point group                 CS      NOp   2
 Largest Abelian subgroup         CS      NOp   2
 Largest concise Abelian subgroup C1      NOp   1
                         Standard orientation:                         
 ---------------------------------------------------------------------
 Center     Atomic      Atomic             Coordinates (Angstroms)
 Number     Number       Type             X           Y           Z
 ---------------------------------------------------------------------
      1          1           0        1.550291    1.690274   -0.000000
      2          8           0        1.454120    0.726083   -0.000000
      3          8           0        0.000000    0.677871    0.000000
      4          7           0       -0.263303   -0.756954    0.000000
      5          8           0       -1.417517   -0.952903    0.000000
 ---------------------------------------------------------------------
 Rotational constants (GHZ):          55.2085035           4.9876761           4.5744121
 Leave Link  202 at Mon Feb 14 22:12:39 2022, MaxMem= 16106127360 cpu:               1.1 elap:               0.1
 (Enter /sw/contrib/gaussian/g16/B01/g16/l301.exe)
 Standard basis: Aug-CC-pVTZ (5D, 7F)
 Ernie: Thresh=  0.10000D-02 Tol=  0.10000D-05 Strict=F.
 Ernie:  12 primitive shells out of 131 were deleted.
 There are   166 symmetry adapted cartesian basis functions of A'  symmetry.
 There are    79 symmetry adapted cartesian basis functions of A"  symmetry.
 There are   136 symmetry adapted basis functions of A'  symmetry.
 There are    71 symmetry adapted basis functions of A"  symmetry.
   207 basis functions,   315 primitive gaussians,   245 cartesian basis functions
    16 alpha electrons       16 beta electrons
       nuclear repulsion energy       116.7557954943 Hartrees.
 IExCor=    0 DFT=F Ex=HF Corr=None ExCW=0 ScaHFX=  1.000000
 ScaDFX=  1.000000  1.000000  1.000000  1.000000 ScalE2=  1.000000  1.000000
 IRadAn=      5 IRanWt=     -1 IRanGd=            0 ICorTp=0 IEmpDi=  4
 NAtoms=    5 NActive=    5 NUniq=    5 SFac= 1.00D+00 NAtFMM=   60 NAOKFM=F Big=F
 Integral buffers will be    131072 words long.
 Raffenetti 1 integral format.
 Two-electron integral symmetry is turned on.
 Leave Link  301 at Mon Feb 14 22:12:39 2022, MaxMem= 16106127360 cpu:               1.9 elap:               0.1
 (Enter /sw/contrib/gaussian/g16/B01/g16/l302.exe)
 NPDir=0 NMtPBC=     1 NCelOv=     1 NCel=       1 NClECP=     1 NCelD=      1
         NCelK=      1 NCelE2=     1 NClLst=     1 CellRange=     0.0.
 One-electron integrals computed using PRISM.
 One-electron integral symmetry used in STVInt
 NBasis=   207 RedAO= T EigKep=  1.82D-04  NBF=   136    71
 NBsUse=   207 1.00D-06 EigRej= -1.00D+00 NBFU=   136    71
 Leave Link  302 at Mon Feb 14 22:12:40 2022, MaxMem= 16106127360 cpu:               4.6 elap:               0.2
 (Enter /sw/contrib/gaussian/g16/B01/g16/l303.exe)
 DipDrv:  MaxL=1.
 Leave Link  303 at Mon Feb 14 22:12:40 2022, MaxMem= 16106127360 cpu:               1.5 elap:               0.1
 (Enter /sw/contrib/gaussian/g16/B01/g16/l401.exe)
 ExpMin= 2.53D-02 ExpMax= 1.53D+04 ExpMxC= 5.22D+02 IAcc=3 IRadAn=         5 AccDes= 0.00D+00
 Harris functional with IExCor=  205 and IRadAn=       5 diagonalized for initial guess.
 HarFok:  IExCor=  205 AccDes= 0.00D+00 IRadAn=         5 IDoV= 1 UseB2=F ITyADJ=14
 ICtDFT=  3500011 ScaDFX=  1.000000  1.000000  1.000000  1.000000
 FoFCou: FMM=F IPFlag=           0 FMFlag=      100000 FMFlg1=           0
         NFxFlg=           0 DoJE=T BraDBF=F KetDBF=T FulRan=T
         wScrn=  0.000000 ICntrl=       500 IOpCl=  0 I1Cent=   200000004 NGrid=           0
         NMat0=    1 NMatS0=      1 NMatT0=    0 NMatD0=    1 NMtDS0=    0 NMtDT0=    0
 Petite list used in FoFCou.
 Harris En= -279.628630521743    
 JPrj=0 DoOrth=F DoCkMO=F.
 Initial guess orbital symmetries:
       Occupied  (A') (A') (A') (A') (A') (A') (A') (A') (A') (A')
                 (A") (A') (A') (A") (A") (A')
       Virtual   (A") (A') (A') (A') (A') (A') (A") (A') (A') (A')
                 (A") (A') (A") (A') (A') (A") (A') (A") (A') (A')
                 (A') (A') (A') (A') (A') (A") (A') (A") (A') (A')
                 (A") (A') (A") (A') (A') (A") (A') (A") (A') (A')
                 (A") (A') (A") (A') (A") (A') (A') (A') (A") (A")
                 (A') (A') (A') (A') (A") (A') (A") (A') (A") (A')
                 (A') (A') (A") (A') (A') (A") (A') (A") (A') (A')
                 (A") (A') (A') (A") (A") (A') (A') (A") (A') (A')
                 (A') (A") (A') (A") (A') (A") (A') (A") (A') (A')
                 (A') (A") (A') (A") (A') (A") (A") (A') (A') (A")
                 (A') (A') (A") (A') (A') (A') (A') (A") (A") (A')
                 (A") (A') (A') (A') (A") (A') (A') (A') (A") (A')
                 (A") (A') (A') (A") (A") (A') (A') (A") (A") (A')
                 (A') (A') (A') (A") (A") (A') (A") (A') (A') (A')
                 (A') (A") (A") (A') (A') (A") (A') (A') (A') (A')
                 (A") (A') (A') (A") (A') (A") (A') (A") (A') (A")
                 (A') (A") (A') (A") (A') (A") (A") (A") (A') (A')
                 (A") (A') (A") (A') (A") (A') (A") (A") (A') (A')
                 (A') (A') (A') (A') (A') (A') (A') (A') (A') (A')
                 (A')
 The electronic state of the initial guess is 1-A'.
 Leave Link  401 at Mon Feb 14 22:12:40 2022, MaxMem= 16106127360 cpu:               9.0 elap:               0.4
 (Enter /sw/contrib/gaussian/g16/B01/g16/l502.exe)
 Keep R1 ints in memory in symmetry-blocked form, NReq=348887737.
 FoFCou: FMM=F IPFlag=           0 FMFlag=           0 FMFlg1=           0
         NFxFlg=           0 DoJE=F BraDBF=F KetDBF=F FulRan=T
         wScrn=  0.000000 ICntrl=       600 IOpCl=  0 I1Cent=           0 NGrid=           0
         NMat0=    1 NMatS0=  21528 NMatT0=    0 NMatD0=    1 NMtDS0=    0 NMtDT0=    0
 Petite list used in FoFCou.
 Closed shell SCF:
 Using DIIS extrapolation, IDIIS=  1040.
 NGot= 16106127360 LenX= 15988850015 LenY= 15988789549
 Requested convergence on RMS density matrix=1.00D-08 within 128 cycles.
 Requested convergence on MAX density matrix=1.00D-06.
 Requested convergence on             energy=1.00D-06.
 No special actions if energy rises.

 Cycle   1  Pass 1  IDiag  1:
 E= -279.370634908825    
 DIIS: error= 2.83D-02 at cycle   1 NSaved=   1.
 NSaved= 1 IEnMin= 1 EnMin= -279.370634908825     IErMin= 1 ErrMin= 2.83D-02
 ErrMax= 2.83D-02  0.00D+00 EMaxC= 1.00D-01 BMatC= 4.38D-01 BMatP= 4.38D-01
 IDIUse=3 WtCom= 7.17D-01 WtEn= 2.83D-01
 Coeff-Com:  0.100D+01
 Coeff-En:   0.100D+01
 Coeff:      0.100D+01
 Gap=     0.514 Goal=   None    Shift=    0.000
 GapD=    0.514 DampG=2.000 DampE=0.500 DampFc=1.0000 IDamp=-1.
 RMSDP=1.62D-03 MaxDP=9.81D-02              OVMax= 1.13D-01

 Cycle   2  Pass 1  IDiag  1:
 E= -279.452347817390     Delta-E=       -0.081712908565 Rises=F Damp=F
 DIIS: error= 1.77D-02 at cycle   2 NSaved=   2.
 NSaved= 2 IEnMin= 2 EnMin= -279.452347817390     IErMin= 2 ErrMin= 1.77D-02
 ErrMax= 1.77D-02  0.00D+00 EMaxC= 1.00D-01 BMatC= 7.16D-02 BMatP= 4.38D-01
 IDIUse=3 WtCom= 8.23D-01 WtEn= 1.77D-01
 Coeff-Com:  0.194D+00 0.806D+00
 Coeff-En:   0.000D+00 0.100D+01
 Coeff:      0.160D+00 0.840D+00
 Gap=     0.528 Goal=   None    Shift=    0.000
 RMSDP=9.00D-04 MaxDP=3.72D-02 DE=-8.17D-02 OVMax= 6.91D-02

 Cycle   3  Pass 1  IDiag  1:
 E= -279.481273680462     Delta-E=       -0.028925863072 Rises=F Damp=F
 DIIS: error= 1.03D-02 at cycle   3 NSaved=   3.
 NSaved= 3 IEnMin= 3 EnMin= -279.481273680462     IErMin= 3 ErrMin= 1.03D-02
 ErrMax= 1.03D-02  0.00D+00 EMaxC= 1.00D-01 BMatC= 2.89D-02 BMatP= 7.16D-02
 IDIUse=3 WtCom= 8.97D-01 WtEn= 1.03D-01
 Coeff-Com: -0.330D-01 0.379D+00 0.654D+00
 Coeff-En:   0.000D+00 0.243D+00 0.757D+00
 Coeff:     -0.296D-01 0.365D+00 0.664D+00
 Gap=     0.509 Goal=   None    Shift=    0.000
 RMSDP=3.77D-04 MaxDP=1.52D-02 DE=-2.89D-02 OVMax= 3.82D-02

 Cycle   4  Pass 1  IDiag  1:
 E= -279.500472536986     Delta-E=       -0.019198856524 Rises=F Damp=F
 DIIS: error= 1.30D-03 at cycle   4 NSaved=   4.
 NSaved= 4 IEnMin= 4 EnMin= -279.500472536986     IErMin= 4 ErrMin= 1.30D-03
 ErrMax= 1.30D-03  0.00D+00 EMaxC= 1.00D-01 BMatC= 4.91D-04 BMatP= 2.89D-02
 IDIUse=3 WtCom= 9.87D-01 WtEn= 1.30D-02
 Coeff-Com: -0.117D-01 0.577D-01 0.158D+00 0.796D+00
 Coeff-En:   0.000D+00 0.000D+00 0.000D+00 0.100D+01
 Coeff:     -0.115D-01 0.569D-01 0.155D+00 0.799D+00
 Gap=     0.501 Goal=   None    Shift=    0.000
 RMSDP=9.06D-05 MaxDP=2.79D-03 DE=-1.92D-02 OVMax= 1.12D-02

 Cycle   5  Pass 1  IDiag  1:
 E= -279.501148243198     Delta-E=       -0.000675706212 Rises=F Damp=F
 DIIS: error= 7.41D-04 at cycle   5 NSaved=   5.
 NSaved= 5 IEnMin= 5 EnMin= -279.501148243198     IErMin= 5 ErrMin= 7.41D-04
 ErrMax= 7.41D-04  0.00D+00 EMaxC= 1.00D-01 BMatC= 8.74D-05 BMatP= 4.91D-04
 IDIUse=3 WtCom= 9.93D-01 WtEn= 7.41D-03
 Coeff-Com:  0.610D-02-0.722D-01-0.117D+00 0.227D-01 0.116D+01
 Coeff-En:   0.000D+00 0.000D+00 0.000D+00 0.000D+00 0.100D+01
 Coeff:      0.605D-02-0.717D-01-0.116D+00 0.225D-01 0.116D+01
 Gap=     0.501 Goal=   None    Shift=    0.000
 RMSDP=7.61D-05 MaxDP=2.09D-03 DE=-6.76D-04 OVMax= 1.11D-02

 Cycle   6  Pass 1  IDiag  1:
 E= -279.501463508723     Delta-E=       -0.000315265524 Rises=F Damp=F
 DIIS: error= 2.91D-04 at cycle   6 NSaved=   6.
 NSaved= 6 IEnMin= 6 EnMin= -279.501463508723     IErMin= 6 ErrMin= 2.91D-04
 ErrMax= 2.91D-04  0.00D+00 EMaxC= 1.00D-01 BMatC= 1.68D-05 BMatP= 8.74D-05
 IDIUse=3 WtCom= 9.97D-01 WtEn= 2.91D-03
 Coeff-Com:  0.623D-03 0.132D-02 0.394D-02-0.130D+00-0.228D+00 0.135D+01
 Coeff-En:   0.000D+00 0.000D+00 0.000D+00 0.000D+00 0.000D+00 0.100D+01
 Coeff:      0.621D-03 0.131D-02 0.393D-02-0.130D+00-0.227D+00 0.135D+01
 Gap=     0.501 Goal=   None    Shift=    0.000
 RMSDP=4.55D-05 MaxDP=1.26D-03 DE=-3.15D-04 OVMax= 5.55D-03

 Cycle   7  Pass 1  IDiag  1:
 E= -279.501536823893     Delta-E=       -0.000073315170 Rises=F Damp=F
 DIIS: error= 1.23D-04 at cycle   7 NSaved=   7.
 NSaved= 7 IEnMin= 7 EnMin= -279.501536823893     IErMin= 7 ErrMin= 1.23D-04
 ErrMax= 1.23D-04  0.00D+00 EMaxC= 1.00D-01 BMatC= 4.61D-06 BMatP= 1.68D-05
 IDIUse=3 WtCom= 9.99D-01 WtEn= 1.23D-03
 Coeff-Com: -0.939D-03 0.136D-01 0.265D-01-0.251D-01-0.290D+00 0.398D+00
 Coeff-Com:  0.878D+00
 Coeff-En:   0.000D+00 0.000D+00 0.000D+00 0.000D+00 0.000D+00 0.000D+00
 Coeff-En:   0.100D+01
 Coeff:     -0.938D-03 0.136D-01 0.265D-01-0.250D-01-0.290D+00 0.397D+00
 Coeff:      0.878D+00
 Gap=     0.501 Goal=   None    Shift=    0.000
 RMSDP=1.34D-05 MaxDP=3.84D-04 DE=-7.33D-05 OVMax= 1.56D-03

 Cycle   8  Pass 1  IDiag  1:
 E= -279.501545893931     Delta-E=       -0.000009070038 Rises=F Damp=F
 DIIS: error= 5.84D-05 at cycle   8 NSaved=   8.
 NSaved= 8 IEnMin= 8 EnMin= -279.501545893931     IErMin= 8 ErrMin= 5.84D-05
 ErrMax= 5.84D-05  0.00D+00 EMaxC= 1.00D-01 BMatC= 6.09D-07 BMatP= 4.61D-06
 IDIUse=1 WtCom= 1.00D+00 WtEn= 0.00D+00
 Coeff-Com: -0.450D-03 0.347D-02 0.760D-02 0.276D-01-0.413D-01-0.197D+00
 Coeff-Com:  0.164D+00 0.104D+01
 Coeff:     -0.450D-03 0.347D-02 0.760D-02 0.276D-01-0.413D-01-0.197D+00
 Coeff:      0.164D+00 0.104D+01
 Gap=     0.501 Goal=   None    Shift=    0.000
 RMSDP=6.99D-06 MaxDP=2.04D-04 DE=-9.07D-06 OVMax= 7.60D-04

 Cycle   9  Pass 1  IDiag  1:
 E= -279.501547697402     Delta-E=       -0.000001803471 Rises=F Damp=F
 DIIS: error= 1.55D-05 at cycle   9 NSaved=   9.
 NSaved= 9 IEnMin= 9 EnMin= -279.501547697402     IErMin= 9 ErrMin= 1.55D-05
 ErrMax= 1.55D-05  0.00D+00 EMaxC= 1.00D-01 BMatC= 6.90D-08 BMatP= 6.09D-07
 IDIUse=1 WtCom= 1.00D+00 WtEn= 0.00D+00
 Coeff-Com:  0.122D-03-0.172D-02-0.305D-02-0.200D-02 0.341D-01-0.225D-03
 Coeff-Com: -0.164D+00-0.105D+00 0.124D+01
 Coeff:      0.122D-03-0.172D-02-0.305D-02-0.200D-02 0.341D-01-0.225D-03
 Coeff:     -0.164D+00-0.105D+00 0.124D+01
 Gap=     0.501 Goal=   None    Shift=    0.000
 RMSDP=1.95D-06 MaxDP=6.62D-05 DE=-1.80D-06 OVMax= 1.76D-04

 Cycle  10  Pass 1  IDiag  1:
 E= -279.501547858069     Delta-E=       -0.000000160667 Rises=F Damp=F
 DIIS: error= 4.09D-06 at cycle  10 NSaved=  10.
 NSaved=10 IEnMin=10 EnMin= -279.501547858069     IErMin=10 ErrMin= 4.09D-06
 ErrMax= 4.09D-06  0.00D+00 EMaxC= 1.00D-01 BMatC= 5.61D-09 BMatP= 6.90D-08
 IDIUse=1 WtCom= 1.00D+00 WtEn= 0.00D+00
 Coeff-Com:  0.315D-04-0.248D-03-0.330D-03-0.272D-02 0.169D-02 0.197D-01
 Coeff-Com: -0.128D-01-0.752D-01-0.794D-01 0.115D+01
 Coeff:      0.315D-04-0.248D-03-0.330D-03-0.272D-02 0.169D-02 0.197D-01
 Coeff:     -0.128D-01-0.752D-01-0.794D-01 0.115D+01
 Gap=     0.501 Goal=   None    Shift=    0.000
 RMSDP=5.11D-07 MaxDP=2.11D-05 DE=-1.61D-07 OVMax= 4.22D-05

 Cycle  11  Pass 1  IDiag  1:
 E= -279.501547870758     Delta-E=       -0.000000012689 Rises=F Damp=F
 DIIS: error= 2.05D-06 at cycle  11 NSaved=  11.
 NSaved=11 IEnMin=11 EnMin= -279.501547870758     IErMin=11 ErrMin= 2.05D-06
 ErrMax= 2.05D-06  0.00D+00 EMaxC= 1.00D-01 BMatC= 6.67D-10 BMatP= 5.61D-09
 IDIUse=1 WtCom= 1.00D+00 WtEn= 0.00D+00
 Coeff-Com: -0.213D-04 0.245D-03 0.486D-03 0.537D-03-0.429D-02-0.355D-02
 Coeff-Com:  0.206D-01 0.317D-01-0.139D+00-0.181D+00 0.127D+01
 Coeff:     -0.213D-04 0.245D-03 0.486D-03 0.537D-03-0.429D-02-0.355D-02
 Coeff:      0.206D-01 0.317D-01-0.139D+00-0.181D+00 0.127D+01
 Gap=     0.501 Goal=   None    Shift=    0.000
 RMSDP=1.80D-07 MaxDP=6.69D-06 DE=-1.27D-08 OVMax= 1.74D-05

 Cycle  12  Pass 1  IDiag  1:
 E= -279.501547872586     Delta-E=       -0.000000001828 Rises=F Damp=F
 DIIS: error= 5.97D-07 at cycle  12 NSaved=  12.
 NSaved=12 IEnMin=12 EnMin= -279.501547872586     IErMin=12 ErrMin= 5.97D-07
 ErrMax= 5.97D-07  0.00D+00 EMaxC= 1.00D-01 BMatC= 7.21D-11 BMatP= 6.67D-10
 IDIUse=1 WtCom= 1.00D+00 WtEn= 0.00D+00
 Coeff-Com:  0.122D-05-0.290D-04-0.625D-04 0.184D-03 0.108D-02-0.228D-02
 Coeff-Com: -0.412D-02 0.541D-02 0.418D-01-0.112D+00-0.282D+00 0.135D+01
 Coeff:      0.122D-05-0.290D-04-0.625D-04 0.184D-03 0.108D-02-0.228D-02
 Coeff:     -0.412D-02 0.541D-02 0.418D-01-0.112D+00-0.282D+00 0.135D+01
 Gap=     0.501 Goal=   None    Shift=    0.000
 RMSDP=7.22D-08 MaxDP=2.90D-06 DE=-1.83D-09 OVMax= 6.69D-06

 Cycle  13  Pass 1  IDiag  1:
 E= -279.501547872817     Delta-E=       -0.000000000231 Rises=F Damp=F
 DIIS: error= 1.72D-07 at cycle  13 NSaved=  13.
 NSaved=13 IEnMin=13 EnMin= -279.501547872817     IErMin=13 ErrMin= 1.72D-07
 ErrMax= 1.72D-07  0.00D+00 EMaxC= 1.00D-01 BMatC= 4.08D-12 BMatP= 7.21D-11
 IDIUse=1 WtCom= 1.00D+00 WtEn= 0.00D+00
 Coeff-Com:  0.128D-05-0.140D-04-0.223D-04-0.903D-04 0.120D-03 0.764D-03
 Coeff-Com: -0.805D-03-0.329D-02 0.431D-03 0.412D-01-0.346D-01-0.330D+00
 Coeff-Com:  0.133D+01
 Coeff:      0.128D-05-0.140D-04-0.223D-04-0.903D-04 0.120D-03 0.764D-03
 Coeff:     -0.805D-03-0.329D-02 0.431D-03 0.412D-01-0.346D-01-0.330D+00
 Coeff:      0.133D+01
 Gap=     0.501 Goal=   None    Shift=    0.000
 RMSDP=1.93D-08 MaxDP=5.63D-07 DE=-2.31D-10 OVMax= 1.57D-06

 Cycle  14  Pass 1  IDiag  1:
 E= -279.501547872830     Delta-E=       -0.000000000012 Rises=F Damp=F
 DIIS: error= 2.43D-08 at cycle  14 NSaved=  14.
 NSaved=14 IEnMin=14 EnMin= -279.501547872830     IErMin=14 ErrMin= 2.43D-08
 ErrMax= 2.43D-08  0.00D+00 EMaxC= 1.00D-01 BMatC= 2.00D-13 BMatP= 4.08D-12
 IDIUse=1 WtCom= 1.00D+00 WtEn= 0.00D+00
 Coeff-Com: -0.192D-06 0.315D-05 0.558D-05 0.466D-05-0.827D-04 0.441D-04
 Coeff-Com:  0.278D-03 0.236D-03-0.244D-02 0.134D-02 0.171D-01-0.251D-01
 Coeff-Com: -0.202D+00 0.121D+01
 Coeff:     -0.192D-06 0.315D-05 0.558D-05 0.466D-05-0.827D-04 0.441D-04
 Coeff:      0.278D-03 0.236D-03-0.244D-02 0.134D-02 0.171D-01-0.251D-01
 Coeff:     -0.202D+00 0.121D+01
 Gap=     0.501 Goal=   None    Shift=    0.000
 RMSDP=3.84D-09 MaxDP=9.26D-08 DE=-1.23D-11 OVMax= 3.46D-07

 SCF Done:  E(RHF) =  -279.501547873     A.U. after   14 cycles
            NFock= 14  Conv=0.38D-08     -V/T= 2.0024
 KE= 2.788389837696D+02 PE=-8.948273810069D+02 EE= 2.197310538702D+02
 Leave Link  502 at Mon Feb 14 22:12:44 2022, MaxMem= 16106127360 cpu:              59.3 elap:               3.7
 (Enter /sw/contrib/gaussian/g16/B01/g16/l801.exe)
 ExpMin= 2.53D-02 ExpMax= 1.53D+04 ExpMxC= 5.22D+02 IAcc=3 IRadAn=         5 AccDes= 0.00D+00
 HarFok:  IExCor=  205 AccDes= 0.00D+00 IRadAn=         5 IDoV=-2 UseB2=F ITyADJ=14
 ICtDFT= 12500011 ScaDFX=  1.000000  1.000000  1.000000  1.000000
 Largest valence mixing into a core orbital is  2.08D-04
 Largest core mixing into a valence orbital is  3.62D-05
 Range of M.O.s used for correlation:     5   207
 NBasis=   207 NAE=    16 NBE=    16 NFC=     4 NFV=     0
 NROrb=    203 NOA=    12 NOB=    12 NVA=   191 NVB=   191

 **** Warning!!: The largest alpha MO coefficient is  0.17727407D+02

 Leave Link  801 at Mon Feb 14 22:12:44 2022, MaxMem= 16106127360 cpu:               3.0 elap:               0.2
 (Enter /sw/contrib/gaussian/g16/B01/g16/l906.exe)
 Frozen-core derivative calculation, NFC=   4 NFV=   0.
 FulOut=F Deriv=T AODrv=F NAtomX=     5
   MMem=          76  MDisk=          12 MDiskD=          12
  W3Min=      811440 MinDsk=     1524655 NBas6D=         245
 NBas2D=       30762    NTT=       30135    LW2=     3500000
    MDV= 16105579941 MDiskM=      328644 NBas2p=       30466
 Fully in-core method, ICMem=   960157634.
 IMap=   1   2   3   4   5   6   7   8   9  10  11  12  13  14  15  16
 JobTyp=1 Pass  1 fully in-core, NPsUse= 28.
 Compute canonical integrals.
 FoFCou: FMM=F IPFlag=           0 FMFlag=           0 FMFlg1=           0
         NFxFlg=           0 DoJE=F BraDBF=F KetDBF=F FulRan=T
         wScrn=  0.000000 ICntrl=       600 IOpCl=  1 I1Cent=           0 NGrid=           0
         NMat0=    1 NMatS0=  30762 NMatT0=    0 NMatD0=    1 NMtDS0=    0 NMtDT0=    0
 Symmetry not used in FoFCou.
 Spin components of T(2) and E(2):
     alpha-alpha T2 =       0.3404863267D-01 E2=     -0.1224238950D+00
     alpha-beta  T2 =       0.1869021283D+00 E2=     -0.7002705332D+00
     beta-beta   T2 =       0.3404863267D-01 E2=     -0.1224238950D+00
 The integrals were generated   1 times.
 ANorm=    0.1120267555D+01
 E2 =    -0.9451183233D+00 EUMP2 =    -0.28044666619617D+03
 Leave Link  906 at Mon Feb 14 22:12:53 2022, MaxMem= 16106127360 cpu:             244.0 elap:               8.8
 (Enter /sw/contrib/gaussian/g16/B01/g16/l1002.exe)
 Minotr:  Closed shell wavefunction.
          Computing MP2/KS-MP2 derivatives.
          Using Z-Vector for PSCF gradient.
          Skipping F1 and S1 gradient terms here.
          Frozen-core window.
          Direct CPHF calculation.
          Differentiating once with respect to electric field.
                with respect to dipole field.
          Electric field/nuclear overlap derivatives assumed to be zero.
          Using symmetry in CPHF.
          Requested convergence is 1.0D-10 RMS, and 1.0D-09 maximum.
          NewPWx=F KeepS1=T KeepF1=T KeepIn=T MapXYZ=F SortEE=F KeepMc=T.
 Keep R1 ints in memory in symmetry-blocked form, NReq=348888868.
 FoFCou: FMM=F IPFlag=           0 FMFlag=           0 FMFlg1=           0
         NFxFlg=           0 DoJE=F BraDBF=F KetDBF=F FulRan=T
         wScrn=  0.000000 ICntrl=       600 IOpCl=  0 I1Cent=           0 NGrid=           0
         NMat0=    1 NMatS0=  21528 NMatT0=    0 NMatD0=    1 NMtDS0=    0 NMtDT0=    0
 Petite list used in FoFCou.
          MDV=   16106127360 using IRadAn=       5.
          Solving linear equations separately, MaxMat=       0.
          There are     1 degrees of freedom in the 1st order CPHF.  IDoFFX=0 NUNeed=     1.
 LinEq1:  Iter=  0 NonCon=     1 RMS=5.97D-03 Max=1.33D-01 NDo=     1
 AX will form     1 AO Fock derivatives at one time.
 LinEq1:  Iter=  1 NonCon=     1 RMS=1.91D-03 Max=3.84D-02 NDo=     1
 LinEq1:  Iter=  2 NonCon=     1 RMS=8.72D-04 Max=1.41D-02 NDo=     1
 LinEq1:  Iter=  3 NonCon=     1 RMS=3.88D-04 Max=7.82D-03 NDo=     1
 LinEq1:  Iter=  4 NonCon=     1 RMS=1.20D-04 Max=1.94D-03 NDo=     1
 LinEq1:  Iter=  5 NonCon=     1 RMS=4.68D-05 Max=7.46D-04 NDo=     1
 LinEq1:  Iter=  6 NonCon=     1 RMS=2.08D-05 Max=2.38D-04 NDo=     1
 LinEq1:  Iter=  7 NonCon=     1 RMS=8.30D-06 Max=1.59D-04 NDo=     1
 LinEq1:  Iter=  8 NonCon=     1 RMS=3.51D-06 Max=3.45D-05 NDo=     1
 LinEq1:  Iter=  9 NonCon=     1 RMS=9.48D-07 Max=1.32D-05 NDo=     1
 LinEq1:  Iter= 10 NonCon=     1 RMS=1.86D-07 Max=2.01D-06 NDo=     1
 LinEq1:  Iter= 11 NonCon=     1 RMS=3.45D-08 Max=3.54D-07 NDo=     1
 LinEq1:  Iter= 12 NonCon=     1 RMS=8.32D-09 Max=1.26D-07 NDo=     1
 LinEq1:  Iter= 13 NonCon=     1 RMS=1.51D-09 Max=2.59D-08 NDo=     1
 LinEq1:  Iter= 14 NonCon=     1 RMS=2.73D-10 Max=3.83D-09 NDo=     1
 LinEq1:  Iter= 15 NonCon=     0 RMS=4.87D-11 Max=5.58D-10 NDo=     1
 Linear equations converged to 1.000D-10 1.000D-09 after    15 iterations.
 End of Minotr F.D. properties file   721 does not exist.
 End of Minotr F.D. properties file   722 does not exist.
 End of Minotr F.D. properties file   788 does not exist.
 Leave Link 1002 at Mon Feb 14 22:12:57 2022, MaxMem= 16106127360 cpu:              52.9 elap:               3.9
 (Enter /sw/contrib/gaussian/g16/B01/g16/l601.exe)
 Copying SCF densities to generalized density rwf, IOpCl= 0 IROHF=0.

 **********************************************************************

            Population analysis using the MP2 Density.

 **********************************************************************

 Orbital symmetries:
       Occupied  (A') (A') (A') (A') (A') (A') (A') (A') (A') (A')
                 (A") (A') (A") (A') (A") (A')
       Virtual   (A') (A") (A') (A') (A') (A") (A') (A') (A") (A')
                 (A") (A') (A') (A') (A") (A') (A') (A") (A') (A')
                 (A') (A') (A') (A') (A") (A') (A') (A") (A') (A')
                 (A") (A') (A") (A') (A') (A") (A') (A') (A") (A')
                 (A") (A') (A") (A') (A') (A") (A') (A') (A") (A')
                 (A") (A') (A') (A') (A") (A') (A") (A') (A") (A')
                 (A') (A') (A") (A') (A') (A") (A') (A") (A') (A')
                 (A") (A') (A') (A") (A") (A') (A') (A") (A') (A')
                 (A') (A") (A') (A") (A') (A") (A') (A") (A') (A')
                 (A") (A') (A') (A") (A') (A") (A') (A") (A') (A')
                 (A") (A') (A") (A') (A') (A") (A') (A') (A") (A')
                 (A") (A') (A') (A') (A") (A') (A') (A') (A") (A')
                 (A") (A') (A") (A') (A') (A") (A") (A') (A") (A')
                 (A') (A') (A') (A") (A") (A") (A') (A') (A') (A')
                 (A") (A') (A") (A') (A') (A") (A') (A') (A') (A')
                 (A") (A') (A') (A") (A') (A") (A') (A") (A') (A")
                 (A') (A") (A') (A') (A") (A") (A") (A') (A") (A')
                 (A") (A') (A") (A') (A") (A') (A") (A") (A') (A')
                 (A') (A') (A') (A') (A') (A') (A') (A') (A') (A')
                 (A')
 The electronic state is 1-A'.
 Alpha  occ. eigenvalues --  -20.69129 -20.68463 -20.66059 -15.81249  -1.62324
 Alpha  occ. eigenvalues --   -1.49645  -1.25518  -0.94782  -0.77329  -0.75886
 Alpha  occ. eigenvalues --   -0.71161  -0.67962  -0.62083  -0.59025  -0.48567
 Alpha  occ. eigenvalues --   -0.47131
 Alpha virt. eigenvalues --    0.02955   0.07208   0.08575   0.10173   0.13401
 Alpha virt. eigenvalues --    0.13401   0.14404   0.15460   0.17816   0.19421
 Alpha virt. eigenvalues --    0.19977   0.20617   0.22082   0.23448   0.23725
 Alpha virt. eigenvalues --    0.26537   0.29416   0.30419   0.31063   0.34312
 Alpha virt. eigenvalues --    0.34988   0.38689   0.42159   0.43132   0.52644
 Alpha virt. eigenvalues --    0.53000   0.55890   0.58261   0.62651   0.63621
 Alpha virt. eigenvalues --    0.67420   0.68429   0.70784   0.71082   0.72444
 Alpha virt. eigenvalues --    0.72963   0.74563   0.78998   0.79157   0.80981
 Alpha virt. eigenvalues --    0.81235   0.83019   0.86827   0.90764   0.92170
 Alpha virt. eigenvalues --    0.92428   0.95672   0.97931   0.98442   1.01609
 Alpha virt. eigenvalues --    1.05211   1.05469   1.08186   1.11808   1.14062
 Alpha virt. eigenvalues --    1.18894   1.22272   1.23221   1.33838   1.34915
 Alpha virt. eigenvalues --    1.38459   1.45200   1.48797   1.50996   1.53866
 Alpha virt. eigenvalues --    1.56596   1.57997   1.61385   1.66371   1.66833
 Alpha virt. eigenvalues --    1.70419   1.79348   1.83256   1.83419   1.87658
 Alpha virt. eigenvalues --    1.91159   1.95575   1.99112   2.00831   2.07526
 Alpha virt. eigenvalues --    2.11950   2.13312   2.14886   2.22320   2.26211
 Alpha virt. eigenvalues --    2.26392   2.28977   2.31421   2.34147   2.38605
 Alpha virt. eigenvalues --    2.42258   2.42881   2.45617   2.46573   2.47592
 Alpha virt. eigenvalues --    2.50190   2.58977   2.59492   2.61811   2.62638
 Alpha virt. eigenvalues --    2.63486   2.66511   2.76065   2.83118   2.86091
 Alpha virt. eigenvalues --    2.87808   2.89442   2.91254   2.96248   3.02352
 Alpha virt. eigenvalues --    3.07138   3.11792   3.20473   3.22912   3.31477
 Alpha virt. eigenvalues --    3.34478   3.51014   3.64741   3.83849   3.84475
 Alpha virt. eigenvalues --    4.14802   4.15954   4.18310   4.25734   4.35426
 Alpha virt. eigenvalues --    4.39300   4.46330   4.51836   4.66598   4.70955
 Alpha virt. eigenvalues --    4.80731   4.82113   4.82744   4.89515   5.02208
 Alpha virt. eigenvalues --    5.07829   5.10050   5.14288   5.18316   5.24112
 Alpha virt. eigenvalues --    5.27041   5.31097   5.32877   5.35767   5.60888
 Alpha virt. eigenvalues --    5.67361   5.75830   5.82911   5.95789   6.16782
 Alpha virt. eigenvalues --    6.30720   6.33962   6.39395   6.49168   6.50276
 Alpha virt. eigenvalues --    6.61268   6.66774   6.69544   6.75717   6.76204
 Alpha virt. eigenvalues --    6.82830   6.90195   7.01241   7.05504   7.05690
 Alpha virt. eigenvalues --    7.08866   7.12555   7.14792   7.18088   7.22440
 Alpha virt. eigenvalues --    7.24106   7.30697   7.32485   7.34787   7.39996
 Alpha virt. eigenvalues --    7.43219   7.48583   7.60681   7.61738   7.62800
 Alpha virt. eigenvalues --    7.66249   7.78291   7.89206   8.09201   8.31420
 Alpha virt. eigenvalues --    8.40916   8.54500  13.38222  14.40487  15.15625
 Alpha virt. eigenvalues --   16.15051
          Condensed to atoms (all electrons):
               1          2          3          4          5
     1  H    0.589457   0.128671   0.019932   0.012325  -0.000678
     2  O    0.128671   8.318867  -0.171948  -0.091356   0.015286
     3  O    0.019932  -0.171948   8.469700  -0.133896  -0.035296
     4  N    0.012325  -0.091356  -0.133896   6.979644  -0.057347
     5  O   -0.000678   0.015286  -0.035296  -0.057347   8.270946
 Mulliken charges:
               1
     1  H    0.250292
     2  O   -0.199521
     3  O   -0.148492
     4  N    0.290630
     5  O   -0.192910
 Sum of Mulliken charges =  -0.00000
 Mulliken charges with hydrogens summed into heavy atoms:
               1
     2  O    0.050772
     3  O   -0.148492
     4  N    0.290630
     5  O   -0.192910
 Electronic spatial extent (au):  <R**2>=            253.6775
 Charge=             -0.0000 electrons
 Dipole moment (field-independent basis, Debye):
    X=              0.5053    Y=              1.3731    Z=             -0.0000  Tot=              1.4631
 Quadrupole moment (field-independent basis, Debye-Ang):
   XX=            -22.4383   YY=            -18.6220   ZZ=            -22.0152
   XY=              3.2796   XZ=              0.0000   YZ=             -0.0000
 Traceless Quadrupole moment (field-independent basis, Debye-Ang):
   XX=             -1.4131   YY=              2.4031   ZZ=             -0.9900
   XY=              3.2796   XZ=              0.0000   YZ=             -0.0000
 Octapole moment (field-independent basis, Debye-Ang**2):
  XXX=              2.9106  YYY=             11.3149  ZZZ=              0.0000  XYY=              7.9390
  XXY=              6.5915  XXZ=             -0.0000  XZZ=             -1.5723  YZZ=             -0.8594
  YYZ=             -0.0000  XYZ=             -0.0000
 Hexadecapole moment (field-independent basis, Debye-Ang**3):
 XXXX=           -158.3137 YYYY=            -90.5529 ZZZZ=            -18.2556 XXXY=            -36.9010
 XXXZ=              0.0000 YYYX=            -30.9486 YYYZ=              0.0000 ZZZX=              0.0000
 ZZZY=              0.0000 XXYY=            -33.9670 XXZZ=            -30.8607 YYZZ=            -20.8235
 XXYZ=              0.0000 YYXZ=              0.0000 ZZXY=            -15.1639
 N-N= 1.167557954943D+02 E-N=-8.956125696985D+02  KE= 2.801912792203D+02
 Symmetry A'   KE= 2.662223435627D+02
 Symmetry A"   KE= 1.396893565761D+01
 No NMR shielding tensors so no spin-rotation constants.
 Leave Link  601 at Mon Feb 14 22:12:57 2022, MaxMem= 16106127360 cpu:               4.4 elap:               0.2
 (Enter /sw/contrib/gaussian/g16/B01/g16/l9999.exe)
 1\1\GINC-N2132\SP\RMP2-FC\Aug-CC-pVTZ\H1N1O3\CGAVINH\14-Feb-2022\0\\#p
  SP mp2/aug-cc-pvtz density=current\\title\\0,1\H\O,1,0.96897556\O,2,1
 .45491931,1,97.59494903\N,3,1.45878406,2,102.29752444,1,180.,0\O,4,1.1
 7072885,3,110.03374161,2,180.,0\\Version=ES64L-G16RevB.01\State=1-A'\H
 F=-279.5015479\MP2=-280.4466662\RMSD=3.837e-09\Dipole=-0.1441967,0.,-0
 .5572904\Quadrupole=-1.5042608,-0.7360749,2.2403357,0.,2.1100571,0.\PG
 =CS [SG(H1N1O3)]\\@


 KEEP CLOSE TO NATURES HEART, YOURSELF;
 AND BREAK CLEAR AWAY, ONCE IN A WHILE, AND
 CLIMB A MOUNTAIN OR SPEND A WEEK IN THE
 WOODS.  WASH YOUR SPIRIT CLEAN...
                                         -- JOHN MUIR
 Job cpu time:       0 days  0 hours  6 minutes 29.7 seconds.
 Elapsed time:       0 days  0 hours  0 minutes 17.9 seconds.
 File lengths (MBytes):  RWF=     22 Int=      0 D2E=      0 Chk=      8 Scr=      1
 Normal termination of Gaussian 16 at Mon Feb 14 22:12:57 2022.
