 Entering Gaussian System, Link 0=g16
 Input=hoono_r3_1p476855.gjf
 Output=hoono_r3_1p476855.log
 Initial command:
 /sw/contrib/gaussian/g16/B01/g16/l1.exe "/scr/Gau-11220.inp" -scrdir="/scr/"
 Entering Link 1 = /sw/contrib/gaussian/g16/B01/g16/l1.exe PID=     11221.
  
 Copyright (c) 1988-2017, Gaussian, Inc.  All Rights Reserved.
  
 This is part of the Gaussian(R) 16 program.  It is based on
 the Gaussian(R) 09 system (copyright 2009, Gaussian, Inc.),
 the Gaussian(R) 03 system (copyright 2003, Gaussian, Inc.),
 the Gaussian(R) 98 system (copyright 1998, Gaussian, Inc.),
 the Gaussian(R) 94 system (copyright 1995, Gaussian, Inc.),
 the Gaussian 92(TM) system (copyright 1992, Gaussian, Inc.),
 the Gaussian 90(TM) system (copyright 1990, Gaussian, Inc.),
 the Gaussian 88(TM) system (copyright 1988, Gaussian, Inc.),
 the Gaussian 86(TM) system (copyright 1986, Carnegie Mellon
 University), and the Gaussian 82(TM) system (copyright 1983,
 Carnegie Mellon University). Gaussian is a federally registered
 trademark of Gaussian, Inc.
  
 This software contains proprietary and confidential information,
 including trade secrets, belonging to Gaussian, Inc.
  
 This software is provided under written license and may be
 used, copied, transmitted, or stored only in accord with that
 written license.
  
 The following legend is applicable only to US Government
 contracts under FAR:
  
                    RESTRICTED RIGHTS LEGEND
  
 Use, reproduction and disclosure by the US Government is
 subject to restrictions as set forth in subparagraphs (a)
 and (c) of the Commercial Computer Software - Restricted
 Rights clause in FAR 52.227-19.
  
 Gaussian, Inc.
 340 Quinnipiac St., Bldg. 40, Wallingford CT 06492
  
  
 ---------------------------------------------------------------
 Warning -- This program may not be used in any manner that
 competes with the business of Gaussian, Inc. or will provide
 assistance to any competitor of Gaussian, Inc.  The licensee
 of this program is prohibited from giving any competitor of
 Gaussian, Inc. access to this program.  By using this program,
 the user acknowledges that Gaussian, Inc. is engaged in the
 business of creating and licensing software in the field of
 computational chemistry and represents and warrants to the
 licensee that it is not a competitor of Gaussian, Inc. and that
 it will not use this program in any manner prohibited above.
 ---------------------------------------------------------------
  

 Cite this work as:
 Gaussian 16, Revision B.01,
 M. J. Frisch, G. W. Trucks, H. B. Schlegel, G. E. Scuseria, 
 M. A. Robb, J. R. Cheeseman, G. Scalmani, V. Barone, 
 G. A. Petersson, H. Nakatsuji, X. Li, M. Caricato, A. V. Marenich, 
 J. Bloino, B. G. Janesko, R. Gomperts, B. Mennucci, H. P. Hratchian, 
 J. V. Ortiz, A. F. Izmaylov, J. L. Sonnenberg, D. Williams-Young, 
 F. Ding, F. Lipparini, F. Egidi, J. Goings, B. Peng, A. Petrone, 
 T. Henderson, D. Ranasinghe, V. G. Zakrzewski, J. Gao, N. Rega, 
 G. Zheng, W. Liang, M. Hada, M. Ehara, K. Toyota, R. Fukuda, 
 J. Hasegawa, M. Ishida, T. Nakajima, Y. Honda, O. Kitao, H. Nakai, 
 T. Vreven, K. Throssell, J. A. Montgomery, Jr., J. E. Peralta, 
 F. Ogliaro, M. J. Bearpark, J. J. Heyd, E. N. Brothers, K. N. Kudin, 
 V. N. Staroverov, T. A. Keith, R. Kobayashi, J. Normand, 
 K. Raghavachari, A. P. Rendell, J. C. Burant, S. S. Iyengar, 
 J. Tomasi, M. Cossi, J. M. Millam, M. Klene, C. Adamo, R. Cammi, 
 J. W. Ochterski, R. L. Martin, K. Morokuma, O. Farkas, 
 J. B. Foresman, and D. J. Fox, Gaussian, Inc., Wallingford CT, 2016.
 
 ******************************************
 Gaussian 16:  ES64L-G16RevB.01 20-Dec-2017
                14-Feb-2022 
 ******************************************
 %nproc=28
 Will use up to   28 processors via shared memory.
 %mem=120GB
 %chk=hoono_r3_1p476855.chk
 -------------------------------------
 #p SP mp2/aug-cc-pvtz density=current
 -------------------------------------
 1/30=1,38=1,172=1/1;
 2/12=2,17=6,18=5,40=1/2;
 3/5=16,6=1,7=10,11=9,25=1,30=1,71=1/1,2,3;
 4//1;
 5/5=2,38=5/2;
 8/6=4,10=1/1;
 9/15=1,16=-3/6;
 10/5=1,13=10/2;
 6/7=2,8=2,9=2,10=2,22=-1/1;
 99/5=1,9=1/99;
 Leave Link    1 at Mon Feb 14 22:10:14 2022, MaxMem= 16106127360 cpu:               3.6 elap:               0.1
 (Enter /sw/contrib/gaussian/g16/B01/g16/l101.exe)
 -----
 title
 -----
 Symbolic Z-matrix:
 Charge =  0 Multiplicity = 1
 H
 O                    1    r1
 O                    2    r2       1    a1
 N                    3    r3       2    a2       1    d1       0
 O                    4    r4       3    a3       2    d2       0
       Variables:
  r1                    0.96898                  
  r2                    1.45492                  
  r3                    1.47686                  
  r4                    1.17073                  
  a1                   97.59495                  
  a2                  102.29752                  
  a3                  109.06955                  
  d1                  180.                       
  d2                  180.                       
 
 ITRead=  0  0  0  0  0
 MicOpt= -1 -1 -1 -1 -1
 NAtoms=      5 NQM=        5 NQMF=       0 NMMI=      0 NMMIF=      0
                NMic=       0 NMicF=      0.
                    Isotopes and Nuclear Properties:
 (Nuclear quadrupole moments (NQMom) in fm**2, nuclear magnetic moments (NMagM)
  in nuclear magnetons)

  Atom         1           2           3           4           5
 IAtWgt=           1          16          16          14          16
 AtmWgt=   1.0078250  15.9949146  15.9949146  14.0030740  15.9949146
 NucSpn=           1           0           0           2           0
 AtZEff=  -0.0000000  -0.0000000  -0.0000000  -0.0000000  -0.0000000
 NQMom=    0.0000000   0.0000000   0.0000000   2.0440000   0.0000000
 NMagM=    2.7928460   0.0000000   0.0000000   0.4037610   0.0000000
 AtZNuc=   1.0000000   8.0000000   8.0000000   7.0000000   8.0000000
 Leave Link  101 at Mon Feb 14 22:10:14 2022, MaxMem= 16106127360 cpu:               2.9 elap:               0.1
 (Enter /sw/contrib/gaussian/g16/B01/g16/l202.exe)
                          Input orientation:                          
 ---------------------------------------------------------------------
 Center     Atomic      Atomic             Coordinates (Angstroms)
 Number     Number       Type             X           Y           Z
 ---------------------------------------------------------------------
      1          1           0        0.000000    0.000000    0.000000
      2          8           0        0.000000    0.000000    0.968976
      3          8           0        1.442156    0.000000    1.161271
      4          7           0        1.563233    0.000000    2.633155
      5          8           0        2.697349    0.000000    2.923649
 ---------------------------------------------------------------------
                    Distance matrix (angstroms):
                    1          2          3          4          5
     1  H    0.000000
     2  O    0.968976   0.000000
     3  O    1.851584   1.454919   0.000000
     4  N    3.062222   2.283241   1.476855   0.000000
     5  O    3.977866   3.331132   2.163675   1.170729   0.000000
 Stoichiometry    HNO3
 Framework group  CS[SG(HNO3)]
 Deg. of freedom     7
 Full point group                 CS      NOp   2
 Largest Abelian subgroup         CS      NOp   2
 Largest concise Abelian subgroup C1      NOp   1
                         Standard orientation:                         
 ---------------------------------------------------------------------
 Center     Atomic      Atomic             Coordinates (Angstroms)
 Number     Number       Type             X           Y           Z
 ---------------------------------------------------------------------
      1          1           0        1.546846    1.699003    0.000000
      2          8           0        1.453948    0.734491    0.000000
      3          8           0        0.000000    0.681344    0.000000
      4          7           0       -0.261633   -0.772151   -0.000000
      5          8           0       -1.418375   -0.952578   -0.000000
 ---------------------------------------------------------------------
 Rotational constants (GHZ):          54.1972047           4.9654260           4.5486857
 Leave Link  202 at Mon Feb 14 22:10:14 2022, MaxMem= 16106127360 cpu:               1.4 elap:               0.1
 (Enter /sw/contrib/gaussian/g16/B01/g16/l301.exe)
 Standard basis: Aug-CC-pVTZ (5D, 7F)
 Ernie: Thresh=  0.10000D-02 Tol=  0.10000D-05 Strict=F.
 Ernie:  12 primitive shells out of 131 were deleted.
 There are   166 symmetry adapted cartesian basis functions of A'  symmetry.
 There are    79 symmetry adapted cartesian basis functions of A"  symmetry.
 There are   136 symmetry adapted basis functions of A'  symmetry.
 There are    71 symmetry adapted basis functions of A"  symmetry.
   207 basis functions,   315 primitive gaussians,   245 cartesian basis functions
    16 alpha electrons       16 beta electrons
       nuclear repulsion energy       116.3834787572 Hartrees.
 IExCor=    0 DFT=F Ex=HF Corr=None ExCW=0 ScaHFX=  1.000000
 ScaDFX=  1.000000  1.000000  1.000000  1.000000 ScalE2=  1.000000  1.000000
 IRadAn=      5 IRanWt=     -1 IRanGd=            0 ICorTp=0 IEmpDi=  4
 NAtoms=    5 NActive=    5 NUniq=    5 SFac= 1.00D+00 NAtFMM=   60 NAOKFM=F Big=F
 Integral buffers will be    131072 words long.
 Raffenetti 1 integral format.
 Two-electron integral symmetry is turned on.
 Leave Link  301 at Mon Feb 14 22:10:14 2022, MaxMem= 16106127360 cpu:               1.9 elap:               0.1
 (Enter /sw/contrib/gaussian/g16/B01/g16/l302.exe)
 NPDir=0 NMtPBC=     1 NCelOv=     1 NCel=       1 NClECP=     1 NCelD=      1
         NCelK=      1 NCelE2=     1 NClLst=     1 CellRange=     0.0.
 One-electron integrals computed using PRISM.
 One-electron integral symmetry used in STVInt
 NBasis=   207 RedAO= T EigKep=  1.84D-04  NBF=   136    71
 NBsUse=   207 1.00D-06 EigRej= -1.00D+00 NBFU=   136    71
 Leave Link  302 at Mon Feb 14 22:10:14 2022, MaxMem= 16106127360 cpu:               6.3 elap:               0.3
 (Enter /sw/contrib/gaussian/g16/B01/g16/l303.exe)
 DipDrv:  MaxL=1.
 Leave Link  303 at Mon Feb 14 22:10:14 2022, MaxMem= 16106127360 cpu:               1.6 elap:               0.1
 (Enter /sw/contrib/gaussian/g16/B01/g16/l401.exe)
 ExpMin= 2.53D-02 ExpMax= 1.53D+04 ExpMxC= 5.22D+02 IAcc=3 IRadAn=         5 AccDes= 0.00D+00
 Harris functional with IExCor=  205 and IRadAn=       5 diagonalized for initial guess.
 HarFok:  IExCor=  205 AccDes= 0.00D+00 IRadAn=         5 IDoV= 1 UseB2=F ITyADJ=14
 ICtDFT=  3500011 ScaDFX=  1.000000  1.000000  1.000000  1.000000
 FoFCou: FMM=F IPFlag=           0 FMFlag=      100000 FMFlg1=           0
         NFxFlg=           0 DoJE=T BraDBF=F KetDBF=T FulRan=T
         wScrn=  0.000000 ICntrl=       500 IOpCl=  0 I1Cent=   200000004 NGrid=           0
         NMat0=    1 NMatS0=      1 NMatT0=    0 NMatD0=    1 NMtDS0=    0 NMtDT0=    0
 Petite list used in FoFCou.
 Harris En= -279.627969947820    
 JPrj=0 DoOrth=F DoCkMO=F.
 Initial guess orbital symmetries:
       Occupied  (A') (A') (A') (A') (A') (A') (A') (A') (A') (A')
                 (A") (A') (A') (A") (A") (A')
       Virtual   (A") (A') (A') (A') (A') (A') (A") (A') (A') (A')
                 (A") (A') (A") (A') (A') (A") (A') (A") (A') (A')
                 (A') (A') (A') (A') (A') (A") (A') (A") (A') (A')
                 (A") (A') (A") (A') (A') (A") (A') (A") (A') (A')
                 (A") (A') (A") (A') (A") (A') (A') (A') (A") (A")
                 (A') (A') (A') (A') (A") (A') (A") (A') (A") (A')
                 (A') (A') (A") (A') (A') (A") (A') (A") (A') (A')
                 (A") (A') (A') (A") (A") (A') (A') (A") (A') (A')
                 (A') (A") (A') (A") (A') (A") (A') (A") (A') (A')
                 (A') (A") (A') (A") (A') (A") (A") (A') (A') (A')
                 (A") (A') (A") (A') (A') (A') (A') (A") (A") (A')
                 (A") (A') (A') (A') (A") (A') (A') (A') (A") (A')
                 (A") (A') (A') (A") (A") (A') (A') (A") (A") (A')
                 (A') (A') (A') (A") (A") (A') (A") (A') (A') (A')
                 (A') (A") (A") (A') (A') (A") (A') (A') (A') (A')
                 (A") (A') (A') (A") (A') (A") (A') (A") (A") (A')
                 (A') (A") (A') (A") (A') (A") (A") (A") (A') (A')
                 (A") (A') (A") (A') (A") (A') (A") (A") (A') (A')
                 (A') (A') (A') (A') (A') (A') (A') (A') (A') (A')
                 (A')
 The electronic state of the initial guess is 1-A'.
 Leave Link  401 at Mon Feb 14 22:10:15 2022, MaxMem= 16106127360 cpu:               7.3 elap:               0.3
 (Enter /sw/contrib/gaussian/g16/B01/g16/l502.exe)
 Keep R1 ints in memory in symmetry-blocked form, NReq=348887737.
 FoFCou: FMM=F IPFlag=           0 FMFlag=           0 FMFlg1=           0
         NFxFlg=           0 DoJE=F BraDBF=F KetDBF=F FulRan=T
         wScrn=  0.000000 ICntrl=       600 IOpCl=  0 I1Cent=           0 NGrid=           0
         NMat0=    1 NMatS0=  21528 NMatT0=    0 NMatD0=    1 NMtDS0=    0 NMtDT0=    0
 Petite list used in FoFCou.
 Closed shell SCF:
 Using DIIS extrapolation, IDIIS=  1040.
 NGot= 16106127360 LenX= 15988850015 LenY= 15988789549
 Requested convergence on RMS density matrix=1.00D-08 within 128 cycles.
 Requested convergence on MAX density matrix=1.00D-06.
 Requested convergence on             energy=1.00D-06.
 No special actions if energy rises.

 Cycle   1  Pass 1  IDiag  1:
 E= -279.370506415942    
 DIIS: error= 2.73D-02 at cycle   1 NSaved=   1.
 NSaved= 1 IEnMin= 1 EnMin= -279.370506415942     IErMin= 1 ErrMin= 2.73D-02
 ErrMax= 2.73D-02  0.00D+00 EMaxC= 1.00D-01 BMatC= 4.36D-01 BMatP= 4.36D-01
 IDIUse=3 WtCom= 7.27D-01 WtEn= 2.73D-01
 Coeff-Com:  0.100D+01
 Coeff-En:   0.100D+01
 Coeff:      0.100D+01
 Gap=     0.504 Goal=   None    Shift=    0.000
 GapD=    0.504 DampG=2.000 DampE=0.500 DampFc=1.0000 IDamp=-1.
 RMSDP=1.61D-03 MaxDP=1.01D-01              OVMax= 1.09D-01

 Cycle   2  Pass 1  IDiag  1:
 E= -279.452778508299     Delta-E=       -0.082272092357 Rises=F Damp=F
 DIIS: error= 1.77D-02 at cycle   2 NSaved=   2.
 NSaved= 2 IEnMin= 2 EnMin= -279.452778508299     IErMin= 2 ErrMin= 1.77D-02
 ErrMax= 1.77D-02  0.00D+00 EMaxC= 1.00D-01 BMatC= 6.82D-02 BMatP= 4.36D-01
 IDIUse=3 WtCom= 8.23D-01 WtEn= 1.77D-01
 Coeff-Com:  0.188D+00 0.812D+00
 Coeff-En:   0.000D+00 0.100D+01
 Coeff:      0.155D+00 0.845D+00
 Gap=     0.526 Goal=   None    Shift=    0.000
 RMSDP=8.82D-04 MaxDP=3.67D-02 DE=-8.23D-02 OVMax= 7.06D-02

 Cycle   3  Pass 1  IDiag  1:
 E= -279.480241015296     Delta-E=       -0.027462506997 Rises=F Damp=F
 DIIS: error= 1.06D-02 at cycle   3 NSaved=   3.
 NSaved= 3 IEnMin= 3 EnMin= -279.480241015296     IErMin= 3 ErrMin= 1.06D-02
 ErrMax= 1.06D-02  0.00D+00 EMaxC= 1.00D-01 BMatC= 2.79D-02 BMatP= 6.82D-02
 IDIUse=3 WtCom= 8.94D-01 WtEn= 1.06D-01
 Coeff-Com: -0.325D-01 0.381D+00 0.652D+00
 Coeff-En:   0.000D+00 0.244D+00 0.756D+00
 Coeff:     -0.290D-01 0.366D+00 0.663D+00
 Gap=     0.510 Goal=   None    Shift=    0.000
 RMSDP=3.72D-04 MaxDP=1.58D-02 DE=-2.75D-02 OVMax= 3.64D-02

 Cycle   4  Pass 1  IDiag  1:
 E= -279.498744385255     Delta-E=       -0.018503369959 Rises=F Damp=F
 DIIS: error= 1.32D-03 at cycle   4 NSaved=   4.
 NSaved= 4 IEnMin= 4 EnMin= -279.498744385255     IErMin= 4 ErrMin= 1.32D-03
 ErrMax= 1.32D-03  0.00D+00 EMaxC= 1.00D-01 BMatC= 5.14D-04 BMatP= 2.79D-02
 IDIUse=3 WtCom= 9.87D-01 WtEn= 1.32D-02
 Coeff-Com: -0.120D-01 0.633D-01 0.167D+00 0.781D+00
 Coeff-En:   0.000D+00 0.000D+00 0.000D+00 0.100D+01
 Coeff:     -0.119D-01 0.625D-01 0.165D+00 0.784D+00
 Gap=     0.502 Goal=   None    Shift=    0.000
 RMSDP=9.04D-05 MaxDP=2.83D-03 DE=-1.85D-02 OVMax= 1.15D-02

 Cycle   5  Pass 1  IDiag  1:
 E= -279.499440042292     Delta-E=       -0.000695657037 Rises=F Damp=F
 DIIS: error= 7.68D-04 at cycle   5 NSaved=   5.
 NSaved= 5 IEnMin= 5 EnMin= -279.499440042292     IErMin= 5 ErrMin= 7.68D-04
 ErrMax= 7.68D-04  0.00D+00 EMaxC= 1.00D-01 BMatC= 9.05D-05 BMatP= 5.14D-04
 IDIUse=3 WtCom= 9.92D-01 WtEn= 7.68D-03
 Coeff-Com:  0.626D-02-0.747D-01-0.122D+00 0.129D-01 0.118D+01
 Coeff-En:   0.000D+00 0.000D+00 0.000D+00 0.000D+00 0.100D+01
 Coeff:      0.621D-02-0.741D-01-0.121D+00 0.128D-01 0.118D+01
 Gap=     0.502 Goal=   None    Shift=    0.000
 RMSDP=7.87D-05 MaxDP=2.15D-03 DE=-6.96D-04 OVMax= 1.14D-02

 Cycle   6  Pass 1  IDiag  1:
 E= -279.499774111210     Delta-E=       -0.000334068918 Rises=F Damp=F
 DIIS: error= 2.85D-04 at cycle   6 NSaved=   6.
 NSaved= 6 IEnMin= 6 EnMin= -279.499774111210     IErMin= 6 ErrMin= 2.85D-04
 ErrMax= 2.85D-04  0.00D+00 EMaxC= 1.00D-01 BMatC= 1.73D-05 BMatP= 9.05D-05
 IDIUse=3 WtCom= 9.97D-01 WtEn= 2.85D-03
 Coeff-Com:  0.652D-03 0.107D-02 0.391D-02-0.125D+00-0.239D+00 0.136D+01
 Coeff-En:   0.000D+00 0.000D+00 0.000D+00 0.000D+00 0.000D+00 0.100D+01
 Coeff:      0.650D-03 0.106D-02 0.389D-02-0.125D+00-0.239D+00 0.136D+01
 Gap=     0.502 Goal=   None    Shift=    0.000
 RMSDP=4.69D-05 MaxDP=1.30D-03 DE=-3.34D-04 OVMax= 5.68D-03

 Cycle   7  Pass 1  IDiag  1:
 E= -279.499851706907     Delta-E=       -0.000077595697 Rises=F Damp=F
 DIIS: error= 1.36D-04 at cycle   7 NSaved=   7.
 NSaved= 7 IEnMin= 7 EnMin= -279.499851706907     IErMin= 7 ErrMin= 1.36D-04
 ErrMax= 1.36D-04  0.00D+00 EMaxC= 1.00D-01 BMatC= 4.98D-06 BMatP= 1.73D-05
 IDIUse=3 WtCom= 9.99D-01 WtEn= 1.36D-03
 Coeff-Com: -0.962D-03 0.142D-01 0.278D-01-0.243D-01-0.302D+00 0.421D+00
 Coeff-Com:  0.864D+00
 Coeff-En:   0.000D+00 0.000D+00 0.000D+00 0.000D+00 0.000D+00 0.000D+00
 Coeff-En:   0.100D+01
 Coeff:     -0.961D-03 0.142D-01 0.278D-01-0.243D-01-0.301D+00 0.421D+00
 Coeff:      0.864D+00
 Gap=     0.502 Goal=   None    Shift=    0.000
 RMSDP=1.38D-05 MaxDP=3.95D-04 DE=-7.76D-05 OVMax= 1.60D-03

 Cycle   8  Pass 1  IDiag  1:
 E= -279.499861405194     Delta-E=       -0.000009698288 Rises=F Damp=F
 DIIS: error= 5.83D-05 at cycle   8 NSaved=   8.
 NSaved= 8 IEnMin= 8 EnMin= -279.499861405194     IErMin= 8 ErrMin= 5.83D-05
 ErrMax= 5.83D-05  0.00D+00 EMaxC= 1.00D-01 BMatC= 6.47D-07 BMatP= 4.98D-06
 IDIUse=1 WtCom= 1.00D+00 WtEn= 0.00D+00
 Coeff-Com: -0.475D-03 0.370D-02 0.816D-02 0.277D-01-0.406D-01-0.201D+00
 Coeff-Com:  0.153D+00 0.105D+01
 Coeff:     -0.475D-03 0.370D-02 0.816D-02 0.277D-01-0.406D-01-0.201D+00
 Coeff:      0.153D+00 0.105D+01
 Gap=     0.502 Goal=   None    Shift=    0.000
 RMSDP=7.41D-06 MaxDP=2.12D-04 DE=-9.70D-06 OVMax= 8.28D-04

 Cycle   9  Pass 1  IDiag  1:
 E= -279.499863370227     Delta-E=       -0.000001965033 Rises=F Damp=F
 DIIS: error= 1.58D-05 at cycle   9 NSaved=   9.
 NSaved= 9 IEnMin= 9 EnMin= -279.499863370227     IErMin= 9 ErrMin= 1.58D-05
 ErrMax= 1.58D-05  0.00D+00 EMaxC= 1.00D-01 BMatC= 7.05D-08 BMatP= 6.47D-07
 IDIUse=1 WtCom= 1.00D+00 WtEn= 0.00D+00
 Coeff-Com:  0.133D-03-0.183D-02-0.331D-02-0.282D-02 0.351D-01 0.363D-02
 Coeff-Com: -0.161D+00-0.130D+00 0.126D+01
 Coeff:      0.133D-03-0.183D-02-0.331D-02-0.282D-02 0.351D-01 0.363D-02
 Coeff:     -0.161D+00-0.130D+00 0.126D+01
 Gap=     0.502 Goal=   None    Shift=    0.000
 RMSDP=2.00D-06 MaxDP=6.82D-05 DE=-1.97D-06 OVMax= 1.77D-04

 Cycle  10  Pass 1  IDiag  1:
 E= -279.499863536178     Delta-E=       -0.000000165951 Rises=F Damp=F
 DIIS: error= 4.18D-06 at cycle  10 NSaved=  10.
 NSaved=10 IEnMin=10 EnMin= -279.499863536178     IErMin=10 ErrMin= 4.18D-06
 ErrMax= 4.18D-06  0.00D+00 EMaxC= 1.00D-01 BMatC= 5.46D-09 BMatP= 7.05D-08
 IDIUse=1 WtCom= 1.00D+00 WtEn= 0.00D+00
 Coeff-Com:  0.290D-04-0.221D-03-0.278D-03-0.254D-02 0.104D-02 0.187D-01
 Coeff-Com: -0.866D-02-0.709D-01-0.907D-01 0.115D+01
 Coeff:      0.290D-04-0.221D-03-0.278D-03-0.254D-02 0.104D-02 0.187D-01
 Coeff:     -0.866D-02-0.709D-01-0.907D-01 0.115D+01
 Gap=     0.502 Goal=   None    Shift=    0.000
 RMSDP=4.99D-07 MaxDP=2.08D-05 DE=-1.66D-07 OVMax= 3.96D-05

 Cycle  11  Pass 1  IDiag  1:
 E= -279.499863548320     Delta-E=       -0.000000012142 Rises=F Damp=F
 DIIS: error= 2.03D-06 at cycle  11 NSaved=  11.
 NSaved=11 IEnMin=11 EnMin= -279.499863548320     IErMin=11 ErrMin= 2.03D-06
 ErrMax= 2.03D-06  0.00D+00 EMaxC= 1.00D-01 BMatC= 6.44D-10 BMatP= 5.46D-09
 IDIUse=1 WtCom= 1.00D+00 WtEn= 0.00D+00
 Coeff-Com: -0.214D-04 0.247D-03 0.496D-03 0.534D-03-0.415D-02-0.360D-02
 Coeff-Com:  0.195D-01 0.316D-01-0.137D+00-0.161D+00 0.125D+01
 Coeff:     -0.214D-04 0.247D-03 0.496D-03 0.534D-03-0.415D-02-0.360D-02
 Coeff:      0.195D-01 0.316D-01-0.137D+00-0.161D+00 0.125D+01
 Gap=     0.502 Goal=   None    Shift=    0.000
 RMSDP=1.72D-07 MaxDP=6.14D-06 DE=-1.21D-08 OVMax= 1.73D-05

 Cycle  12  Pass 1  IDiag  1:
 E= -279.499863550057     Delta-E=       -0.000000001737 Rises=F Damp=F
 DIIS: error= 6.06D-07 at cycle  12 NSaved=  12.
 NSaved=12 IEnMin=12 EnMin= -279.499863550057     IErMin=12 ErrMin= 6.06D-07
 ErrMax= 6.06D-07  0.00D+00 EMaxC= 1.00D-01 BMatC= 7.48D-11 BMatP= 6.44D-10
 IDIUse=1 WtCom= 1.00D+00 WtEn= 0.00D+00
 Coeff-Com:  0.141D-05-0.313D-04-0.679D-04 0.156D-03 0.113D-02-0.225D-02
 Coeff-Com: -0.415D-02 0.502D-02 0.420D-01-0.121D+00-0.272D+00 0.135D+01
 Coeff:      0.141D-05-0.313D-04-0.679D-04 0.156D-03 0.113D-02-0.225D-02
 Coeff:     -0.415D-02 0.502D-02 0.420D-01-0.121D+00-0.272D+00 0.135D+01
 Gap=     0.502 Goal=   None    Shift=    0.000
 RMSDP=7.18D-08 MaxDP=2.81D-06 DE=-1.74D-09 OVMax= 7.00D-06

 Cycle  13  Pass 1  IDiag  1:
 E= -279.499863550295     Delta-E=       -0.000000000238 Rises=F Damp=F
 DIIS: error= 1.78D-07 at cycle  13 NSaved=  13.
 NSaved=13 IEnMin=13 EnMin= -279.499863550295     IErMin=13 ErrMin= 1.78D-07
 ErrMax= 1.78D-07  0.00D+00 EMaxC= 1.00D-01 BMatC= 4.51D-12 BMatP= 7.48D-11
 IDIUse=1 WtCom= 1.00D+00 WtEn= 0.00D+00
 Coeff-Com:  0.133D-05-0.145D-04-0.232D-04-0.899D-04 0.111D-03 0.797D-03
 Coeff-Com: -0.743D-03-0.343D-02 0.484D-03 0.439D-01-0.392D-01-0.344D+00
 Coeff-Com:  0.134D+01
 Coeff:      0.133D-05-0.145D-04-0.232D-04-0.899D-04 0.111D-03 0.797D-03
 Coeff:     -0.743D-03-0.343D-02 0.484D-03 0.439D-01-0.392D-01-0.344D+00
 Coeff:      0.134D+01
 Gap=     0.502 Goal=   None    Shift=    0.000
 RMSDP=2.02D-08 MaxDP=6.18D-07 DE=-2.38D-10 OVMax= 1.78D-06

 Cycle  14  Pass 1  IDiag  1:
 E= -279.499863550311     Delta-E=       -0.000000000016 Rises=F Damp=F
 DIIS: error= 2.70D-08 at cycle  14 NSaved=  14.
 NSaved=14 IEnMin=14 EnMin= -279.499863550311     IErMin=14 ErrMin= 2.70D-08
 ErrMax= 2.70D-08  0.00D+00 EMaxC= 1.00D-01 BMatC= 2.26D-13 BMatP= 4.51D-12
 IDIUse=1 WtCom= 1.00D+00 WtEn= 0.00D+00
 Coeff-Com: -0.215D-06 0.348D-05 0.630D-05 0.589D-05-0.878D-04 0.429D-04
 Coeff-Com:  0.278D-03 0.279D-03-0.258D-02 0.167D-02 0.178D-01-0.249D-01
 Coeff-Com: -0.210D+00 0.122D+01
 Coeff:     -0.215D-06 0.348D-05 0.630D-05 0.589D-05-0.878D-04 0.429D-04
 Coeff:      0.278D-03 0.279D-03-0.258D-02 0.167D-02 0.178D-01-0.249D-01
 Coeff:     -0.210D+00 0.122D+01
 Gap=     0.502 Goal=   None    Shift=    0.000
 RMSDP=4.05D-09 MaxDP=1.01D-07 DE=-1.57D-11 OVMax= 3.72D-07

 SCF Done:  E(RHF) =  -279.499863550     A.U. after   14 cycles
            NFock= 14  Conv=0.41D-08     -V/T= 2.0024
 KE= 2.788167896060D+02 PE=-8.940889295879D+02 EE= 2.193887976744D+02
 Leave Link  502 at Mon Feb 14 22:10:18 2022, MaxMem= 16106127360 cpu:              55.9 elap:               3.7
 (Enter /sw/contrib/gaussian/g16/B01/g16/l801.exe)
 ExpMin= 2.53D-02 ExpMax= 1.53D+04 ExpMxC= 5.22D+02 IAcc=3 IRadAn=         5 AccDes= 0.00D+00
 HarFok:  IExCor=  205 AccDes= 0.00D+00 IRadAn=         5 IDoV=-2 UseB2=F ITyADJ=14
 ICtDFT= 12500011 ScaDFX=  1.000000  1.000000  1.000000  1.000000
 Largest valence mixing into a core orbital is  2.09D-04
 Largest core mixing into a valence orbital is  3.69D-05
 Range of M.O.s used for correlation:     5   207
 NBasis=   207 NAE=    16 NBE=    16 NFC=     4 NFV=     0
 NROrb=    203 NOA=    12 NOB=    12 NVA=   191 NVB=   191

 **** Warning!!: The largest alpha MO coefficient is  0.17349181D+02

 Leave Link  801 at Mon Feb 14 22:10:18 2022, MaxMem= 16106127360 cpu:               2.5 elap:               0.1
 (Enter /sw/contrib/gaussian/g16/B01/g16/l906.exe)
 Frozen-core derivative calculation, NFC=   4 NFV=   0.
 FulOut=F Deriv=T AODrv=F NAtomX=     5
   MMem=          76  MDisk=          12 MDiskD=          12
  W3Min=      811440 MinDsk=     1524655 NBas6D=         245
 NBas2D=       30762    NTT=       30135    LW2=     3500000
    MDV= 16105579997 MDiskM=      328644 NBas2p=       30466
 Fully in-core method, ICMem=   960157634.
 IMap=   1   2   3   4   5   6   7   8   9  10  11  12  13  14  15  16
 JobTyp=1 Pass  1 fully in-core, NPsUse= 28.
 Compute canonical integrals.
 FoFCou: FMM=F IPFlag=           0 FMFlag=           0 FMFlg1=           0
         NFxFlg=           0 DoJE=F BraDBF=F KetDBF=F FulRan=T
         wScrn=  0.000000 ICntrl=       600 IOpCl=  1 I1Cent=           0 NGrid=           0
         NMat0=    1 NMatS0=  30762 NMatT0=    0 NMatD0=    1 NMtDS0=    0 NMtDT0=    0
 Symmetry not used in FoFCou.
 Spin components of T(2) and E(2):
     alpha-alpha T2 =       0.3424282366D-01 E2=     -0.1226131289D+00
     alpha-beta  T2 =       0.1881324545D+00 E2=     -0.7015765921D+00
     beta-beta   T2 =       0.3424282366D-01 E2=     -0.1226131289D+00
 The integrals were generated   1 times.
 ANorm=    0.1120989787D+01
 E2 =    -0.9468028499D+00 EUMP2 =    -0.28044666640020D+03
 Leave Link  906 at Mon Feb 14 22:10:27 2022, MaxMem= 16106127360 cpu:             242.4 elap:               8.7
 (Enter /sw/contrib/gaussian/g16/B01/g16/l1002.exe)
 Minotr:  Closed shell wavefunction.
          Computing MP2/KS-MP2 derivatives.
          Using Z-Vector for PSCF gradient.
          Skipping F1 and S1 gradient terms here.
          Frozen-core window.
          Direct CPHF calculation.
          Differentiating once with respect to electric field.
                with respect to dipole field.
          Electric field/nuclear overlap derivatives assumed to be zero.
          Using symmetry in CPHF.
          Requested convergence is 1.0D-10 RMS, and 1.0D-09 maximum.
          NewPWx=F KeepS1=T KeepF1=T KeepIn=T MapXYZ=F SortEE=F KeepMc=T.
 Keep R1 ints in memory in symmetry-blocked form, NReq=348888868.
 FoFCou: FMM=F IPFlag=           0 FMFlag=           0 FMFlg1=           0
         NFxFlg=           0 DoJE=F BraDBF=F KetDBF=F FulRan=T
         wScrn=  0.000000 ICntrl=       600 IOpCl=  0 I1Cent=           0 NGrid=           0
         NMat0=    1 NMatS0=  21528 NMatT0=    0 NMatD0=    1 NMtDS0=    0 NMtDT0=    0
 Petite list used in FoFCou.
          MDV=   16106127360 using IRadAn=       5.
          Solving linear equations separately, MaxMat=       0.
          There are     1 degrees of freedom in the 1st order CPHF.  IDoFFX=0 NUNeed=     1.
 LinEq1:  Iter=  0 NonCon=     1 RMS=6.02D-03 Max=1.32D-01 NDo=     1
 AX will form     1 AO Fock derivatives at one time.
 LinEq1:  Iter=  1 NonCon=     1 RMS=1.96D-03 Max=3.95D-02 NDo=     1
 LinEq1:  Iter=  2 NonCon=     1 RMS=8.95D-04 Max=1.47D-02 NDo=     1
 LinEq1:  Iter=  3 NonCon=     1 RMS=4.00D-04 Max=7.83D-03 NDo=     1
 LinEq1:  Iter=  4 NonCon=     1 RMS=1.23D-04 Max=1.93D-03 NDo=     1
 LinEq1:  Iter=  5 NonCon=     1 RMS=4.67D-05 Max=7.41D-04 NDo=     1
 LinEq1:  Iter=  6 NonCon=     1 RMS=2.08D-05 Max=2.42D-04 NDo=     1
 LinEq1:  Iter=  7 NonCon=     1 RMS=8.46D-06 Max=1.71D-04 NDo=     1
 LinEq1:  Iter=  8 NonCon=     1 RMS=3.58D-06 Max=3.67D-05 NDo=     1
 LinEq1:  Iter=  9 NonCon=     1 RMS=9.78D-07 Max=1.44D-05 NDo=     1
 LinEq1:  Iter= 10 NonCon=     1 RMS=1.96D-07 Max=2.23D-06 NDo=     1
 LinEq1:  Iter= 11 NonCon=     1 RMS=3.71D-08 Max=4.20D-07 NDo=     1
 LinEq1:  Iter= 12 NonCon=     1 RMS=8.95D-09 Max=1.39D-07 NDo=     1
 LinEq1:  Iter= 13 NonCon=     1 RMS=1.59D-09 Max=2.83D-08 NDo=     1
 LinEq1:  Iter= 14 NonCon=     1 RMS=2.92D-10 Max=4.29D-09 NDo=     1
 LinEq1:  Iter= 15 NonCon=     0 RMS=5.25D-11 Max=6.16D-10 NDo=     1
 Linear equations converged to 1.000D-10 1.000D-09 after    15 iterations.
 End of Minotr F.D. properties file   721 does not exist.
 End of Minotr F.D. properties file   722 does not exist.
 End of Minotr F.D. properties file   788 does not exist.
 Leave Link 1002 at Mon Feb 14 22:10:31 2022, MaxMem= 16106127360 cpu:              52.9 elap:               3.9
 (Enter /sw/contrib/gaussian/g16/B01/g16/l601.exe)
 Copying SCF densities to generalized density rwf, IOpCl= 0 IROHF=0.

 **********************************************************************

            Population analysis using the MP2 Density.

 **********************************************************************

 Orbital symmetries:
       Occupied  (A') (A') (A') (A') (A') (A') (A') (A') (A') (A')
                 (A") (A') (A") (A') (A") (A')
       Virtual   (A') (A") (A') (A') (A") (A') (A') (A') (A") (A')
                 (A") (A') (A') (A') (A") (A') (A') (A") (A') (A')
                 (A') (A') (A') (A') (A") (A') (A') (A") (A') (A')
                 (A") (A') (A") (A') (A') (A") (A') (A') (A") (A')
                 (A") (A') (A") (A') (A') (A") (A') (A') (A") (A')
                 (A") (A') (A') (A') (A") (A') (A") (A') (A") (A')
                 (A') (A') (A") (A') (A') (A") (A') (A") (A') (A')
                 (A") (A') (A') (A") (A") (A') (A') (A") (A') (A')
                 (A') (A") (A') (A") (A') (A") (A') (A") (A') (A')
                 (A") (A') (A') (A") (A') (A") (A') (A") (A') (A')
                 (A") (A') (A") (A') (A') (A") (A') (A') (A") (A')
                 (A") (A') (A') (A') (A") (A') (A') (A') (A") (A')
                 (A") (A') (A") (A') (A') (A") (A") (A') (A") (A')
                 (A') (A') (A') (A") (A") (A") (A') (A') (A') (A')
                 (A") (A') (A") (A') (A') (A") (A') (A') (A') (A')
                 (A") (A') (A') (A") (A') (A") (A') (A") (A') (A")
                 (A') (A") (A') (A') (A") (A") (A") (A') (A") (A')
                 (A") (A') (A") (A') (A") (A') (A") (A") (A') (A')
                 (A') (A') (A') (A') (A') (A') (A') (A') (A') (A')
                 (A')
 The electronic state is 1-A'.
 Alpha  occ. eigenvalues --  -20.68857 -20.68783 -20.65777 -15.81575  -1.62335
 Alpha  occ. eigenvalues --   -1.49312  -1.24901  -0.94950  -0.77136  -0.75715
 Alpha  occ. eigenvalues --   -0.70885  -0.68029  -0.62134  -0.58845  -0.48331
 Alpha  occ. eigenvalues --   -0.47164
 Alpha virt. eigenvalues --    0.03012   0.06935   0.08560   0.10151   0.13385
 Alpha virt. eigenvalues --    0.13408   0.14446   0.15489   0.17865   0.19409
 Alpha virt. eigenvalues --    0.19972   0.20375   0.22129   0.23621   0.23717
 Alpha virt. eigenvalues --    0.26563   0.28646   0.30428   0.30985   0.34209
 Alpha virt. eigenvalues --    0.34910   0.38691   0.42266   0.43227   0.52644
 Alpha virt. eigenvalues --    0.52846   0.55655   0.58066   0.62463   0.63725
 Alpha virt. eigenvalues --    0.67382   0.68450   0.70700   0.71152   0.72432
 Alpha virt. eigenvalues --    0.73067   0.74534   0.79042   0.79270   0.80960
 Alpha virt. eigenvalues --    0.81400   0.82977   0.86686   0.90822   0.92263
 Alpha virt. eigenvalues --    0.92499   0.95831   0.97499   0.98537   1.01800
 Alpha virt. eigenvalues --    1.05125   1.05388   1.08074   1.11627   1.13943
 Alpha virt. eigenvalues --    1.18856   1.22022   1.23222   1.33683   1.34705
 Alpha virt. eigenvalues --    1.38814   1.45067   1.48767   1.50965   1.53683
 Alpha virt. eigenvalues --    1.56474   1.57638   1.61234   1.66269   1.66961
 Alpha virt. eigenvalues --    1.70153   1.79301   1.83031   1.83164   1.87879
 Alpha virt. eigenvalues --    1.90790   1.95594   1.98856   2.00357   2.07209
 Alpha virt. eigenvalues --    2.11886   2.12952   2.15217   2.22093   2.26307
 Alpha virt. eigenvalues --    2.26609   2.28761   2.31385   2.33960   2.38613
 Alpha virt. eigenvalues --    2.42170   2.42458   2.45234   2.46092   2.47361
 Alpha virt. eigenvalues --    2.49860   2.59116   2.59524   2.61656   2.62315
 Alpha virt. eigenvalues --    2.63604   2.66577   2.75452   2.81615   2.84758
 Alpha virt. eigenvalues --    2.87763   2.89512   2.90903   2.95709   3.01860
 Alpha virt. eigenvalues --    3.06073   3.11660   3.20594   3.22442   3.31354
 Alpha virt. eigenvalues --    3.33676   3.51408   3.63677   3.82981   3.84047
 Alpha virt. eigenvalues --    4.14847   4.16766   4.18155   4.24988   4.35182
 Alpha virt. eigenvalues --    4.39289   4.46456   4.51688   4.65537   4.70772
 Alpha virt. eigenvalues --    4.80070   4.81284   4.83125   4.89380   5.01716
 Alpha virt. eigenvalues --    5.07219   5.09569   5.14530   5.17374   5.23810
 Alpha virt. eigenvalues --    5.26560   5.30460   5.32853   5.34769   5.60080
 Alpha virt. eigenvalues --    5.67033   5.75842   5.83029   5.94922   6.16079
 Alpha virt. eigenvalues --    6.30855   6.33100   6.39173   6.48927   6.50160
 Alpha virt. eigenvalues --    6.61305   6.66875   6.69404   6.76034   6.76350
 Alpha virt. eigenvalues --    6.82716   6.89271   7.00915   7.05390   7.05865
 Alpha virt. eigenvalues --    7.09034   7.11893   7.14481   7.18088   7.21615
 Alpha virt. eigenvalues --    7.24281   7.31064   7.32222   7.34196   7.39388
 Alpha virt. eigenvalues --    7.42242   7.47976   7.60495   7.60635   7.61576
 Alpha virt. eigenvalues --    7.65727   7.78209   7.88260   8.07219   8.30637
 Alpha virt. eigenvalues --    8.40889   8.53585  13.35403  14.29816  15.14739
 Alpha virt. eigenvalues --   16.11864
          Condensed to atoms (all electrons):
               1          2          3          4          5
     1  H    0.589876   0.128505   0.019924   0.012273  -0.000664
     2  O    0.128505   8.321795  -0.175090  -0.087433   0.015052
     3  O    0.019924  -0.175090   8.474207  -0.124647  -0.035546
     4  N    0.012273  -0.087433  -0.124647   6.955936  -0.053093
     5  O   -0.000664   0.015052  -0.035546  -0.053093   8.259626
 Mulliken charges:
               1
     1  H    0.250086
     2  O   -0.202829
     3  O   -0.158847
     4  N    0.296964
     5  O   -0.185374
 Sum of Mulliken charges =  -0.00000
 Mulliken charges with hydrogens summed into heavy atoms:
               1
     2  O    0.047257
     3  O   -0.158847
     4  N    0.296964
     5  O   -0.185374
 Electronic spatial extent (au):  <R**2>=            254.7807
 Charge=             -0.0000 electrons
 Dipole moment (field-independent basis, Debye):
    X=              0.4266    Y=              1.2558    Z=              0.0000  Tot=              1.3263
 Quadrupole moment (field-independent basis, Debye-Ang):
   XX=            -22.4382   YY=            -18.5385   ZZ=            -22.0362
   XY=              3.2900   XZ=             -0.0000   YZ=             -0.0000
 Traceless Quadrupole moment (field-independent basis, Debye-Ang):
   XX=             -1.4339   YY=              2.4658   ZZ=             -1.0319
   XY=              3.2900   XZ=             -0.0000   YZ=             -0.0000
 Octapole moment (field-independent basis, Debye-Ang**2):
  XXX=              2.5088  YYY=             11.2600  ZZZ=             -0.0000  XYY=              7.8787
  XXY=              6.4301  XXZ=              0.0000  XZZ=             -1.6082  YZZ=             -0.9240
  YYZ=              0.0000  XYZ=              0.0000
 Hexadecapole moment (field-independent basis, Debye-Ang**3):
 XXXX=           -158.3673 YYYY=            -91.5122 ZZZZ=            -18.2962 XXXY=            -37.2668
 XXXZ=             -0.0000 YYYX=            -31.0220 YYYZ=             -0.0000 ZZZX=             -0.0000
 ZZZY=             -0.0000 XXYY=            -34.1845 XXZZ=            -30.8624 YYZZ=            -21.0552
 XXYZ=             -0.0000 YYXZ=             -0.0000 ZZXY=            -15.2532
 N-N= 1.163834787572D+02 E-N=-8.948874055964D+02  KE= 2.801758121117D+02
 Symmetry A'   KE= 2.662104316707D+02
 Symmetry A"   KE= 1.396538044096D+01
 No NMR shielding tensors so no spin-rotation constants.
 Leave Link  601 at Mon Feb 14 22:10:31 2022, MaxMem= 16106127360 cpu:               4.4 elap:               0.2
 (Enter /sw/contrib/gaussian/g16/B01/g16/l9999.exe)
 1\1\GINC-N2132\SP\RMP2-FC\Aug-CC-pVTZ\H1N1O3\CGAVINH\14-Feb-2022\0\\#p
  SP mp2/aug-cc-pvtz density=current\\title\\0,1\H\O,1,0.96897556\O,2,1
 .45491931,1,97.59494903\N,3,1.4768553484,2,102.29752444,1,180.,0\O,4,1
 .17072885,3,109.06955123,2,180.,0\\Version=ES64L-G16RevB.01\State=1-A'
 \HF=-279.4998636\MP2=-280.4466664\RMSD=4.054e-09\Dipole=-0.1196915,0.,
 -0.5079039\Quadrupole=-1.5062914,-0.7671878,2.2734792,0.,2.1243991,0.\
 PG=CS [SG(H1N1O3)]\\@


 KNIGHT- SIRE, I'VE JUST RETURNED FROM THE FRONT
 KING-   HOW GOES THE BATTLE                    
 KNIGHT- THE SITUATION IS QUITE FLUID           
 KING-   WHAT DOES *THAT* MEAN                  
 KNIGHT- WE'RE UP THE CREEK                     
                THE WIZARD OF ID                
 Job cpu time:       0 days  0 hours  6 minutes 24.6 seconds.
 Elapsed time:       0 days  0 hours  0 minutes 17.8 seconds.
 File lengths (MBytes):  RWF=     22 Int=      0 D2E=      0 Chk=      8 Scr=      1
 Normal termination of Gaussian 16 at Mon Feb 14 22:10:31 2022.
