title                                                                   
SP        RMP2-FC                                                     Aug-CC-pVTZ         
Number of atoms                            I                5
Info1-9                                    I   N=           9
          33          24           0           0           0         110
           1           2           1
Full Title                                 C   N=           1
title       
Route                                      C   N=           4
#p SP mp2/aug-cc-pvtz density=current           
Charge                                     I                0
Multiplicity                               I                1
Number of electrons                        I               32
Number of alpha electrons                  I               16
Number of beta electrons                   I               16
Number of basis functions                  I              207
Number of independent functions            I              207
Number of point charges in /Mol/           I                0
Number of translation vectors              I                0
Atomic numbers                             I   N=           5
           1           8           8           7           8
Nuclear charges                            R   N=           5
  1.00000000E+00  8.00000000E+00  8.00000000E+00  7.00000000E+00  8.00000000E+00
Current cartesian coordinates              R   N=          15
  2.89600145E+00  3.20197601E+00 -8.03709780E-32  2.72526366E+00  1.37885504E+00
 -1.10772068E-31 -1.96105134E-16  1.27203040E+00  8.04060183E-33 -4.81197878E-01
 -1.44234917E+00  1.59400945E-32 -2.66621570E+00 -1.78907692E+00  1.73980434E-31
Number of symbols in /Mol/                 I                0
Force Field                                I                0
Atom Types                                 C   N=           5
                                                            
Int Atom Types                             I   N=           5
           0           0           0           0           0
MM charges                                 R   N=           5
  0.00000000E+00  0.00000000E+00  0.00000000E+00  0.00000000E+00  0.00000000E+00
Integer atomic weights                     I   N=           5
           1          16          16          14          16
Real atomic weights                        R   N=           5
  1.00782504E+00  1.59949146E+01  1.59949146E+01  1.40030740E+01  1.59949146E+01
Atom fragment info                         I   N=           5
           0           0           0           0           0
Atom residue num                           I   N=           5
           0           0           0           0           0
Nuclear spins                              I   N=           5
           1           0           0           2           0
Nuclear ZEff                               R   N=           5
 -1.00000000E+00 -5.60000000E+00 -5.60000000E+00 -4.55000000E+00 -5.60000000E+00
Nuclear ZNuc                               R   N=           5
  1.00000000E+00  8.00000000E+00  8.00000000E+00  7.00000000E+00  8.00000000E+00
Nuclear QMom                               R   N=           5
  0.00000000E+00  0.00000000E+00  0.00000000E+00  2.04400000E+00  0.00000000E+00
Nuclear GFac                               R   N=           5
  2.79284600E+00  0.00000000E+00  0.00000000E+00  4.03761000E-01  0.00000000E+00
MicOpt                                     I   N=           5
          -1          -1          -1          -1          -1
Number of residues                         I                0
Number of secondary structures             I                0
SymInf integers                            I   N=          26
           1           2           1           1           1           1
           1          -1           0           0           0           0
           0           0           0           0           0           0
           0           0           0           0           0           0
           0           0
RotTr to input orientation                 R   N=          12
 -9.95643347E-01 -9.79054931E-17 -9.32433673E-02  9.32433673E-02 -7.35670595E-17
 -9.95643347E-01  9.06193125E-17 -1.00000000E+00  8.23755912E-17  2.58482155E+00
  0.00000000E+00  3.45805904E+00
Number of contracted shells                I               65
Number of primitive shells                 I              119
Pure/Cartesian d shells                    I                0
Pure/Cartesian f shells                    I                0
Highest angular momentum                   I                3
Largest degree of contraction              I                7
Shell types                                I   N=          65
           0           0           0           0           1           1
           1          -2          -2           0           0           0
           0           0           1           1           1           1
          -2          -2          -2          -3          -3           0
           0           0           0           0           1           1
           1           1          -2          -2          -2          -3
          -3           0           0           0           0           0
           1           1           1           1          -2          -2
          -2          -3          -3           0           0           0
           0           0           1           1           1           1
          -2          -2          -2          -3          -3
Number of primitives per shell             I   N=          65
           3           1           1           1           1           1
           1           1           1           7           6           1
           1           1           3           1           1           1
           1           1           1           1           1           7
           6           1           1           1           3           1
           1           1           1           1           1           1
           1           7           6           1           1           1
           3           1           1           1           1           1
           1           1           1           7           6           1
           1           1           3           1           1           1
           1           1           1           1           1
Shell to atom map                          I   N=          65
           1           1           1           1           1           1
           1           1           1           2           2           2
           2           2           2           2           2           2
           2           2           2           2           2           3
           3           3           3           3           3           3
           3           3           3           3           3           3
           3           4           4           4           4           4
           4           4           4           4           4           4
           4           4           4           5           5           5
           5           5           5           5           5           5
           5           5           5           5           5
Primitive exponents                        R   N=         119
  3.38700000E+01  5.09500000E+00  1.15900000E+00  3.25800000E-01  1.02700000E-01
  2.52600000E-02  1.40700000E+00  3.88000000E-01  1.02000000E-01  1.05700000E+00
  2.47000000E-01  1.53300000E+04  2.29900000E+03  5.22400000E+02  1.47300000E+02
  4.75500000E+01  1.67600000E+01  6.20700000E+00  5.22400000E+02  1.47300000E+02
  4.75500000E+01  1.67600000E+01  6.20700000E+00  6.88200000E-01  1.75200000E+00
  2.38400000E-01  7.37600000E-02  3.44600000E+01  7.74900000E+00  2.28000000E+00
  7.15600000E-01  2.14000000E-01  5.97400000E-02  2.31400000E+00  6.45000000E-01
  2.14000000E-01  1.42800000E+00  5.00000000E-01  1.53300000E+04  2.29900000E+03
  5.22400000E+02  1.47300000E+02  4.75500000E+01  1.67600000E+01  6.20700000E+00
  5.22400000E+02  1.47300000E+02  4.75500000E+01  1.67600000E+01  6.20700000E+00
  6.88200000E-01  1.75200000E+00  2.38400000E-01  7.37600000E-02  3.44600000E+01
  7.74900000E+00  2.28000000E+00  7.15600000E-01  2.14000000E-01  5.97400000E-02
  2.31400000E+00  6.45000000E-01  2.14000000E-01  1.42800000E+00  5.00000000E-01
  1.14200000E+04  1.71200000E+03  3.89300000E+02  1.10000000E+02  3.55700000E+01
  1.25400000E+01  4.64400000E+00  3.89300000E+02  1.10000000E+02  3.55700000E+01
  1.25400000E+01  4.64400000E+00  5.11800000E-01  1.29300000E+00  1.78700000E-01
  5.76000000E-02  2.66300000E+01  5.94800000E+00  1.74200000E+00  5.55000000E-01
  1.72500000E-01  4.91000000E-02  1.65400000E+00  4.69000000E-01  1.51000000E-01
  1.09300000E+00  3.64000000E-01  1.53300000E+04  2.29900000E+03  5.22400000E+02
  1.47300000E+02  4.75500000E+01  1.67600000E+01  6.20700000E+00  5.22400000E+02
  1.47300000E+02  4.75500000E+01  1.67600000E+01  6.20700000E+00  6.88200000E-01
  1.75200000E+00  2.38400000E-01  7.37600000E-02  3.44600000E+01  7.74900000E+00
  2.28000000E+00  7.15600000E-01  2.14000000E-01  5.97400000E-02  2.31400000E+00
  6.45000000E-01  2.14000000E-01  1.42800000E+00  5.00000000E-01
Contraction coefficients                   R   N=         119
  2.54948632E-02  1.90362766E-01  8.52162022E-01  1.00000000E+00  1.00000000E+00
  1.00000000E+00  1.00000000E+00  1.00000000E+00  1.00000000E+00  1.00000000E+00
  1.00000000E+00  5.19808943E-04  4.02025621E-03  2.07128267E-02  8.10105536E-02
  2.35962985E-01  4.42653446E-01  3.57064423E-01 -4.42115008E-05 -1.22591041E-03
 -1.05517725E-02 -6.74452633E-02 -1.71198607E-01  1.07329856E+00  1.00000000E+00
  1.00000000E+00  1.00000000E+00  4.11634896E-02  2.57762836E-01  8.02419274E-01
  1.00000000E+00  1.00000000E+00  1.00000000E+00  1.00000000E+00  1.00000000E+00
  1.00000000E+00  1.00000000E+00  1.00000000E+00  5.19808943E-04  4.02025621E-03
  2.07128267E-02  8.10105536E-02  2.35962985E-01  4.42653446E-01  3.57064423E-01
 -4.42115008E-05 -1.22591041E-03 -1.05517725E-02 -6.74452633E-02 -1.71198607E-01
  1.07329856E+00  1.00000000E+00  1.00000000E+00  1.00000000E+00  4.11634896E-02
  2.57762836E-01  8.02419274E-01  1.00000000E+00  1.00000000E+00  1.00000000E+00
  1.00000000E+00  1.00000000E+00  1.00000000E+00  1.00000000E+00  1.00000000E+00
  5.34563860E-04  4.13435660E-03  2.12335358E-02  8.25006224E-02  2.38138871E-01
  4.42551547E-01  3.53757422E-01 -4.89867350E-05 -1.19527323E-03 -1.03490714E-02
 -6.48680190E-02 -1.71552477E-01  1.07289568E+00  1.00000000E+00  1.00000000E+00
  1.00000000E+00  3.98072123E-02  2.49002660E-01  8.10479727E-01  1.00000000E+00
  1.00000000E+00  1.00000000E+00  1.00000000E+00  1.00000000E+00  1.00000000E+00
  1.00000000E+00  1.00000000E+00  5.19808943E-04  4.02025621E-03  2.07128267E-02
  8.10105536E-02  2.35962985E-01  4.42653446E-01  3.57064423E-01 -4.42115008E-05
 -1.22591041E-03 -1.05517725E-02 -6.74452633E-02 -1.71198607E-01  1.07329856E+00
  1.00000000E+00  1.00000000E+00  1.00000000E+00  4.11634896E-02  2.57762836E-01
  8.02419274E-01  1.00000000E+00  1.00000000E+00  1.00000000E+00  1.00000000E+00
  1.00000000E+00  1.00000000E+00  1.00000000E+00  1.00000000E+00
Coordinates of each shell                  R   N=         195
  2.89600145E+00  3.20197601E+00 -7.29701811E-32  2.89600145E+00  3.20197601E+00
 -7.29701811E-32  2.89600145E+00  3.20197601E+00 -7.29701811E-32  2.89600145E+00
  3.20197601E+00 -7.29701811E-32  2.89600145E+00  3.20197601E+00 -7.29701811E-32
  2.89600145E+00  3.20197601E+00 -7.29701811E-32  2.89600145E+00  3.20197601E+00
 -7.29701811E-32  2.89600145E+00  3.20197601E+00 -7.29701811E-32  2.89600145E+00
  3.20197601E+00 -7.29701811E-32  2.72526366E+00  1.37885504E+00 -6.87120049E-32
  2.72526366E+00  1.37885504E+00 -6.87120049E-32  2.72526366E+00  1.37885504E+00
 -6.87120049E-32  2.72526366E+00  1.37885504E+00 -6.87120049E-32  2.72526366E+00
  1.37885504E+00 -6.87120049E-32  2.72526366E+00  1.37885504E+00 -6.87120049E-32
  2.72526366E+00  1.37885504E+00 -6.87120049E-32  2.72526366E+00  1.37885504E+00
 -6.87120049E-32  2.72526366E+00  1.37885504E+00 -6.87120049E-32  2.72526366E+00
  1.37885504E+00 -6.87120049E-32  2.72526366E+00  1.37885504E+00 -6.87120049E-32
  2.72526366E+00  1.37885504E+00 -6.87120049E-32  2.72526366E+00  1.37885504E+00
 -6.87120049E-32  2.72526366E+00  1.37885504E+00 -6.87120049E-32 -1.46878294E-17
  1.27203040E+00  3.41539488E-35 -1.46878294E-17  1.27203040E+00  3.41539488E-35
 -1.46878294E-17  1.27203040E+00  3.41539488E-35 -1.46878294E-17  1.27203040E+00
  3.41539488E-35 -1.46878294E-17  1.27203040E+00  3.41539488E-35 -1.46878294E-17
  1.27203040E+00  3.41539488E-35 -1.46878294E-17  1.27203040E+00  3.41539488E-35
 -1.46878294E-17  1.27203040E+00  3.41539488E-35 -1.46878294E-17  1.27203040E+00
  3.41539488E-35 -1.46878294E-17  1.27203040E+00  3.41539488E-35 -1.46878294E-17
  1.27203040E+00  3.41539488E-35 -1.46878294E-17  1.27203040E+00  3.41539488E-35
 -1.46878294E-17  1.27203040E+00  3.41539488E-35 -1.46878294E-17  1.27203040E+00
  3.41539488E-35 -4.81197878E-01 -1.44234917E+00  1.21002401E-32 -4.81197878E-01
 -1.44234917E+00  1.21002401E-32 -4.81197878E-01 -1.44234917E+00  1.21002401E-32
 -4.81197878E-01 -1.44234917E+00  1.21002401E-32 -4.81197878E-01 -1.44234917E+00
  1.21002401E-32 -4.81197878E-01 -1.44234917E+00  1.21002401E-32 -4.81197878E-01
 -1.44234917E+00  1.21002401E-32 -4.81197878E-01 -1.44234917E+00  1.21002401E-32
 -4.81197878E-01 -1.44234917E+00  1.21002401E-32 -4.81197878E-01 -1.44234917E+00
  1.21002401E-32 -4.81197878E-01 -1.44234917E+00  1.21002401E-32 -4.81197878E-01
 -1.44234917E+00  1.21002401E-32 -4.81197878E-01 -1.44234917E+00  1.21002401E-32
 -4.81197878E-01 -1.44234917E+00  1.21002401E-32 -2.66621570E+00 -1.78907692E+00
  6.72114135E-32 -2.66621570E+00 -1.78907692E+00  6.72114135E-32 -2.66621570E+00
 -1.78907692E+00  6.72114135E-32 -2.66621570E+00 -1.78907692E+00  6.72114135E-32
 -2.66621570E+00 -1.78907692E+00  6.72114135E-32 -2.66621570E+00 -1.78907692E+00
  6.72114135E-32 -2.66621570E+00 -1.78907692E+00  6.72114135E-32 -2.66621570E+00
 -1.78907692E+00  6.72114135E-32 -2.66621570E+00 -1.78907692E+00  6.72114135E-32
 -2.66621570E+00 -1.78907692E+00  6.72114135E-32 -2.66621570E+00 -1.78907692E+00
  6.72114135E-32 -2.66621570E+00 -1.78907692E+00  6.72114135E-32 -2.66621570E+00
 -1.78907692E+00  6.72114135E-32 -2.66621570E+00 -1.78907692E+00  6.72114135E-32
Num ILSW                                   I              100
ILSW                                       I   N=         100
           0           0           0           0           2           0
           0           0           0           0           0          -1
           5           0           0           0           0           0
           0           0           0           0           0           0
           1           0           0           0           0           0
           0           0      100000           0          -1           0
           0           0           0           0           0           0
           0           0           0           1           0           0
           0 -2000000000           1           0           0           0
           0           0           4          52           0           0
           0           0           0           0           0           0
           0           0           0           5           0           1
           0           0           0           0           0           0
           0           0           0           0           0           0
           0           0           0           0           0           0
           0           0           0           0           0           0
           0           0           0           0
Num RLSW                                   I               52
RLSW                                       R   N=          52
  1.00000000E+00  1.00000000E+00  1.00000000E+00  1.00000000E+00  1.00000000E+00
  0.00000000E+00  0.00000000E+00  1.00000000E+00  0.00000000E+00  0.00000000E+00
  0.00000000E+00  0.00000000E+00  1.00000000E+00  0.00000000E+00  0.00000000E+00
  0.00000000E+00  0.00000000E+00  1.00000000E+00  0.00000000E+00  0.00000000E+00
  0.00000000E+00  0.00000000E+00  1.00000000E+00  0.00000000E+00  0.00000000E+00
  0.00000000E+00  0.00000000E+00  1.00000000E+00  0.00000000E+00  0.00000000E+00
  0.00000000E+00  0.00000000E+00  1.00000000E+00  0.00000000E+00  0.00000000E+00
  0.00000000E+00  0.00000000E+00  0.00000000E+00  1.00000000E+00  1.00000000E+00
  0.00000000E+00  1.00000000E+00  0.00000000E+00  0.00000000E+00  0.00000000E+00
  0.00000000E+00  0.00000000E+00  0.00000000E+00  0.00000000E+00  0.00000000E+00
  0.00000000E+00  0.00000000E+00
MxBond                                     I                2
NBond                                      I   N=           5
           1           2           2           2           1
IBond                                      I   N=          10
           2           0           1           3           2           4
           3           5           4           0
RBond                                      R   N=          10
  1.00000000E+00  0.00000000E+00  1.00000000E+00  1.00000000E+00  1.00000000E+00
  1.00000000E+00  1.00000000E+00  2.00000000E+00  2.00000000E+00  0.00000000E+00
Virial Ratio                               R      2.002283302638383E+00
SCF Energy                                 R     -2.795025718641019E+02
MP2 Energy                                 R     -2.804466702758962E+02
Total Energy                               R     -2.804466702758962E+02
Post-SCF wavefunction norm                 R      1.119753331038919E+00
RMS Density                                R      3.683075949268691E-09
Job Status                                 I                1
Nuclear derivative order                   I                0
External E-field                           R   N=          35
  0.00000000E+00  0.00000000E+00  0.00000000E+00  0.00000000E+00  0.00000000E+00
  0.00000000E+00  0.00000000E+00  0.00000000E+00  0.00000000E+00  0.00000000E+00
  0.00000000E+00  0.00000000E+00  0.00000000E+00  0.00000000E+00  0.00000000E+00
  0.00000000E+00  0.00000000E+00  0.00000000E+00  0.00000000E+00  0.00000000E+00
  0.00000000E+00  0.00000000E+00  0.00000000E+00  0.00000000E+00  0.00000000E+00
  0.00000000E+00  0.00000000E+00  0.00000000E+00  0.00000000E+00  0.00000000E+00
  0.00000000E+00  0.00000000E+00  0.00000000E+00  0.00000000E+00  0.00000000E+00
IOpCl                                      I                0
IROHF                                      I                0
Alpha Orbital Energies                     R   N=         207
 -2.06902181E+01 -2.06840876E+01 -2.06589751E+01 -1.58125935E+01 -1.62441210E+00
 -1.50044386E+00 -1.25231818E+00 -9.48231920E-01 -7.74050325E-01 -7.60137663E-01
 -7.12892873E-01 -6.79417852E-01 -6.21571594E-01 -5.90980108E-01 -4.83101286E-01
 -4.72222376E-01  2.96462055E-02  7.16896914E-02  8.62185491E-02  1.01763853E-01
  1.33945970E-01  1.34468856E-01  1.44140541E-01  1.54582777E-01  1.78228562E-01
  1.94066107E-01  1.99760323E-01  2.06465350E-01  2.21929914E-01  2.37475247E-01
  2.40748741E-01  2.66150897E-01  2.93527354E-01  3.03979402E-01  3.10750525E-01
  3.44198176E-01  3.50192352E-01  3.87443692E-01  4.22616687E-01  4.31837937E-01
  5.27528419E-01  5.29492210E-01  5.58695956E-01  5.81970454E-01  6.26176905E-01
  6.38211615E-01  6.74407331E-01  6.84314160E-01  7.07337748E-01  7.10801140E-01
  7.24742317E-01  7.29110367E-01  7.44566194E-01  7.92159088E-01  7.92377469E-01
  8.10312585E-01  8.12920341E-01  8.31430267E-01  8.68355731E-01  9.09467527E-01
  9.22164471E-01  9.27307060E-01  9.56125938E-01  9.78126064E-01  9.85385029E-01
  1.01651694E+00  1.05280298E+00  1.05456343E+00  1.08348818E+00  1.11892644E+00
  1.14294461E+00  1.19030143E+00  1.22076665E+00  1.23351827E+00  1.33914381E+00
  1.35115141E+00  1.38635196E+00  1.45385487E+00  1.48760884E+00  1.50813524E+00
  1.53871550E+00  1.56785999E+00  1.58046511E+00  1.61396927E+00  1.66557087E+00
  1.67094789E+00  1.70348118E+00  1.79454379E+00  1.83215245E+00  1.83495988E+00
  1.87948663E+00  1.91113472E+00  1.95631235E+00  1.99360984E+00  2.00455395E+00
  2.07834450E+00  2.12326570E+00  2.13221844E+00  2.15268886E+00  2.22501695E+00
  2.26554657E+00  2.26702641E+00  2.29027452E+00  2.31565200E+00  2.34745622E+00
  2.38476961E+00  2.42626850E+00  2.43061997E+00  2.45493873E+00  2.46268481E+00
  2.47816827E+00  2.50263396E+00  2.59095893E+00  2.59799161E+00  2.62293082E+00
  2.62757583E+00  2.63805832E+00  2.67211778E+00  2.75830483E+00  2.82552140E+00
  2.85887886E+00  2.89007096E+00  2.89945613E+00  2.92795834E+00  2.96085423E+00
  3.03239058E+00  3.06803107E+00  3.11918749E+00  3.21750294E+00  3.23319697E+00
  3.32047627E+00  3.33733040E+00  3.52157907E+00  3.64546047E+00  3.83855553E+00
  3.84729752E+00  4.15084409E+00  4.16715138E+00  4.18553047E+00  4.25907537E+00
  4.35457110E+00  4.39585891E+00  4.47496051E+00  4.51752833E+00  4.66362861E+00
  4.71679192E+00  4.80606206E+00  4.82356890E+00  4.82990155E+00  4.89678238E+00
  5.02420877E+00  5.07795031E+00  5.10570343E+00  5.14435027E+00  5.17957484E+00
  5.24412604E+00  5.27231018E+00  5.30863053E+00  5.33129690E+00  5.35810646E+00
  5.61290001E+00  5.67384150E+00  5.77281091E+00  5.84806497E+00  5.96256308E+00
  6.17136878E+00  6.29058298E+00  6.34008740E+00  6.39182826E+00  6.49279640E+00
  6.50524113E+00  6.61057520E+00  6.66045512E+00  6.69812907E+00  6.75688858E+00
  6.76889838E+00  6.83292946E+00  6.89943984E+00  7.02308155E+00  7.06430560E+00
  7.07079634E+00  7.09978793E+00  7.12620482E+00  7.15864579E+00  7.18607733E+00
  7.22812373E+00  7.24577038E+00  7.30878609E+00  7.32555170E+00  7.34769965E+00
  7.40226919E+00  7.44619647E+00  7.48575523E+00  7.61642485E+00  7.62219199E+00
  7.63228051E+00  7.66987468E+00  7.80139686E+00  7.88990472E+00  8.11190402E+00
  8.32957672E+00  8.42088448E+00  8.54552528E+00  1.34265743E+01  1.44087643E+01
  1.51774475E+01  1.61540117E+01
Alpha MO coefficients                      R   N=       42849
  8.84340861E-05 -6.29004148E-04 -7.04523190E-04 -1.83170748E-06 -1.80018870E-05
 -2.61090084E-05  0.00000000E+00 -3.96934524E-05  4.43613151E-05  0.00000000E+00
  8.46217848E-05  2.61898595E-05  0.00000000E+00  2.92901340E-05  0.00000000E+00
  0.00000000E+00 -5.15280250E-05  1.93753779E-05 -8.57001355E-06  0.00000000E+00
  0.00000000E+00 -1.43428532E-04  1.17377802E-04  4.68544093E-03 -2.66208586E-04
  6.38461002E-06  1.65070366E-03  1.88621918E-03  1.11313557E-04  8.29829895E-06
  0.00000000E+00 -6.73742103E-04 -4.41411076E-05  0.00000000E+00 -1.18736936E-03
  7.80171976E-04  0.00000000E+00 -4.18780689E-04  5.76592081E-05  0.00000000E+00
  2.57582127E-05  0.00000000E+00  0.00000000E+00 -4.82548720E-05  5.57309823E-06
 -3.91875557E-04  0.00000000E+00  0.00000000E+00  7.66237784E-04 -2.52142332E-05
 -4.56669506E-04  0.00000000E+00  0.00000000E+00  2.52073238E-04 -1.15493442E-05
  0.00000000E+00  8.32070208E-05  1.31050923E-05  0.00000000E+00  0.00000000E+00
 -1.13849263E-04 -5.07424253E-06  0.00000000E+00  2.55163805E-04 -2.58138292E-05
  0.00000000E+00  0.00000000E+00 -3.49717287E-04  3.90527568E-05  9.76901387E-01
 -9.21929080E-03  4.33390436E-02  1.91416930E-03 -9.86269539E-04  1.52805148E-03
 -1.34449472E-03  0.00000000E+00 -1.48581153E-03  1.37052304E-03  0.00000000E+00
  1.82681654E-05 -1.16506864E-03  0.00000000E+00 -1.50790764E-04 -1.41480952E-05
  0.00000000E+00  4.34671446E-05  0.00000000E+00  0.00000000E+00 -3.03840945E-05
  2.15179968E-05  7.61481324E-04  0.00000000E+00  0.00000000E+00 -2.54805060E-04
 -3.95878509E-04 -3.49624153E-04  0.00000000E+00  0.00000000E+00 -3.27552929E-04
 -3.82071233E-04  0.00000000E+00  4.97000794E-05 -4.80705544E-05  0.00000000E+00
  0.00000000E+00 -4.10197585E-05 -1.69048451E-05  0.00000000E+00  3.02515429E-05
  2.11373994E-05  0.00000000E+00  0.00000000E+00 -3.14582220E-04 -1.42142065E-04
  3.90082773E-05  4.60402696E-05 -2.63189161E-04 -7.14978903E-04 -1.61006583E-04
 -2.60595006E-05 -9.74559324E-05  0.00000000E+00  2.64977725E-04  7.11812542E-04
  0.00000000E+00 -8.31919572E-04 -4.72972089E-04  0.00000000E+00 -1.24409293E-04
 -2.91663566E-05  0.00000000E+00 -1.79472453E-05  0.00000000E+00  0.00000000E+00
 -2.98204452E-05  1.54285523E-05 -3.27572263E-04  0.00000000E+00  0.00000000E+00
 -8.29280300E-04  1.09881852E-04 -3.35321216E-05  0.00000000E+00  0.00000000E+00
  9.34822932E-05 -1.24745124E-04  0.00000000E+00 -1.99083850E-05 -1.19864036E-04
  0.00000000E+00  0.00000000E+00 -5.96346263E-05 -1.37941219E-04  0.00000000E+00
  3.96711065E-06 -1.53170665E-04  0.00000000E+00  0.00000000E+00  5.33735587E-05
 -4.14002886E-04 -2.77780550E-03  1.25085292E-04 -1.32021225E-04 -2.32768262E-04
  1.47548830E-04 -8.31802757E-06 -2.74194426E-05  0.00000000E+00  7.05421588E-05
  1.61448944E-04  0.00000000E+00  2.36203792E-04  1.92593539E-04  0.00000000E+00
  1.29996567E-04  2.37325524E-05  0.00000000E+00 -3.38656219E-06  0.00000000E+00
  0.00000000E+00 -1.79642601E-05  1.28313701E-06  1.01635823E-06  0.00000000E+00
  0.00000000E+00  8.12342436E-05  8.56810363E-05 -9.97653907E-05  0.00000000E+00
  0.00000000E+00  1.65794344E-04  1.60141362E-04  0.00000000E+00  1.58916884E-05
 -3.25476037E-06  0.00000000E+00  0.00000000E+00 -3.78124249E-06 -1.22889026E-05
  0.00000000E+00 -3.36506113E-05  4.50456091E-05  0.00000000E+00  0.00000000E+00
  8.29395141E-05  9.05893683E-05  3.99194101E-05 -1.00033123E-03 -4.90103001E-04
 -1.14403452E-05 -2.22930695E-05  1.55007261E-05  0.00000000E+00 -1.18274084E-06
  2.76080773E-04  0.00000000E+00 -4.27731676E-05  1.34049216E-04  0.00000000E+00
  2.62782033E-05  0.00000000E+00  0.00000000E+00  1.16116272E-05  1.11539879E-05
 -2.86268968E-05  0.00000000E+00  0.00000000E+00  1.12434604E-05  3.59890543E-05
  1.12368731E-04  8.69918952E-05 -2.83065989E-05  7.52494226E-04  6.50564756E-04
  1.02061959E-05  2.78871257E-06  0.00000000E+00 -7.47785682E-05  1.23285466E-05
  0.00000000E+00  3.38506247E-04  9.27873093E-04  0.00000000E+00  5.22286508E-06
  8.40717350E-05  0.00000000E+00 -2.50946911E-06  0.00000000E+00  0.00000000E+00
  6.16474644E-08 -5.57713737E-06 -3.53018053E-05  0.00000000E+00  0.00000000E+00
 -1.95047147E-05  8.28046647E-05 -2.26014543E-05  0.00000000E+00  0.00000000E+00
 -2.68289408E-04 -1.74593202E-04  0.00000000E+00  9.05075710E-06  6.32351221E-06
  0.00000000E+00  0.00000000E+00  3.13698785E-06 -1.86913355E-05  0.00000000E+00
 -4.03375910E-05 -3.96868643E-05  0.00000000E+00  0.00000000E+00 -7.98183281E-05
  2.03002506E-05  2.81661406E-03  3.59615948E-05  1.00706057E-04 -6.47419810E-05
 -4.70676738E-04  8.09398556E-06  1.55515048E-05  0.00000000E+00 -6.49880547E-05
 -5.58414668E-05  0.00000000E+00  2.39741818E-04 -1.99936296E-04  0.00000000E+00
 -1.86752024E-04 -6.60141386E-05  0.00000000E+00 -8.65187530E-06  0.00000000E+00
  0.00000000E+00  2.24090847E-05  2.00147299E-05  4.83740176E-06  0.00000000E+00
  0.00000000E+00 -1.18884254E-04 -4.81948032E-05 -4.63465952E-06  0.00000000E+00
  0.00000000E+00 -2.21647306E-04 -2.16961941E-04  0.00000000E+00  3.66179144E-06
 -4.87302377E-07  0.00000000E+00  0.00000000E+00  1.96941404E-06 -1.35919171E-05
  0.00000000E+00 -4.74619620E-05  3.11328448E-06  0.00000000E+00  0.00000000E+00
 -8.11181237E-05  1.87238834E-04  2.58595315E-04  1.46483432E-03 -7.77184951E-05
 -1.53770799E-03  4.02424119E-04 -1.44213542E-04 -5.06620333E-07  0.00000000E+00
 -2.09123393E-03 -4.15450232E-04  0.00000000E+00  1.04198038E-03  7.75748344E-04
  0.00000000E+00 -1.69464428E-04  5.65190240E-05  0.00000000E+00 -1.23291637E-04
  0.00000000E+00  0.00000000E+00  2.42257924E-04  9.64710362E-05 -4.42742921E-04
  0.00000000E+00  0.00000000E+00  8.99838157E-04 -5.87977095E-05  1.08031374E-05
  0.00000000E+00  0.00000000E+00 -3.38631253E-04 -1.26302638E-04  0.00000000E+00
 -1.07725808E-06  1.54049015E-05  0.00000000E+00  0.00000000E+00  1.86977215E-05
  1.32496614E-05  0.00000000E+00  1.63652232E-04 -7.21537796E-05  0.00000000E+00
  0.00000000E+00 -2.40802165E-04  4.09861989E-05  9.76648557E-01 -9.84785194E-03
  4.35687657E-02  4.50534591E-03 -4.45673444E-04  2.14598832E-03  4.90624932E-04
  0.00000000E+00 -2.38144369E-03 -6.16071298E-04  0.00000000E+00  1.13839796E-03
  5.77087823E-08  0.00000000E+00  4.31142009E-06 -4.25358517E-05  0.00000000E+00
 -2.32421016E-04  0.00000000E+00  0.00000000E+00  1.02343710E-04  3.30167165E-05
  3.90773165E-04  0.00000000E+00  0.00000000E+00 -8.30659280E-04 -4.27988111E-04
 -1.52885578E-04  0.00000000E+00  0.00000000E+00  2.54519603E-04  1.81243443E-05
  0.00000000E+00  5.22302032E-05  1.79788981E-05  0.00000000E+00  0.00000000E+00
 -2.19045034E-05 -1.35536287E-05  0.00000000E+00  1.38491618E-04  9.92530975E-06
  0.00000000E+00  0.00000000E+00 -1.88212984E-04 -1.43835788E-04  4.72559636E-04
  2.03385072E-03  9.36264965E-05  1.38720342E-05 -3.91763998E-05 -2.43069428E-04
  0.00000000E+00  1.21365761E-04 -1.26271158E-03  0.00000000E+00  3.21849166E-04
 -3.30794666E-04  0.00000000E+00 -2.27184028E-06  0.00000000E+00  0.00000000E+00
  7.91659081E-05  1.54608449E-05 -1.59014656E-04  0.00000000E+00  0.00000000E+00
 -5.36323356E-04 -3.27753336E-05  9.76821026E-01 -9.16261760E-03  4.34704385E-02
  6.44336405E-05 -1.20136197E-03 -1.59547086E-03  1.42909538E-03  0.00000000E+00
  1.62245919E-03 -1.26386135E-03  0.00000000E+00 -4.81895859E-04 -8.58170726E-04
  0.00000000E+00  6.59521642E-05 -3.66587413E-05  0.00000000E+00  2.64302101E-05
  0.00000000E+00  0.00000000E+00 -1.12870278E-04 -4.37553784E-06  7.69785457E-04
  0.00000000E+00  0.00000000E+00 -2.28966956E-04 -2.37361383E-04 -2.55788548E-04
  0.00000000E+00  0.00000000E+00  1.39412607E-04  1.29452245E-04  0.00000000E+00
 -6.60760100E-05 -1.51029599E-07  0.00000000E+00  0.00000000E+00  2.09052526E-05
  9.06363203E-06  0.00000000E+00 -1.00190798E-05  1.23505435E-04  0.00000000E+00
  0.00000000E+00  2.66243363E-04  9.33779626E-05 -4.77304674E-03 -1.93571997E-04