 Entering Gaussian System, Link 0=g16
 Input=hoono_r3_1p440712.gjf
 Output=hoono_r3_1p440712.log
 Initial command:
 /sw/contrib/gaussian/g16/B01/g16/l1.exe "/scr/Gau-11609.inp" -scrdir="/scr/"
 Entering Link 1 = /sw/contrib/gaussian/g16/B01/g16/l1.exe PID=     11610.
  
 Copyright (c) 1988-2017, Gaussian, Inc.  All Rights Reserved.
  
 This is part of the Gaussian(R) 16 program.  It is based on
 the Gaussian(R) 09 system (copyright 2009, Gaussian, Inc.),
 the Gaussian(R) 03 system (copyright 2003, Gaussian, Inc.),
 the Gaussian(R) 98 system (copyright 1998, Gaussian, Inc.),
 the Gaussian(R) 94 system (copyright 1995, Gaussian, Inc.),
 the Gaussian 92(TM) system (copyright 1992, Gaussian, Inc.),
 the Gaussian 90(TM) system (copyright 1990, Gaussian, Inc.),
 the Gaussian 88(TM) system (copyright 1988, Gaussian, Inc.),
 the Gaussian 86(TM) system (copyright 1986, Carnegie Mellon
 University), and the Gaussian 82(TM) system (copyright 1983,
 Carnegie Mellon University). Gaussian is a federally registered
 trademark of Gaussian, Inc.
  
 This software contains proprietary and confidential information,
 including trade secrets, belonging to Gaussian, Inc.
  
 This software is provided under written license and may be
 used, copied, transmitted, or stored only in accord with that
 written license.
  
 The following legend is applicable only to US Government
 contracts under FAR:
  
                    RESTRICTED RIGHTS LEGEND
  
 Use, reproduction and disclosure by the US Government is
 subject to restrictions as set forth in subparagraphs (a)
 and (c) of the Commercial Computer Software - Restricted
 Rights clause in FAR 52.227-19.
  
 Gaussian, Inc.
 340 Quinnipiac St., Bldg. 40, Wallingford CT 06492
  
  
 ---------------------------------------------------------------
 Warning -- This program may not be used in any manner that
 competes with the business of Gaussian, Inc. or will provide
 assistance to any competitor of Gaussian, Inc.  The licensee
 of this program is prohibited from giving any competitor of
 Gaussian, Inc. access to this program.  By using this program,
 the user acknowledges that Gaussian, Inc. is engaged in the
 business of creating and licensing software in the field of
 computational chemistry and represents and warrants to the
 licensee that it is not a competitor of Gaussian, Inc. and that
 it will not use this program in any manner prohibited above.
 ---------------------------------------------------------------
  

 Cite this work as:
 Gaussian 16, Revision B.01,
 M. J. Frisch, G. W. Trucks, H. B. Schlegel, G. E. Scuseria, 
 M. A. Robb, J. R. Cheeseman, G. Scalmani, V. Barone, 
 G. A. Petersson, H. Nakatsuji, X. Li, M. Caricato, A. V. Marenich, 
 J. Bloino, B. G. Janesko, R. Gomperts, B. Mennucci, H. P. Hratchian, 
 J. V. Ortiz, A. F. Izmaylov, J. L. Sonnenberg, D. Williams-Young, 
 F. Ding, F. Lipparini, F. Egidi, J. Goings, B. Peng, A. Petrone, 
 T. Henderson, D. Ranasinghe, V. G. Zakrzewski, J. Gao, N. Rega, 
 G. Zheng, W. Liang, M. Hada, M. Ehara, K. Toyota, R. Fukuda, 
 J. Hasegawa, M. Ishida, T. Nakajima, Y. Honda, O. Kitao, H. Nakai, 
 T. Vreven, K. Throssell, J. A. Montgomery, Jr., J. E. Peralta, 
 F. Ogliaro, M. J. Bearpark, J. J. Heyd, E. N. Brothers, K. N. Kudin, 
 V. N. Staroverov, T. A. Keith, R. Kobayashi, J. Normand, 
 K. Raghavachari, A. P. Rendell, J. C. Burant, S. S. Iyengar, 
 J. Tomasi, M. Cossi, J. M. Millam, M. Klene, C. Adamo, R. Cammi, 
 J. W. Ochterski, R. L. Martin, K. Morokuma, O. Farkas, 
 J. B. Foresman, and D. J. Fox, Gaussian, Inc., Wallingford CT, 2016.
 
 ******************************************
 Gaussian 16:  ES64L-G16RevB.01 20-Dec-2017
                14-Feb-2022 
 ******************************************
 %nproc=28
 Will use up to   28 processors via shared memory.
 %mem=120GB
 %chk=hoono_r3_1p440712.chk
 -------------------------------------
 #p SP mp2/aug-cc-pvtz density=current
 -------------------------------------
 1/30=1,38=1,172=1/1;
 2/12=2,17=6,18=5,40=1/2;
 3/5=16,6=1,7=10,11=9,25=1,30=1,71=1/1,2,3;
 4//1;
 5/5=2,38=5/2;
 8/6=4,10=1/1;
 9/15=1,16=-3/6;
 10/5=1,13=10/2;
 6/7=2,8=2,9=2,10=2,22=-1/1;
 99/5=1,9=1/99;
 Leave Link    1 at Mon Feb 14 22:10:32 2022, MaxMem= 16106127360 cpu:               2.3 elap:               0.1
 (Enter /sw/contrib/gaussian/g16/B01/g16/l101.exe)
 -----
 title
 -----
 Symbolic Z-matrix:
 Charge =  0 Multiplicity = 1
 H
 O                    1    r1
 O                    2    r2       1    a1
 N                    3    r3       2    a2       1    d1       0
 O                    4    r4       3    a3       2    d2       0
       Variables:
  r1                    0.96898                  
  r2                    1.45492                  
  r3                    1.44071                  
  r4                    1.17073                  
  a1                   97.59495                  
  a2                  102.29752                  
  a3                  109.06955                  
  d1                  180.                       
  d2                  180.                       
 
 ITRead=  0  0  0  0  0
 MicOpt= -1 -1 -1 -1 -1
 NAtoms=      5 NQM=        5 NQMF=       0 NMMI=      0 NMMIF=      0
                NMic=       0 NMicF=      0.
                    Isotopes and Nuclear Properties:
 (Nuclear quadrupole moments (NQMom) in fm**2, nuclear magnetic moments (NMagM)
  in nuclear magnetons)

  Atom         1           2           3           4           5
 IAtWgt=           1          16          16          14          16
 AtmWgt=   1.0078250  15.9949146  15.9949146  14.0030740  15.9949146
 NucSpn=           1           0           0           2           0
 AtZEff=  -0.0000000  -0.0000000  -0.0000000  -0.0000000  -0.0000000
 NQMom=    0.0000000   0.0000000   0.0000000   2.0440000   0.0000000
 NMagM=    2.7928460   0.0000000   0.0000000   0.4037610   0.0000000
 AtZNuc=   1.0000000   8.0000000   8.0000000   7.0000000   8.0000000
 Leave Link  101 at Mon Feb 14 22:10:32 2022, MaxMem= 16106127360 cpu:               3.0 elap:               0.1
 (Enter /sw/contrib/gaussian/g16/B01/g16/l202.exe)
                          Input orientation:                          
 ---------------------------------------------------------------------
 Center     Atomic      Atomic             Coordinates (Angstroms)
 Number     Number       Type             X           Y           Z
 ---------------------------------------------------------------------
      1          1           0        0.000000    0.000000    0.000000
      2          8           0        0.000000    0.000000    0.968976
      3          8           0        1.442156    0.000000    1.161271
      4          7           0        1.560270    0.000000    2.597134
      5          8           0        2.694386    0.000000    2.887628
 ---------------------------------------------------------------------
                    Distance matrix (angstroms):
                    1          2          3          4          5
     1  H    0.000000
     2  O    0.968976   0.000000
     3  O    1.851584   1.454919   0.000000
     4  N    3.029777   2.255070   1.440713   0.000000
     5  O    3.949445   3.307710   2.132696   1.170729   0.000000
 Stoichiometry    HNO3
 Framework group  CS[SG(HNO3)]
 Deg. of freedom     7
 Full point group                 CS      NOp   2
 Largest Abelian subgroup         CS      NOp   2
 Largest concise Abelian subgroup C1      NOp   1
                         Standard orientation:                         
 ---------------------------------------------------------------------
 Center     Atomic      Atomic             Coordinates (Angstroms)
 Number     Number       Type             X           Y           Z
 ---------------------------------------------------------------------
      1          1           0        1.551426    1.675340    0.000000
      2          8           0        1.454173    0.711258    0.000000
      3          8           0       -0.000000    0.664677    0.000000
      4          7           0       -0.261630   -0.752081   -0.000000
      5          8           0       -1.419175   -0.927282   -0.000000
 ---------------------------------------------------------------------
 Rotational constants (GHZ):          55.7389397           5.0571244           4.6364638
 Leave Link  202 at Mon Feb 14 22:10:32 2022, MaxMem= 16106127360 cpu:               0.3 elap:               0.0
 (Enter /sw/contrib/gaussian/g16/B01/g16/l301.exe)
 Standard basis: Aug-CC-pVTZ (5D, 7F)
 Ernie: Thresh=  0.10000D-02 Tol=  0.10000D-05 Strict=F.
 Ernie:  12 primitive shells out of 131 were deleted.
 There are   166 symmetry adapted cartesian basis functions of A'  symmetry.
 There are    79 symmetry adapted cartesian basis functions of A"  symmetry.
 There are   136 symmetry adapted basis functions of A'  symmetry.
 There are    71 symmetry adapted basis functions of A"  symmetry.
   207 basis functions,   315 primitive gaussians,   245 cartesian basis functions
    16 alpha electrons       16 beta electrons
       nuclear repulsion energy       117.3689631095 Hartrees.
 IExCor=    0 DFT=F Ex=HF Corr=None ExCW=0 ScaHFX=  1.000000
 ScaDFX=  1.000000  1.000000  1.000000  1.000000 ScalE2=  1.000000  1.000000
 IRadAn=      5 IRanWt=     -1 IRanGd=            0 ICorTp=0 IEmpDi=  4
 NAtoms=    5 NActive=    5 NUniq=    5 SFac= 1.00D+00 NAtFMM=   60 NAOKFM=F Big=F
 Integral buffers will be    131072 words long.
 Raffenetti 1 integral format.
 Two-electron integral symmetry is turned on.
 Leave Link  301 at Mon Feb 14 22:10:32 2022, MaxMem= 16106127360 cpu:               1.3 elap:               0.1
 (Enter /sw/contrib/gaussian/g16/B01/g16/l302.exe)
 NPDir=0 NMtPBC=     1 NCelOv=     1 NCel=       1 NClECP=     1 NCelD=      1
         NCelK=      1 NCelE2=     1 NClLst=     1 CellRange=     0.0.
 One-electron integrals computed using PRISM.
 One-electron integral symmetry used in STVInt
 NBasis=   207 RedAO= T EigKep=  1.80D-04  NBF=   136    71
 NBsUse=   207 1.00D-06 EigRej= -1.00D+00 NBFU=   136    71
 Leave Link  302 at Mon Feb 14 22:10:32 2022, MaxMem= 16106127360 cpu:               4.6 elap:               0.2
 (Enter /sw/contrib/gaussian/g16/B01/g16/l303.exe)
 DipDrv:  MaxL=1.
 Leave Link  303 at Mon Feb 14 22:10:32 2022, MaxMem= 16106127360 cpu:               1.0 elap:               0.1
 (Enter /sw/contrib/gaussian/g16/B01/g16/l401.exe)
 ExpMin= 2.53D-02 ExpMax= 1.53D+04 ExpMxC= 5.22D+02 IAcc=3 IRadAn=         5 AccDes= 0.00D+00
 Harris functional with IExCor=  205 and IRadAn=       5 diagonalized for initial guess.
 HarFok:  IExCor=  205 AccDes= 0.00D+00 IRadAn=         5 IDoV= 1 UseB2=F ITyADJ=14
 ICtDFT=  3500011 ScaDFX=  1.000000  1.000000  1.000000  1.000000
 FoFCou: FMM=F IPFlag=           0 FMFlag=      100000 FMFlg1=           0
         NFxFlg=           0 DoJE=T BraDBF=F KetDBF=T FulRan=T
         wScrn=  0.000000 ICntrl=       500 IOpCl=  0 I1Cent=   200000004 NGrid=           0
         NMat0=    1 NMatS0=      1 NMatT0=    0 NMatD0=    1 NMtDS0=    0 NMtDT0=    0
 Petite list used in FoFCou.
 Harris En= -279.629374729206    
 JPrj=0 DoOrth=F DoCkMO=F.
 Initial guess orbital symmetries:
       Occupied  (A') (A') (A') (A') (A') (A') (A') (A') (A') (A')
                 (A") (A') (A') (A") (A") (A')
       Virtual   (A") (A') (A') (A') (A') (A') (A") (A') (A') (A')
                 (A") (A') (A") (A') (A') (A") (A') (A") (A') (A')
                 (A') (A') (A') (A') (A') (A") (A') (A") (A') (A')
                 (A") (A') (A") (A') (A') (A") (A') (A") (A') (A')
                 (A") (A') (A") (A') (A") (A') (A') (A') (A") (A")
                 (A') (A') (A') (A') (A") (A') (A") (A') (A") (A')
                 (A') (A') (A") (A') (A') (A") (A') (A") (A') (A')
                 (A") (A') (A') (A") (A") (A') (A') (A") (A') (A')
                 (A') (A") (A') (A") (A') (A") (A') (A") (A') (A')
                 (A') (A") (A') (A") (A') (A") (A") (A') (A") (A')
                 (A') (A') (A") (A') (A') (A') (A") (A') (A") (A')
                 (A") (A') (A') (A') (A") (A') (A') (A') (A") (A')
                 (A") (A') (A') (A") (A") (A') (A') (A") (A") (A')
                 (A') (A') (A') (A") (A") (A') (A") (A') (A') (A')
                 (A') (A") (A") (A') (A') (A") (A') (A') (A') (A')
                 (A") (A') (A') (A") (A') (A") (A') (A") (A') (A")
                 (A') (A") (A') (A") (A') (A") (A") (A") (A') (A')
                 (A") (A') (A") (A') (A") (A') (A") (A") (A') (A')
                 (A') (A') (A') (A') (A') (A') (A') (A') (A') (A')
                 (A')
 The electronic state of the initial guess is 1-A'.
 Leave Link  401 at Mon Feb 14 22:10:33 2022, MaxMem= 16106127360 cpu:               7.3 elap:               0.3
 (Enter /sw/contrib/gaussian/g16/B01/g16/l502.exe)
 Keep R1 ints in memory in symmetry-blocked form, NReq=348887737.
 FoFCou: FMM=F IPFlag=           0 FMFlag=           0 FMFlg1=           0
         NFxFlg=           0 DoJE=F BraDBF=F KetDBF=F FulRan=T
         wScrn=  0.000000 ICntrl=       600 IOpCl=  0 I1Cent=           0 NGrid=           0
         NMat0=    1 NMatS0=  21528 NMatT0=    0 NMatD0=    1 NMtDS0=    0 NMtDT0=    0
 Petite list used in FoFCou.
 Closed shell SCF:
 Using DIIS extrapolation, IDIIS=  1040.
 NGot= 16106127360 LenX= 15988850015 LenY= 15988789549
 Requested convergence on RMS density matrix=1.00D-08 within 128 cycles.
 Requested convergence on MAX density matrix=1.00D-06.
 Requested convergence on             energy=1.00D-06.
 No special actions if energy rises.

 Cycle   1  Pass 1  IDiag  1:
 E= -279.370108971335    
 DIIS: error= 2.61D-02 at cycle   1 NSaved=   1.
 NSaved= 1 IEnMin= 1 EnMin= -279.370108971335     IErMin= 1 ErrMin= 2.61D-02
 ErrMax= 2.61D-02  0.00D+00 EMaxC= 1.00D-01 BMatC= 4.41D-01 BMatP= 4.41D-01
 IDIUse=3 WtCom= 7.39D-01 WtEn= 2.61D-01
 Coeff-Com:  0.100D+01
 Coeff-En:   0.100D+01
 Coeff:      0.100D+01
 Gap=     0.521 Goal=   None    Shift=    0.000
 GapD=    0.521 DampG=2.000 DampE=0.500 DampFc=1.0000 IDamp=-1.
 RMSDP=1.64D-03 MaxDP=9.78D-02              OVMax= 1.16D-01

 Cycle   2  Pass 1  IDiag  1:
 E= -279.451807594080     Delta-E=       -0.081698622745 Rises=F Damp=F
 DIIS: error= 1.79D-02 at cycle   2 NSaved=   2.
 NSaved= 2 IEnMin= 2 EnMin= -279.451807594080     IErMin= 2 ErrMin= 1.79D-02
 ErrMax= 1.79D-02  0.00D+00 EMaxC= 1.00D-01 BMatC= 7.56D-02 BMatP= 4.41D-01
 IDIUse=3 WtCom= 8.21D-01 WtEn= 1.79D-01
 Coeff-Com:  0.201D+00 0.799D+00
 Coeff-En:   0.178D-01 0.982D+00
 Coeff:      0.169D+00 0.831D+00
 Gap=     0.533 Goal=   None    Shift=    0.000
 RMSDP=9.15D-04 MaxDP=3.78D-02 DE=-8.17D-02 OVMax= 6.76D-02

 Cycle   3  Pass 1  IDiag  1:
 E= -279.483064506518     Delta-E=       -0.031256912438 Rises=F Damp=F
 DIIS: error= 9.99D-03 at cycle   3 NSaved=   3.
 NSaved= 3 IEnMin= 3 EnMin= -279.483064506518     IErMin= 3 ErrMin= 9.99D-03
 ErrMax= 9.99D-03  0.00D+00 EMaxC= 1.00D-01 BMatC= 2.89D-02 BMatP= 7.56D-02
 IDIUse=3 WtCom= 9.00D-01 WtEn= 9.99D-02
 Coeff-Com: -0.335D-01 0.373D+00 0.661D+00
 Coeff-En:   0.000D+00 0.232D+00 0.768D+00
 Coeff:     -0.302D-01 0.358D+00 0.672D+00
 Gap=     0.510 Goal=   None    Shift=    0.000
 RMSDP=3.78D-04 MaxDP=1.50D-02 DE=-3.13D-02 OVMax= 3.97D-02

 Cycle   4  Pass 1  IDiag  1:
 E= -279.502309681618     Delta-E=       -0.019245175100 Rises=F Damp=F
 DIIS: error= 1.27D-03 at cycle   4 NSaved=   4.
 NSaved= 4 IEnMin= 4 EnMin= -279.502309681618     IErMin= 4 ErrMin= 1.27D-03
 ErrMax= 1.27D-03  0.00D+00 EMaxC= 1.00D-01 BMatC= 4.75D-04 BMatP= 2.89D-02
 IDIUse=3 WtCom= 9.87D-01 WtEn= 1.27D-02
 Coeff-Com: -0.113D-01 0.510D-01 0.150D+00 0.810D+00
 Coeff-En:   0.000D+00 0.000D+00 0.000D+00 0.100D+01
 Coeff:     -0.111D-01 0.503D-01 0.148D+00 0.812D+00
 Gap=     0.502 Goal=   None    Shift=    0.000
 RMSDP=9.01D-05 MaxDP=2.71D-03 DE=-1.92D-02 OVMax= 1.08D-02

 Cycle   5  Pass 1  IDiag  1:
 E= -279.502967545236     Delta-E=       -0.000657863618 Rises=F Damp=F
 DIIS: error= 7.04D-04 at cycle   5 NSaved=   5.
 NSaved= 5 IEnMin= 5 EnMin= -279.502967545236     IErMin= 5 ErrMin= 7.04D-04
 ErrMax= 7.04D-04  0.00D+00 EMaxC= 1.00D-01 BMatC= 8.39D-05 BMatP= 4.75D-04
 IDIUse=3 WtCom= 9.93D-01 WtEn= 7.04D-03
 Coeff-Com:  0.601D-02-0.698D-01-0.115D+00 0.267D-01 0.115D+01
 Coeff-En:   0.000D+00 0.000D+00 0.000D+00 0.000D+00 0.100D+01
 Coeff:      0.597D-02-0.693D-01-0.114D+00 0.265D-01 0.115D+01
 Gap=     0.502 Goal=   None    Shift=    0.000
 RMSDP=7.40D-05 MaxDP=2.06D-03 DE=-6.58D-04 OVMax= 1.08D-02

 Cycle   6  Pass 1  IDiag  1:
 E= -279.503265181186     Delta-E=       -0.000297635950 Rises=F Damp=F
 DIIS: error= 2.85D-04 at cycle   6 NSaved=   6.
 NSaved= 6 IEnMin= 6 EnMin= -279.503265181186     IErMin= 6 ErrMin= 2.85D-04
 ErrMax= 2.85D-04  0.00D+00 EMaxC= 1.00D-01 BMatC= 1.61D-05 BMatP= 8.39D-05
 IDIUse=3 WtCom= 9.97D-01 WtEn= 2.85D-03
 Coeff-Com:  0.542D-03 0.211D-02 0.506D-02-0.134D+00-0.222D+00 0.135D+01
 Coeff-En:   0.000D+00 0.000D+00 0.000D+00 0.000D+00 0.000D+00 0.100D+01
 Coeff:      0.540D-03 0.210D-02 0.505D-02-0.134D+00-0.221D+00 0.135D+01
 Gap=     0.502 Goal=   None    Shift=    0.000
 RMSDP=4.38D-05 MaxDP=1.20D-03 DE=-2.98D-04 OVMax= 5.43D-03

 Cycle   7  Pass 1  IDiag  1:
 E= -279.503333414282     Delta-E=       -0.000068233096 Rises=F Damp=F
 DIIS: error= 1.10D-04 at cycle   7 NSaved=   7.
 NSaved= 7 IEnMin= 7 EnMin= -279.503333414282     IErMin= 7 ErrMin= 1.10D-04
 ErrMax= 1.10D-04  0.00D+00 EMaxC= 1.00D-01 BMatC= 4.09D-06 BMatP= 1.61D-05
 IDIUse=3 WtCom= 9.99D-01 WtEn= 1.10D-03
 Coeff-Com: -0.917D-03 0.129D-01 0.253D-01-0.235D-01-0.273D+00 0.357D+00
 Coeff-Com:  0.902D+00
 Coeff-En:   0.000D+00 0.000D+00 0.000D+00 0.000D+00 0.000D+00 0.000D+00
 Coeff-En:   0.100D+01
 Coeff:     -0.916D-03 0.128D-01 0.253D-01-0.235D-01-0.273D+00 0.357D+00
 Coeff:      0.902D+00
 Gap=     0.502 Goal=   None    Shift=    0.000
 RMSDP=1.28D-05 MaxDP=3.62D-04 DE=-6.82D-05 OVMax= 1.51D-03

 Cycle   8  Pass 1  IDiag  1:
 E= -279.503341594189     Delta-E=       -0.000008179908 Rises=F Damp=F
 DIIS: error= 5.65D-05 at cycle   8 NSaved=   8.
 NSaved= 8 IEnMin= 8 EnMin= -279.503341594189     IErMin= 8 ErrMin= 5.65D-05
 ErrMax= 5.65D-05  0.00D+00 EMaxC= 1.00D-01 BMatC= 5.69D-07 BMatP= 4.09D-06
 IDIUse=1 WtCom= 1.00D+00 WtEn= 0.00D+00
 Coeff-Com: -0.425D-03 0.319D-02 0.716D-02 0.270D-01-0.414D-01-0.193D+00
 Coeff-Com:  0.191D+00 0.101D+01
 Coeff:     -0.425D-03 0.319D-02 0.716D-02 0.270D-01-0.414D-01-0.193D+00
 Coeff:      0.191D+00 0.101D+01
 Gap=     0.502 Goal=   None    Shift=    0.000
 RMSDP=6.41D-06 MaxDP=1.93D-04 DE=-8.18D-06 OVMax= 6.82D-04

 Cycle   9  Pass 1  IDiag  1:
 E= -279.503343195153     Delta-E=       -0.000001600964 Rises=F Damp=F
 DIIS: error= 1.59D-05 at cycle   9 NSaved=   9.
 NSaved= 9 IEnMin= 9 EnMin= -279.503343195153     IErMin= 9 ErrMin= 1.59D-05
 ErrMax= 1.59D-05  0.00D+00 EMaxC= 1.00D-01 BMatC= 6.86D-08 BMatP= 5.69D-07
 IDIUse=1 WtCom= 1.00D+00 WtEn= 0.00D+00
 Coeff-Com:  0.114D-03-0.161D-02-0.288D-02-0.129D-02 0.333D-01-0.381D-02
 Coeff-Com: -0.172D+00-0.738D-01 0.122D+01
 Coeff:      0.114D-03-0.161D-02-0.288D-02-0.129D-02 0.333D-01-0.381D-02
 Coeff:     -0.172D+00-0.738D-01 0.122D+01
 Gap=     0.502 Goal=   None    Shift=    0.000
 RMSDP=1.88D-06 MaxDP=6.46D-05 DE=-1.60D-06 OVMax= 1.74D-04

 Cycle  10  Pass 1  IDiag  1:
 E= -279.503343350705     Delta-E=       -0.000000155551 Rises=F Damp=F
 DIIS: error= 4.17D-06 at cycle  10 NSaved=  10.
 NSaved=10 IEnMin=10 EnMin= -279.503343350705     IErMin=10 ErrMin= 4.17D-06
 ErrMax= 4.17D-06  0.00D+00 EMaxC= 1.00D-01 BMatC= 5.65D-09 BMatP= 6.86D-08
 IDIUse=1 WtCom= 1.00D+00 WtEn= 0.00D+00
 Coeff-Com:  0.329D-04-0.260D-03-0.367D-03-0.284D-02 0.220D-02 0.206D-01
 Coeff-Com: -0.176D-01-0.773D-01-0.715D-01 0.115D+01
 Coeff:      0.329D-04-0.260D-03-0.367D-03-0.284D-02 0.220D-02 0.206D-01
 Coeff:     -0.176D-01-0.773D-01-0.715D-01 0.115D+01
 Gap=     0.502 Goal=   None    Shift=    0.000
 RMSDP=5.13D-07 MaxDP=2.14D-05 DE=-1.56D-07 OVMax= 4.39D-05

 Cycle  11  Pass 1  IDiag  1:
 E= -279.503343363681     Delta-E=       -0.000000012977 Rises=F Damp=F
 DIIS: error= 2.02D-06 at cycle  11 NSaved=  11.
 NSaved=11 IEnMin=11 EnMin= -279.503343363681     IErMin=11 ErrMin= 2.02D-06
 ErrMax= 2.02D-06  0.00D+00 EMaxC= 1.00D-01 BMatC= 6.75D-10 BMatP= 5.65D-09
 IDIUse=1 WtCom= 1.00D+00 WtEn= 0.00D+00
 Coeff-Com: -0.212D-04 0.240D-03 0.483D-03 0.528D-03-0.442D-02-0.352D-02
 Coeff-Com:  0.228D-01 0.302D-01-0.140D+00-0.197D+00 0.129D+01
 Coeff:     -0.212D-04 0.240D-03 0.483D-03 0.528D-03-0.442D-02-0.352D-02
 Coeff:      0.228D-01 0.302D-01-0.140D+00-0.197D+00 0.129D+01
 Gap=     0.502 Goal=   None    Shift=    0.000
 RMSDP=1.84D-07 MaxDP=6.89D-06 DE=-1.30D-08 OVMax= 1.75D-05

 Cycle  12  Pass 1  IDiag  1:
 E= -279.503343365552     Delta-E=       -0.000000001871 Rises=F Damp=F
 DIIS: error= 5.65D-07 at cycle  12 NSaved=  12.
 NSaved=12 IEnMin=12 EnMin= -279.503343365552     IErMin=12 ErrMin= 5.65D-07
 ErrMax= 5.65D-07  0.00D+00 EMaxC= 1.00D-01 BMatC= 6.79D-11 BMatP= 6.75D-10
 IDIUse=1 WtCom= 1.00D+00 WtEn= 0.00D+00
 Coeff-Com:  0.106D-05-0.266D-04-0.579D-04 0.205D-03 0.102D-02-0.234D-02
 Coeff-Com: -0.402D-02 0.595D-02 0.409D-01-0.106D+00-0.284D+00 0.135D+01
 Coeff:      0.106D-05-0.266D-04-0.579D-04 0.205D-03 0.102D-02-0.234D-02
 Coeff:     -0.402D-02 0.595D-02 0.409D-01-0.106D+00-0.284D+00 0.135D+01
 Gap=     0.502 Goal=   None    Shift=    0.000
 RMSDP=7.10D-08 MaxDP=2.81D-06 DE=-1.87D-09 OVMax= 6.37D-06

 Cycle  13  Pass 1  IDiag  1:
 E= -279.503343365771     Delta-E=       -0.000000000218 Rises=F Damp=F
 DIIS: error= 1.61D-07 at cycle  13 NSaved=  13.
 NSaved=13 IEnMin=13 EnMin= -279.503343365771     IErMin=13 ErrMin= 1.61D-07
 ErrMax= 1.61D-07  0.00D+00 EMaxC= 1.00D-01 BMatC= 3.54D-12 BMatP= 6.79D-11
 IDIUse=1 WtCom= 1.00D+00 WtEn= 0.00D+00
 Coeff-Com:  0.124D-05-0.134D-04-0.220D-04-0.868D-04 0.134D-03 0.719D-03
 Coeff-Com: -0.947D-03-0.307D-02 0.674D-03 0.383D-01-0.330D-01-0.308D+00
 Coeff-Com:  0.131D+01
 Coeff:      0.124D-05-0.134D-04-0.220D-04-0.868D-04 0.134D-03 0.719D-03
 Coeff:     -0.947D-03-0.307D-02 0.674D-03 0.383D-01-0.330D-01-0.308D+00
 Coeff:      0.131D+01
 Gap=     0.502 Goal=   None    Shift=    0.000
 RMSDP=1.80D-08 MaxDP=5.03D-07 DE=-2.18D-10 OVMax= 1.46D-06

 Cycle  14  Pass 1  IDiag  1:
 E= -279.503343365780     Delta-E=       -0.000000000009 Rises=F Damp=F
 DIIS: error= 2.21D-08 at cycle  14 NSaved=  14.
 NSaved=14 IEnMin=14 EnMin= -279.503343365780     IErMin=14 ErrMin= 2.21D-08
 ErrMax= 2.21D-08  0.00D+00 EMaxC= 1.00D-01 BMatC= 1.69D-13 BMatP= 3.54D-12
 IDIUse=1 WtCom= 1.00D+00 WtEn= 0.00D+00
 Coeff-Com: -0.169D-06 0.279D-05 0.500D-05 0.333D-05-0.773D-04 0.466D-04
 Coeff-Com:  0.284D-03 0.178D-03-0.230D-02 0.119D-02 0.163D-01-0.259D-01
 Coeff-Com: -0.192D+00 0.120D+01
 Coeff:     -0.169D-06 0.279D-05 0.500D-05 0.333D-05-0.773D-04 0.466D-04
 Coeff:      0.284D-03 0.178D-03-0.230D-02 0.119D-02 0.163D-01-0.259D-01
 Coeff:     -0.192D+00 0.120D+01
 Gap=     0.502 Goal=   None    Shift=    0.000
 RMSDP=3.56D-09 MaxDP=8.83D-08 DE=-9.04D-12 OVMax= 3.18D-07

 SCF Done:  E(RHF) =  -279.503343366     A.U. after   14 cycles
            NFock= 14  Conv=0.36D-08     -V/T= 2.0023
 KE= 2.788756115092D+02 PE=-8.960696336689D+02 EE= 2.203217156845D+02
 Leave Link  502 at Mon Feb 14 22:10:36 2022, MaxMem= 16106127360 cpu:              54.6 elap:               3.6
 (Enter /sw/contrib/gaussian/g16/B01/g16/l801.exe)
 ExpMin= 2.53D-02 ExpMax= 1.53D+04 ExpMxC= 5.22D+02 IAcc=3 IRadAn=         5 AccDes= 0.00D+00
 HarFok:  IExCor=  205 AccDes= 0.00D+00 IRadAn=         5 IDoV=-2 UseB2=F ITyADJ=14
 ICtDFT= 12500011 ScaDFX=  1.000000  1.000000  1.000000  1.000000
 Largest valence mixing into a core orbital is  2.08D-04
 Largest core mixing into a valence orbital is  3.57D-05
 Range of M.O.s used for correlation:     5   207
 NBasis=   207 NAE=    16 NBE=    16 NFC=     4 NFV=     0
 NROrb=    203 NOA=    12 NOB=    12 NVA=   191 NVB=   191

 **** Warning!!: The largest alpha MO coefficient is  0.17918531D+02

 Leave Link  801 at Mon Feb 14 22:10:36 2022, MaxMem= 16106127360 cpu:               2.3 elap:               0.1
 (Enter /sw/contrib/gaussian/g16/B01/g16/l906.exe)
 Frozen-core derivative calculation, NFC=   4 NFV=   0.
 FulOut=F Deriv=T AODrv=F NAtomX=     5
   MMem=          76  MDisk=          12 MDiskD=          12
  W3Min=      811440 MinDsk=     1524655 NBas6D=         245
 NBas2D=       30762    NTT=       30135    LW2=     3500000
    MDV= 16105579871 MDiskM=      328644 NBas2p=       30466
 Fully in-core method, ICMem=   960157634.
 IMap=   1   2   3   4   5   6   7   8   9  10  11  12  13  14  15  16
 JobTyp=1 Pass  1 fully in-core, NPsUse= 28.
 Compute canonical integrals.
 FoFCou: FMM=F IPFlag=           0 FMFlag=           0 FMFlg1=           0
         NFxFlg=           0 DoJE=F BraDBF=F KetDBF=F FulRan=T
         wScrn=  0.000000 ICntrl=       600 IOpCl=  1 I1Cent=           0 NGrid=           0
         NMat0=    1 NMatS0=  30762 NMatT0=    0 NMatD0=    1 NMtDS0=    0 NMtDT0=    0
 Symmetry not used in FoFCou.
 Spin components of T(2) and E(2):
     alpha-alpha T2 =       0.3381035619D-01 E2=     -0.1222038808D+00
     alpha-beta  T2 =       0.1855945273D+00 E2=     -0.6989150459D+00
     beta-beta   T2 =       0.3381035619D-01 E2=     -0.1222038808D+00
 The integrals were generated   1 times.
 ANorm=    0.1119470964D+01
 E2 =    -0.9433228074D+00 EUMP2 =    -0.28044666617322D+03
 Leave Link  906 at Mon Feb 14 22:10:45 2022, MaxMem= 16106127360 cpu:             248.8 elap:               8.9
 (Enter /sw/contrib/gaussian/g16/B01/g16/l1002.exe)
 Minotr:  Closed shell wavefunction.
          Computing MP2/KS-MP2 derivatives.
          Using Z-Vector for PSCF gradient.
          Skipping F1 and S1 gradient terms here.
          Frozen-core window.
          Direct CPHF calculation.
          Differentiating once with respect to electric field.
                with respect to dipole field.
          Electric field/nuclear overlap derivatives assumed to be zero.
          Using symmetry in CPHF.
          Requested convergence is 1.0D-10 RMS, and 1.0D-09 maximum.
          NewPWx=F KeepS1=T KeepF1=T KeepIn=T MapXYZ=F SortEE=F KeepMc=T.
 Keep R1 ints in memory in symmetry-blocked form, NReq=348888868.
 FoFCou: FMM=F IPFlag=           0 FMFlag=           0 FMFlg1=           0
         NFxFlg=           0 DoJE=F BraDBF=F KetDBF=F FulRan=T
         wScrn=  0.000000 ICntrl=       600 IOpCl=  0 I1Cent=           0 NGrid=           0
         NMat0=    1 NMatS0=  21528 NMatT0=    0 NMatD0=    1 NMtDS0=    0 NMtDT0=    0
 Petite list used in FoFCou.
          MDV=   16106127360 using IRadAn=       5.
          Solving linear equations separately, MaxMat=       0.
          There are     1 degrees of freedom in the 1st order CPHF.  IDoFFX=0 NUNeed=     1.
 LinEq1:  Iter=  0 NonCon=     1 RMS=5.89D-03 Max=1.33D-01 NDo=     1
 AX will form     1 AO Fock derivatives at one time.
 LinEq1:  Iter=  1 NonCon=     1 RMS=1.85D-03 Max=3.68D-02 NDo=     1
 LinEq1:  Iter=  2 NonCon=     1 RMS=8.42D-04 Max=1.16D-02 NDo=     1
 LinEq1:  Iter=  3 NonCon=     1 RMS=3.74D-04 Max=7.79D-03 NDo=     1
 LinEq1:  Iter=  4 NonCon=     1 RMS=1.15D-04 Max=1.66D-03 NDo=     1
 LinEq1:  Iter=  5 NonCon=     1 RMS=4.43D-05 Max=7.06D-04 NDo=     1
 LinEq1:  Iter=  6 NonCon=     1 RMS=1.99D-05 Max=2.28D-04 NDo=     1
 LinEq1:  Iter=  7 NonCon=     1 RMS=7.86D-06 Max=1.47D-04 NDo=     1
 LinEq1:  Iter=  8 NonCon=     1 RMS=3.36D-06 Max=3.15D-05 NDo=     1
 LinEq1:  Iter=  9 NonCon=     1 RMS=9.10D-07 Max=1.19D-05 NDo=     1
 LinEq1:  Iter= 10 NonCon=     1 RMS=1.75D-07 Max=1.78D-06 NDo=     1
 LinEq1:  Iter= 11 NonCon=     1 RMS=3.21D-08 Max=3.26D-07 NDo=     1
 LinEq1:  Iter= 12 NonCon=     1 RMS=7.74D-09 Max=1.18D-07 NDo=     1
 LinEq1:  Iter= 13 NonCon=     1 RMS=1.42D-09 Max=2.34D-08 NDo=     1
 LinEq1:  Iter= 14 NonCon=     1 RMS=2.53D-10 Max=3.36D-09 NDo=     1
 LinEq1:  Iter= 15 NonCon=     0 RMS=4.58D-11 Max=4.88D-10 NDo=     1
 Linear equations converged to 1.000D-10 1.000D-09 after    15 iterations.
 End of Minotr F.D. properties file   721 does not exist.
 End of Minotr F.D. properties file   722 does not exist.
 End of Minotr F.D. properties file   788 does not exist.
 Leave Link 1002 at Mon Feb 14 22:10:49 2022, MaxMem= 16106127360 cpu:              54.0 elap:               4.0
 (Enter /sw/contrib/gaussian/g16/B01/g16/l601.exe)
 Copying SCF densities to generalized density rwf, IOpCl= 0 IROHF=0.

 **********************************************************************

            Population analysis using the MP2 Density.

 **********************************************************************

 Orbital symmetries:
       Occupied  (A') (A') (A') (A') (A') (A') (A') (A') (A') (A')
                 (A") (A') (A") (A') (A") (A')
       Virtual   (A') (A") (A') (A') (A') (A") (A') (A') (A") (A')
                 (A") (A') (A') (A') (A") (A') (A') (A") (A') (A')
                 (A') (A') (A') (A') (A") (A') (A') (A") (A') (A')
                 (A") (A') (A") (A') (A') (A") (A') (A") (A') (A')
                 (A") (A') (A") (A') (A') (A") (A') (A') (A") (A')
                 (A") (A') (A') (A') (A") (A') (A") (A') (A") (A')
                 (A') (A') (A") (A') (A') (A") (A') (A") (A') (A')
                 (A") (A') (A') (A") (A") (A') (A') (A") (A') (A')
                 (A') (A") (A') (A") (A") (A') (A') (A") (A') (A')
                 (A") (A') (A') (A") (A') (A") (A') (A") (A') (A')
                 (A") (A') (A") (A') (A') (A") (A') (A') (A") (A')
                 (A") (A') (A') (A') (A") (A') (A') (A') (A") (A')
                 (A") (A') (A") (A') (A') (A") (A") (A') (A") (A')
                 (A') (A') (A') (A") (A") (A") (A') (A') (A') (A')
                 (A") (A') (A") (A') (A') (A") (A') (A') (A') (A')
                 (A") (A') (A') (A") (A') (A") (A') (A") (A') (A")
                 (A') (A") (A') (A") (A') (A") (A") (A') (A") (A')
                 (A") (A') (A") (A') (A") (A') (A") (A") (A') (A')
                 (A') (A') (A') (A') (A') (A') (A') (A') (A') (A')
                 (A')
 The electronic state is 1-A'.
 Alpha  occ. eigenvalues --  -20.69394 -20.67999 -20.66219 -15.80994  -1.62521
 Alpha  occ. eigenvalues --   -1.49821  -1.25987  -0.94676  -0.77426  -0.76138
 Alpha  occ. eigenvalues --   -0.71502  -0.67844  -0.61951  -0.59036  -0.48705
 Alpha  occ. eigenvalues --   -0.47318
 Alpha virt. eigenvalues --    0.02913   0.07401   0.08627   0.10191   0.13380
 Alpha virt. eigenvalues --    0.13404   0.14371   0.15418   0.17786   0.19420
 Alpha virt. eigenvalues --    0.19990   0.20859   0.22027   0.23461   0.23761
 Alpha virt. eigenvalues --    0.26615   0.29977   0.30349   0.31222   0.34479
 Alpha virt. eigenvalues --    0.35054   0.38812   0.42132   0.43105   0.52820
 Alpha virt. eigenvalues --    0.53000   0.56052   0.58262   0.62726   0.63937
 Alpha virt. eigenvalues --    0.67499   0.68439   0.70571   0.71074   0.72391
 Alpha virt. eigenvalues --    0.72817   0.74407   0.79140   0.79272   0.81104
 Alpha virt. eigenvalues --    0.81146   0.83151   0.86957   0.90836   0.92127
 Alpha virt. eigenvalues --    0.92765   0.95489   0.98006   0.98392   1.01499
 Alpha virt. eigenvalues --    1.05283   1.05572   1.08407   1.11904   1.14307
 Alpha virt. eigenvalues --    1.19043   1.22127   1.23315   1.34091   1.35385
 Alpha virt. eigenvalues --    1.38418   1.45625   1.48790   1.50813   1.53921
 Alpha virt. eigenvalues --    1.56905   1.58325   1.61418   1.66544   1.66992
 Alpha virt. eigenvalues --    1.70498   1.79328   1.83227   1.83782   1.87789
 Alpha virt. eigenvalues --    1.91238   1.95634   1.99580   2.00730   2.08357
 Alpha virt. eigenvalues --    2.12296   2.13455   2.14747   2.22798   2.26332
 Alpha virt. eigenvalues --    2.26479   2.29260   2.31485   2.34861   2.38601
 Alpha virt. eigenvalues --    2.42706   2.43300   2.45653   2.46501   2.47962
 Alpha virt. eigenvalues --    2.50408   2.58786   2.59808   2.62534   2.62621
 Alpha virt. eigenvalues --    2.63320   2.66970   2.76056   2.83288   2.86358
 Alpha virt. eigenvalues --    2.89092   2.89288   2.93888   2.95895   3.03209
 Alpha virt. eigenvalues --    3.07508   3.12747   3.20214   3.23083   3.31989
 Alpha virt. eigenvalues --    3.34693   3.51988   3.65025   3.84701   3.84919
 Alpha virt. eigenvalues --    4.14881   4.15923   4.18665   4.26569   4.35150
 Alpha virt. eigenvalues --    4.39394   4.46228   4.52142   4.66835   4.71302
 Alpha virt. eigenvalues --    4.80855   4.82646   4.83906   4.89757   5.02930
 Alpha virt. eigenvalues --    5.08292   5.11009   5.14376   5.18416   5.24727
 Alpha virt. eigenvalues --    5.27851   5.31216   5.33147   5.36277   5.61056
 Alpha virt. eigenvalues --    5.67693   5.77991   5.82779   5.96253   6.17640
 Alpha virt. eigenvalues --    6.30901   6.34552   6.39853   6.49790   6.50928
 Alpha virt. eigenvalues --    6.61447   6.66709   6.70624   6.75585   6.76312
 Alpha virt. eigenvalues --    6.83768   6.90441   7.01840   7.05540   7.05939
 Alpha virt. eigenvalues --    7.08989   7.12999   7.15482   7.18232   7.23318
 Alpha virt. eigenvalues --    7.24059   7.30413   7.32829   7.35231   7.40486
 Alpha virt. eigenvalues --    7.44003   7.48941   7.61125   7.62566   7.64281
 Alpha virt. eigenvalues --    7.67627   7.79627   7.89201   8.11457   8.32250
 Alpha virt. eigenvalues --    8.40914   8.55315  13.43996  14.49487  15.17747
 Alpha virt. eigenvalues --   16.18857
          Condensed to atoms (all electrons):
               1          2          3          4          5
     1  H    0.589220   0.128275   0.020193   0.012539  -0.000636
     2  O    0.128275   8.321893  -0.172102  -0.093695   0.015984
     3  O    0.020193  -0.172102   8.464769  -0.135171  -0.042412
     4  N    0.012539  -0.093695  -0.135171   6.988191  -0.058211
     5  O   -0.000636   0.015984  -0.042412  -0.058211   8.286402
 Mulliken charges:
               1
     1  H    0.250409
     2  O   -0.200354
     3  O   -0.135276
     4  N    0.286348
     5  O   -0.201127
 Sum of Mulliken charges =   0.00000
 Mulliken charges with hydrogens summed into heavy atoms:
               1
     2  O    0.050055
     3  O   -0.135276
     4  N    0.286348
     5  O   -0.201127
 Electronic spatial extent (au):  <R**2>=            251.0278
 Charge=              0.0000 electrons
 Dipole moment (field-independent basis, Debye):
    X=              0.5908    Y=              1.4641    Z=              0.0000  Tot=              1.5788
 Quadrupole moment (field-independent basis, Debye-Ang):
   XX=            -22.5002   YY=            -18.6921   ZZ=            -21.9843
   XY=              3.2218   XZ=              0.0000   YZ=             -0.0000
 Traceless Quadrupole moment (field-independent basis, Debye-Ang):
   XX=             -1.4413   YY=              2.3668   ZZ=             -0.9254
   XY=              3.2218   XZ=              0.0000   YZ=             -0.0000
 Octapole moment (field-independent basis, Debye-Ang**2):
  XXX=              3.2160  YYY=             11.3293  ZZZ=             -0.0000  XYY=              7.9382
  XXY=              6.7259  XXZ=              0.0000  XZZ=             -1.5477  YZZ=             -0.7852
  YYZ=              0.0000  XYZ=              0.0000
 Hexadecapole moment (field-independent basis, Debye-Ang**3):
 XXXX=           -158.5499 YYYY=            -87.9734 ZZZZ=            -18.1879 XXXY=            -36.0964
 XXXZ=             -0.0000 YYYX=            -30.4410 YYYZ=             -0.0000 ZZZX=             -0.0000
 ZZZY=             -0.0000 XXYY=            -33.7459 XXZZ=            -30.8822 YYZZ=            -20.2893
 XXYZ=             -0.0000 YYXZ=             -0.0000 ZZXY=            -14.8638
 N-N= 1.173689631095D+02 E-N=-8.968385922144D+02  KE= 2.802205777782D+02
 Symmetry A'   KE= 2.662427435383D+02
 Symmetry A"   KE= 1.397783423990D+01
 No NMR shielding tensors so no spin-rotation constants.
 Leave Link  601 at Mon Feb 14 22:10:50 2022, MaxMem= 16106127360 cpu:               4.5 elap:               0.2
 (Enter /sw/contrib/gaussian/g16/B01/g16/l9999.exe)
 1\1\GINC-N2132\SP\RMP2-FC\Aug-CC-pVTZ\H1N1O3\CGAVINH\14-Feb-2022\0\\#p
  SP mp2/aug-cc-pvtz density=current\\title\\0,1\H\O,1,0.96897556\O,2,1
 .45491931,1,97.59494903\N,3,1.4407127716,2,102.29752444,1,180.,0\O,4,1
 .17072885,3,109.06955123,2,180.,0\\Version=ES64L-G16RevB.01\State=1-A'
 \HF=-279.5033434\MP2=-280.4466662\RMSD=3.557e-09\Dipole=-0.1734641,0.,
 -0.5964383\Quadrupole=-1.5214769,-0.6880389,2.2095158,0.,2.0643439,0.\
 PG=CS [SG(H1N1O3)]\\@


 The earth never tires,
 The earth is rude, silent, incomprehensible at first,
 Nature is rude and incomprehensible at first,
 Be not discouraged, keep on,
 There are divine things well envelop'd,
 I swear to you there are divine things more beautiful than words can tell.
                                 -- Walt Whitman
 Job cpu time:       0 days  0 hours  6 minutes 24.9 seconds.
 Elapsed time:       0 days  0 hours  0 minutes 17.8 seconds.
 File lengths (MBytes):  RWF=     22 Int=      0 D2E=      0 Chk=      8 Scr=      1
 Normal termination of Gaussian 16 at Mon Feb 14 22:10:50 2022.
