title                                                                   
SP        RMP2-FC                                                     Aug-CC-pVTZ         
Number of atoms                            I                5
Info1-9                                    I   N=           9
          33          24           0           0           0         110
           1           2           1
Full Title                                 C   N=           1
title       
Route                                      C   N=           4
#p SP mp2/aug-cc-pvtz density=current           
Charge                                     I                0
Multiplicity                               I                1
Number of electrons                        I               32
Number of alpha electrons                  I               16
Number of beta electrons                   I               16
Number of basis functions                  I              207
Number of independent functions            I              207
Number of point charges in /Mol/           I                0
Number of translation vectors              I                0
Atomic numbers                             I   N=           5
           1           8           8           7           8
Nuclear charges                            R   N=           5
  1.00000000E+00  8.00000000E+00  8.00000000E+00  7.00000000E+00  8.00000000E+00
Current cartesian coordinates              R   N=          15
 -4.24941504E+00  8.20831614E-01 -3.15669167E-02 -3.02067437E+00 -5.36764558E-01
 -2.44635215E-02 -7.56741650E-01  1.02243351E+00  2.75463176E-02  1.25441224E+00
 -8.62890654E-01  4.24006162E-02  3.21098219E+00  1.66756415E-01 -3.62374707E-02
Number of symbols in /Mol/                 I                0
Force Field                                I                0
Atom Types                                 C   N=           5
                                                            
Int Atom Types                             I   N=           5
           0           0           0           0           0
MM charges                                 R   N=           5
  0.00000000E+00  0.00000000E+00  0.00000000E+00  0.00000000E+00  0.00000000E+00
Integer atomic weights                     I   N=           5
           1          16          16          14          16
Real atomic weights                        R   N=           5
  1.00782504E+00  1.59949146E+01  1.59949146E+01  1.40030740E+01  1.59949146E+01
Atom fragment info                         I   N=           5
           0           0           0           0           0
Atom residue num                           I   N=           5
           0           0           0           0           0
Nuclear spins                              I   N=           5
           1           0           0           2           0
Nuclear ZEff                               R   N=           5
 -1.00000000E+00 -5.60000000E+00 -5.60000000E+00 -4.55000000E+00 -5.60000000E+00
Nuclear ZNuc                               R   N=           5
  1.00000000E+00  8.00000000E+00  8.00000000E+00  7.00000000E+00  8.00000000E+00
Nuclear QMom                               R   N=           5
  0.00000000E+00  0.00000000E+00  0.00000000E+00  2.04400000E+00  0.00000000E+00
Nuclear GFac                               R   N=           5
  2.79284600E+00  0.00000000E+00  0.00000000E+00  4.03761000E-01  0.00000000E+00
MicOpt                                     I   N=           5
          -1          -1          -1          -1          -1
Number of residues                         I                0
Number of secondary structures             I                0
SymInf integers                            I   N=          26
           1           1           1           1           1           0
           0           0           0           0           0           0
           0           0           0           0           0           0
           0           0           0           0           0           0
           0           0
RotTr to input orientation                 R   N=          12
  7.41240248E-01 -1.63686967E-02  6.71040208E-01  6.70982983E-01 -9.58367917E-03
 -7.41410811E-01  1.85669628E-02  9.99820093E-01  3.87930822E-03  2.59965952E+00
 -3.01295617E-02  3.46022425E+00
Number of contracted shells                I               65
Number of primitive shells                 I              119
Pure/Cartesian d shells                    I                0
Pure/Cartesian f shells                    I                0
Highest angular momentum                   I                3
Largest degree of contraction              I                7
Shell types                                I   N=          65
           0           0           0           0           1           1
           1          -2          -2           0           0           0
           0           0           1           1           1           1
          -2          -2          -2          -3          -3           0
           0           0           0           0           1           1
           1           1          -2          -2          -2          -3
          -3           0           0           0           0           0
           1           1           1           1          -2          -2
          -2          -3          -3           0           0           0
           0           0           1           1           1           1
          -2          -2          -2          -3          -3
Number of primitives per shell             I   N=          65
           3           1           1           1           1           1
           1           1           1           7           6           1
           1           1           3           1           1           1
           1           1           1           1           1           7
           6           1           1           1           3           1
           1           1           1           1           1           1
           1           7           6           1           1           1
           3           1           1           1           1           1
           1           1           1           7           6           1
           1           1           3           1           1           1
           1           1           1           1           1
Shell to atom map                          I   N=          65
           1           1           1           1           1           1
           1           1           1           2           2           2
           2           2           2           2           2           2
           2           2           2           2           2           3
           3           3           3           3           3           3
           3           3           3           3           3           3
           3           4           4           4           4           4
           4           4           4           4           4           4
           4           4           4           5           5           5
           5           5           5           5           5           5
           5           5           5           5           5
Primitive exponents                        R   N=         119
  3.38700000E+01  5.09500000E+00  1.15900000E+00  3.25800000E-01  1.02700000E-01
  2.52600000E-02  1.40700000E+00  3.88000000E-01  1.02000000E-01  1.05700000E+00
  2.47000000E-01  1.53300000E+04  2.29900000E+03  5.22400000E+02  1.47300000E+02
  4.75500000E+01  1.67600000E+01  6.20700000E+00  5.22400000E+02  1.47300000E+02
  4.75500000E+01  1.67600000E+01  6.20700000E+00  6.88200000E-01  1.75200000E+00
  2.38400000E-01  7.37600000E-02  3.44600000E+01  7.74900000E+00  2.28000000E+00
  7.15600000E-01  2.14000000E-01  5.97400000E-02  2.31400000E+00  6.45000000E-01
  2.14000000E-01  1.42800000E+00  5.00000000E-01  1.53300000E+04  2.29900000E+03
  5.22400000E+02  1.47300000E+02  4.75500000E+01  1.67600000E+01  6.20700000E+00
  5.22400000E+02  1.47300000E+02  4.75500000E+01  1.67600000E+01  6.20700000E+00
  6.88200000E-01  1.75200000E+00  2.38400000E-01  7.37600000E-02  3.44600000E+01
  7.74900000E+00  2.28000000E+00  7.15600000E-01  2.14000000E-01  5.97400000E-02
  2.31400000E+00  6.45000000E-01  2.14000000E-01  1.42800000E+00  5.00000000E-01
  1.14200000E+04  1.71200000E+03  3.89300000E+02  1.10000000E+02  3.55700000E+01
  1.25400000E+01  4.64400000E+00  3.89300000E+02  1.10000000E+02  3.55700000E+01
  1.25400000E+01  4.64400000E+00  5.11800000E-01  1.29300000E+00  1.78700000E-01
  5.76000000E-02  2.66300000E+01  5.94800000E+00  1.74200000E+00  5.55000000E-01
  1.72500000E-01  4.91000000E-02  1.65400000E+00  4.69000000E-01  1.51000000E-01
  1.09300000E+00  3.64000000E-01  1.53300000E+04  2.29900000E+03  5.22400000E+02
  1.47300000E+02  4.75500000E+01  1.67600000E+01  6.20700000E+00  5.22400000E+02
  1.47300000E+02  4.75500000E+01  1.67600000E+01  6.20700000E+00  6.88200000E-01
  1.75200000E+00  2.38400000E-01  7.37600000E-02  3.44600000E+01  7.74900000E+00
  2.28000000E+00  7.15600000E-01  2.14000000E-01  5.97400000E-02  2.31400000E+00
  6.45000000E-01  2.14000000E-01  1.42800000E+00  5.00000000E-01
Contraction coefficients                   R   N=         119
  2.54948632E-02  1.90362766E-01  8.52162022E-01  1.00000000E+00  1.00000000E+00
  1.00000000E+00  1.00000000E+00  1.00000000E+00  1.00000000E+00  1.00000000E+00
  1.00000000E+00  5.19808943E-04  4.02025621E-03  2.07128267E-02  8.10105536E-02
  2.35962985E-01  4.42653446E-01  3.57064423E-01 -4.42115008E-05 -1.22591041E-03
 -1.05517725E-02 -6.74452633E-02 -1.71198607E-01  1.07329856E+00  1.00000000E+00
  1.00000000E+00  1.00000000E+00  4.11634896E-02  2.57762836E-01  8.02419274E-01
  1.00000000E+00  1.00000000E+00  1.00000000E+00  1.00000000E+00  1.00000000E+00
  1.00000000E+00  1.00000000E+00  1.00000000E+00  5.19808943E-04  4.02025621E-03
  2.07128267E-02  8.10105536E-02  2.35962985E-01  4.42653446E-01  3.57064423E-01
 -4.42115008E-05 -1.22591041E-03 -1.05517725E-02 -6.74452633E-02 -1.71198607E-01
  1.07329856E+00  1.00000000E+00  1.00000000E+00  1.00000000E+00  4.11634896E-02
  2.57762836E-01  8.02419274E-01  1.00000000E+00  1.00000000E+00  1.00000000E+00
  1.00000000E+00  1.00000000E+00  1.00000000E+00  1.00000000E+00  1.00000000E+00
  5.34563860E-04  4.13435660E-03  2.12335358E-02  8.25006224E-02  2.38138871E-01
  4.42551547E-01  3.53757422E-01 -4.89867350E-05 -1.19527323E-03 -1.03490714E-02
 -6.48680190E-02 -1.71552477E-01  1.07289568E+00  1.00000000E+00  1.00000000E+00
  1.00000000E+00  3.98072123E-02  2.49002660E-01  8.10479727E-01  1.00000000E+00
  1.00000000E+00  1.00000000E+00  1.00000000E+00  1.00000000E+00  1.00000000E+00
  1.00000000E+00  1.00000000E+00  5.19808943E-04  4.02025621E-03  2.07128267E-02
  8.10105536E-02  2.35962985E-01  4.42653446E-01  3.57064423E-01 -4.42115008E-05
 -1.22591041E-03 -1.05517725E-02 -6.74452633E-02 -1.71198607E-01  1.07329856E+00
  1.00000000E+00  1.00000000E+00  1.00000000E+00  4.11634896E-02  2.57762836E-01
  8.02419274E-01  1.00000000E+00  1.00000000E+00  1.00000000E+00  1.00000000E+00
  1.00000000E+00  1.00000000E+00  1.00000000E+00  1.00000000E+00
Coordinates of each shell                  R   N=         195
 -4.24941504E+00  8.20831614E-01 -3.15669167E-02 -4.24941504E+00  8.20831614E-01
 -3.15669167E-02 -4.24941504E+00  8.20831614E-01 -3.15669167E-02 -4.24941504E+00
  8.20831614E-01 -3.15669167E-02 -4.24941504E+00  8.20831614E-01 -3.15669167E-02
 -4.24941504E+00  8.20831614E-01 -3.15669167E-02 -4.24941504E+00  8.20831614E-01
 -3.15669167E-02 -4.24941504E+00  8.20831614E-01 -3.15669167E-02 -4.24941504E+00
  8.20831614E-01 -3.15669167E-02 -3.02067437E+00 -5.36764558E-01 -2.44635215E-02
 -3.02067437E+00 -5.36764558E-01 -2.44635215E-02 -3.02067437E+00 -5.36764558E-01
 -2.44635215E-02 -3.02067437E+00 -5.36764558E-01 -2.44635215E-02 -3.02067437E+00
 -5.36764558E-01 -2.44635215E-02 -3.02067437E+00 -5.36764558E-01 -2.44635215E-02
 -3.02067437E+00 -5.36764558E-01 -2.44635215E-02 -3.02067437E+00 -5.36764558E-01
 -2.44635215E-02 -3.02067437E+00 -5.36764558E-01 -2.44635215E-02 -3.02067437E+00
 -5.36764558E-01 -2.44635215E-02 -3.02067437E+00 -5.36764558E-01 -2.44635215E-02
 -3.02067437E+00 -5.36764558E-01 -2.44635215E-02 -3.02067437E+00 -5.36764558E-01
 -2.44635215E-02 -3.02067437E+00 -5.36764558E-01 -2.44635215E-02 -7.56741650E-01
  1.02243351E+00  2.75463176E-02 -7.56741650E-01  1.02243351E+00  2.75463176E-02
 -7.56741650E-01  1.02243351E+00  2.75463176E-02 -7.56741650E-01  1.02243351E+00
  2.75463176E-02 -7.56741650E-01  1.02243351E+00  2.75463176E-02 -7.56741650E-01
  1.02243351E+00  2.75463176E-02 -7.56741650E-01  1.02243351E+00  2.75463176E-02
 -7.56741650E-01  1.02243351E+00  2.75463176E-02 -7.56741650E-01  1.02243351E+00
  2.75463176E-02 -7.56741650E-01  1.02243351E+00  2.75463176E-02 -7.56741650E-01
  1.02243351E+00  2.75463176E-02 -7.56741650E-01  1.02243351E+00  2.75463176E-02
 -7.56741650E-01  1.02243351E+00  2.75463176E-02 -7.56741650E-01  1.02243351E+00
  2.75463176E-02  1.25441224E+00 -8.62890654E-01  4.24006162E-02  1.25441224E+00
 -8.62890654E-01  4.24006162E-02  1.25441224E+00 -8.62890654E-01  4.24006162E-02
  1.25441224E+00 -8.62890654E-01  4.24006162E-02  1.25441224E+00 -8.62890654E-01
  4.24006162E-02  1.25441224E+00 -8.62890654E-01  4.24006162E-02  1.25441224E+00
 -8.62890654E-01  4.24006162E-02  1.25441224E+00 -8.62890654E-01  4.24006162E-02
  1.25441224E+00 -8.62890654E-01  4.24006162E-02  1.25441224E+00 -8.62890654E-01
  4.24006162E-02  1.25441224E+00 -8.62890654E-01  4.24006162E-02  1.25441224E+00
 -8.62890654E-01  4.24006162E-02  1.25441224E+00 -8.62890654E-01  4.24006162E-02
  1.25441224E+00 -8.62890654E-01  4.24006162E-02  3.21098219E+00  1.66756415E-01
 -3.62374707E-02  3.21098219E+00  1.66756415E-01 -3.62374707E-02  3.21098219E+00
  1.66756415E-01 -3.62374707E-02  3.21098219E+00  1.66756415E-01 -3.62374707E-02
  3.21098219E+00  1.66756415E-01 -3.62374707E-02  3.21098219E+00  1.66756415E-01
 -3.62374707E-02  3.21098219E+00  1.66756415E-01 -3.62374707E-02  3.21098219E+00
  1.66756415E-01 -3.62374707E-02  3.21098219E+00  1.66756415E-01 -3.62374707E-02
  3.21098219E+00  1.66756415E-01 -3.62374707E-02  3.21098219E+00  1.66756415E-01
 -3.62374707E-02  3.21098219E+00  1.66756415E-01 -3.62374707E-02  3.21098219E+00
  1.66756415E-01 -3.62374707E-02  3.21098219E+00  1.66756415E-01 -3.62374707E-02
Num ILSW                                   I              100
ILSW                                       I   N=         100
           0           0           0           0           2           0
           0           0           0           0           0          -1
           5           0           0           0           0           0
           0           0           0           0           0           0
           1           0           0           0           0           0
           0           0      100000           0          -1           0
           0           0           0           0           0           0
           0           0           0           1           0           0
           0 -2000000000           1           0           0           0
           0           0           4          52           0           0
           0           0           0           0           0           0
           0           0           0           5           0           1
           0           0           0           0           0           0
           0           0           0           0           0           0
           0           0           0           0           0           0
           0           0           0           0           0           0
           0           0           0           0
Num RLSW                                   I               52
RLSW                                       R   N=          52
  1.00000000E+00  1.00000000E+00  1.00000000E+00  1.00000000E+00  1.00000000E+00
  0.00000000E+00  0.00000000E+00  1.00000000E+00  0.00000000E+00  0.00000000E+00
  0.00000000E+00  0.00000000E+00  1.00000000E+00  0.00000000E+00  0.00000000E+00
  0.00000000E+00  0.00000000E+00  1.00000000E+00  0.00000000E+00  0.00000000E+00
  0.00000000E+00  0.00000000E+00  1.00000000E+00  0.00000000E+00  0.00000000E+00
  0.00000000E+00  0.00000000E+00  1.00000000E+00  0.00000000E+00  0.00000000E+00
  0.00000000E+00  0.00000000E+00  1.00000000E+00  0.00000000E+00  0.00000000E+00
  0.00000000E+00  0.00000000E+00  0.00000000E+00  1.00000000E+00  1.00000000E+00
  0.00000000E+00  1.00000000E+00  0.00000000E+00  0.00000000E+00  0.00000000E+00
  0.00000000E+00  0.00000000E+00  0.00000000E+00  0.00000000E+00  0.00000000E+00
  0.00000000E+00  0.00000000E+00
MxBond                                     I                2
NBond                                      I   N=           5
           1           2           2           2           1
IBond                                      I   N=          10
           2           0           1           3           2           4
           3           5           4           0
RBond                                      R   N=          10
  1.00000000E+00  0.00000000E+00  1.00000000E+00  1.00000000E+00  1.00000000E+00
  1.00000000E+00  1.00000000E+00  2.00000000E+00  2.00000000E+00  0.00000000E+00
Virial Ratio                               R      2.002352949627098E+00
SCF Energy                                 R     -2.795016427291986E+02
MP2 Energy                                 R     -2.804466664683986E+02
Total Energy                               R     -2.804466664683986E+02
Post-SCF wavefunction norm                 R      1.120216726095752E+00
RMS Density                                R      7.709168708668944E-09
Job Status                                 I                1
Nuclear derivative order                   I                0
External E-field                           R   N=          35
  0.00000000E+00  0.00000000E+00  0.00000000E+00  0.00000000E+00  0.00000000E+00
  0.00000000E+00  0.00000000E+00  0.00000000E+00  0.00000000E+00  0.00000000E+00
  0.00000000E+00  0.00000000E+00  0.00000000E+00  0.00000000E+00  0.00000000E+00
  0.00000000E+00  0.00000000E+00  0.00000000E+00  0.00000000E+00  0.00000000E+00
  0.00000000E+00  0.00000000E+00  0.00000000E+00  0.00000000E+00  0.00000000E+00
  0.00000000E+00  0.00000000E+00  0.00000000E+00  0.00000000E+00  0.00000000E+00
  0.00000000E+00  0.00000000E+00  0.00000000E+00  0.00000000E+00  0.00000000E+00
IOpCl                                      I                0
IROHF                                      I                0
Alpha Orbital Energies                     R   N=         207
 -2.06908283E+01 -2.06843330E+01 -2.06599867E+01 -1.58128098E+01 -1.62403799E+00
 -1.49573199E+00 -1.25440273E+00 -9.48065359E-01 -7.72773157E-01 -7.59171705E-01
 -7.11906039E-01 -6.79251073E-01 -6.20494024E-01 -5.89402307E-01 -4.85223178E-01
 -4.72495324E-01  2.96280394E-02  7.16242237E-02  8.59718184E-02  1.01717671E-01
  1.32948085E-01  1.34917332E-01  1.44085742E-01  1.54537164E-01  1.78184637E-01
  1.94151819E-01  1.99697515E-01  2.06467218E-01  2.20852141E-01  2.34955310E-01
  2.37927737E-01  2.65844443E-01  2.93429190E-01  3.03598098E-01  3.10907360E-01
  3.43424002E-01  3.49793497E-01  3.87212582E-01  4.21739482E-01  4.31285391E-01
  5.26394865E-01  5.30239891E-01  5.58437979E-01  5.81505189E-01  6.25977518E-01
  6.38357815E-01  6.73436600E-01  6.85584557E-01  7.06417218E-01  7.11223381E-01
  7.24482111E-01  7.29542473E-01  7.44699340E-01  7.90527240E-01  7.93244363E-01
  8.08983354E-01  8.14110522E-01  8.30426095E-01  8.68175068E-01  9.08133692E-01
  9.21939463E-01  9.26326115E-01  9.56430341E-01  9.76961453E-01  9.84949647E-01
  1.01633912E+00  1.05100788E+00  1.05506936E+00  1.08345111E+00  1.11738434E+00
  1.14069670E+00  1.18988066E+00  1.22111939E+00  1.23246761E+00  1.33864637E+00
  1.35072641E+00  1.38686522E+00  1.45283983E+00  1.48768440E+00  1.50882304E+00
  1.53805636E+00  1.56628730E+00  1.58048097E+00  1.61324485E+00  1.66385667E+00
  1.66936789E+00  1.70353316E+00  1.79252981E+00  1.82999516E+00  1.83607871E+00
  1.87890382E+00  1.91041786E+00  1.95612380E+00  1.99167809E+00  2.00651135E+00
  2.07762780E+00  2.12059149E+00  2.13151548E+00  2.15043610E+00  2.22482999E+00
  2.26420064E+00  2.26519779E+00  2.28973330E+00  2.31420921E+00  2.34442181E+00
  2.38626160E+00  2.42171436E+00  2.43094420E+00  2.45407248E+00  2.46279198E+00
  2.47699013E+00  2.50177694E+00  2.58983935E+00  2.59656425E+00  2.62004499E+00
  2.62462595E+00  2.63495121E+00  2.66724317E+00  2.75662790E+00  2.82348328E+00
  2.85472079E+00  2.88487080E+00  2.89676065E+00  2.92334195E+00  2.95945534E+00
  3.02574288E+00  3.06846580E+00  3.12172988E+00  3.20483017E+00  3.22631521E+00
  3.31615600E+00  3.34182353E+00  3.51637508E+00  3.64232731E+00  3.83778430E+00
  3.84544015E+00  4.14877920E+00  4.16265408E+00  4.18388688E+00  4.25727965E+00
  4.35169984E+00  4.39334588E+00  4.46366140E+00  4.51919384E+00  4.66067105E+00
  4.71031187E+00  4.80538288E+00  4.82458943E+00  4.82828146E+00  4.89685546E+00
  5.02306511E+00  5.07658522E+00  5.10388572E+00  5.14506733E+00  5.17907118E+00
  5.24290791E+00  5.27241066E+00  5.30736358E+00  5.32950292E+00  5.35517040E+00
  5.60628169E+00  5.67382889E+00  5.76924798E+00  5.82893121E+00  5.95760814E+00
  6.16873678E+00  6.30908103E+00  6.33795234E+00  6.39431493E+00  6.49355911E+00
  6.50539644E+00  6.61401079E+00  6.66776641E+00  6.69924988E+00  6.75739532E+00
  6.76360082E+00  6.83257069E+00  6.89823620E+00  7.01383169E+00  7.05525185E+00
  7.05783666E+00  7.09015249E+00  7.12462223E+00  7.15056154E+00  7.18155010E+00
  7.22516143E+00  7.24181633E+00  7.30746419E+00  7.32551439E+00  7.34768145E+00
  7.39937394E+00  7.43165820E+00  7.48418411E+00  7.60009547E+00  7.62394414E+00
  7.62734208E+00  7.66680726E+00  7.78947005E+00  7.88667050E+00  8.09258873E+00
  8.31414835E+00  8.40902227E+00  8.54400726E+00  1.33917866E+01  1.43923525E+01
  1.51622679E+01  1.61514870E+01
Alpha MO coefficients                      R   N=       42849
  9.19719485E-05 -6.42298593E-04 -7.28485019E-04 -4.60409370E-06  3.32276177E-05
 -8.91192022E-06  1.29543711E-07 -1.15077141E-06  7.49312141E-05 -1.42353610E-06
 -9.17504238E-05 -2.27348555E-05 -1.20064648E-06  3.18479313E-05 -1.80300555E-06
 -1.36392262E-06  5.66022943E-06 -5.36788131E-05 -5.29756745E-06  7.87941727E-07
 -2.34259890E-06  7.21896775E-05 -1.67154857E-04  4.59200605E-03 -2.81940785E-04
  1.49105735E-05  1.55797449E-03  1.82550873E-03 -8.98221775E-05 -5.71603410E-05
 -2.36822531E-06  5.17216305E-04  3.38301167E-04  1.31728823E-05  4.11390435E-04
  1.29482078E-03  1.78741374E-05  2.86386217E-04  2.91209260E-04  4.90133713E-06
  2.87988487E-05 -1.71643179E-06 -1.50898602E-06 -1.02560477E-05 -5.34422692E-05
 -3.77890610E-04  2.16179293E-05  1.78123968E-05  1.85310932E-04  7.17033621E-04
 -4.46710376E-04  1.16034681E-05  1.19926157E-05  5.54602637E-05  2.35716231E-04
 -3.41928427E-06 -7.18333087E-05 -3.73244400E-05  1.82501984E-06  4.75632378E-06
 -3.34898054E-05  1.04318737E-04 -1.36864687E-05 -1.87731982E-04 -1.73597691E-04
  1.92095559E-06  1.55855444E-05 -1.65396521E-04  3.16234429E-04  9.76910881E-01
 -9.21643504E-03  4.33186610E-02  2.04158317E-03 -9.19008971E-04 -3.94218285E-04
 -1.97823066E-03 -1.73238112E-05  3.30401477E-04  1.96676880E-03  2.09343350E-05
  6.26275543E-04 -9.83092349E-04  8.24068080E-06  1.15800151E-04  7.08618239E-05
  2.81200918E-06  4.63230756E-05 -1.78948242E-06 -1.60614737E-06  1.01385818E-05
 -3.99134159E-05  7.46782081E-04 -2.91810452E-05 -1.24558114E-05 -4.40082525E-04
 -1.08543200E-04 -3.59269931E-04  2.89683003E-06  8.19630333E-07 -4.50111860E-04
 -1.90141972E-04 -1.85258083E-06 -8.96985356E-06 -6.75014359E-05  1.70571682E-06
  3.22916576E-06  1.86003181E-06  4.19786572E-05 -1.21533687E-06 -3.16595172E-05
  3.71492054E-06 -1.22894491E-06  5.15605062E-06  2.92291149E-05  3.34253036E-04
  3.91554413E-05  4.64067140E-05 -2.64326027E-04 -7.04927927E-04 -1.45177068E-04
  7.96614691E-05 -6.22525844E-05 -1.10079896E-06 -6.38537901E-04  4.09595837E-04
  7.94369966E-06  9.57573327E-04  1.09432714E-04  1.24499833E-05  1.16925871E-04
  5.16720906E-05  7.53866257E-06 -1.80988578E-05  1.57943185E-06 -8.19603544E-07
  5.71885571E-06 -3.27229141E-05 -3.28987409E-04  4.78232990E-06  3.95322941E-06
 -1.19166046E-04 -8.29773590E-04 -3.62936081E-05 -1.10602227E-05  6.50233796E-06
 -8.21435867E-05  1.26207381E-04  3.15068408E-07  8.80217369E-05 -8.41761081E-05
  1.17719903E-06  3.09700808E-06  1.08977136E-04  1.05111995E-04  7.19402659E-06
  8.85978742E-05 -1.24670501E-04 -1.02278733E-05  7.27790577E-06  4.08580197E-04
  9.82924340E-05 -2.61056578E-03  1.21348263E-04 -1.24908616E-04 -2.42841710E-04
  1.37623779E-04  2.29788502E-05 -1.75514553E-05 -1.25286366E-06 -1.52808797E-04
  9.04815983E-05  9.26224197E-06 -3.09225961E-04  2.44915727E-05 -8.93904527E-06
 -1.16479105E-04 -5.57781494E-05 -5.49294474E-06 -3.38722005E-06  7.86483935E-07
  1.72495875E-07 -4.10526656E-06 -1.74050135E-05  9.33731174E-07 -7.31997535E-06
  1.46891354E-06  1.07633407E-04  5.08590844E-05 -1.00290528E-04  2.79655062E-06
 -5.16449744E-06  2.04262982E-04  1.10837236E-04  8.05113045E-07 -1.05726594E-05
 -1.21236161E-05  7.02802373E-07 -1.49422956E-06  9.81276296E-06  7.97245865E-06
 -1.40147463E-06 -1.51525672E-07  5.59527499E-05 -1.81910900E-06  5.05658685E-06
 -5.72243353E-05 -1.08516880E-04  3.87649303E-05 -9.81866489E-04 -4.84281792E-04
 -1.06977331E-05  8.38816502E-06  2.58798307E-05  2.21682330E-07 -1.62135001E-04
  2.19161646E-04 -1.91737735E-06 -4.61346803E-05  1.31688751E-04  9.41785027E-07
  2.58150939E-05 -2.30272059E-08  3.58280170E-07  1.41185420E-05  8.51491966E-06
 -2.72500237E-05  2.35320684E-07  7.22154846E-07  3.64573681E-05  5.11800242E-07
  1.12336248E-04  8.39373064E-05 -2.78561439E-05  7.44431922E-04  6.47115292E-04
 -9.65311583E-06 -4.00857831E-06  3.36861129E-08  4.90418638E-05  5.55270382E-05
 -9.06573739E-07 -8.01512180E-04  5.22277867E-04  1.45703821E-05 -5.08953017E-05
  6.25359485E-05  7.21461033E-06 -2.27993901E-06 -5.75980788E-07  3.99902312E-08
 -5.75732453E-06  1.61746748E-06 -3.55062568E-05  3.29441798E-06 -2.07117221E-07
  7.35881072E-05 -4.28910597E-05 -2.21007740E-05  1.10904140E-05  1.13731159E-06
 -2.32165415E-04 -2.06820649E-04  2.96722012E-07 -1.10151247E-05 -5.84956918E-07
 -2.85703527E-07  3.82923120E-07  1.83951915E-05  3.61862140E-06 -2.11443028E-06
  5.53130905E-05 -6.74881421E-06  4.87947235E-06  4.12989538E-07 -4.44248636E-05
  6.58666540E-05  2.64927616E-03  3.86599184E-05  9.28176543E-05 -7.15509231E-05
 -4.65095505E-04 -1.52868411E-05  8.22522192E-06 -4.01888513E-07  8.31828183E-05
 -7.15664383E-06  1.30040124E-06 -7.83014637E-05 -2.89639780E-04 -1.54223213E-05
  1.87662111E-04  5.93311979E-05 -4.42624108E-06 -8.69935583E-06 -1.23511199E-06
 -3.89675965E-08  2.54453173E-05  1.55775760E-05  4.51326923E-06  4.50317913E-06
  7.62535657E-08 -7.87179396E-05 -9.85744183E-05 -4.61314416E-06  6.98627022E-06
  1.20925054E-05 -2.61099675E-04 -1.51440664E-04 -9.87416433E-07 -2.27592353E-06
 -2.39629471E-06 -8.97323890E-07  2.98256269E-07  1.33117015E-05  2.93281547E-06
  2.56795131E-07  3.50886164E-05  3.04655332E-05  6.84268433E-06 -4.21842266E-06
 -2.02202424E-04  9.16944555E-06  2.58644500E-04  1.46488329E-03 -7.80311624E-05
 -1.53861513E-03  3.97904233E-04  1.15973387E-04  8.59615744E-05 -5.93012694E-06
  1.91848525E-03  9.17481147E-04 -7.02275323E-05 -1.28933231E-03 -4.39098401E-06
  2.13059740E-05  1.03967686E-04  1.46229217E-04 -4.14098691E-06 -1.22849013E-04
 -1.50393382E-05 -6.86208899E-06  1.60836280E-04  2.04724477E-04 -4.40197925E-04
 -5.61618268E-05 -3.50031221E-05  1.99384670E-04  8.77304058E-04  1.10838684E-05
  1.59061914E-05  2.54906786E-06 -2.15677246E-04 -2.87796674E-04 -1.92966783E-06
 -8.06670714E-06  1.30279724E-05  1.90598637E-06  5.95163073E-07 -6.22788596E-06
 -2.22354549E-05  2.28144139E-05 -8.84710352E-05 -1.54693090E-04 -1.11434284E-05
 -2.41553190E-05 -1.19560460E-04  2.12586271E-04  9.76649130E-01 -9.84886038E-03
  4.35678978E-02  4.50194770E-03 -4.45601267E-04 -2.01139552E-03 -8.90330308E-04
  8.01418565E-05  2.27401141E-03  9.32197898E-04 -8.22690336E-05 -9.13422196E-04
 -6.79989951E-04  5.39426940E-05  2.14566121E-05 -3.65986241E-05 -2.70418057E-06
 -2.31840315E-04 -1.22492859E-05 -1.33095341E-05  6.05218869E-05  8.86091368E-05
  3.89160530E-04  5.27630282E-05  1.29060224E-05 -6.43667929E-04 -6.74334982E-04
 -1.52579827E-04 -1.95644610E-05 -1.46597048E-05  9.08983572E-05  2.39681290E-04
  4.65288737E-06 -5.21804900E-05 -1.66134683E-05 -2.07624855E-06 -4.28906763E-06
  5.14503460E-06  2.51597365E-05  1.17560863E-05 -1.15990821E-04 -7.46978407E-05
 -1.33366885E-05 -1.07953177E-05  6.90951099E-05  2.25375845E-04  4.74836712E-04
  2.06021633E-03  1.16063056E-04  1.49478035E-05  1.79916975E-04 -1.73820116E-04
  1.57078544E-06  6.69228974E-04 -1.09086615E-03 -1.87145921E-06 -4.77511192E-05
 -4.56598272E-04 -7.54380481E-06 -2.61645315E-06  1.40395605E-06  7.27129333E-07
  3.69024119E-05  6.81685457E-05 -1.60209068E-04 -2.93748238E-06 -2.42574848E-06
 -1.79165321E-04 -5.06977006E-04  9.76830058E-01 -9.16320075E-03  4.34497343E-02
  1.65461249E-04 -1.13956877E-03  3.96551023E-04  2.08864496E-03  2.89960250E-05
 -4.99981303E-04 -1.96930698E-03 -2.84742949E-05  9.73514129E-04 -3.56543182E-04
  1.22211611E-05 -2.63155650E-05 -5.83692795E-05 -2.06391480E-06  2.94481471E-05
 -3.17232067E-06 -2.07361605E-06 -3.71707627E-05 -1.12055876E-04  7.56882065E-04
 -2.80984214E-05 -1.31048187E-05 -2.83869573E-04 -1.24505825E-04 -2.66391972E-04
  6.01004112E-06  6.87156039E-06  1.71457835E-04  1.24189886E-04  3.03928598E-06
  5.06931871E-05  3.91333835E-05 -9.18369212E-07 -1.97745265E-06 -2.98311866E-06
 -2.10307925E-05 -3.10640497E-07 -7.22489307E-05  9.92348135E-05 -1.53739743E-07
 -8.25240013E-06 -1.84028633E-07 -2.72901247E-04 -4.68428097E-03 -2.11151486E-04