 Entering Gaussian System, Link 0=g16
 Input=hoono_r2_1p443254.gjf
 Output=hoono_r2_1p443254.log
 Initial command:
 /sw/contrib/gaussian/g16/B01/g16/l1.exe "/scr/Gau-10784.inp" -scrdir="/scr/"
 Entering Link 1 = /sw/contrib/gaussian/g16/B01/g16/l1.exe PID=     10785.
  
 Copyright (c) 1988-2017, Gaussian, Inc.  All Rights Reserved.
  
 This is part of the Gaussian(R) 16 program.  It is based on
 the Gaussian(R) 09 system (copyright 2009, Gaussian, Inc.),
 the Gaussian(R) 03 system (copyright 2003, Gaussian, Inc.),
 the Gaussian(R) 98 system (copyright 1998, Gaussian, Inc.),
 the Gaussian(R) 94 system (copyright 1995, Gaussian, Inc.),
 the Gaussian 92(TM) system (copyright 1992, Gaussian, Inc.),
 the Gaussian 90(TM) system (copyright 1990, Gaussian, Inc.),
 the Gaussian 88(TM) system (copyright 1988, Gaussian, Inc.),
 the Gaussian 86(TM) system (copyright 1986, Carnegie Mellon
 University), and the Gaussian 82(TM) system (copyright 1983,
 Carnegie Mellon University). Gaussian is a federally registered
 trademark of Gaussian, Inc.
  
 This software contains proprietary and confidential information,
 including trade secrets, belonging to Gaussian, Inc.
  
 This software is provided under written license and may be
 used, copied, transmitted, or stored only in accord with that
 written license.
  
 The following legend is applicable only to US Government
 contracts under FAR:
  
                    RESTRICTED RIGHTS LEGEND
  
 Use, reproduction and disclosure by the US Government is
 subject to restrictions as set forth in subparagraphs (a)
 and (c) of the Commercial Computer Software - Restricted
 Rights clause in FAR 52.227-19.
  
 Gaussian, Inc.
 340 Quinnipiac St., Bldg. 40, Wallingford CT 06492
  
  
 ---------------------------------------------------------------
 Warning -- This program may not be used in any manner that
 competes with the business of Gaussian, Inc. or will provide
 assistance to any competitor of Gaussian, Inc.  The licensee
 of this program is prohibited from giving any competitor of
 Gaussian, Inc. access to this program.  By using this program,
 the user acknowledges that Gaussian, Inc. is engaged in the
 business of creating and licensing software in the field of
 computational chemistry and represents and warrants to the
 licensee that it is not a competitor of Gaussian, Inc. and that
 it will not use this program in any manner prohibited above.
 ---------------------------------------------------------------
  

 Cite this work as:
 Gaussian 16, Revision B.01,
 M. J. Frisch, G. W. Trucks, H. B. Schlegel, G. E. Scuseria, 
 M. A. Robb, J. R. Cheeseman, G. Scalmani, V. Barone, 
 G. A. Petersson, H. Nakatsuji, X. Li, M. Caricato, A. V. Marenich, 
 J. Bloino, B. G. Janesko, R. Gomperts, B. Mennucci, H. P. Hratchian, 
 J. V. Ortiz, A. F. Izmaylov, J. L. Sonnenberg, D. Williams-Young, 
 F. Ding, F. Lipparini, F. Egidi, J. Goings, B. Peng, A. Petrone, 
 T. Henderson, D. Ranasinghe, V. G. Zakrzewski, J. Gao, N. Rega, 
 G. Zheng, W. Liang, M. Hada, M. Ehara, K. Toyota, R. Fukuda, 
 J. Hasegawa, M. Ishida, T. Nakajima, Y. Honda, O. Kitao, H. Nakai, 
 T. Vreven, K. Throssell, J. A. Montgomery, Jr., J. E. Peralta, 
 F. Ogliaro, M. J. Bearpark, J. J. Heyd, E. N. Brothers, K. N. Kudin, 
 V. N. Staroverov, T. A. Keith, R. Kobayashi, J. Normand, 
 K. Raghavachari, A. P. Rendell, J. C. Burant, S. S. Iyengar, 
 J. Tomasi, M. Cossi, J. M. Millam, M. Klene, C. Adamo, R. Cammi, 
 J. W. Ochterski, R. L. Martin, K. Morokuma, O. Farkas, 
 J. B. Foresman, and D. J. Fox, Gaussian, Inc., Wallingford CT, 2016.
 
 ******************************************
 Gaussian 16:  ES64L-G16RevB.01 20-Dec-2017
                14-Feb-2022 
 ******************************************
 %nproc=28
 Will use up to   28 processors via shared memory.
 %mem=120GB
 %chk=hoono_r2_1p443254.chk
 -------------------------------------
 #p SP mp2/aug-cc-pvtz density=current
 -------------------------------------
 1/30=1,38=1,172=1/1;
 2/12=2,17=6,18=5,40=1/2;
 3/5=16,6=1,7=10,11=9,25=1,30=1,71=1/1,2,3;
 4//1;
 5/5=2,38=5/2;
 8/6=4,10=1/1;
 9/15=1,16=-3/6;
 10/5=1,13=10/2;
 6/7=2,8=2,9=2,10=2,22=-1/1;
 99/5=1,9=1/99;
 Leave Link    1 at Mon Feb 14 22:09:55 2022, MaxMem= 16106127360 cpu:               3.1 elap:               0.1
 (Enter /sw/contrib/gaussian/g16/B01/g16/l101.exe)
 -----
 title
 -----
 Symbolic Z-matrix:
 Charge =  0 Multiplicity = 1
 H
 O                    1    r1
 O                    2    r2       1    a1
 N                    3    r3       2    a2       1    d1       0
 O                    4    r4       3    a3       2    d2       0
       Variables:
  r1                    0.96898                  
  r2                    1.44325                  
  r3                    1.45878                  
  r4                    1.17073                  
  a1                   97.59495                  
  a2                  102.29752                  
  a3                  109.06955                  
  d1                  180.                       
  d2                  180.                       
 
 ITRead=  0  0  0  0  0
 MicOpt= -1 -1 -1 -1 -1
 NAtoms=      5 NQM=        5 NQMF=       0 NMMI=      0 NMMIF=      0
                NMic=       0 NMicF=      0.
                    Isotopes and Nuclear Properties:
 (Nuclear quadrupole moments (NQMom) in fm**2, nuclear magnetic moments (NMagM)
  in nuclear magnetons)

  Atom         1           2           3           4           5
 IAtWgt=           1          16          16          14          16
 AtmWgt=   1.0078250  15.9949146  15.9949146  14.0030740  15.9949146
 NucSpn=           1           0           0           2           0
 AtZEff=  -0.0000000  -0.0000000  -0.0000000  -0.0000000  -0.0000000
 NQMom=    0.0000000   0.0000000   0.0000000   2.0440000   0.0000000
 NMagM=    2.7928460   0.0000000   0.0000000   0.4037610   0.0000000
 AtZNuc=   1.0000000   8.0000000   8.0000000   7.0000000   8.0000000
 Leave Link  101 at Mon Feb 14 22:09:55 2022, MaxMem= 16106127360 cpu:               2.6 elap:               0.1
 (Enter /sw/contrib/gaussian/g16/B01/g16/l202.exe)
                          Input orientation:                          
 ---------------------------------------------------------------------
 Center     Atomic      Atomic             Coordinates (Angstroms)
 Number     Number       Type             X           Y           Z
 ---------------------------------------------------------------------
      1          1           0        0.000000    0.000000    0.000000
      2          8           0        0.000000    0.000000    0.968976
      3          8           0        1.430594    0.000000    1.159729
      4          7           0        1.550189    0.000000    2.613602
      5          8           0        2.684305    0.000000    2.904097
 ---------------------------------------------------------------------
                    Distance matrix (angstroms):
                    1          2          3          4          5
     1  H    0.000000
     2  O    0.968976   0.000000
     3  O    1.841621   1.443255   0.000000
     4  N    3.038751   2.260063   1.458784   0.000000
     5  O    3.954652   3.309107   2.148165   1.170729   0.000000
 Stoichiometry    HNO3
 Framework group  CS[SG(HNO3)]
 Deg. of freedom     7
 Full point group                 CS      NOp   2
 Largest Abelian subgroup         CS      NOp   2
 Largest concise Abelian subgroup C1      NOp   1
                         Standard orientation:                         
 ---------------------------------------------------------------------
 Center     Atomic      Atomic             Coordinates (Angstroms)
 Number     Number       Type             X           Y           Z
 ---------------------------------------------------------------------
      1          1           0        1.532498    1.694413   -0.000000
      2          8           0        1.442147    0.729659   -0.000000
      3          8           0       -0.000000    0.673129    0.000000
      4          7           0       -0.254639   -0.763258    0.000000
      5          8           0       -1.410901   -0.946739    0.000000
 ---------------------------------------------------------------------
 Rotational constants (GHZ):          55.2428803           5.0385926           4.6174447
 Leave Link  202 at Mon Feb 14 22:09:55 2022, MaxMem= 16106127360 cpu:               0.3 elap:               0.0
 (Enter /sw/contrib/gaussian/g16/B01/g16/l301.exe)
 Standard basis: Aug-CC-pVTZ (5D, 7F)
 Ernie: Thresh=  0.10000D-02 Tol=  0.10000D-05 Strict=F.
 Ernie:  12 primitive shells out of 131 were deleted.
 There are   166 symmetry adapted cartesian basis functions of A'  symmetry.
 There are    79 symmetry adapted cartesian basis functions of A"  symmetry.
 There are   136 symmetry adapted basis functions of A'  symmetry.
 There are    71 symmetry adapted basis functions of A"  symmetry.
   207 basis functions,   315 primitive gaussians,   245 cartesian basis functions
    16 alpha electrons       16 beta electrons
       nuclear repulsion energy       117.1619242777 Hartrees.
 IExCor=    0 DFT=F Ex=HF Corr=None ExCW=0 ScaHFX=  1.000000
 ScaDFX=  1.000000  1.000000  1.000000  1.000000 ScalE2=  1.000000  1.000000
 IRadAn=      5 IRanWt=     -1 IRanGd=            0 ICorTp=0 IEmpDi=  4
 NAtoms=    5 NActive=    5 NUniq=    5 SFac= 1.00D+00 NAtFMM=   60 NAOKFM=F Big=F
 Integral buffers will be    131072 words long.
 Raffenetti 1 integral format.
 Two-electron integral symmetry is turned on.
 Leave Link  301 at Mon Feb 14 22:09:55 2022, MaxMem= 16106127360 cpu:               1.7 elap:               0.1
 (Enter /sw/contrib/gaussian/g16/B01/g16/l302.exe)
 NPDir=0 NMtPBC=     1 NCelOv=     1 NCel=       1 NClECP=     1 NCelD=      1
         NCelK=      1 NCelE2=     1 NClLst=     1 CellRange=     0.0.
 One-electron integrals computed using PRISM.
 One-electron integral symmetry used in STVInt
 NBasis=   207 RedAO= T EigKep=  1.80D-04  NBF=   136    71
 NBsUse=   207 1.00D-06 EigRej= -1.00D+00 NBFU=   136    71
 Leave Link  302 at Mon Feb 14 22:09:55 2022, MaxMem= 16106127360 cpu:               6.3 elap:               0.3
 (Enter /sw/contrib/gaussian/g16/B01/g16/l303.exe)
 DipDrv:  MaxL=1.
 Leave Link  303 at Mon Feb 14 22:09:56 2022, MaxMem= 16106127360 cpu:               3.2 elap:               0.2
 (Enter /sw/contrib/gaussian/g16/B01/g16/l401.exe)
 ExpMin= 2.53D-02 ExpMax= 1.53D+04 ExpMxC= 5.22D+02 IAcc=3 IRadAn=         5 AccDes= 0.00D+00
 Harris functional with IExCor=  205 and IRadAn=       5 diagonalized for initial guess.
 HarFok:  IExCor=  205 AccDes= 0.00D+00 IRadAn=         5 IDoV= 1 UseB2=F ITyADJ=14
 ICtDFT=  3500011 ScaDFX=  1.000000  1.000000  1.000000  1.000000
 FoFCou: FMM=F IPFlag=           0 FMFlag=      100000 FMFlg1=           0
         NFxFlg=           0 DoJE=T BraDBF=F KetDBF=T FulRan=T
         wScrn=  0.000000 ICntrl=       500 IOpCl=  0 I1Cent=   200000004 NGrid=           0
         NMat0=    1 NMatS0=      1 NMatT0=    0 NMatD0=    1 NMtDS0=    0 NMtDT0=    0
 Petite list used in FoFCou.
 Harris En= -279.629131452443    
 JPrj=0 DoOrth=F DoCkMO=F.
 Initial guess orbital symmetries:
       Occupied  (A') (A') (A') (A') (A') (A') (A') (A') (A') (A')
                 (A") (A') (A') (A") (A") (A')
       Virtual   (A") (A') (A') (A') (A') (A') (A") (A') (A') (A')
                 (A") (A') (A") (A') (A') (A") (A') (A") (A') (A')
                 (A') (A') (A') (A') (A') (A") (A') (A") (A') (A')
                 (A") (A') (A") (A') (A') (A") (A') (A") (A') (A')
                 (A") (A') (A") (A') (A") (A') (A') (A') (A") (A")
                 (A') (A') (A') (A') (A") (A') (A") (A') (A") (A')
                 (A') (A') (A") (A') (A') (A") (A') (A") (A') (A')
                 (A") (A') (A') (A") (A") (A') (A') (A") (A') (A')
                 (A') (A") (A') (A") (A") (A') (A') (A") (A') (A')
                 (A') (A") (A') (A") (A') (A") (A") (A') (A') (A")
                 (A') (A') (A") (A') (A') (A') (A') (A") (A") (A')
                 (A") (A') (A') (A') (A") (A') (A') (A') (A") (A')
                 (A") (A') (A') (A") (A") (A') (A') (A") (A") (A')
                 (A') (A') (A') (A") (A") (A') (A") (A') (A') (A')
                 (A') (A") (A") (A') (A') (A") (A') (A') (A') (A')
                 (A") (A') (A') (A") (A') (A") (A') (A") (A') (A")
                 (A') (A") (A') (A") (A') (A") (A") (A") (A') (A')
                 (A") (A') (A") (A') (A") (A') (A") (A") (A') (A')
                 (A') (A') (A') (A') (A') (A') (A') (A') (A') (A')
                 (A')
 The electronic state of the initial guess is 1-A'.
 Leave Link  401 at Mon Feb 14 22:09:56 2022, MaxMem= 16106127360 cpu:               8.1 elap:               0.3
 (Enter /sw/contrib/gaussian/g16/B01/g16/l502.exe)
 Keep R1 ints in memory in symmetry-blocked form, NReq=348887737.
 FoFCou: FMM=F IPFlag=           0 FMFlag=           0 FMFlg1=           0
         NFxFlg=           0 DoJE=F BraDBF=F KetDBF=F FulRan=T
         wScrn=  0.000000 ICntrl=       600 IOpCl=  0 I1Cent=           0 NGrid=           0
         NMat0=    1 NMatS0=  21528 NMatT0=    0 NMatD0=    1 NMtDS0=    0 NMtDT0=    0
 Petite list used in FoFCou.
 Closed shell SCF:
 Using DIIS extrapolation, IDIIS=  1040.
 NGot= 16106127360 LenX= 15988850015 LenY= 15988789549
 Requested convergence on RMS density matrix=1.00D-08 within 128 cycles.
 Requested convergence on MAX density matrix=1.00D-06.
 Requested convergence on             energy=1.00D-06.
 No special actions if energy rises.

 Cycle   1  Pass 1  IDiag  1:
 E= -279.371644411727    
 DIIS: error= 2.46D-02 at cycle   1 NSaved=   1.
 NSaved= 1 IEnMin= 1 EnMin= -279.371644411727     IErMin= 1 ErrMin= 2.46D-02
 ErrMax= 2.46D-02  0.00D+00 EMaxC= 1.00D-01 BMatC= 4.38D-01 BMatP= 4.38D-01
 IDIUse=3 WtCom= 7.54D-01 WtEn= 2.46D-01
 Coeff-Com:  0.100D+01
 Coeff-En:   0.100D+01
 Coeff:      0.100D+01
 Gap=     0.511 Goal=   None    Shift=    0.000
 GapD=    0.511 DampG=2.000 DampE=0.500 DampFc=1.0000 IDamp=-1.
 RMSDP=1.62D-03 MaxDP=9.92D-02              OVMax= 1.12D-01

 Cycle   2  Pass 1  IDiag  1:
 E= -279.453931744383     Delta-E=       -0.082287332656 Rises=F Damp=F
 DIIS: error= 1.77D-02 at cycle   2 NSaved=   2.
 NSaved= 2 IEnMin= 2 EnMin= -279.453931744383     IErMin= 2 ErrMin= 1.77D-02
 ErrMax= 1.77D-02  0.00D+00 EMaxC= 1.00D-01 BMatC= 7.09D-02 BMatP= 4.38D-01
 IDIUse=3 WtCom= 8.23D-01 WtEn= 1.77D-01
 Coeff-Com:  0.193D+00 0.807D+00
 Coeff-En:   0.000D+00 0.100D+01
 Coeff:      0.159D+00 0.841D+00
 Gap=     0.530 Goal=   None    Shift=    0.000
 RMSDP=8.96D-04 MaxDP=3.74D-02 DE=-8.23D-02 OVMax= 6.87D-02

 Cycle   3  Pass 1  IDiag  1:
 E= -279.482726092893     Delta-E=       -0.028794348510 Rises=F Damp=F
 DIIS: error= 1.03D-02 at cycle   3 NSaved=   3.
 NSaved= 3 IEnMin= 3 EnMin= -279.482726092893     IErMin= 3 ErrMin= 1.03D-02
 ErrMax= 1.03D-02  0.00D+00 EMaxC= 1.00D-01 BMatC= 2.83D-02 BMatP= 7.09D-02
 IDIUse=3 WtCom= 8.97D-01 WtEn= 1.03D-01
 Coeff-Com: -0.328D-01 0.378D+00 0.655D+00
 Coeff-En:   0.000D+00 0.239D+00 0.761D+00
 Coeff:     -0.295D-01 0.364D+00 0.666D+00
 Gap=     0.510 Goal=   None    Shift=    0.000
 RMSDP=3.74D-04 MaxDP=1.56D-02 DE=-2.88D-02 OVMax= 3.79D-02

 Cycle   4  Pass 1  IDiag  1:
 E= -279.501492881843     Delta-E=       -0.018766788950 Rises=F Damp=F
 DIIS: error= 1.28D-03 at cycle   4 NSaved=   4.
 NSaved= 4 IEnMin= 4 EnMin= -279.501492881843     IErMin= 4 ErrMin= 1.28D-03
 ErrMax= 1.28D-03  0.00D+00 EMaxC= 1.00D-01 BMatC= 4.87D-04 BMatP= 2.83D-02
 IDIUse=3 WtCom= 9.87D-01 WtEn= 1.28D-02
 Coeff-Com: -0.115D-01 0.566D-01 0.157D+00 0.798D+00
 Coeff-En:   0.000D+00 0.000D+00 0.000D+00 0.100D+01
 Coeff:     -0.114D-01 0.559D-01 0.155D+00 0.800D+00
 Gap=     0.502 Goal=   None    Shift=    0.000
 RMSDP=9.03D-05 MaxDP=2.73D-03 DE=-1.88D-02 OVMax= 1.11D-02

 Cycle   5  Pass 1  IDiag  1:
 E= -279.502169464556     Delta-E=       -0.000676582713 Rises=F Damp=F
 DIIS: error= 7.31D-04 at cycle   5 NSaved=   5.
 NSaved= 5 IEnMin= 5 EnMin= -279.502169464556     IErMin= 5 ErrMin= 7.31D-04
 ErrMax= 7.31D-04  0.00D+00 EMaxC= 1.00D-01 BMatC= 8.69D-05 BMatP= 4.87D-04
 IDIUse=3 WtCom= 9.93D-01 WtEn= 7.31D-03
 Coeff-Com:  0.614D-02-0.726D-01-0.119D+00 0.167D-01 0.117D+01
 Coeff-En:   0.000D+00 0.000D+00 0.000D+00 0.000D+00 0.100D+01
 Coeff:      0.610D-02-0.721D-01-0.118D+00 0.165D-01 0.117D+01
 Gap=     0.502 Goal=   None    Shift=    0.000
 RMSDP=7.71D-05 MaxDP=2.13D-03 DE=-6.77D-04 OVMax= 1.13D-02

 Cycle   6  Pass 1  IDiag  1:
 E= -279.502487915433     Delta-E=       -0.000318450877 Rises=F Damp=F
 DIIS: error= 2.77D-04 at cycle   6 NSaved=   6.
 NSaved= 6 IEnMin= 6 EnMin= -279.502487915433     IErMin= 6 ErrMin= 2.77D-04
 ErrMax= 2.77D-04  0.00D+00 EMaxC= 1.00D-01 BMatC= 1.66D-05 BMatP= 8.69D-05
 IDIUse=3 WtCom= 9.97D-01 WtEn= 2.77D-03
 Coeff-Com:  0.472D-03 0.321D-02 0.729D-02-0.133D+00-0.252D+00 0.137D+01
 Coeff-En:   0.000D+00 0.000D+00 0.000D+00 0.000D+00 0.000D+00 0.100D+01
 Coeff:      0.471D-03 0.320D-02 0.727D-02-0.133D+00-0.252D+00 0.137D+01
 Gap=     0.502 Goal=   None    Shift=    0.000
 RMSDP=4.61D-05 MaxDP=1.26D-03 DE=-3.18D-04 OVMax= 5.68D-03

 Cycle   7  Pass 1  IDiag  1:
 E= -279.502561661937     Delta-E=       -0.000073746504 Rises=F Damp=F
 DIIS: error= 1.17D-04 at cycle   7 NSaved=   7.
 NSaved= 7 IEnMin= 7 EnMin= -279.502561661937     IErMin= 7 ErrMin= 1.17D-04
 ErrMax= 1.17D-04  0.00D+00 EMaxC= 1.00D-01 BMatC= 4.01D-06 BMatP= 1.66D-05
 IDIUse=3 WtCom= 9.99D-01 WtEn= 1.17D-03
 Coeff-Com: -0.941D-03 0.132D-01 0.260D-01-0.179D-01-0.271D+00 0.325D+00
 Coeff-Com:  0.925D+00
 Coeff-En:   0.000D+00 0.000D+00 0.000D+00 0.000D+00 0.000D+00 0.000D+00
 Coeff-En:   0.100D+01
 Coeff:     -0.940D-03 0.132D-01 0.260D-01-0.178D-01-0.270D+00 0.325D+00
 Coeff:      0.925D+00
 Gap=     0.502 Goal=   None    Shift=    0.000
 RMSDP=1.32D-05 MaxDP=3.79D-04 DE=-7.37D-05 OVMax= 1.55D-03

 Cycle   8  Pass 1  IDiag  1:
 E= -279.502570054486     Delta-E=       -0.000008392549 Rises=F Damp=F
 DIIS: error= 5.95D-05 at cycle   8 NSaved=   8.
 NSaved= 8 IEnMin= 8 EnMin= -279.502570054486     IErMin= 8 ErrMin= 5.95D-05
 ErrMax= 5.95D-05  0.00D+00 EMaxC= 1.00D-01 BMatC= 6.06D-07 BMatP= 4.01D-06
 IDIUse=1 WtCom= 1.00D+00 WtEn= 0.00D+00
 Coeff-Com: -0.448D-03 0.344D-02 0.762D-02 0.273D-01-0.405D-01-0.200D+00
 Coeff-Com:  0.228D+00 0.975D+00
 Coeff:     -0.448D-03 0.344D-02 0.762D-02 0.273D-01-0.405D-01-0.200D+00
 Coeff:      0.228D+00 0.975D+00
 Gap=     0.502 Goal=   None    Shift=    0.000
 RMSDP=6.49D-06 MaxDP=1.93D-04 DE=-8.39D-06 OVMax= 7.02D-04

 Cycle   9  Pass 1  IDiag  1:
 E= -279.502571688988     Delta-E=       -0.000001634502 Rises=F Damp=F
 DIIS: error= 1.58D-05 at cycle   9 NSaved=   9.
 NSaved= 9 IEnMin= 9 EnMin= -279.502571688988     IErMin= 9 ErrMin= 1.58D-05
 ErrMax= 1.58D-05  0.00D+00 EMaxC= 1.00D-01 BMatC= 7.17D-08 BMatP= 6.06D-07
 IDIUse=1 WtCom= 1.00D+00 WtEn= 0.00D+00
 Coeff-Com:  0.123D-03-0.172D-02-0.309D-02-0.215D-02 0.341D-01-0.157D-03
 Coeff-Com: -0.183D+00-0.715D-01 0.123D+01
 Coeff:      0.123D-03-0.172D-02-0.309D-02-0.215D-02 0.341D-01-0.157D-03
 Coeff:     -0.183D+00-0.715D-01 0.123D+01
 Gap=     0.502 Goal=   None    Shift=    0.000
 RMSDP=1.94D-06 MaxDP=6.65D-05 DE=-1.63D-06 OVMax= 1.77D-04

 Cycle  10  Pass 1  IDiag  1:
 E= -279.502571849541     Delta-E=       -0.000000160553 Rises=F Damp=F
 DIIS: error= 4.18D-06 at cycle  10 NSaved=  10.
 NSaved=10 IEnMin=10 EnMin= -279.502571849541     IErMin=10 ErrMin= 4.18D-06
 ErrMax= 4.18D-06  0.00D+00 EMaxC= 1.00D-01 BMatC= 5.56D-09 BMatP= 7.17D-08
 IDIUse=1 WtCom= 1.00D+00 WtEn= 0.00D+00
 Coeff-Com:  0.318D-04-0.253D-03-0.342D-03-0.273D-02 0.184D-02 0.199D-01
 Coeff-Com: -0.176D-01-0.715D-01-0.753D-01 0.115D+01
 Coeff:      0.318D-04-0.253D-03-0.342D-03-0.273D-02 0.184D-02 0.199D-01
 Coeff:     -0.176D-01-0.715D-01-0.753D-01 0.115D+01
 Gap=     0.502 Goal=   None    Shift=    0.000
 RMSDP=5.02D-07 MaxDP=2.10D-05 DE=-1.61D-07 OVMax= 4.22D-05

 Cycle  11  Pass 1  IDiag  1:
 E= -279.502571862036     Delta-E=       -0.000000012494 Rises=F Damp=F
 DIIS: error= 2.04D-06 at cycle  11 NSaved=  11.
 NSaved=11 IEnMin=11 EnMin= -279.502571862036     IErMin=11 ErrMin= 2.04D-06
 ErrMax= 2.04D-06  0.00D+00 EMaxC= 1.00D-01 BMatC= 6.69D-10 BMatP= 5.56D-09
 IDIUse=1 WtCom= 1.00D+00 WtEn= 0.00D+00
 Coeff-Com: -0.213D-04 0.244D-03 0.492D-03 0.549D-03-0.429D-02-0.372D-02
 Coeff-Com:  0.243D-01 0.266D-01-0.139D+00-0.178D+00 0.127D+01
 Coeff:     -0.213D-04 0.244D-03 0.492D-03 0.549D-03-0.429D-02-0.372D-02
 Coeff:      0.243D-01 0.266D-01-0.139D+00-0.178D+00 0.127D+01
 Gap=     0.502 Goal=   None    Shift=    0.000
 RMSDP=1.79D-07 MaxDP=6.58D-06 DE=-1.25D-08 OVMax= 1.74D-05

 Cycle  12  Pass 1  IDiag  1:
 E= -279.502571863860     Delta-E=       -0.000000001824 Rises=F Damp=F
 DIIS: error= 5.93D-07 at cycle  12 NSaved=  12.
 NSaved=12 IEnMin=12 EnMin= -279.502571863860     IErMin=12 ErrMin= 5.93D-07
 ErrMax= 5.93D-07  0.00D+00 EMaxC= 1.00D-01 BMatC= 7.20D-11 BMatP= 6.69D-10
 IDIUse=1 WtCom= 1.00D+00 WtEn= 0.00D+00
 Coeff-Com:  0.124D-05-0.290D-04-0.633D-04 0.177D-03 0.107D-02-0.232D-02
 Coeff-Com: -0.414D-02 0.594D-02 0.413D-01-0.112D+00-0.284D+00 0.135D+01
 Coeff:      0.124D-05-0.290D-04-0.633D-04 0.177D-03 0.107D-02-0.232D-02
 Coeff:     -0.414D-02 0.594D-02 0.413D-01-0.112D+00-0.284D+00 0.135D+01
 Gap=     0.502 Goal=   None    Shift=    0.000
 RMSDP=7.19D-08 MaxDP=2.82D-06 DE=-1.82D-09 OVMax= 6.70D-06

 Cycle  13  Pass 1  IDiag  1:
 E= -279.502571864089     Delta-E=       -0.000000000229 Rises=F Damp=F
 DIIS: error= 1.64D-07 at cycle  13 NSaved=  13.
 NSaved=13 IEnMin=13 EnMin= -279.502571864089     IErMin=13 ErrMin= 1.64D-07
 ErrMax= 1.64D-07  0.00D+00 EMaxC= 1.00D-01 BMatC= 3.96D-12 BMatP= 7.20D-11
 IDIUse=1 WtCom= 1.00D+00 WtEn= 0.00D+00
 Coeff-Com:  0.127D-05-0.139D-04-0.223D-04-0.901D-04 0.122D-03 0.778D-03
 Coeff-Com: -0.105D-02-0.305D-02 0.568D-03 0.407D-01-0.334D-01-0.328D+00
 Coeff-Com:  0.132D+01
 Coeff:      0.127D-05-0.139D-04-0.223D-04-0.901D-04 0.122D-03 0.778D-03
 Coeff:     -0.105D-02-0.305D-02 0.568D-03 0.407D-01-0.334D-01-0.328D+00
 Coeff:      0.132D+01
 Gap=     0.502 Goal=   None    Shift=    0.000
 RMSDP=1.90D-08 MaxDP=5.60D-07 DE=-2.29D-10 OVMax= 1.54D-06

 Cycle  14  Pass 1  IDiag  1:
 E= -279.502571864102     Delta-E=       -0.000000000013 Rises=F Damp=F
 DIIS: error= 2.35D-08 at cycle  14 NSaved=  14.
 NSaved=14 IEnMin=14 EnMin= -279.502571864102     IErMin=14 ErrMin= 2.35D-08
 ErrMax= 2.35D-08  0.00D+00 EMaxC= 1.00D-01 BMatC= 1.84D-13 BMatP= 3.96D-12
 IDIUse=1 WtCom= 1.00D+00 WtEn= 0.00D+00
 Coeff-Com: -0.185D-06 0.303D-05 0.548D-05 0.461D-05-0.801D-04 0.431D-04
 Coeff-Com:  0.305D-03 0.177D-03-0.238D-02 0.139D-02 0.166D-01-0.251D-01
 Coeff-Com: -0.195D+00 0.120D+01
 Coeff:     -0.185D-06 0.303D-05 0.548D-05 0.461D-05-0.801D-04 0.431D-04
 Coeff:      0.305D-03 0.177D-03-0.238D-02 0.139D-02 0.166D-01-0.251D-01
 Coeff:     -0.195D+00 0.120D+01
 Gap=     0.502 Goal=   None    Shift=    0.000
 RMSDP=3.68D-09 MaxDP=9.05D-08 DE=-1.31D-11 OVMax= 3.25D-07

 SCF Done:  E(RHF) =  -279.502571864     A.U. after   14 cycles
            NFock= 14  Conv=0.37D-08     -V/T= 2.0023
 KE= 2.788658367633D+02 PE=-8.956635197036D+02 EE= 2.201331867986D+02
 Leave Link  502 at Mon Feb 14 22:10:00 2022, MaxMem= 16106127360 cpu:              63.8 elap:               4.0
 (Enter /sw/contrib/gaussian/g16/B01/g16/l801.exe)
 ExpMin= 2.53D-02 ExpMax= 1.53D+04 ExpMxC= 5.22D+02 IAcc=3 IRadAn=         5 AccDes= 0.00D+00
 HarFok:  IExCor=  205 AccDes= 0.00D+00 IRadAn=         5 IDoV=-2 UseB2=F ITyADJ=14
 ICtDFT= 12500011 ScaDFX=  1.000000  1.000000  1.000000  1.000000
 Largest valence mixing into a core orbital is  2.08D-04
 Largest core mixing into a valence orbital is  3.62D-05
 Range of M.O.s used for correlation:     5   207
 NBasis=   207 NAE=    16 NBE=    16 NFC=     4 NFV=     0
 NROrb=    203 NOA=    12 NOB=    12 NVA=   191 NVB=   191

 **** Warning!!: The largest alpha MO coefficient is  0.17722512D+02

 Leave Link  801 at Mon Feb 14 22:10:00 2022, MaxMem= 16106127360 cpu:               2.0 elap:               0.1
 (Enter /sw/contrib/gaussian/g16/B01/g16/l906.exe)
 Frozen-core derivative calculation, NFC=   4 NFV=   0.
 FulOut=F Deriv=T AODrv=F NAtomX=     5
   MMem=          76  MDisk=          12 MDiskD=          12
  W3Min=      811440 MinDsk=     1524655 NBas6D=         245
 NBas2D=       30762    NTT=       30135    LW2=     3500000
    MDV= 16105579885 MDiskM=      328644 NBas2p=       30466
 Fully in-core method, ICMem=   960157634.
 IMap=   1   2   3   4   5   6   7   8   9  10  11  12  13  14  15  16
 JobTyp=1 Pass  1 fully in-core, NPsUse= 28.
 Compute canonical integrals.
 FoFCou: FMM=F IPFlag=           0 FMFlag=           0 FMFlg1=           0
         NFxFlg=           0 DoJE=F BraDBF=F KetDBF=F FulRan=T
         wScrn=  0.000000 ICntrl=       600 IOpCl=  1 I1Cent=           0 NGrid=           0
         NMat0=    1 NMatS0=  30762 NMatT0=    0 NMatD0=    1 NMtDS0=    0 NMtDT0=    0
 Symmetry not used in FoFCou.
 Spin components of T(2) and E(2):
     alpha-alpha T2 =       0.3391619086D-01 E2=     -0.1223329686D+00
     alpha-beta  T2 =       0.1860151406D+00 E2=     -0.6994324746D+00
     beta-beta   T2 =       0.3391619086D-01 E2=     -0.1223329686D+00
 The integrals were generated   1 times.
 ANorm=    0.1119753331D+01
 E2 =    -0.9440984118D+00 EUMP2 =    -0.28044667027590D+03
 Leave Link  906 at Mon Feb 14 22:10:09 2022, MaxMem= 16106127360 cpu:             243.9 elap:               8.7
 (Enter /sw/contrib/gaussian/g16/B01/g16/l1002.exe)
 Minotr:  Closed shell wavefunction.
          Computing MP2/KS-MP2 derivatives.
          Using Z-Vector for PSCF gradient.
          Skipping F1 and S1 gradient terms here.
          Frozen-core window.
          Direct CPHF calculation.
          Differentiating once with respect to electric field.
                with respect to dipole field.
          Electric field/nuclear overlap derivatives assumed to be zero.
          Using symmetry in CPHF.
          Requested convergence is 1.0D-10 RMS, and 1.0D-09 maximum.
          NewPWx=F KeepS1=T KeepF1=T KeepIn=T MapXYZ=F SortEE=F KeepMc=T.
 Keep R1 ints in memory in symmetry-blocked form, NReq=348888868.
 FoFCou: FMM=F IPFlag=           0 FMFlag=           0 FMFlg1=           0
         NFxFlg=           0 DoJE=F BraDBF=F KetDBF=F FulRan=T
         wScrn=  0.000000 ICntrl=       600 IOpCl=  0 I1Cent=           0 NGrid=           0
         NMat0=    1 NMatS0=  21528 NMatT0=    0 NMatD0=    1 NMtDS0=    0 NMtDT0=    0
 Petite list used in FoFCou.
          MDV=   16106127360 using IRadAn=       5.
          Solving linear equations separately, MaxMat=       0.
          There are     1 degrees of freedom in the 1st order CPHF.  IDoFFX=0 NUNeed=     1.
 LinEq1:  Iter=  0 NonCon=     1 RMS=5.94D-03 Max=1.32D-01 NDo=     1
 AX will form     1 AO Fock derivatives at one time.
 LinEq1:  Iter=  1 NonCon=     1 RMS=1.90D-03 Max=3.85D-02 NDo=     1
 LinEq1:  Iter=  2 NonCon=     1 RMS=8.66D-04 Max=1.39D-02 NDo=     1
 LinEq1:  Iter=  3 NonCon=     1 RMS=3.86D-04 Max=7.86D-03 NDo=     1
 LinEq1:  Iter=  4 NonCon=     1 RMS=1.20D-04 Max=1.92D-03 NDo=     1
 LinEq1:  Iter=  5 NonCon=     1 RMS=4.65D-05 Max=7.42D-04 NDo=     1
 LinEq1:  Iter=  6 NonCon=     1 RMS=2.05D-05 Max=2.57D-04 NDo=     1
 LinEq1:  Iter=  7 NonCon=     1 RMS=8.12D-06 Max=1.59D-04 NDo=     1
 LinEq1:  Iter=  8 NonCon=     1 RMS=3.45D-06 Max=3.44D-05 NDo=     1
 LinEq1:  Iter=  9 NonCon=     1 RMS=9.38D-07 Max=1.30D-05 NDo=     1
 LinEq1:  Iter= 10 NonCon=     1 RMS=1.84D-07 Max=1.97D-06 NDo=     1
 LinEq1:  Iter= 11 NonCon=     1 RMS=3.43D-08 Max=3.73D-07 NDo=     1
 LinEq1:  Iter= 12 NonCon=     1 RMS=8.20D-09 Max=1.35D-07 NDo=     1
 LinEq1:  Iter= 13 NonCon=     1 RMS=1.45D-09 Max=2.72D-08 NDo=     1
 LinEq1:  Iter= 14 NonCon=     1 RMS=2.62D-10 Max=3.67D-09 NDo=     1
 LinEq1:  Iter= 15 NonCon=     0 RMS=4.70D-11 Max=5.31D-10 NDo=     1
 Linear equations converged to 1.000D-10 1.000D-09 after    15 iterations.
 End of Minotr F.D. properties file   721 does not exist.
 End of Minotr F.D. properties file   722 does not exist.
 End of Minotr F.D. properties file   788 does not exist.
 Leave Link 1002 at Mon Feb 14 22:10:13 2022, MaxMem= 16106127360 cpu:              52.6 elap:               3.9
 (Enter /sw/contrib/gaussian/g16/B01/g16/l601.exe)
 Copying SCF densities to generalized density rwf, IOpCl= 0 IROHF=0.

 **********************************************************************

            Population analysis using the MP2 Density.

 **********************************************************************

 Orbital symmetries:
       Occupied  (A') (A') (A') (A') (A') (A') (A') (A') (A') (A')
                 (A") (A') (A") (A') (A") (A')
       Virtual   (A') (A") (A') (A') (A") (A') (A') (A') (A") (A')
                 (A") (A') (A') (A") (A') (A') (A') (A") (A') (A')
                 (A') (A') (A') (A') (A") (A') (A') (A") (A') (A')
                 (A") (A') (A") (A') (A') (A") (A') (A") (A') (A')
                 (A") (A') (A") (A') (A') (A") (A') (A') (A") (A')
                 (A") (A') (A') (A') (A") (A') (A") (A') (A") (A')
                 (A') (A') (A") (A') (A') (A") (A') (A") (A') (A')
                 (A") (A') (A') (A") (A") (A') (A') (A") (A') (A')
                 (A') (A") (A') (A") (A") (A') (A') (A") (A') (A')
                 (A") (A') (A') (A") (A') (A") (A') (A") (A') (A')
                 (A") (A') (A") (A') (A') (A") (A') (A') (A") (A')
                 (A") (A') (A') (A') (A") (A') (A') (A') (A") (A')
                 (A") (A') (A") (A') (A') (A") (A") (A') (A") (A')
                 (A') (A') (A') (A") (A") (A") (A') (A') (A') (A')
                 (A") (A') (A") (A') (A') (A") (A') (A') (A') (A')
                 (A") (A') (A') (A") (A') (A") (A') (A") (A') (A")
                 (A') (A") (A') (A') (A") (A") (A") (A') (A") (A')
                 (A") (A') (A") (A') (A") (A') (A") (A") (A') (A')
                 (A') (A') (A') (A') (A') (A') (A') (A') (A') (A')
                 (A')
 The electronic state is 1-A'.
 Alpha  occ. eigenvalues --  -20.69022 -20.68409 -20.65898 -15.81259  -1.62441
 Alpha  occ. eigenvalues --   -1.50044  -1.25232  -0.94823  -0.77405  -0.76014
 Alpha  occ. eigenvalues --   -0.71289  -0.67942  -0.62157  -0.59098  -0.48310
 Alpha  occ. eigenvalues --   -0.47222
 Alpha virt. eigenvalues --    0.02965   0.07169   0.08622   0.10176   0.13395
 Alpha virt. eigenvalues --    0.13447   0.14414   0.15458   0.17823   0.19407
 Alpha virt. eigenvalues --    0.19976   0.20647   0.22193   0.23748   0.24075
 Alpha virt. eigenvalues --    0.26615   0.29353   0.30398   0.31075   0.34420
 Alpha virt. eigenvalues --    0.35019   0.38744   0.42262   0.43184   0.52753
 Alpha virt. eigenvalues --    0.52949   0.55870   0.58197   0.62618   0.63821
 Alpha virt. eigenvalues --    0.67441   0.68431   0.70734   0.71080   0.72474
 Alpha virt. eigenvalues --    0.72911   0.74457   0.79216   0.79238   0.81031
 Alpha virt. eigenvalues --    0.81292   0.83143   0.86836   0.90947   0.92216
 Alpha virt. eigenvalues --    0.92731   0.95613   0.97813   0.98539   1.01652
 Alpha virt. eigenvalues --    1.05280   1.05456   1.08349   1.11893   1.14294
 Alpha virt. eigenvalues --    1.19030   1.22077   1.23352   1.33914   1.35115
 Alpha virt. eigenvalues --    1.38635   1.45385   1.48761   1.50814   1.53872
 Alpha virt. eigenvalues --    1.56786   1.58047   1.61397   1.66557   1.67095
 Alpha virt. eigenvalues --    1.70348   1.79454   1.83215   1.83496   1.87949
 Alpha virt. eigenvalues --    1.91113   1.95631   1.99361   2.00455   2.07834
 Alpha virt. eigenvalues --    2.12327   2.13222   2.15269   2.22502   2.26555
 Alpha virt. eigenvalues --    2.26703   2.29027   2.31565   2.34746   2.38477
 Alpha virt. eigenvalues --    2.42627   2.43062   2.45494   2.46268   2.47817
 Alpha virt. eigenvalues --    2.50263   2.59096   2.59799   2.62293   2.62758
 Alpha virt. eigenvalues --    2.63806   2.67212   2.75830   2.82552   2.85888
 Alpha virt. eigenvalues --    2.89007   2.89946   2.92796   2.96085   3.03239
 Alpha virt. eigenvalues --    3.06803   3.11919   3.21750   3.23320   3.32048
 Alpha virt. eigenvalues --    3.33733   3.52158   3.64546   3.83856   3.84730
 Alpha virt. eigenvalues --    4.15084   4.16715   4.18553   4.25908   4.35457
 Alpha virt. eigenvalues --    4.39586   4.47496   4.51753   4.66363   4.71679
 Alpha virt. eigenvalues --    4.80606   4.82357   4.82990   4.89678   5.02421
 Alpha virt. eigenvalues --    5.07795   5.10570   5.14435   5.17957   5.24413
 Alpha virt. eigenvalues --    5.27231   5.30863   5.33130   5.35811   5.61290
 Alpha virt. eigenvalues --    5.67384   5.77281   5.84806   5.96256   6.17137
 Alpha virt. eigenvalues --    6.29058   6.34009   6.39183   6.49280   6.50524
 Alpha virt. eigenvalues --    6.61058   6.66046   6.69813   6.75689   6.76890
 Alpha virt. eigenvalues --    6.83293   6.89944   7.02308   7.06431   7.07080
 Alpha virt. eigenvalues --    7.09979   7.12620   7.15865   7.18608   7.22812
 Alpha virt. eigenvalues --    7.24577   7.30879   7.32555   7.34770   7.40227
 Alpha virt. eigenvalues --    7.44620   7.48576   7.61642   7.62219   7.63228
 Alpha virt. eigenvalues --    7.66987   7.80140   7.88990   8.11190   8.32958
 Alpha virt. eigenvalues --    8.42088   8.54553  13.42657  14.40876  15.17745
 Alpha virt. eigenvalues --   16.15401
          Condensed to atoms (all electrons):
               1          2          3          4          5
     1  H    0.590310   0.128780   0.019349   0.012659  -0.000699
     2  O    0.128780   8.336549  -0.188550  -0.092433   0.015899
     3  O    0.019349  -0.188550   8.483633  -0.128707  -0.039288
     4  N    0.012659  -0.092433  -0.128707   6.973938  -0.056178
     5  O   -0.000699   0.015899  -0.039288  -0.056178   8.273907
 Mulliken charges:
               1
     1  H    0.249600
     2  O   -0.200244
     3  O   -0.146438
     4  N    0.290721
     5  O   -0.193640
 Sum of Mulliken charges =  -0.00000
 Mulliken charges with hydrogens summed into heavy atoms:
               1
     2  O    0.049356
     3  O   -0.146438
     4  N    0.290721
     5  O   -0.193640
 Electronic spatial extent (au):  <R**2>=            251.7834
 Charge=             -0.0000 electrons
 Dipole moment (field-independent basis, Debye):
    X=              0.5061    Y=              1.3714    Z=             -0.0000  Tot=              1.4618
 Quadrupole moment (field-independent basis, Debye-Ang):
   XX=            -22.5330   YY=            -18.5733   ZZ=            -21.9940
   XY=              3.2185   XZ=              0.0000   YZ=             -0.0000
 Traceless Quadrupole moment (field-independent basis, Debye-Ang):
   XX=             -1.4996   YY=              2.4601   ZZ=             -0.9606
   XY=              3.2185   XZ=              0.0000   YZ=             -0.0000
 Octapole moment (field-independent basis, Debye-Ang**2):
  XXX=              2.6935  YYY=             11.4575  ZZZ=              0.0000  XYY=              7.8951
  XXY=              6.4635  XXZ=             -0.0000  XZZ=             -1.5552  YZZ=             -0.8457
  YYZ=             -0.0000  XYZ=             -0.0000
 Hexadecapole moment (field-independent basis, Debye-Ang**3):
 XXXX=           -156.7101 YYYY=            -90.2491 ZZZZ=            -18.2099 XXXY=            -36.9361
 XXXZ=              0.0000 YYYX=            -30.6709 YYYZ=              0.0000 ZZZX=              0.0000
 ZZZY=              0.0000 XXYY=            -33.9514 XXZZ=            -30.5033 YYZZ=            -20.7946
 XXYZ=              0.0000 YYXZ=              0.0000 ZZXY=            -15.0362
 N-N= 1.171619242777D+02 E-N=-8.964420375006D+02  KE= 2.802141463193D+02
 Symmetry A'   KE= 2.662360036150D+02
 Symmetry A"   KE= 1.397814270425D+01
 No NMR shielding tensors so no spin-rotation constants.
 Leave Link  601 at Mon Feb 14 22:10:13 2022, MaxMem= 16106127360 cpu:              11.7 elap:               0.5
 (Enter /sw/contrib/gaussian/g16/B01/g16/l9999.exe)
 1\1\GINC-N2132\SP\RMP2-FC\Aug-CC-pVTZ\H1N1O3\CGAVINH\14-Feb-2022\0\\#p
  SP mp2/aug-cc-pvtz density=current\\title\\0,1\H\O,1,0.96897556\O,2,1
 .4432549116,1,97.59494903\N,3,1.45878406,2,102.29752444,1,180.,0\O,4,1
 .17072885,3,109.06955123,2,180.,0\\Version=ES64L-G16RevB.01\State=1-A'
 \HF=-279.5025719\MP2=-280.4466703\RMSD=3.683e-09\Dipole=-0.1479221,0.,
 -0.5557587\Quadrupole=-1.5335801,-0.7141739,2.247754,0.,2.0779252,0.\P
 G=CS [SG(H1N1O3)]\\@


 A COMPLEXITY IS MERELY A DISARRANGEMENT OF SIMPLICITIES.

                                    -- G. O. ABELL IN "EXPLORATION OF THE UNIVERSE"
 Job cpu time:       0 days  0 hours  6 minutes 40.4 seconds.
 Elapsed time:       0 days  0 hours  0 minutes 18.4 seconds.
 File lengths (MBytes):  RWF=     22 Int=      0 D2E=      0 Chk=      8 Scr=      1
 Normal termination of Gaussian 16 at Mon Feb 14 22:10:13 2022.
