title                                                                   
SP        RMP2-FC                                                     Aug-CC-pVTZ         
Number of atoms                            I                5
Info1-9                                    I   N=           9
          33          24           0           0           0         110
           1           2           1
Full Title                                 C   N=           1
title       
Route                                      C   N=           4
#p SP mp2/aug-cc-pvtz density=current           
Charge                                     I                0
Multiplicity                               I                1
Number of electrons                        I               32
Number of alpha electrons                  I               16
Number of beta electrons                   I               16
Number of basis functions                  I              207
Number of independent functions            I              207
Number of point charges in /Mol/           I                0
Number of translation vectors              I                0
Atomic numbers                             I   N=           5
           1           8           8           7           8
Nuclear charges                            R   N=           5
  1.00000000E+00  8.00000000E+00  8.00000000E+00  7.00000000E+00  8.00000000E+00
Current cartesian coordinates              R   N=          15
  2.92572006E+00  3.17274393E+00 -2.39245927E-31  2.74777749E+00  1.36672398E+00
 -8.92270476E-32 -3.64168833E-17  1.27231063E+00  1.03652671E-31 -4.94306656E-01
 -1.43971237E+00  3.80974736E-32 -2.68097417E+00 -1.77587927E+00  2.75312987E-31
Number of symbols in /Mol/                 I                0
Force Field                                I                0
Atom Types                                 C   N=           5
                                                            
Int Atom Types                             I   N=           5
           0           0           0           0           0
MM charges                                 R   N=           5
  0.00000000E+00  0.00000000E+00  0.00000000E+00  0.00000000E+00  0.00000000E+00
Integer atomic weights                     I   N=           5
           1          16          16          14          16
Real atomic weights                        R   N=           5
  1.00782504E+00  1.59949146E+01  1.59949146E+01  1.40030740E+01  1.59949146E+01
Atom fragment info                         I   N=           5
           0           0           0           0           0
Atom residue num                           I   N=           5
           0           0           0           0           0
Nuclear spins                              I   N=           5
           1           0           0           2           0
Nuclear ZEff                               R   N=           5
 -1.00000000E+00 -5.60000000E+00 -5.60000000E+00 -4.55000000E+00 -5.60000000E+00
Nuclear ZNuc                               R   N=           5
  1.00000000E+00  8.00000000E+00  8.00000000E+00  7.00000000E+00  8.00000000E+00
Nuclear QMom                               R   N=           5
  0.00000000E+00  0.00000000E+00  0.00000000E+00  2.04400000E+00  0.00000000E+00
Nuclear GFac                               R   N=           5
  2.79284600E+00  0.00000000E+00  0.00000000E+00  4.03761000E-01  0.00000000E+00
MicOpt                                     I   N=           5
          -1          -1          -1          -1          -1
Number of residues                         I                0
Number of secondary structures             I                0
SymInf integers                            I   N=          26
           1           2           1           1           1           1
           1          -1           0           0           0           0
           0           0           0           0           0           0
           0           0           0           0           0           0
           0           0
RotTr to input orientation                 R   N=          12
 -9.95181225E-01 -8.64227981E-16 -9.80526820E-02  9.80526820E-02  7.75105062E-16
 -9.95181225E-01  9.36064591E-16 -1.00000000E+00 -6.86630134E-16  2.60052562E+00
  0.00000000E+00  3.44432989E+00
Number of contracted shells                I               65
Number of primitive shells                 I              119
Pure/Cartesian d shells                    I                0
Pure/Cartesian f shells                    I                0
Highest angular momentum                   I                3
Largest degree of contraction              I                7
Shell types                                I   N=          65
           0           0           0           0           1           1
           1          -2          -2           0           0           0
           0           0           1           1           1           1
          -2          -2          -2          -3          -3           0
           0           0           0           0           1           1
           1           1          -2          -2          -2          -3
          -3           0           0           0           0           0
           1           1           1           1          -2          -2
          -2          -3          -3           0           0           0
           0           0           1           1           1           1
          -2          -2          -2          -3          -3
Number of primitives per shell             I   N=          65
           3           1           1           1           1           1
           1           1           1           7           6           1
           1           1           3           1           1           1
           1           1           1           1           1           7
           6           1           1           1           3           1
           1           1           1           1           1           1
           1           7           6           1           1           1
           3           1           1           1           1           1
           1           1           1           7           6           1
           1           1           3           1           1           1
           1           1           1           1           1
Shell to atom map                          I   N=          65
           1           1           1           1           1           1
           1           1           1           2           2           2
           2           2           2           2           2           2
           2           2           2           2           2           3
           3           3           3           3           3           3
           3           3           3           3           3           3
           3           4           4           4           4           4
           4           4           4           4           4           4
           4           4           4           5           5           5
           5           5           5           5           5           5
           5           5           5           5           5
Primitive exponents                        R   N=         119
  3.38700000E+01  5.09500000E+00  1.15900000E+00  3.25800000E-01  1.02700000E-01
  2.52600000E-02  1.40700000E+00  3.88000000E-01  1.02000000E-01  1.05700000E+00
  2.47000000E-01  1.53300000E+04  2.29900000E+03  5.22400000E+02  1.47300000E+02
  4.75500000E+01  1.67600000E+01  6.20700000E+00  5.22400000E+02  1.47300000E+02
  4.75500000E+01  1.67600000E+01  6.20700000E+00  6.88200000E-01  1.75200000E+00
  2.38400000E-01  7.37600000E-02  3.44600000E+01  7.74900000E+00  2.28000000E+00
  7.15600000E-01  2.14000000E-01  5.97400000E-02  2.31400000E+00  6.45000000E-01
  2.14000000E-01  1.42800000E+00  5.00000000E-01  1.53300000E+04  2.29900000E+03
  5.22400000E+02  1.47300000E+02  4.75500000E+01  1.67600000E+01  6.20700000E+00
  5.22400000E+02  1.47300000E+02  4.75500000E+01  1.67600000E+01  6.20700000E+00
  6.88200000E-01  1.75200000E+00  2.38400000E-01  7.37600000E-02  3.44600000E+01
  7.74900000E+00  2.28000000E+00  7.15600000E-01  2.14000000E-01  5.97400000E-02
  2.31400000E+00  6.45000000E-01  2.14000000E-01  1.42800000E+00  5.00000000E-01
  1.14200000E+04  1.71200000E+03  3.89300000E+02  1.10000000E+02  3.55700000E+01
  1.25400000E+01  4.64400000E+00  3.89300000E+02  1.10000000E+02  3.55700000E+01
  1.25400000E+01  4.64400000E+00  5.11800000E-01  1.29300000E+00  1.78700000E-01
  5.76000000E-02  2.66300000E+01  5.94800000E+00  1.74200000E+00  5.55000000E-01
  1.72500000E-01  4.91000000E-02  1.65400000E+00  4.69000000E-01  1.51000000E-01
  1.09300000E+00  3.64000000E-01  1.53300000E+04  2.29900000E+03  5.22400000E+02
  1.47300000E+02  4.75500000E+01  1.67600000E+01  6.20700000E+00  5.22400000E+02
  1.47300000E+02  4.75500000E+01  1.67600000E+01  6.20700000E+00  6.88200000E-01
  1.75200000E+00  2.38400000E-01  7.37600000E-02  3.44600000E+01  7.74900000E+00
  2.28000000E+00  7.15600000E-01  2.14000000E-01  5.97400000E-02  2.31400000E+00
  6.45000000E-01  2.14000000E-01  1.42800000E+00  5.00000000E-01
Contraction coefficients                   R   N=         119
  2.54948632E-02  1.90362766E-01  8.52162022E-01  1.00000000E+00  1.00000000E+00
  1.00000000E+00  1.00000000E+00  1.00000000E+00  1.00000000E+00  1.00000000E+00
  1.00000000E+00  5.19808943E-04  4.02025621E-03  2.07128267E-02  8.10105536E-02
  2.35962985E-01  4.42653446E-01  3.57064423E-01 -4.42115008E-05 -1.22591041E-03
 -1.05517725E-02 -6.74452633E-02 -1.71198607E-01  1.07329856E+00  1.00000000E+00
  1.00000000E+00  1.00000000E+00  4.11634896E-02  2.57762836E-01  8.02419274E-01
  1.00000000E+00  1.00000000E+00  1.00000000E+00  1.00000000E+00  1.00000000E+00
  1.00000000E+00  1.00000000E+00  1.00000000E+00  5.19808943E-04  4.02025621E-03
  2.07128267E-02  8.10105536E-02  2.35962985E-01  4.42653446E-01  3.57064423E-01
 -4.42115008E-05 -1.22591041E-03 -1.05517725E-02 -6.74452633E-02 -1.71198607E-01
  1.07329856E+00  1.00000000E+00  1.00000000E+00  1.00000000E+00  4.11634896E-02
  2.57762836E-01  8.02419274E-01  1.00000000E+00  1.00000000E+00  1.00000000E+00
  1.00000000E+00  1.00000000E+00  1.00000000E+00  1.00000000E+00  1.00000000E+00
  5.34563860E-04  4.13435660E-03  2.12335358E-02  8.25006224E-02  2.38138871E-01
  4.42551547E-01  3.53757422E-01 -4.89867350E-05 -1.19527323E-03 -1.03490714E-02
 -6.48680190E-02 -1.71552477E-01  1.07289568E+00  1.00000000E+00  1.00000000E+00
  1.00000000E+00  3.98072123E-02  2.49002660E-01  8.10479727E-01  1.00000000E+00
  1.00000000E+00  1.00000000E+00  1.00000000E+00  1.00000000E+00  1.00000000E+00
  1.00000000E+00  1.00000000E+00  5.19808943E-04  4.02025621E-03  2.07128267E-02
  8.10105536E-02  2.35962985E-01  4.42653446E-01  3.57064423E-01 -4.42115008E-05
 -1.22591041E-03 -1.05517725E-02 -6.74452633E-02 -1.71198607E-01  1.07329856E+00
  1.00000000E+00  1.00000000E+00  1.00000000E+00  4.11634896E-02  2.57762836E-01
  8.02419274E-01  1.00000000E+00  1.00000000E+00  1.00000000E+00  1.00000000E+00
  1.00000000E+00  1.00000000E+00  1.00000000E+00  1.00000000E+00
Coordinates of each shell                  R   N=         195
  2.92572006E+00  3.17274393E+00  0.00000000E+00  2.92572006E+00  3.17274393E+00
  0.00000000E+00  2.92572006E+00  3.17274393E+00  0.00000000E+00  2.92572006E+00
  3.17274393E+00  0.00000000E+00  2.92572006E+00  3.17274393E+00  0.00000000E+00
  2.92572006E+00  3.17274393E+00  0.00000000E+00  2.92572006E+00  3.17274393E+00
  0.00000000E+00  2.92572006E+00  3.17274393E+00  0.00000000E+00  2.92572006E+00
  3.17274393E+00  0.00000000E+00  2.74777749E+00  1.36672398E+00  0.00000000E+00
  2.74777749E+00  1.36672398E+00  0.00000000E+00  2.74777749E+00  1.36672398E+00
  0.00000000E+00  2.74777749E+00  1.36672398E+00  0.00000000E+00  2.74777749E+00
  1.36672398E+00  0.00000000E+00  2.74777749E+00  1.36672398E+00  0.00000000E+00
  2.74777749E+00  1.36672398E+00  0.00000000E+00  2.74777749E+00  1.36672398E+00
  0.00000000E+00  2.74777749E+00  1.36672398E+00  0.00000000E+00  2.74777749E+00
  1.36672398E+00  0.00000000E+00  2.74777749E+00  1.36672398E+00  0.00000000E+00
  2.74777749E+00  1.36672398E+00  0.00000000E+00  2.74777749E+00  1.36672398E+00
  0.00000000E+00  2.74777749E+00  1.36672398E+00  0.00000000E+00 -5.42451860E-18
  1.27231063E+00  0.00000000E+00 -5.42451860E-18  1.27231063E+00  0.00000000E+00
 -5.42451860E-18  1.27231063E+00  0.00000000E+00 -5.42451860E-18  1.27231063E+00
  0.00000000E+00 -5.42451860E-18  1.27231063E+00  0.00000000E+00 -5.42451860E-18
  1.27231063E+00  0.00000000E+00 -5.42451860E-18  1.27231063E+00  0.00000000E+00
 -5.42451860E-18  1.27231063E+00  0.00000000E+00 -5.42451860E-18  1.27231063E+00
  0.00000000E+00 -5.42451860E-18  1.27231063E+00  0.00000000E+00 -5.42451860E-18
  1.27231063E+00  0.00000000E+00 -5.42451860E-18  1.27231063E+00  0.00000000E+00
 -5.42451860E-18  1.27231063E+00  0.00000000E+00 -5.42451860E-18  1.27231063E+00
  0.00000000E+00 -4.94306656E-01 -1.43971237E+00  0.00000000E+00 -4.94306656E-01
 -1.43971237E+00  0.00000000E+00 -4.94306656E-01 -1.43971237E+00  0.00000000E+00
 -4.94306656E-01 -1.43971237E+00  0.00000000E+00 -4.94306656E-01 -1.43971237E+00
  0.00000000E+00 -4.94306656E-01 -1.43971237E+00  0.00000000E+00 -4.94306656E-01
 -1.43971237E+00  0.00000000E+00 -4.94306656E-01 -1.43971237E+00  0.00000000E+00
 -4.94306656E-01 -1.43971237E+00  0.00000000E+00 -4.94306656E-01 -1.43971237E+00
  0.00000000E+00 -4.94306656E-01 -1.43971237E+00  0.00000000E+00 -4.94306656E-01
 -1.43971237E+00  0.00000000E+00 -4.94306656E-01 -1.43971237E+00  0.00000000E+00
 -4.94306656E-01 -1.43971237E+00  0.00000000E+00 -2.68097417E+00 -1.77587927E+00
  0.00000000E+00 -2.68097417E+00 -1.77587927E+00  0.00000000E+00 -2.68097417E+00
 -1.77587927E+00  0.00000000E+00 -2.68097417E+00 -1.77587927E+00  0.00000000E+00
 -2.68097417E+00 -1.77587927E+00  0.00000000E+00 -2.68097417E+00 -1.77587927E+00
  0.00000000E+00 -2.68097417E+00 -1.77587927E+00  0.00000000E+00 -2.68097417E+00
 -1.77587927E+00  0.00000000E+00 -2.68097417E+00 -1.77587927E+00  0.00000000E+00
 -2.68097417E+00 -1.77587927E+00  0.00000000E+00 -2.68097417E+00 -1.77587927E+00
  0.00000000E+00 -2.68097417E+00 -1.77587927E+00  0.00000000E+00 -2.68097417E+00
 -1.77587927E+00  0.00000000E+00 -2.68097417E+00 -1.77587927E+00  0.00000000E+00
Num ILSW                                   I              100
ILSW                                       I   N=         100
           0           0           0           0           2           0
           0           0           0           0           0          -1
           5           0           0           0           0           0
           0           0           0           0           0           0
           1           0           0           0           0           0
           0           0      100000           0          -1           0
           0           0           0           0           0           0
           0           0           0           1           0           0
           0 -2000000000           1           0           0           0
           0           0           4          52           0           0
           0           0           0           0           0           0
           0           0           0           5           0           1
           0           0           0           0           0           0
           0           0           0           0           0           0
           0           0           0           0           0           0
           0           0           0           0           0           0
           0           0           0           0
Num RLSW                                   I               52
RLSW                                       R   N=          52
  1.00000000E+00  1.00000000E+00  1.00000000E+00  1.00000000E+00  1.00000000E+00
  0.00000000E+00  0.00000000E+00  1.00000000E+00  0.00000000E+00  0.00000000E+00
  0.00000000E+00  0.00000000E+00  1.00000000E+00  0.00000000E+00  0.00000000E+00
  0.00000000E+00  0.00000000E+00  1.00000000E+00  0.00000000E+00  0.00000000E+00
  0.00000000E+00  0.00000000E+00  1.00000000E+00  0.00000000E+00  0.00000000E+00
  0.00000000E+00  0.00000000E+00  1.00000000E+00  0.00000000E+00  0.00000000E+00
  0.00000000E+00  0.00000000E+00  1.00000000E+00  0.00000000E+00  0.00000000E+00
  0.00000000E+00  0.00000000E+00  0.00000000E+00  1.00000000E+00  1.00000000E+00
  0.00000000E+00  1.00000000E+00  0.00000000E+00  0.00000000E+00  0.00000000E+00
  0.00000000E+00  0.00000000E+00  0.00000000E+00  0.00000000E+00  0.00000000E+00
  0.00000000E+00  0.00000000E+00
MxBond                                     I                2
NBond                                      I   N=           5
           1           2           2           2           1
IBond                                      I   N=          10
           2           0           1           3           2           4
           3           5           4           0
RBond                                      R   N=          10
  1.00000000E+00  0.00000000E+00  1.00000000E+00  1.00000000E+00  1.00000000E+00
  1.00000000E+00  1.00000000E+00  2.00000000E+00  2.00000000E+00  0.00000000E+00
Virial Ratio                               R      2.002295853048736E+00
SCF Energy                                 R     -2.795020306031724E+02
MP2 Energy                                 R     -2.804466650791296E+02
Total Energy                               R     -2.804466650791296E+02
Post-SCF wavefunction norm                 R      1.120073824629686E+00
RMS Density                                R      3.788637458010330E-09
Job Status                                 I                1
Nuclear derivative order                   I                0
External E-field                           R   N=          35
  0.00000000E+00  0.00000000E+00  0.00000000E+00  0.00000000E+00  0.00000000E+00
  0.00000000E+00  0.00000000E+00  0.00000000E+00  0.00000000E+00  0.00000000E+00
  0.00000000E+00  0.00000000E+00  0.00000000E+00  0.00000000E+00  0.00000000E+00
  0.00000000E+00  0.00000000E+00  0.00000000E+00  0.00000000E+00  0.00000000E+00
  0.00000000E+00  0.00000000E+00  0.00000000E+00  0.00000000E+00  0.00000000E+00
  0.00000000E+00  0.00000000E+00  0.00000000E+00  0.00000000E+00  0.00000000E+00
  0.00000000E+00  0.00000000E+00  0.00000000E+00  0.00000000E+00  0.00000000E+00
IOpCl                                      I                0
IROHF                                      I                0
Alpha Orbital Energies                     R   N=         207
 -2.06911175E+01 -2.06844639E+01 -2.06593012E+01 -1.58130139E+01 -1.62423419E+00
 -1.49682695E+00 -1.25611611E+00 -9.48268301E-01 -7.73517681E-01 -7.59870347E-01
 -7.11998621E-01 -6.80685157E-01 -6.20716835E-01 -5.89844659E-01 -4.85522790E-01
 -4.72738117E-01  2.97892328E-02  7.15397052E-02  8.59059370E-02  1.01695044E-01
  1.33892368E-01  1.33935153E-01  1.44429279E-01  1.54859951E-01  1.78132326E-01
  1.94150806E-01  1.99778607E-01  2.06368228E-01  2.20784472E-01  2.35182402E-01
  2.37298315E-01  2.66254219E-01  2.93588820E-01  3.04278086E-01  3.10790528E-01
  3.43362237E-01  3.49265057E-01  3.87331868E-01  4.23010967E-01  4.32855534E-01
  5.27269227E-01  5.29131352E-01  5.58472708E-01  5.81511783E-01  6.25848223E-01
  6.38273687E-01  6.74351930E-01  6.85257123E-01  7.06355985E-01  7.11467739E-01
  7.24827250E-01  7.29438108E-01  7.44839820E-01  7.91320869E-01  7.92164986E-01
  8.10444781E-01  8.12614222E-01  8.30708936E-01  8.68106493E-01  9.08130514E-01
  9.22361866E-01  9.26446921E-01  9.57317831E-01  9.76488843E-01  9.85797972E-01
  1.01823663E+00  1.05159433E+00  1.05484804E+00  1.08314758E+00  1.11899914E+00
  1.14221893E+00  1.18919771E+00  1.22130562E+00  1.23433763E+00  1.33858827E+00
  1.34999714E+00  1.38610125E+00  1.45589859E+00  1.49019153E+00  1.51044305E+00
  1.53779357E+00  1.56696961E+00  1.57919202E+00  1.61426965E+00  1.66340943E+00
  1.66918844E+00  1.70335588E+00  1.79341392E+00  1.83156062E+00  1.83451120E+00
  1.87801044E+00  1.91101927E+00  1.96073354E+00  1.99246987E+00  2.00740063E+00
  2.07778735E+00  2.12200486E+00  2.13190980E+00  2.14982608E+00  2.22490679E+00
  2.26365918E+00  2.26522763E+00  2.28959405E+00  2.31521635E+00  2.34454070E+00
  2.38783605E+00  2.42449699E+00  2.42955652E+00  2.45410406E+00  2.46297692E+00
  2.47714217E+00  2.50190633E+00  2.58626282E+00  2.59693399E+00  2.62055957E+00
  2.62577074E+00  2.63431393E+00  2.66623701E+00  2.75751909E+00  2.82205659E+00
  2.85600179E+00  2.88467923E+00  2.89370069E+00  2.92496008E+00  2.95783898E+00
  3.02658820E+00  3.06870970E+00  3.12045852E+00  3.20443325E+00  3.22733961E+00
  3.31787151E+00  3.34251656E+00  3.51669558E+00  3.64681315E+00  3.83853923E+00
  3.85400134E+00  4.15648094E+00  4.16602840E+00  4.18576452E+00  4.25846454E+00
  4.35913169E+00  4.39509653E+00  4.46614085E+00  4.52239936E+00  4.66271213E+00
  4.71397491E+00  4.80612216E+00  4.82442244E+00  4.84359844E+00  4.89591774E+00
  5.02321590E+00  5.07753316E+00  5.11113462E+00  5.14984161E+00  5.18386184E+00
  5.25506840E+00  5.27481883E+00  5.31013136E+00  5.35065797E+00  5.35741797E+00
  5.61099470E+00  5.67362418E+00  5.77186708E+00  5.83371742E+00  5.95835656E+00
  6.16672674E+00  6.30894088E+00  6.33693218E+00  6.39657656E+00  6.49359844E+00
  6.50540425E+00  6.61513180E+00  6.66716420E+00  6.69967346E+00  6.75731456E+00
  6.76318334E+00  6.83289622E+00  6.89824334E+00  7.01864155E+00  7.05740656E+00
  7.05799910E+00  7.09102396E+00  7.12617884E+00  7.15159878E+00  7.18177502E+00
  7.22724513E+00  7.25688429E+00  7.31591460E+00  7.32546302E+00  7.35012468E+00
  7.39900815E+00  7.43303357E+00  7.48446842E+00  7.60858882E+00  7.61973078E+00
  7.62861190E+00  7.66856700E+00  7.79929192E+00  7.88709735E+00  8.09662581E+00
  8.31722277E+00  8.42025453E+00  8.54735591E+00  1.33934280E+01  1.44019784E+01
  1.52896731E+01  1.61523781E+01
Alpha MO coefficients                      R   N=       42849
  9.29325685E-05 -6.42523859E-04 -7.33125298E-04 -4.77375055E-06 -2.05924325E-05
 -2.61979684E-05  0.00000000E+00 -6.20320739E-05  5.12748855E-05  0.00000000E+00
  7.44110500E-05  3.28252452E-05  0.00000000E+00  3.20797415E-05  0.00000000E+00
  0.00000000E+00 -5.06194061E-05  2.29628276E-05 -6.73705222E-06  0.00000000E+00
  0.00000000E+00 -1.40560789E-04  1.28103427E-04  4.44845571E-03 -2.84081367E-04
  8.35842082E-06  1.55477599E-03  1.83442602E-03  1.06434864E-04  7.36713116E-06
  0.00000000E+00 -6.17253623E-04 -3.99097313E-05  0.00000000E+00 -1.07822882E-03
  7.99855228E-04  0.00000000E+00 -3.99480584E-04  7.11920718E-05  0.00000000E+00
  2.91413721E-05  0.00000000E+00  0.00000000E+00 -5.41646438E-05  5.27529570E-06
 -3.79150191E-04  0.00000000E+00  0.00000000E+00  7.43413725E-04 -2.80775622E-05
 -4.46786473E-04  0.00000000E+00  0.00000000E+00  2.41796768E-04 -7.71930161E-06
  0.00000000E+00  8.03618752E-05  1.28160795E-05  0.00000000E+00  0.00000000E+00
 -1.09454946E-04 -3.16585218E-06  0.00000000E+00  2.53525195E-04 -2.85661207E-05
  0.00000000E+00  0.00000000E+00 -3.57633965E-04  5.20463892E-05  9.76911739E-01
 -9.21687493E-03  4.33188267E-02  2.04296004E-03 -9.21450741E-04  1.49505878E-03
 -1.35474249E-03  0.00000000E+00 -1.43781155E-03  1.38345631E-03  0.00000000E+00
  8.20108319E-05 -1.16262057E-03  0.00000000E+00 -1.42968485E-04 -2.02685838E-05
  0.00000000E+00  4.63049194E-05  0.00000000E+00  0.00000000E+00 -3.52468915E-05
  2.15328348E-05  7.47667410E-04  0.00000000E+00  0.00000000E+00 -2.34151843E-04
 -3.89823232E-04 -3.59361480E-04  0.00000000E+00  0.00000000E+00 -3.13500665E-04
 -3.74515248E-04  0.00000000E+00  4.74603262E-05 -4.90489003E-05  0.00000000E+00
  0.00000000E+00 -3.90990720E-05 -1.56949666E-05  0.00000000E+00  2.39235352E-05
  2.24446473E-05  0.00000000E+00  0.00000000E+00 -3.05772752E-04 -1.40235739E-04
  3.90206850E-05  4.57391602E-05 -2.64224941E-04 -6.99711090E-04 -1.41366320E-04
 -2.68258512E-05 -9.73954862E-05  0.00000000E+00  2.67374233E-04  7.08495380E-04
  0.00000000E+00 -8.34162497E-04 -4.76308179E-04  0.00000000E+00 -1.21519651E-04
 -2.63549049E-05  0.00000000E+00 -1.81427029E-05  0.00000000E+00  0.00000000E+00
 -2.95782162E-05  1.49866220E-05 -3.28674619E-04  0.00000000E+00  0.00000000E+00
 -8.27434214E-04  1.27469291E-04 -3.71658467E-05  0.00000000E+00  0.00000000E+00
  9.74975825E-05 -1.15845138E-04  0.00000000E+00 -2.04114891E-05 -1.19912020E-04
  0.00000000E+00  0.00000000E+00 -6.26603518E-05 -1.38052775E-04  0.00000000E+00
  1.95687706E-06 -1.53201279E-04  0.00000000E+00  0.00000000E+00  4.36812770E-05
 -4.16330132E-04 -2.54808539E-03  1.22072892E-04 -1.21987633E-04 -2.47179535E-04
  1.31065456E-04 -7.80150305E-06 -2.76219172E-05  0.00000000E+00  6.85359805E-05
  1.62872577E-04  0.00000000E+00  2.31165990E-04  1.98555021E-04  0.00000000E+00
  1.25347470E-04  2.18158156E-05  0.00000000E+00 -3.31403509E-06  0.00000000E+00
  0.00000000E+00 -1.78735712E-05  1.28427663E-06  8.36297556E-07  0.00000000E+00
  0.00000000E+00  7.97055196E-05  8.70463821E-05 -9.97683168E-05  0.00000000E+00
  0.00000000E+00  1.65971834E-04  1.60893601E-04  0.00000000E+00  1.59345581E-05
 -3.53022548E-06  0.00000000E+00  0.00000000E+00 -4.37931979E-06 -1.19653567E-05
  0.00000000E+00 -3.36208090E-05  4.54140670E-05  0.00000000E+00  0.00000000E+00
  8.33651837E-05  8.98380940E-05  3.86752032E-05 -1.00836594E-03 -5.01467803E-04
 -1.11985761E-05 -2.23862407E-05  1.70243533E-05  0.00000000E+00 -1.54385690E-06
  2.74788278E-04  0.00000000E+00 -4.26829648E-05  1.35486001E-04  0.00000000E+00
  2.61913874E-05  0.00000000E+00  0.00000000E+00  1.21123741E-05  1.09275565E-05
 -2.84556790E-05  0.00000000E+00  0.00000000E+00  1.07672593E-05  3.60753168E-05
  1.09276629E-04  8.54896509E-05 -2.79148086E-05  7.71692044E-04  6.66346665E-04
  1.02317795E-05  2.50136804E-06  0.00000000E+00 -7.23877172E-05  1.79325201E-05
  0.00000000E+00  3.36690995E-04  9.12808308E-04  0.00000000E+00  2.85284601E-06
  8.29557738E-05  0.00000000E+00 -2.31213986E-06  0.00000000E+00  0.00000000E+00
 -2.96578973E-07 -6.08157798E-06 -3.61848678E-05  0.00000000E+00  0.00000000E+00
 -1.96387369E-05  8.44014124E-05 -2.35634491E-05  0.00000000E+00  0.00000000E+00
 -2.69337250E-04 -1.62718303E-04  0.00000000E+00  9.17293234E-06  5.98400192E-06
  0.00000000E+00  0.00000000E+00  2.59628264E-06 -1.86716768E-05  0.00000000E+00
 -4.04330987E-05 -3.80904268E-05  0.00000000E+00  0.00000000E+00 -7.71587664E-05
  2.05214784E-05  2.58706385E-03  3.93977925E-05  9.00768035E-05 -6.93099565E-05
 -4.69823956E-04  7.30899391E-06  1.58461505E-05  0.00000000E+00 -6.25793336E-05
 -5.56531694E-05  0.00000000E+00  2.34432119E-04 -1.89397286E-04  0.00000000E+00
 -1.88832263E-04 -6.50382529E-05  0.00000000E+00 -8.71487334E-06  0.00000000E+00
  0.00000000E+00  2.23996960E-05  1.98052989E-05  4.48414985E-06  0.00000000E+00
  0.00000000E+00 -1.17627990E-04 -4.66863356E-05 -4.14765112E-06  0.00000000E+00
  0.00000000E+00 -2.22751575E-04 -2.06991836E-04  0.00000000E+00  3.28945612E-06
 -5.36283634E-07  0.00000000E+00  0.00000000E+00  1.72124197E-06 -1.36199368E-05
  0.00000000E+00 -4.65336594E-05  3.47903322E-06  0.00000000E+00  0.00000000E+00
 -7.65754520E-05  1.87998119E-04  2.58699214E-04  1.46523301E-03 -7.79930432E-05
 -1.53921768E-03  3.94734029E-04 -1.44441808E-04  1.50571750E-07  0.00000000E+00
 -2.09012402E-03 -4.04175063E-04  0.00000000E+00  1.03921294E-03  7.62654278E-04
  0.00000000E+00 -1.71209264E-04  5.43482459E-05  0.00000000E+00 -1.23350028E-04
  0.00000000E+00  0.00000000E+00  2.43117804E-04  9.40725046E-05 -4.42370663E-04
  0.00000000E+00  0.00000000E+00  8.99102670E-04 -6.61614484E-05  1.16196779E-05
  0.00000000E+00  0.00000000E+00 -3.38299175E-04 -1.22890052E-04  0.00000000E+00
 -1.26134383E-06  1.52951306E-05  0.00000000E+00  0.00000000E+00  1.88434507E-05
  1.33079832E-05  0.00000000E+00  1.64548497E-04 -7.18521294E-05  0.00000000E+00
  0.00000000E+00 -2.40569803E-04  4.23869019E-05  9.76649421E-01 -9.84826205E-03
  4.35679857E-02  4.50123520E-03 -4.45443729E-04  2.14822177E-03  4.81109208E-04
  0.00000000E+00 -2.38418920E-03 -6.04092280E-04  0.00000000E+00  1.13905575E-03
 -3.31120930E-06  0.00000000E+00  4.94285588E-06 -4.18560455E-05  0.00000000E+00
 -2.32359759E-04  0.00000000E+00  0.00000000E+00  1.02746942E-04  3.18535286E-05
  3.90654176E-04  0.00000000E+00  0.00000000E+00 -8.34155198E-04 -4.19377346E-04
 -1.53517180E-04  0.00000000E+00  0.00000000E+00  2.55766464E-04  1.70069995E-05
  0.00000000E+00  5.22727759E-05  1.77071420E-05  0.00000000E+00  0.00000000E+00
 -2.21241975E-05 -1.32891543E-05  0.00000000E+00  1.38388518E-04  9.25361662E-06
  0.00000000E+00  0.00000000E+00 -1.89844458E-04 -1.40719869E-04  4.93421794E-04
  1.85895278E-03 -1.13662156E-05  9.49258789E-06 -4.06085669E-05 -2.20018944E-04
  0.00000000E+00  1.20778117E-04 -1.17599980E-03  0.00000000E+00  3.15768010E-04
 -3.02872695E-04  0.00000000E+00  1.58407513E-05  0.00000000E+00  0.00000000E+00
  1.08828193E-04  1.15851759E-05 -1.54993991E-04  0.00000000E+00  0.00000000E+00
 -5.29886072E-04 -2.33826627E-05  9.76826858E-01 -9.13661468E-03  4.34588556E-02
  3.29000921E-04 -1.03276532E-03 -1.56125821E-03  1.44346415E-03  0.00000000E+00
  1.58069929E-03 -1.22235866E-03  0.00000000E+00 -5.37938941E-04 -7.47975152E-04
  0.00000000E+00  4.96010616E-05 -1.75963883E-05  0.00000000E+00  2.46159521E-05
  0.00000000E+00  0.00000000E+00 -1.25518055E-04 -2.01566245E-06  7.43278994E-04
  0.00000000E+00  0.00000000E+00 -2.29239469E-04 -2.26733724E-04 -2.76889154E-04
  0.00000000E+00  0.00000000E+00  1.42695807E-04  1.31461177E-04  0.00000000E+00
 -6.47676957E-05 -4.30721151E-06  0.00000000E+00  0.00000000E+00  1.61151619E-05
  2.22806503E-06  0.00000000E+00 -2.72346879E-06  1.23289878E-04  0.00000000E+00
  0.00000000E+00  2.56086216E-04  9.19052616E-05 -4.54172996E-03 -2.15336791E-04