 Entering Gaussian System, Link 0=g16
 Input=hoono_a2_101p2688.gjf
 Output=hoono_a2_101p2688.log
 Initial command:
 /sw/contrib/gaussian/g16/B01/g16/l1.exe "/scr/Gau-3848.inp" -scrdir="/scr/"
 Entering Link 1 = /sw/contrib/gaussian/g16/B01/g16/l1.exe PID=      3849.
  
 Copyright (c) 1988-2017, Gaussian, Inc.  All Rights Reserved.
  
 This is part of the Gaussian(R) 16 program.  It is based on
 the Gaussian(R) 09 system (copyright 2009, Gaussian, Inc.),
 the Gaussian(R) 03 system (copyright 2003, Gaussian, Inc.),
 the Gaussian(R) 98 system (copyright 1998, Gaussian, Inc.),
 the Gaussian(R) 94 system (copyright 1995, Gaussian, Inc.),
 the Gaussian 92(TM) system (copyright 1992, Gaussian, Inc.),
 the Gaussian 90(TM) system (copyright 1990, Gaussian, Inc.),
 the Gaussian 88(TM) system (copyright 1988, Gaussian, Inc.),
 the Gaussian 86(TM) system (copyright 1986, Carnegie Mellon
 University), and the Gaussian 82(TM) system (copyright 1983,
 Carnegie Mellon University). Gaussian is a federally registered
 trademark of Gaussian, Inc.
  
 This software contains proprietary and confidential information,
 including trade secrets, belonging to Gaussian, Inc.
  
 This software is provided under written license and may be
 used, copied, transmitted, or stored only in accord with that
 written license.
  
 The following legend is applicable only to US Government
 contracts under FAR:
  
                    RESTRICTED RIGHTS LEGEND
  
 Use, reproduction and disclosure by the US Government is
 subject to restrictions as set forth in subparagraphs (a)
 and (c) of the Commercial Computer Software - Restricted
 Rights clause in FAR 52.227-19.
  
 Gaussian, Inc.
 340 Quinnipiac St., Bldg. 40, Wallingford CT 06492
  
  
 ---------------------------------------------------------------
 Warning -- This program may not be used in any manner that
 competes with the business of Gaussian, Inc. or will provide
 assistance to any competitor of Gaussian, Inc.  The licensee
 of this program is prohibited from giving any competitor of
 Gaussian, Inc. access to this program.  By using this program,
 the user acknowledges that Gaussian, Inc. is engaged in the
 business of creating and licensing software in the field of
 computational chemistry and represents and warrants to the
 licensee that it is not a competitor of Gaussian, Inc. and that
 it will not use this program in any manner prohibited above.
 ---------------------------------------------------------------
  

 Cite this work as:
 Gaussian 16, Revision B.01,
 M. J. Frisch, G. W. Trucks, H. B. Schlegel, G. E. Scuseria, 
 M. A. Robb, J. R. Cheeseman, G. Scalmani, V. Barone, 
 G. A. Petersson, H. Nakatsuji, X. Li, M. Caricato, A. V. Marenich, 
 J. Bloino, B. G. Janesko, R. Gomperts, B. Mennucci, H. P. Hratchian, 
 J. V. Ortiz, A. F. Izmaylov, J. L. Sonnenberg, D. Williams-Young, 
 F. Ding, F. Lipparini, F. Egidi, J. Goings, B. Peng, A. Petrone, 
 T. Henderson, D. Ranasinghe, V. G. Zakrzewski, J. Gao, N. Rega, 
 G. Zheng, W. Liang, M. Hada, M. Ehara, K. Toyota, R. Fukuda, 
 J. Hasegawa, M. Ishida, T. Nakajima, Y. Honda, O. Kitao, H. Nakai, 
 T. Vreven, K. Throssell, J. A. Montgomery, Jr., J. E. Peralta, 
 F. Ogliaro, M. J. Bearpark, J. J. Heyd, E. N. Brothers, K. N. Kudin, 
 V. N. Staroverov, T. A. Keith, R. Kobayashi, J. Normand, 
 K. Raghavachari, A. P. Rendell, J. C. Burant, S. S. Iyengar, 
 J. Tomasi, M. Cossi, J. M. Millam, M. Klene, C. Adamo, R. Cammi, 
 J. W. Ochterski, R. L. Martin, K. Morokuma, O. Farkas, 
 J. B. Foresman, and D. J. Fox, Gaussian, Inc., Wallingford CT, 2016.
 
 ******************************************
 Gaussian 16:  ES64L-G16RevB.01 20-Dec-2017
                14-Feb-2022 
 ******************************************
 %nproc=28
 Will use up to   28 processors via shared memory.
 %mem=120GB
 %chk=hoono_a2_101p2688.chk
 -------------------------------------
 #p SP mp2/aug-cc-pvtz density=current
 -------------------------------------
 1/30=1,38=1,172=1/1;
 2/12=2,17=6,18=5,40=1/2;
 3/5=16,6=1,7=10,11=9,25=1,30=1,71=1/1,2,3;
 4//1;
 5/5=2,38=5/2;
 8/6=4,10=1/1;
 9/15=1,16=-3/6;
 10/5=1,13=10/2;
 6/7=2,8=2,9=2,10=2,22=-1/1;
 99/5=1,9=1/99;
 Leave Link    1 at Mon Feb 14 12:42:22 2022, MaxMem= 16106127360 cpu:               2.4 elap:               0.1
 (Enter /sw/contrib/gaussian/g16/B01/g16/l101.exe)
 -----
 title
 -----
 Symbolic Z-matrix:
 Charge =  0 Multiplicity = 1
 H
 O                    1    r1
 O                    2    r2       1    a1
 N                    3    r3       2    a2       1    d1       0
 O                    4    r4       3    a3       2    d2       0
       Variables:
  r1                    0.96898                  
  r2                    1.45492                  
  r3                    1.45878                  
  r4                    1.17073                  
  a1                   97.59495                  
  a2                  101.2689                   
  a3                  109.06955                  
  d1                  180.                       
  d2                  180.                       
 
 ITRead=  0  0  0  0  0
 MicOpt= -1 -1 -1 -1 -1
 NAtoms=      5 NQM=        5 NQMF=       0 NMMI=      0 NMMIF=      0
                NMic=       0 NMicF=      0.
                    Isotopes and Nuclear Properties:
 (Nuclear quadrupole moments (NQMom) in fm**2, nuclear magnetic moments (NMagM)
  in nuclear magnetons)

  Atom         1           2           3           4           5
 IAtWgt=           1          16          16          14          16
 AtmWgt=   1.0078250  15.9949146  15.9949146  14.0030740  15.9949146
 NucSpn=           1           0           0           2           0
 AtZEff=  -0.0000000  -0.0000000  -0.0000000  -0.0000000  -0.0000000
 NQMom=    0.0000000   0.0000000   0.0000000   2.0440000   0.0000000
 NMagM=    2.7928460   0.0000000   0.0000000   0.4037610   0.0000000
 AtZNuc=   1.0000000   8.0000000   8.0000000   7.0000000   8.0000000
 Leave Link  101 at Mon Feb 14 12:42:22 2022, MaxMem= 16106127360 cpu:               2.5 elap:               0.1
 (Enter /sw/contrib/gaussian/g16/B01/g16/l202.exe)
                          Input orientation:                          
 ---------------------------------------------------------------------
 Center     Atomic      Atomic             Coordinates (Angstroms)
 Number     Number       Type             X           Y           Z
 ---------------------------------------------------------------------
      1          1           0        0.000000    0.000000    0.000000
      2          8           0        0.000000    0.000000    0.968976
      3          8           0        1.442156    0.000000    1.161271
      4          7           0        1.535632    0.000000    2.617057
      5          8           0        2.664350    0.000000    2.927864
 ---------------------------------------------------------------------
                    Distance matrix (angstroms):
                    1          2          3          4          5
     1  H    0.000000
     2  O    0.968976   0.000000
     3  O    1.851584   1.454919   0.000000
     4  N    3.034329   2.252629   1.458784   0.000000
     5  O    3.958681   3.306964   2.148165   1.170729   0.000000
 Stoichiometry    HNO3
 Framework group  CS[SG(HNO3)]
 Deg. of freedom     7
 Full point group                 CS      NOp   2
 Largest Abelian subgroup         CS      NOp   2
 Largest concise Abelian subgroup C1      NOp   1
                         Standard orientation:                         
 ---------------------------------------------------------------------
 Center     Atomic      Atomic             Coordinates (Angstroms)
 Number     Number       Type             X           Y           Z
 ---------------------------------------------------------------------
      1          1           0        1.568121    1.664971    0.000000
      2          8           0        1.454749    0.702651   -0.000000
      3          8           0        0.000000    0.680411    0.000000
      4          7           0       -0.263165   -0.754439   -0.000000
      5          8           0       -1.420495   -0.931049    0.000000
 ---------------------------------------------------------------------
 Rotational constants (GHZ):          54.0717690           5.0499793           4.6186272
 Leave Link  202 at Mon Feb 14 12:42:22 2022, MaxMem= 16106127360 cpu:               0.2 elap:               0.0
 (Enter /sw/contrib/gaussian/g16/B01/g16/l301.exe)
 Standard basis: Aug-CC-pVTZ (5D, 7F)
 Ernie: Thresh=  0.10000D-02 Tol=  0.10000D-05 Strict=F.
 Ernie:  12 primitive shells out of 131 were deleted.
 There are   166 symmetry adapted cartesian basis functions of A'  symmetry.
 There are    79 symmetry adapted cartesian basis functions of A"  symmetry.
 There are   136 symmetry adapted basis functions of A'  symmetry.
 There are    71 symmetry adapted basis functions of A"  symmetry.
   207 basis functions,   315 primitive gaussians,   245 cartesian basis functions
    16 alpha electrons       16 beta electrons
       nuclear repulsion energy       117.0120157816 Hartrees.
 IExCor=    0 DFT=F Ex=HF Corr=None ExCW=0 ScaHFX=  1.000000
 ScaDFX=  1.000000  1.000000  1.000000  1.000000 ScalE2=  1.000000  1.000000
 IRadAn=      5 IRanWt=     -1 IRanGd=            0 ICorTp=0 IEmpDi=  4
 NAtoms=    5 NActive=    5 NUniq=    5 SFac= 1.00D+00 NAtFMM=   60 NAOKFM=F Big=F
 Integral buffers will be    131072 words long.
 Raffenetti 1 integral format.
 Two-electron integral symmetry is turned on.
 Leave Link  301 at Mon Feb 14 12:42:22 2022, MaxMem= 16106127360 cpu:               1.7 elap:               0.1
 (Enter /sw/contrib/gaussian/g16/B01/g16/l302.exe)
 NPDir=0 NMtPBC=     1 NCelOv=     1 NCel=       1 NClECP=     1 NCelD=      1
         NCelK=      1 NCelE2=     1 NClLst=     1 CellRange=     0.0.
 One-electron integrals computed using PRISM.
 One-electron integral symmetry used in STVInt
 NBasis=   207 RedAO= T EigKep=  1.82D-04  NBF=   136    71
 NBsUse=   207 1.00D-06 EigRej= -1.00D+00 NBFU=   136    71
 Leave Link  302 at Mon Feb 14 12:42:22 2022, MaxMem= 16106127360 cpu:               6.1 elap:               0.3
 (Enter /sw/contrib/gaussian/g16/B01/g16/l303.exe)
 DipDrv:  MaxL=1.
 Leave Link  303 at Mon Feb 14 12:42:22 2022, MaxMem= 16106127360 cpu:               0.8 elap:               0.1
 (Enter /sw/contrib/gaussian/g16/B01/g16/l401.exe)
 ExpMin= 2.53D-02 ExpMax= 1.53D+04 ExpMxC= 5.22D+02 IAcc=3 IRadAn=         5 AccDes= 0.00D+00
 Harris functional with IExCor=  205 and IRadAn=       5 diagonalized for initial guess.
 HarFok:  IExCor=  205 AccDes= 0.00D+00 IRadAn=         5 IDoV= 1 UseB2=F ITyADJ=14
 ICtDFT=  3500011 ScaDFX=  1.000000  1.000000  1.000000  1.000000
 FoFCou: FMM=F IPFlag=           0 FMFlag=      100000 FMFlg1=           0
         NFxFlg=           0 DoJE=T BraDBF=F KetDBF=T FulRan=T
         wScrn=  0.000000 ICntrl=       500 IOpCl=  0 I1Cent=   200000004 NGrid=           0
         NMat0=    1 NMatS0=      1 NMatT0=    0 NMatD0=    1 NMtDS0=    0 NMtDT0=    0
 Petite list used in FoFCou.
 Harris En= -279.628475752621    
 JPrj=0 DoOrth=F DoCkMO=F.
 Initial guess orbital symmetries:
       Occupied  (A') (A') (A') (A') (A') (A') (A') (A') (A') (A')
                 (A") (A') (A') (A") (A") (A')
       Virtual   (A") (A') (A') (A') (A') (A') (A") (A') (A') (A')
                 (A") (A') (A") (A') (A') (A") (A') (A") (A') (A')
                 (A') (A') (A') (A') (A') (A") (A') (A") (A') (A')
                 (A") (A') (A") (A') (A') (A") (A') (A") (A') (A')
                 (A") (A') (A") (A') (A") (A') (A') (A') (A") (A")
                 (A') (A') (A') (A') (A") (A') (A") (A') (A") (A')
                 (A') (A') (A") (A') (A') (A") (A') (A") (A') (A')
                 (A") (A') (A') (A") (A") (A') (A') (A") (A') (A')
                 (A') (A") (A') (A") (A') (A") (A') (A") (A') (A')
                 (A') (A") (A') (A") (A') (A") (A") (A') (A') (A")
                 (A') (A') (A") (A') (A') (A') (A') (A") (A") (A')
                 (A") (A') (A') (A') (A") (A') (A') (A') (A") (A')
                 (A") (A') (A') (A") (A") (A') (A') (A") (A") (A')
                 (A') (A') (A') (A") (A") (A') (A") (A') (A') (A')
                 (A') (A") (A") (A') (A') (A") (A') (A') (A') (A')
                 (A") (A') (A') (A") (A') (A") (A') (A") (A") (A')
                 (A') (A") (A') (A") (A') (A") (A") (A") (A') (A')
                 (A") (A') (A") (A') (A") (A') (A") (A") (A') (A')
                 (A') (A') (A') (A') (A') (A') (A') (A') (A') (A')
                 (A')
 The electronic state of the initial guess is 1-A'.
 Leave Link  401 at Mon Feb 14 12:42:23 2022, MaxMem= 16106127360 cpu:               7.1 elap:               0.3
 (Enter /sw/contrib/gaussian/g16/B01/g16/l502.exe)
 Keep R1 ints in memory in symmetry-blocked form, NReq=348887737.
 FoFCou: FMM=F IPFlag=           0 FMFlag=           0 FMFlg1=           0
         NFxFlg=           0 DoJE=F BraDBF=F KetDBF=F FulRan=T
         wScrn=  0.000000 ICntrl=       600 IOpCl=  0 I1Cent=           0 NGrid=           0
         NMat0=    1 NMatS0=  21528 NMatT0=    0 NMatD0=    1 NMtDS0=    0 NMtDT0=    0
 Petite list used in FoFCou.
 Closed shell SCF:
 Using DIIS extrapolation, IDIIS=  1040.
 NGot= 16106127360 LenX= 15988850015 LenY= 15988789549
 Requested convergence on RMS density matrix=1.00D-08 within 128 cycles.
 Requested convergence on MAX density matrix=1.00D-06.
 Requested convergence on             energy=1.00D-06.
 No special actions if energy rises.

 Cycle   1  Pass 1  IDiag  1:
 E= -279.370206703176    
 DIIS: error= 2.80D-02 at cycle   1 NSaved=   1.
 NSaved= 1 IEnMin= 1 EnMin= -279.370206703176     IErMin= 1 ErrMin= 2.80D-02
 ErrMax= 2.80D-02  0.00D+00 EMaxC= 1.00D-01 BMatC= 4.39D-01 BMatP= 4.39D-01
 IDIUse=3 WtCom= 7.20D-01 WtEn= 2.80D-01
 Coeff-Com:  0.100D+01
 Coeff-En:   0.100D+01
 Coeff:      0.100D+01
 Gap=     0.514 Goal=   None    Shift=    0.000
 GapD=    0.514 DampG=2.000 DampE=0.500 DampFc=1.0000 IDamp=-1.
 RMSDP=1.62D-03 MaxDP=9.90D-02              OVMax= 1.14D-01

 Cycle   2  Pass 1  IDiag  1:
 E= -279.452166824893     Delta-E=       -0.081960121717 Rises=F Damp=F
 DIIS: error= 1.80D-02 at cycle   2 NSaved=   2.
 NSaved= 2 IEnMin= 2 EnMin= -279.452166824893     IErMin= 2 ErrMin= 1.80D-02
 ErrMax= 1.80D-02  0.00D+00 EMaxC= 1.00D-01 BMatC= 7.20D-02 BMatP= 4.39D-01
 IDIUse=3 WtCom= 8.20D-01 WtEn= 1.80D-01
 Coeff-Com:  0.195D+00 0.805D+00
 Coeff-En:   0.000D+00 0.100D+01
 Coeff:      0.160D+00 0.840D+00
 Gap=     0.530 Goal=   None    Shift=    0.000
 RMSDP=9.01D-04 MaxDP=3.74D-02 DE=-8.20D-02 OVMax= 6.94D-02

 Cycle   3  Pass 1  IDiag  1:
 E= -279.481381724672     Delta-E=       -0.029214899779 Rises=F Damp=F
 DIIS: error= 1.04D-02 at cycle   3 NSaved=   3.
 NSaved= 3 IEnMin= 3 EnMin= -279.481381724672     IErMin= 3 ErrMin= 1.04D-02
 ErrMax= 1.04D-02  0.00D+00 EMaxC= 1.00D-01 BMatC= 2.88D-02 BMatP= 7.20D-02
 IDIUse=3 WtCom= 8.96D-01 WtEn= 1.04D-01
 Coeff-Com: -0.330D-01 0.378D+00 0.655D+00
 Coeff-En:   0.000D+00 0.240D+00 0.760D+00
 Coeff:     -0.295D-01 0.364D+00 0.666D+00
 Gap=     0.510 Goal=   None    Shift=    0.000
 RMSDP=3.77D-04 MaxDP=1.54D-02 DE=-2.92D-02 OVMax= 3.82D-02

 Cycle   4  Pass 1  IDiag  1:
 E= -279.500475157690     Delta-E=       -0.019093433018 Rises=F Damp=F
 DIIS: error= 1.26D-03 at cycle   4 NSaved=   4.
 NSaved= 4 IEnMin= 4 EnMin= -279.500475157690     IErMin= 4 ErrMin= 1.26D-03
 ErrMax= 1.26D-03  0.00D+00 EMaxC= 1.00D-01 BMatC= 4.93D-04 BMatP= 2.88D-02
 IDIUse=3 WtCom= 9.87D-01 WtEn= 1.26D-02
 Coeff-Com: -0.117D-01 0.573D-01 0.159D+00 0.796D+00
 Coeff-En:   0.000D+00 0.000D+00 0.000D+00 0.100D+01
 Coeff:     -0.115D-01 0.566D-01 0.157D+00 0.798D+00
 Gap=     0.502 Goal=   None    Shift=    0.000
 RMSDP=9.02D-05 MaxDP=2.77D-03 DE=-1.91D-02 OVMax= 1.12D-02

 Cycle   5  Pass 1  IDiag  1:
 E= -279.501150341847     Delta-E=       -0.000675184157 Rises=F Damp=F
 DIIS: error= 7.28D-04 at cycle   5 NSaved=   5.
 NSaved= 5 IEnMin= 5 EnMin= -279.501150341847     IErMin= 5 ErrMin= 7.28D-04
 ErrMax= 7.28D-04  0.00D+00 EMaxC= 1.00D-01 BMatC= 8.69D-05 BMatP= 4.93D-04
 IDIUse=3 WtCom= 9.93D-01 WtEn= 7.28D-03
 Coeff-Com:  0.612D-02-0.722D-01-0.118D+00 0.195D-01 0.116D+01
 Coeff-En:   0.000D+00 0.000D+00 0.000D+00 0.000D+00 0.100D+01
 Coeff:      0.608D-02-0.717D-01-0.117D+00 0.194D-01 0.116D+01
 Gap=     0.502 Goal=   None    Shift=    0.000
 RMSDP=7.61D-05 MaxDP=2.10D-03 DE=-6.75D-04 OVMax= 1.10D-02

 Cycle   6  Pass 1  IDiag  1:
 E= -279.501464476290     Delta-E=       -0.000314134443 Rises=F Damp=F
 DIIS: error= 2.84D-04 at cycle   6 NSaved=   6.
 NSaved= 6 IEnMin= 6 EnMin= -279.501464476290     IErMin= 6 ErrMin= 2.84D-04
 ErrMax= 2.84D-04  0.00D+00 EMaxC= 1.00D-01 BMatC= 1.66D-05 BMatP= 8.69D-05
 IDIUse=3 WtCom= 9.97D-01 WtEn= 2.84D-03
 Coeff-Com:  0.610D-03 0.141D-02 0.414D-02-0.129D+00-0.229D+00 0.135D+01
 Coeff-En:   0.000D+00 0.000D+00 0.000D+00 0.000D+00 0.000D+00 0.100D+01
 Coeff:      0.609D-03 0.140D-02 0.413D-02-0.129D+00-0.228D+00 0.135D+01
 Gap=     0.502 Goal=   None    Shift=    0.000
 RMSDP=4.51D-05 MaxDP=1.24D-03 DE=-3.14D-04 OVMax= 5.53D-03

 Cycle   7  Pass 1  IDiag  1:
 E= -279.501536829837     Delta-E=       -0.000072353547 Rises=F Damp=F
 DIIS: error= 1.23D-04 at cycle   7 NSaved=   7.
 NSaved= 7 IEnMin= 7 EnMin= -279.501536829837     IErMin= 7 ErrMin= 1.23D-04
 ErrMax= 1.23D-04  0.00D+00 EMaxC= 1.00D-01 BMatC= 4.56D-06 BMatP= 1.66D-05
 IDIUse=3 WtCom= 9.99D-01 WtEn= 1.23D-03
 Coeff-Com: -0.933D-03 0.135D-01 0.264D-01-0.248D-01-0.289D+00 0.399D+00
 Coeff-Com:  0.876D+00
 Coeff-En:   0.000D+00 0.000D+00 0.000D+00 0.000D+00 0.000D+00 0.000D+00
 Coeff-En:   0.100D+01
 Coeff:     -0.931D-03 0.135D-01 0.264D-01-0.247D-01-0.289D+00 0.399D+00
 Coeff:      0.876D+00
 Gap=     0.503 Goal=   None    Shift=    0.000
 RMSDP=1.32D-05 MaxDP=3.76D-04 DE=-7.24D-05 OVMax= 1.55D-03

 Cycle   8  Pass 1  IDiag  1:
 E= -279.501545720720     Delta-E=       -0.000008890883 Rises=F Damp=F
 DIIS: error= 5.60D-05 at cycle   8 NSaved=   8.
 NSaved= 8 IEnMin= 8 EnMin= -279.501545720720     IErMin= 8 ErrMin= 5.60D-05
 ErrMax= 5.60D-05  0.00D+00 EMaxC= 1.00D-01 BMatC= 6.03D-07 BMatP= 4.56D-06
 IDIUse=1 WtCom= 1.00D+00 WtEn= 0.00D+00
 Coeff-Com: -0.448D-03 0.343D-02 0.759D-02 0.274D-01-0.407D-01-0.197D+00
 Coeff-Com:  0.165D+00 0.103D+01
 Coeff:     -0.448D-03 0.343D-02 0.759D-02 0.274D-01-0.407D-01-0.197D+00
 Coeff:      0.165D+00 0.103D+01
 Gap=     0.502 Goal=   None    Shift=    0.000
 RMSDP=6.89D-06 MaxDP=2.02D-04 DE=-8.89D-06 OVMax= 7.44D-04

 Cycle   9  Pass 1  IDiag  1:
 E= -279.501547491912     Delta-E=       -0.000001771191 Rises=F Damp=F
 DIIS: error= 1.64D-05 at cycle   9 NSaved=   9.
 NSaved= 9 IEnMin= 9 EnMin= -279.501547491912     IErMin= 9 ErrMin= 1.64D-05
 ErrMax= 1.64D-05  0.00D+00 EMaxC= 1.00D-01 BMatC= 6.80D-08 BMatP= 6.03D-07
 IDIUse=1 WtCom= 1.00D+00 WtEn= 0.00D+00
 Coeff-Com:  0.123D-03-0.172D-02-0.307D-02-0.218D-02 0.342D-01 0.545D-03
 Coeff-Com: -0.164D+00-0.110D+00 0.125D+01
 Coeff:      0.123D-03-0.172D-02-0.307D-02-0.218D-02 0.342D-01 0.545D-03
 Coeff:     -0.164D+00-0.110D+00 0.125D+01
 Gap=     0.502 Goal=   None    Shift=    0.000
 RMSDP=1.92D-06 MaxDP=6.63D-05 DE=-1.77D-06 OVMax= 1.75D-04

 Cycle  10  Pass 1  IDiag  1:
 E= -279.501547650142     Delta-E=       -0.000000158230 Rises=F Damp=F
 DIIS: error= 4.31D-06 at cycle  10 NSaved=  10.
 NSaved=10 IEnMin=10 EnMin= -279.501547650142     IErMin=10 ErrMin= 4.31D-06
 ErrMax= 4.31D-06  0.00D+00 EMaxC= 1.00D-01 BMatC= 5.49D-09 BMatP= 6.80D-08
 IDIUse=1 WtCom= 1.00D+00 WtEn= 0.00D+00
 Coeff-Com:  0.303D-04-0.235D-03-0.309D-03-0.267D-02 0.149D-02 0.194D-01
 Coeff-Com: -0.120D-01-0.738D-01-0.829D-01 0.115D+01
 Coeff:      0.303D-04-0.235D-03-0.309D-03-0.267D-02 0.149D-02 0.194D-01
 Coeff:     -0.120D-01-0.738D-01-0.829D-01 0.115D+01
 Gap=     0.502 Goal=   None    Shift=    0.000
 RMSDP=5.00D-07 MaxDP=2.09D-05 DE=-1.58D-07 OVMax= 4.17D-05

 Cycle  11  Pass 1  IDiag  1:
 E= -279.501547662484     Delta-E=       -0.000000012343 Rises=F Damp=F
 DIIS: error= 2.02D-06 at cycle  11 NSaved=  11.
 NSaved=11 IEnMin=11 EnMin= -279.501547662484     IErMin=11 ErrMin= 2.02D-06
 ErrMax= 2.02D-06  0.00D+00 EMaxC= 1.00D-01 BMatC= 6.53D-10 BMatP= 5.49D-09
 IDIUse=1 WtCom= 1.00D+00 WtEn= 0.00D+00
 Coeff-Com: -0.212D-04 0.243D-03 0.485D-03 0.533D-03-0.428D-02-0.349D-02
 Coeff-Com:  0.206D-01 0.315D-01-0.139D+00-0.176D+00 0.127D+01
 Coeff:     -0.212D-04 0.243D-03 0.485D-03 0.533D-03-0.428D-02-0.349D-02
 Coeff:      0.206D-01 0.315D-01-0.139D+00-0.176D+00 0.127D+01
 Gap=     0.502 Goal=   None    Shift=    0.000
 RMSDP=1.76D-07 MaxDP=6.41D-06 DE=-1.23D-08 OVMax= 1.73D-05

 Cycle  12  Pass 1  IDiag  1:
 E= -279.501547664266     Delta-E=       -0.000000001781 Rises=F Damp=F
 DIIS: error= 5.78D-07 at cycle  12 NSaved=  12.
 NSaved=12 IEnMin=12 EnMin= -279.501547664266     IErMin=12 ErrMin= 5.78D-07
 ErrMax= 5.78D-07  0.00D+00 EMaxC= 1.00D-01 BMatC= 7.07D-11 BMatP= 6.53D-10
 IDIUse=1 WtCom= 1.00D+00 WtEn= 0.00D+00
 Coeff-Com:  0.122D-05-0.287D-04-0.623D-04 0.182D-03 0.108D-02-0.230D-02
 Coeff-Com: -0.406D-02 0.545D-02 0.416D-01-0.116D+00-0.273D+00 0.135D+01
 Coeff:      0.122D-05-0.287D-04-0.623D-04 0.182D-03 0.108D-02-0.230D-02
 Coeff:     -0.406D-02 0.545D-02 0.416D-01-0.116D+00-0.273D+00 0.135D+01
 Gap=     0.502 Goal=   None    Shift=    0.000
 RMSDP=7.08D-08 MaxDP=2.77D-06 DE=-1.78D-09 OVMax= 6.70D-06

 Cycle  13  Pass 1  IDiag  1:
 E= -279.501547664491     Delta-E=       -0.000000000226 Rises=F Damp=F
 DIIS: error= 1.67D-07 at cycle  13 NSaved=  13.
 NSaved=13 IEnMin=13 EnMin= -279.501547664491     IErMin=13 ErrMin= 1.67D-07
 ErrMax= 1.67D-07  0.00D+00 EMaxC= 1.00D-01 BMatC= 3.97D-12 BMatP= 7.07D-11
 IDIUse=1 WtCom= 1.00D+00 WtEn= 0.00D+00
 Coeff-Com:  0.128D-05-0.139D-04-0.224D-04-0.888D-04 0.123D-03 0.753D-03
 Coeff-Com: -0.823D-03-0.327D-02 0.614D-03 0.413D-01-0.372D-01-0.324D+00
 Coeff-Com:  0.132D+01
 Coeff:      0.128D-05-0.139D-04-0.224D-04-0.888D-04 0.123D-03 0.753D-03
 Coeff:     -0.823D-03-0.327D-02 0.614D-03 0.413D-01-0.372D-01-0.324D+00
 Coeff:      0.132D+01
 Gap=     0.502 Goal=   None    Shift=    0.000
 RMSDP=1.89D-08 MaxDP=5.59D-07 DE=-2.26D-10 OVMax= 1.56D-06

 Cycle  14  Pass 1  IDiag  1:
 E= -279.501547664503     Delta-E=       -0.000000000012 Rises=F Damp=F
 DIIS: error= 2.42D-08 at cycle  14 NSaved=  14.
 NSaved=14 IEnMin=14 EnMin= -279.501547664503     IErMin=14 ErrMin= 2.42D-08
 ErrMax= 2.42D-08  0.00D+00 EMaxC= 1.00D-01 BMatC= 1.96D-13 BMatP= 3.97D-12
 IDIUse=1 WtCom= 1.00D+00 WtEn= 0.00D+00
 Coeff-Com: -0.191D-06 0.311D-05 0.557D-05 0.453D-05-0.824D-04 0.456D-04
 Coeff-Com:  0.277D-03 0.235D-03-0.246D-02 0.151D-02 0.169D-01-0.254D-01
 Coeff-Com: -0.201D+00 0.121D+01
 Coeff:     -0.191D-06 0.311D-05 0.557D-05 0.453D-05-0.824D-04 0.456D-04
 Coeff:      0.277D-03 0.235D-03-0.246D-02 0.151D-02 0.169D-01-0.254D-01
 Coeff:     -0.201D+00 0.121D+01
 Gap=     0.502 Goal=   None    Shift=    0.000
 RMSDP=3.78D-09 MaxDP=9.00D-08 DE=-1.15D-11 OVMax= 3.42D-07

 SCF Done:  E(RHF) =  -279.501547665     A.U. after   14 cycles
            NFock= 14  Conv=0.38D-08     -V/T= 2.0023
 KE= 2.788515542403D+02 PE=-8.953584874892D+02 EE= 2.199933698028D+02
 Leave Link  502 at Mon Feb 14 12:42:26 2022, MaxMem= 16106127360 cpu:              55.8 elap:               3.6
 (Enter /sw/contrib/gaussian/g16/B01/g16/l801.exe)
 ExpMin= 2.53D-02 ExpMax= 1.53D+04 ExpMxC= 5.22D+02 IAcc=3 IRadAn=         5 AccDes= 0.00D+00
 HarFok:  IExCor=  205 AccDes= 0.00D+00 IRadAn=         5 IDoV=-2 UseB2=F ITyADJ=14
 ICtDFT= 12500011 ScaDFX=  1.000000  1.000000  1.000000  1.000000
 Largest valence mixing into a core orbital is  2.08D-04
 Largest core mixing into a valence orbital is  3.63D-05
 Range of M.O.s used for correlation:     5   207
 NBasis=   207 NAE=    16 NBE=    16 NFC=     4 NFV=     0
 NROrb=    203 NOA=    12 NOB=    12 NVA=   191 NVB=   191

 **** Warning!!: The largest alpha MO coefficient is  0.17935320D+02

 Leave Link  801 at Mon Feb 14 12:42:27 2022, MaxMem= 16106127360 cpu:               3.4 elap:               0.2
 (Enter /sw/contrib/gaussian/g16/B01/g16/l906.exe)
 Frozen-core derivative calculation, NFC=   4 NFV=   0.
 FulOut=F Deriv=T AODrv=F NAtomX=     5
   MMem=          76  MDisk=          12 MDiskD=          12
  W3Min=      811440 MinDsk=     1524655 NBas6D=         245
 NBas2D=       30762    NTT=       30135    LW2=     3500000
    MDV= 16105579899 MDiskM=      328644 NBas2p=       30466
 Fully in-core method, ICMem=   960157634.
 IMap=   1   2   3   4   5   6   7   8   9  10  11  12  13  14  15  16
 JobTyp=1 Pass  1 fully in-core, NPsUse= 28.
 Compute canonical integrals.
 FoFCou: FMM=F IPFlag=           0 FMFlag=           0 FMFlg1=           0
         NFxFlg=           0 DoJE=F BraDBF=F KetDBF=F FulRan=T
         wScrn=  0.000000 ICntrl=       600 IOpCl=  1 I1Cent=           0 NGrid=           0
         NMat0=    1 NMatS0=  30762 NMatT0=    0 NMatD0=    1 NMtDS0=    0 NMtDT0=    0
 Symmetry not used in FoFCou.
 Spin components of T(2) and E(2):
     alpha-alpha T2 =       0.3402287998D-01 E2=     -0.1224207271D+00
     alpha-beta  T2 =       0.1868561628D+00 E2=     -0.7003003144D+00
     beta-beta   T2 =       0.3402287998D-01 E2=     -0.1224207271D+00
 The integrals were generated   1 times.
 ANorm=    0.1120224050D+01
 E2 =    -0.9451417687D+00 EUMP2 =    -0.28044668943320D+03
 Leave Link  906 at Mon Feb 14 12:42:35 2022, MaxMem= 16106127360 cpu:             245.5 elap:               8.8
 (Enter /sw/contrib/gaussian/g16/B01/g16/l1002.exe)
 Minotr:  Closed shell wavefunction.
          Computing MP2/KS-MP2 derivatives.
          Using Z-Vector for PSCF gradient.
          Skipping F1 and S1 gradient terms here.
          Frozen-core window.
          Direct CPHF calculation.
          Differentiating once with respect to electric field.
                with respect to dipole field.
          Electric field/nuclear overlap derivatives assumed to be zero.
          Using symmetry in CPHF.
          Requested convergence is 1.0D-10 RMS, and 1.0D-09 maximum.
          NewPWx=F KeepS1=T KeepF1=T KeepIn=T MapXYZ=F SortEE=F KeepMc=T.
 Keep R1 ints in memory in symmetry-blocked form, NReq=348888868.
 FoFCou: FMM=F IPFlag=           0 FMFlag=           0 FMFlg1=           0
         NFxFlg=           0 DoJE=F BraDBF=F KetDBF=F FulRan=T
         wScrn=  0.000000 ICntrl=       600 IOpCl=  0 I1Cent=           0 NGrid=           0
         NMat0=    1 NMatS0=  21528 NMatT0=    0 NMatD0=    1 NMtDS0=    0 NMtDT0=    0
 Petite list used in FoFCou.
          MDV=   16106127360 using IRadAn=       5.
          Solving linear equations separately, MaxMat=       0.
          There are     1 degrees of freedom in the 1st order CPHF.  IDoFFX=0 NUNeed=     1.
 LinEq1:  Iter=  0 NonCon=     1 RMS=5.94D-03 Max=1.33D-01 NDo=     1
 AX will form     1 AO Fock derivatives at one time.
 LinEq1:  Iter=  1 NonCon=     1 RMS=1.90D-03 Max=3.83D-02 NDo=     1
 LinEq1:  Iter=  2 NonCon=     1 RMS=8.67D-04 Max=1.44D-02 NDo=     1
 LinEq1:  Iter=  3 NonCon=     1 RMS=3.86D-04 Max=7.77D-03 NDo=     1
 LinEq1:  Iter=  4 NonCon=     1 RMS=1.19D-04 Max=1.88D-03 NDo=     1
 LinEq1:  Iter=  5 NonCon=     1 RMS=4.44D-05 Max=7.09D-04 NDo=     1
 LinEq1:  Iter=  6 NonCon=     1 RMS=1.99D-05 Max=2.26D-04 NDo=     1
 LinEq1:  Iter=  7 NonCon=     1 RMS=8.05D-06 Max=1.60D-04 NDo=     1
 LinEq1:  Iter=  8 NonCon=     1 RMS=3.44D-06 Max=3.39D-05 NDo=     1
 LinEq1:  Iter=  9 NonCon=     1 RMS=9.41D-07 Max=1.32D-05 NDo=     1
 LinEq1:  Iter= 10 NonCon=     1 RMS=1.85D-07 Max=2.02D-06 NDo=     1
 LinEq1:  Iter= 11 NonCon=     1 RMS=3.47D-08 Max=3.73D-07 NDo=     1
 LinEq1:  Iter= 12 NonCon=     1 RMS=8.38D-09 Max=1.34D-07 NDo=     1
 LinEq1:  Iter= 13 NonCon=     1 RMS=1.52D-09 Max=2.60D-08 NDo=     1
 LinEq1:  Iter= 14 NonCon=     1 RMS=2.72D-10 Max=3.92D-09 NDo=     1
 LinEq1:  Iter= 15 NonCon=     0 RMS=4.88D-11 Max=5.42D-10 NDo=     1
 Linear equations converged to 1.000D-10 1.000D-09 after    15 iterations.
 End of Minotr F.D. properties file   721 does not exist.
 End of Minotr F.D. properties file   722 does not exist.
 End of Minotr F.D. properties file   788 does not exist.
 Leave Link 1002 at Mon Feb 14 12:42:39 2022, MaxMem= 16106127360 cpu:              52.6 elap:               3.9
 (Enter /sw/contrib/gaussian/g16/B01/g16/l601.exe)
 Copying SCF densities to generalized density rwf, IOpCl= 0 IROHF=0.

 **********************************************************************

            Population analysis using the MP2 Density.

 **********************************************************************

 Orbital symmetries:
       Occupied  (A') (A') (A') (A') (A') (A') (A') (A') (A') (A')
                 (A") (A') (A") (A') (A") (A')
       Virtual   (A') (A") (A') (A') (A') (A") (A') (A') (A") (A')
                 (A") (A') (A') (A') (A") (A') (A') (A") (A') (A')
                 (A') (A') (A') (A') (A") (A') (A') (A") (A') (A')
                 (A") (A') (A") (A') (A') (A") (A') (A') (A") (A')
                 (A") (A') (A") (A') (A') (A") (A') (A') (A") (A')
                 (A") (A') (A') (A') (A") (A') (A") (A') (A") (A')
                 (A') (A') (A") (A') (A') (A") (A') (A") (A') (A')
                 (A") (A') (A') (A") (A") (A') (A') (A") (A') (A')
                 (A') (A") (A') (A") (A') (A") (A') (A") (A') (A')
                 (A") (A') (A') (A") (A') (A") (A') (A") (A') (A')
                 (A") (A') (A") (A') (A') (A") (A') (A') (A") (A')
                 (A") (A') (A') (A') (A") (A') (A') (A') (A") (A')
                 (A") (A') (A") (A') (A') (A") (A") (A') (A") (A')
                 (A') (A') (A') (A") (A") (A") (A') (A') (A') (A')
                 (A") (A') (A") (A') (A') (A") (A') (A') (A') (A')
                 (A") (A') (A') (A") (A') (A") (A') (A") (A') (A")
                 (A') (A") (A') (A') (A") (A") (A") (A') (A") (A')
                 (A") (A') (A") (A') (A") (A') (A") (A") (A') (A')
                 (A') (A') (A') (A') (A') (A') (A') (A') (A') (A')
                 (A')
 The electronic state is 1-A'.
 Alpha  occ. eigenvalues --  -20.69114 -20.68407 -20.65963 -15.81252  -1.62407
 Alpha  occ. eigenvalues --   -1.49604  -1.25391  -0.94828  -0.77360  -0.75875
 Alpha  occ. eigenvalues --   -0.71195  -0.67776  -0.62017  -0.59019  -0.48531
 Alpha  occ. eigenvalues --   -0.47271
 Alpha virt. eigenvalues --    0.02962   0.07180   0.08593   0.10144   0.13405
 Alpha virt. eigenvalues --    0.13407   0.14420   0.15486   0.17821   0.19405
 Alpha virt. eigenvalues --    0.19971   0.20641   0.22096   0.23551   0.23747
 Alpha virt. eigenvalues --    0.26533   0.29326   0.30446   0.31026   0.34320
 Alpha virt. eigenvalues --    0.35007   0.38769   0.42163   0.43096   0.52718
 Alpha virt. eigenvalues --    0.53005   0.55986   0.58323   0.62615   0.63743
 Alpha virt. eigenvalues --    0.67427   0.68438   0.70579   0.71186   0.72386
 Alpha virt. eigenvalues --    0.72999   0.74470   0.79042   0.79196   0.80979
 Alpha virt. eigenvalues --    0.81284   0.83159   0.86825   0.90779   0.92244
 Alpha virt. eigenvalues --    0.92601   0.95824   0.98118   0.98553   1.01652
 Alpha virt. eigenvalues --    1.05275   1.05404   1.08524   1.12018   1.14304
 Alpha virt. eigenvalues --    1.18834   1.22174   1.23160   1.33798   1.34968
 Alpha virt. eigenvalues --    1.38745   1.45278   1.48760   1.50895   1.53930
 Alpha virt. eigenvalues --    1.56790   1.58044   1.61482   1.66614   1.66844
 Alpha virt. eigenvalues --    1.70326   1.79303   1.82881   1.83341   1.87919
 Alpha virt. eigenvalues --    1.91188   1.95796   1.99306   2.00588   2.07709
 Alpha virt. eigenvalues --    2.11862   2.13131   2.15023   2.22491   2.26405
 Alpha virt. eigenvalues --    2.26512   2.28854   2.31621   2.34986   2.38743
 Alpha virt. eigenvalues --    2.42623   2.42863   2.45361   2.46386   2.47692
 Alpha virt. eigenvalues --    2.50503   2.59000   2.59551   2.61972   2.62586
 Alpha virt. eigenvalues --    2.63226   2.66949   2.76036   2.82912   2.86447
 Alpha virt. eigenvalues --    2.88938   2.89499   2.92263   2.95634   3.03137
 Alpha virt. eigenvalues --    3.07090   3.12434   3.20607   3.22993   3.31556
 Alpha virt. eigenvalues --    3.33635   3.50949   3.64962   3.83958   3.84470
 Alpha virt. eigenvalues --    4.15001   4.16249   4.18495   4.26016   4.34866
 Alpha virt. eigenvalues --    4.39539   4.46370   4.51824   4.66818   4.71131
 Alpha virt. eigenvalues --    4.80836   4.82428   4.82903   4.89669   5.02221
 Alpha virt. eigenvalues --    5.07725   5.10224   5.14083   5.18284   5.24535
 Alpha virt. eigenvalues --    5.27150   5.30835   5.33255   5.36095   5.61487
 Alpha virt. eigenvalues --    5.67385   5.77177   5.82860   5.95740   6.17227
 Alpha virt. eigenvalues --    6.30870   6.33715   6.39345   6.49317   6.50454
 Alpha virt. eigenvalues --    6.61574   6.66607   6.69833   6.76117   6.76356
 Alpha virt. eigenvalues --    6.83367   6.89688   7.01091   7.05322   7.05759
 Alpha virt. eigenvalues --    7.09028   7.12561   7.15156   7.18235   7.22349
 Alpha virt. eigenvalues --    7.24320   7.30901   7.32480   7.35339   7.40174
 Alpha virt. eigenvalues --    7.42989   7.48632   7.60463   7.61788   7.63232
 Alpha virt. eigenvalues --    7.66874   7.79251   7.89215   8.08961   8.31544
 Alpha virt. eigenvalues --    8.40923   8.54371  13.39993  14.37278  15.17421
 Alpha virt. eigenvalues --   16.15455
          Condensed to atoms (all electrons):
               1          2          3          4          5
     1  H    0.591660   0.127982   0.019206   0.013109  -0.000737
     2  O    0.127982   8.321717  -0.171810  -0.094450   0.015884
     3  O    0.019206  -0.171810   8.469811  -0.128514  -0.039911
     4  N    0.013109  -0.094450  -0.128514   6.972314  -0.055954
     5  O   -0.000737   0.015884  -0.039911  -0.055954   8.274888
 Mulliken charges:
               1
     1  H    0.248780
     2  O   -0.199323
     3  O   -0.148782
     4  N    0.293495
     5  O   -0.194170
 Sum of Mulliken charges =  -0.00000
 Mulliken charges with hydrogens summed into heavy atoms:
               1
     2  O    0.049457
     3  O   -0.148782
     4  N    0.293495
     5  O   -0.194170
 Electronic spatial extent (au):  <R**2>=            251.7464
 Charge=             -0.0000 electrons
 Dipole moment (field-independent basis, Debye):
    X=              0.5338    Y=              1.3521    Z=              0.0000  Tot=              1.4537
 Quadrupole moment (field-independent basis, Debye-Ang):
   XX=            -22.3612   YY=            -18.7202   ZZ=            -22.0084
   XY=              3.2875   XZ=             -0.0000   YZ=              0.0000
 Traceless Quadrupole moment (field-independent basis, Debye-Ang):
   XX=             -1.3313   YY=              2.3097   ZZ=             -0.9784
   XY=              3.2875   XZ=             -0.0000   YZ=              0.0000
 Octapole moment (field-independent basis, Debye-Ang**2):
  XXX=              3.1543  YYY=             10.9215  ZZZ=              0.0000  XYY=              7.8620
  XXY=              6.7410  XXZ=              0.0000  XZZ=             -1.5803  YZZ=             -0.8441
  YYZ=              0.0000  XYZ=              0.0000
 Hexadecapole moment (field-independent basis, Debye-Ang**3):
 XXXX=           -158.2600 YYYY=            -88.8482 ZZZZ=            -18.2375 XXXY=            -35.6745
 XXXZ=             -0.0000 YYYX=            -30.4245 YYYZ=             -0.0000 ZZZX=              0.0000
 ZZZY=             -0.0000 XXYY=            -33.6848 XXZZ=            -30.9384 YYZZ=            -20.3769
 XXYZ=             -0.0000 YYXZ=              0.0000 ZZXY=            -14.8197
 N-N= 1.170120157816D+02 E-N=-8.961434402483D+02  KE= 2.802035646678D+02
 Symmetry A'   KE= 2.662314700493D+02
 Symmetry A"   KE= 1.397209461848D+01
 No NMR shielding tensors so no spin-rotation constants.
 Leave Link  601 at Mon Feb 14 12:42:40 2022, MaxMem= 16106127360 cpu:               4.7 elap:               0.2
 (Enter /sw/contrib/gaussian/g16/B01/g16/l9999.exe)
 1\1\GINC-N2115\SP\RMP2-FC\Aug-CC-pVTZ\H1N1O3\CGAVINH\14-Feb-2022\0\\#p
  SP mp2/aug-cc-pvtz density=current\\title\\0,1\H\O,1,0.96897556\O,2,1
 .45491931,1,97.59494903\N,3,1.45878406,2,101.26889547,1,180.,0\O,4,1.1
 7072885,3,109.06955123,2,180.,0\\Version=ES64L-G16RevB.01\State=1-A'\H
 F=-279.5015477\MP2=-280.4466894\RMSD=3.782e-09\Dipole=-0.146329,0.,-0.
 5528741\Quadrupole=-1.5207294,-0.7274334,2.2481629,0.,2.0627142,0.\PG=
 CS [SG(H1N1O3)]\\@


 Any fool can criticize, condemn, and complain -- and most do.
 -- Dale Carnegie
 Job cpu time:       0 days  0 hours  6 minutes 23.6 seconds.
 Elapsed time:       0 days  0 hours  0 minutes 17.7 seconds.
 File lengths (MBytes):  RWF=     22 Int=      0 D2E=      0 Chk=      8 Scr=      1
 Normal termination of Gaussian 16 at Mon Feb 14 12:42:40 2022.
