title                                                                   
SP        RMP2-FC                                                     Aug-CC-pVTZ         
Number of atoms                            I                5
Info1-9                                    I   N=           9
          33          24           0           0           0         110
           1           2           1
Full Title                                 C   N=           1
title       
Route                                      C   N=           4
#p SP mp2/aug-cc-pvtz density=current           
Charge                                     I                0
Multiplicity                               I                1
Number of electrons                        I               32
Number of alpha electrons                  I               16
Number of beta electrons                   I               16
Number of basis functions                  I              207
Number of independent functions            I              207
Number of point charges in /Mol/           I                0
Number of translation vectors              I                0
Atomic numbers                             I   N=           5
           1           8           8           7           8
Nuclear charges                            R   N=           5
  1.00000000E+00  8.00000000E+00  8.00000000E+00  7.00000000E+00  8.00000000E+00
Current cartesian coordinates              R   N=          15
  2.88997480E+00  3.23039217E+00 -1.76229215E-31  2.74545773E+00  1.40500556E+00
 -7.70973262E-32  2.82461122E-17  1.25784286E+00 -4.34994454E-32 -4.90911755E-01
 -1.45479672E+00  4.06009958E-32 -2.67715680E+00 -1.79370030E+00  1.08043732E-31
Number of symbols in /Mol/                 I                0
Force Field                                I                0
Atom Types                                 C   N=           5
                                                            
Int Atom Types                             I   N=           5
           0           0           0           0           0
MM charges                                 R   N=           5
  0.00000000E+00  0.00000000E+00  0.00000000E+00  0.00000000E+00  0.00000000E+00
Integer atomic weights                     I   N=           5
           1          16          16          14          16
Real atomic weights                        R   N=           5
  1.00782504E+00  1.59949146E+01  1.59949146E+01  1.40030740E+01  1.59949146E+01
Atom fragment info                         I   N=           5
           0           0           0           0           0
Atom residue num                           I   N=           5
           0           0           0           0           0
Nuclear spins                              I   N=           5
           1           0           0           2           0
Nuclear ZEff                               R   N=           5
 -1.00000000E+00 -5.60000000E+00 -5.60000000E+00 -4.55000000E+00 -5.60000000E+00
Nuclear ZNuc                               R   N=           5
  1.00000000E+00  8.00000000E+00  8.00000000E+00  7.00000000E+00  8.00000000E+00
Nuclear QMom                               R   N=           5
  0.00000000E+00  0.00000000E+00  0.00000000E+00  2.04400000E+00  0.00000000E+00
Nuclear GFac                               R   N=           5
  2.79284600E+00  0.00000000E+00  0.00000000E+00  4.03761000E-01  0.00000000E+00
MicOpt                                     I   N=           5
          -1          -1          -1          -1          -1
Number of residues                         I                0
Number of secondary structures             I                0
SymInf integers                            I   N=          26
           1           2           1           1           1           1
           1          -1           0           0           0           0
           0           0           0           0           0           0
           0           0           0           0           0           0
           0           0
RotTr to input orientation                 R   N=          12
 -9.96880659E-01 -9.78632020E-17 -7.89237020E-02  7.89237020E-02 -7.36233082E-17
 -9.96880659E-01  9.17473093E-17 -1.00000000E+00  8.11173783E-17  2.62600547E+00
  0.00000000E+00  3.44840299E+00
Number of contracted shells                I               65
Number of primitive shells                 I              119
Pure/Cartesian d shells                    I                0
Pure/Cartesian f shells                    I                0
Highest angular momentum                   I                3
Largest degree of contraction              I                7
Shell types                                I   N=          65
           0           0           0           0           1           1
           1          -2          -2           0           0           0
           0           0           1           1           1           1
          -2          -2          -2          -3          -3           0
           0           0           0           0           1           1
           1           1          -2          -2          -2          -3
          -3           0           0           0           0           0
           1           1           1           1          -2          -2
          -2          -3          -3           0           0           0
           0           0           1           1           1           1
          -2          -2          -2          -3          -3
Number of primitives per shell             I   N=          65
           3           1           1           1           1           1
           1           1           1           7           6           1
           1           1           3           1           1           1
           1           1           1           1           1           7
           6           1           1           1           3           1
           1           1           1           1           1           1
           1           7           6           1           1           1
           3           1           1           1           1           1
           1           1           1           7           6           1
           1           1           3           1           1           1
           1           1           1           1           1
Shell to atom map                          I   N=          65
           1           1           1           1           1           1
           1           1           1           2           2           2
           2           2           2           2           2           2
           2           2           2           2           2           3
           3           3           3           3           3           3
           3           3           3           3           3           3
           3           4           4           4           4           4
           4           4           4           4           4           4
           4           4           4           5           5           5
           5           5           5           5           5           5
           5           5           5           5           5
Primitive exponents                        R   N=         119
  3.38700000E+01  5.09500000E+00  1.15900000E+00  3.25800000E-01  1.02700000E-01
  2.52600000E-02  1.40700000E+00  3.88000000E-01  1.02000000E-01  1.05700000E+00
  2.47000000E-01  1.53300000E+04  2.29900000E+03  5.22400000E+02  1.47300000E+02
  4.75500000E+01  1.67600000E+01  6.20700000E+00  5.22400000E+02  1.47300000E+02
  4.75500000E+01  1.67600000E+01  6.20700000E+00  6.88200000E-01  1.75200000E+00
  2.38400000E-01  7.37600000E-02  3.44600000E+01  7.74900000E+00  2.28000000E+00
  7.15600000E-01  2.14000000E-01  5.97400000E-02  2.31400000E+00  6.45000000E-01
  2.14000000E-01  1.42800000E+00  5.00000000E-01  1.53300000E+04  2.29900000E+03
  5.22400000E+02  1.47300000E+02  4.75500000E+01  1.67600000E+01  6.20700000E+00
  5.22400000E+02  1.47300000E+02  4.75500000E+01  1.67600000E+01  6.20700000E+00
  6.88200000E-01  1.75200000E+00  2.38400000E-01  7.37600000E-02  3.44600000E+01
  7.74900000E+00  2.28000000E+00  7.15600000E-01  2.14000000E-01  5.97400000E-02
  2.31400000E+00  6.45000000E-01  2.14000000E-01  1.42800000E+00  5.00000000E-01
  1.14200000E+04  1.71200000E+03  3.89300000E+02  1.10000000E+02  3.55700000E+01
  1.25400000E+01  4.64400000E+00  3.89300000E+02  1.10000000E+02  3.55700000E+01
  1.25400000E+01  4.64400000E+00  5.11800000E-01  1.29300000E+00  1.78700000E-01
  5.76000000E-02  2.66300000E+01  5.94800000E+00  1.74200000E+00  5.55000000E-01
  1.72500000E-01  4.91000000E-02  1.65400000E+00  4.69000000E-01  1.51000000E-01
  1.09300000E+00  3.64000000E-01  1.53300000E+04  2.29900000E+03  5.22400000E+02
  1.47300000E+02  4.75500000E+01  1.67600000E+01  6.20700000E+00  5.22400000E+02
  1.47300000E+02  4.75500000E+01  1.67600000E+01  6.20700000E+00  6.88200000E-01
  1.75200000E+00  2.38400000E-01  7.37600000E-02  3.44600000E+01  7.74900000E+00
  2.28000000E+00  7.15600000E-01  2.14000000E-01  5.97400000E-02  2.31400000E+00
  6.45000000E-01  2.14000000E-01  1.42800000E+00  5.00000000E-01
Contraction coefficients                   R   N=         119
  2.54948632E-02  1.90362766E-01  8.52162022E-01  1.00000000E+00  1.00000000E+00
  1.00000000E+00  1.00000000E+00  1.00000000E+00  1.00000000E+00  1.00000000E+00
  1.00000000E+00  5.19808943E-04  4.02025621E-03  2.07128267E-02  8.10105536E-02
  2.35962985E-01  4.42653446E-01  3.57064423E-01 -4.42115008E-05 -1.22591041E-03
 -1.05517725E-02 -6.74452633E-02 -1.71198607E-01  1.07329856E+00  1.00000000E+00
  1.00000000E+00  1.00000000E+00  4.11634896E-02  2.57762836E-01  8.02419274E-01
  1.00000000E+00  1.00000000E+00  1.00000000E+00  1.00000000E+00  1.00000000E+00
  1.00000000E+00  1.00000000E+00  1.00000000E+00  5.19808943E-04  4.02025621E-03
  2.07128267E-02  8.10105536E-02  2.35962985E-01  4.42653446E-01  3.57064423E-01
 -4.42115008E-05 -1.22591041E-03 -1.05517725E-02 -6.74452633E-02 -1.71198607E-01
  1.07329856E+00  1.00000000E+00  1.00000000E+00  1.00000000E+00  4.11634896E-02
  2.57762836E-01  8.02419274E-01  1.00000000E+00  1.00000000E+00  1.00000000E+00
  1.00000000E+00  1.00000000E+00  1.00000000E+00  1.00000000E+00  1.00000000E+00
  5.34563860E-04  4.13435660E-03  2.12335358E-02  8.25006224E-02  2.38138871E-01
  4.42551547E-01  3.53757422E-01 -4.89867350E-05 -1.19527323E-03 -1.03490714E-02
 -6.48680190E-02 -1.71552477E-01  1.07289568E+00  1.00000000E+00  1.00000000E+00
  1.00000000E+00  3.98072123E-02  2.49002660E-01  8.10479727E-01  1.00000000E+00
  1.00000000E+00  1.00000000E+00  1.00000000E+00  1.00000000E+00  1.00000000E+00
  1.00000000E+00  1.00000000E+00  5.19808943E-04  4.02025621E-03  2.07128267E-02
  8.10105536E-02  2.35962985E-01  4.42653446E-01  3.57064423E-01 -4.42115008E-05
 -1.22591041E-03 -1.05517725E-02 -6.74452633E-02 -1.71198607E-01  1.07329856E+00
  1.00000000E+00  1.00000000E+00  1.00000000E+00  4.11634896E-02  2.57762836E-01
  8.02419274E-01  1.00000000E+00  1.00000000E+00  1.00000000E+00  1.00000000E+00
  1.00000000E+00  1.00000000E+00  1.00000000E+00  1.00000000E+00
Coordinates of each shell                  R   N=         195
  2.88997480E+00  3.23039217E+00 -6.37572727E-32  2.88997480E+00  3.23039217E+00
 -6.37572727E-32  2.88997480E+00  3.23039217E+00 -6.37572727E-32  2.88997480E+00
  3.23039217E+00 -6.37572727E-32  2.88997480E+00  3.23039217E+00 -6.37572727E-32
  2.88997480E+00  3.23039217E+00 -6.37572727E-32  2.88997480E+00  3.23039217E+00
 -6.37572727E-32  2.88997480E+00  3.23039217E+00 -6.37572727E-32  2.88997480E+00
  3.23039217E+00 -6.37572727E-32  2.74545773E+00  1.40500556E+00 -2.99022267E-32
  2.74545773E+00  1.40500556E+00 -2.99022267E-32  2.74545773E+00  1.40500556E+00
 -2.99022267E-32  2.74545773E+00  1.40500556E+00 -2.99022267E-32  2.74545773E+00
  1.40500556E+00 -2.99022267E-32  2.74545773E+00  1.40500556E+00 -2.99022267E-32
  2.74545773E+00  1.40500556E+00 -2.99022267E-32  2.74545773E+00  1.40500556E+00
 -2.99022267E-32  2.74545773E+00  1.40500556E+00 -2.99022267E-32  2.74545773E+00
  1.40500556E+00 -2.99022267E-32  2.74545773E+00  1.40500556E+00 -2.99022267E-32
  2.74545773E+00  1.40500556E+00 -2.99022267E-32  2.74545773E+00  1.40500556E+00
 -2.99022267E-32  2.74545773E+00  1.40500556E+00 -2.99022267E-32  6.44752052E-18
  1.25784286E+00 -2.31836214E-32  6.44752052E-18  1.25784286E+00 -2.31836214E-32
  6.44752052E-18  1.25784286E+00 -2.31836214E-32  6.44752052E-18  1.25784286E+00
 -2.31836214E-32  6.44752052E-18  1.25784286E+00 -2.31836214E-32  6.44752052E-18
  1.25784286E+00 -2.31836214E-32  6.44752052E-18  1.25784286E+00 -2.31836214E-32
  6.44752052E-18  1.25784286E+00 -2.31836214E-32  6.44752052E-18  1.25784286E+00
 -2.31836214E-32  6.44752052E-18  1.25784286E+00 -2.31836214E-32  6.44752052E-18
  1.25784286E+00 -2.31836214E-32  6.44752052E-18  1.25784286E+00 -2.31836214E-32
  6.44752052E-18  1.25784286E+00 -2.31836214E-32  6.44752052E-18  1.25784286E+00
 -2.31836214E-32 -4.90911755E-01 -1.45479672E+00  2.75300738E-32 -4.90911755E-01
 -1.45479672E+00  2.75300738E-32 -4.90911755E-01 -1.45479672E+00  2.75300738E-32
 -4.90911755E-01 -1.45479672E+00  2.75300738E-32 -4.90911755E-01 -1.45479672E+00
  2.75300738E-32 -4.90911755E-01 -1.45479672E+00  2.75300738E-32 -4.90911755E-01
 -1.45479672E+00  2.75300738E-32 -4.90911755E-01 -1.45479672E+00  2.75300738E-32
 -4.90911755E-01 -1.45479672E+00  2.75300738E-32 -4.90911755E-01 -1.45479672E+00
  2.75300738E-32 -4.90911755E-01 -1.45479672E+00  2.75300738E-32 -4.90911755E-01
 -1.45479672E+00  2.75300738E-32 -4.90911755E-01 -1.45479672E+00  2.75300738E-32
 -4.90911755E-01 -1.45479672E+00  2.75300738E-32 -2.67715680E+00 -1.79370030E+00
  3.69666926E-32 -2.67715680E+00 -1.79370030E+00  3.69666926E-32 -2.67715680E+00
 -1.79370030E+00  3.69666926E-32 -2.67715680E+00 -1.79370030E+00  3.69666926E-32
 -2.67715680E+00 -1.79370030E+00  3.69666926E-32 -2.67715680E+00 -1.79370030E+00
  3.69666926E-32 -2.67715680E+00 -1.79370030E+00  3.69666926E-32 -2.67715680E+00
 -1.79370030E+00  3.69666926E-32 -2.67715680E+00 -1.79370030E+00  3.69666926E-32
 -2.67715680E+00 -1.79370030E+00  3.69666926E-32 -2.67715680E+00 -1.79370030E+00
  3.69666926E-32 -2.67715680E+00 -1.79370030E+00  3.69666926E-32 -2.67715680E+00
 -1.79370030E+00  3.69666926E-32 -2.67715680E+00 -1.79370030E+00  3.69666926E-32
Num ILSW                                   I              100
ILSW                                       I   N=         100
           0           0           0           0           2           0
           0           0           0           0           0          -1
           5           0           0           0           0           0
           0           0           0           0           0           0
           1           0           0           0           0           0
           0           0      100000           0          -1           0
           0           0           0           0           0           0
           0           0           0           1           0           0
           0 -2000000000           1           0           0           0
           0           0           4          52           0           0
           0           0           0           0           0           0
           0           0           0           5           0           1
           0           0           0           0           0           0
           0           0           0           0           0           0
           0           0           0           0           0           0
           0           0           0           0           0           0
           0           0           0           0
Num RLSW                                   I               52
RLSW                                       R   N=          52
  1.00000000E+00  1.00000000E+00  1.00000000E+00  1.00000000E+00  1.00000000E+00
  0.00000000E+00  0.00000000E+00  1.00000000E+00  0.00000000E+00  0.00000000E+00
  0.00000000E+00  0.00000000E+00  1.00000000E+00  0.00000000E+00  0.00000000E+00
  0.00000000E+00  0.00000000E+00  1.00000000E+00  0.00000000E+00  0.00000000E+00
  0.00000000E+00  0.00000000E+00  1.00000000E+00  0.00000000E+00  0.00000000E+00
  0.00000000E+00  0.00000000E+00  1.00000000E+00  0.00000000E+00  0.00000000E+00
  0.00000000E+00  0.00000000E+00  1.00000000E+00  0.00000000E+00  0.00000000E+00
  0.00000000E+00  0.00000000E+00  0.00000000E+00  1.00000000E+00  1.00000000E+00
  0.00000000E+00  1.00000000E+00  0.00000000E+00  0.00000000E+00  0.00000000E+00
  0.00000000E+00  0.00000000E+00  0.00000000E+00  0.00000000E+00  0.00000000E+00
  0.00000000E+00  0.00000000E+00
MxBond                                     I                2
NBond                                      I   N=           5
           1           2           2           2           1
IBond                                      I   N=          10
           2           0           1           3           2           4
           3           5           4           0
RBond                                      R   N=          10
  1.00000000E+00  0.00000000E+00  1.00000000E+00  1.00000000E+00  1.00000000E+00
  1.00000000E+00  1.00000000E+00  2.00000000E+00  2.00000000E+00  0.00000000E+00
Virial Ratio                               R      2.002374782971353E+00
SCF Energy                                 R     -2.795017172436165E+02
MP2 Energy                                 R     -2.804466889306644E+02
Total Energy                               R     -2.804466889306644E+02
Post-SCF wavefunction norm                 R      1.120226926774644E+00
RMS Density                                R      3.800195145310088E-09
Job Status                                 I                1
Nuclear derivative order                   I                0
External E-field                           R   N=          35
  0.00000000E+00  0.00000000E+00  0.00000000E+00  0.00000000E+00  0.00000000E+00
  0.00000000E+00  0.00000000E+00  0.00000000E+00  0.00000000E+00  0.00000000E+00
  0.00000000E+00  0.00000000E+00  0.00000000E+00  0.00000000E+00  0.00000000E+00
  0.00000000E+00  0.00000000E+00  0.00000000E+00  0.00000000E+00  0.00000000E+00
  0.00000000E+00  0.00000000E+00  0.00000000E+00  0.00000000E+00  0.00000000E+00
  0.00000000E+00  0.00000000E+00  0.00000000E+00  0.00000000E+00  0.00000000E+00
  0.00000000E+00  0.00000000E+00  0.00000000E+00  0.00000000E+00  0.00000000E+00
IOpCl                                      I                0
IROHF                                      I                0
Alpha Orbital Energies                     R   N=         207
 -2.06905837E+01 -2.06845295E+01 -2.06603271E+01 -1.58131519E+01 -1.62399769E+00
 -1.49544870E+00 -1.25489528E+00 -9.47872094E-01 -7.71998230E-01 -7.59594365E-01
 -7.11641916E-01 -6.80909729E-01 -6.20729721E-01 -5.88657518E-01 -4.85135127E-01
 -4.72292018E-01  2.96313357E-02  7.15513618E-02  8.59637990E-02  1.01994503E-01
  1.33836163E-01  1.33846174E-01  1.43948308E-01  1.54184944E-01  1.78300087E-01
  1.94279567E-01  1.99913716E-01  2.06221918E-01  2.20699162E-01  2.35294324E-01
  2.37293712E-01  2.66806235E-01  2.93580552E-01  3.03323345E-01  3.10720946E-01
  3.43691753E-01  3.49399024E-01  3.86764041E-01  4.22306705E-01  4.32411159E-01
  5.27487102E-01  5.28370188E-01  5.57280834E-01  5.80085931E-01  6.25696071E-01
  6.39107929E-01  6.74688565E-01  6.84535793E-01  7.06983227E-01  7.10463225E-01
  7.24417464E-01  7.28836529E-01  7.44641955E-01  7.92109406E-01  7.92676157E-01
  8.10897475E-01  8.12633089E-01  8.29594807E-01  8.68216874E-01  9.08552338E-01
  9.21697229E-01  9.26613919E-01  9.54945487E-01  9.73971986E-01  9.83754119E-01
  1.01641006E+00  1.05119973E+00  1.05558982E+00  1.07952993E+00  1.11515417E+00
  1.13947540E+00  1.19074015E+00  1.21979269E+00  1.23395004E+00  1.33975261E+00
  1.35119505E+00  1.38497058E+00  1.45432168E+00  1.48804537E+00  1.50885849E+00
  1.53682323E+00  1.56593272E+00  1.57899751E+00  1.61186407E+00  1.66158150E+00
  1.67161805E+00  1.70329174E+00  1.79243908E+00  1.83413504E+00  1.83608334E+00
  1.87747030E+00  1.90832300E+00  1.95447988E+00  1.99134656E+00  2.00578926E+00
  2.07828799E+00  2.12339731E+00  2.13270704E+00  2.14962858E+00  2.22369370E+00
  2.26422489E+00  2.26513252E+00  2.29055774E+00  2.31276320E+00  2.33839716E+00
  2.38488785E+00  2.42258348E+00  2.42922731E+00  2.45483406E+00  2.46169671E+00
  2.47659843E+00  2.49817215E+00  2.58848931E+00  2.59752514E+00  2.62003519E+00
  2.62628166E+00  2.63709939E+00  2.66572440E+00  2.75494382E+00  2.82050294E+00
  2.84529177E+00  2.87827000E+00  2.89447985E+00  2.92601497E+00  2.96057651E+00
  3.01873961E+00  3.06552192E+00  3.11908943E+00  3.20342120E+00  3.22408302E+00
  3.31778886E+00  3.34679424E+00  3.52446239E+00  3.63738383E+00  3.83727402E+00
  3.84395381E+00  4.14744008E+00  4.16354704E+00  4.18267018E+00  4.25546632E+00
  4.35450224E+00  4.39107963E+00  4.46303480E+00  4.52019102E+00  4.65564667E+00
  4.70986769E+00  4.80154884E+00  4.82423892E+00  4.83037506E+00  4.89492049E+00
  5.02437311E+00  5.07768199E+00  5.10388456E+00  5.14883896E+00  5.17520383E+00
  5.23993908E+00  5.27292315E+00  5.30814256E+00  5.32685062E+00  5.35010903E+00
  5.59768382E+00  5.67345447E+00  5.76641206E+00  5.83034225E+00  5.95746018E+00
  6.16511694E+00  6.30885769E+00  6.33936711E+00  6.39547433E+00  6.49404955E+00
  6.50629676E+00  6.61175593E+00  6.66987438E+00  6.70063718E+00  6.75429736E+00
  6.76322438E+00  6.83183480E+00  6.89976997E+00  7.01604281E+00  7.05624747E+00
  7.05949869E+00  7.08988362E+00  7.12332572E+00  7.14774818E+00  7.18091158E+00
  7.22633724E+00  7.24038657E+00  7.30625117E+00  7.32551266E+00  7.34116444E+00
  7.39693218E+00  7.43312392E+00  7.48273475E+00  7.61132473E+00  7.61739757E+00
  7.62182109E+00  7.66280070E+00  7.78712488E+00  7.88183804E+00  8.09510890E+00
  8.31407458E+00  8.40932082E+00  8.54516209E+00  1.33819089E+01  1.44135763E+01
  1.51505472E+01  1.61507744E+01
Alpha MO coefficients                      R   N=       42849
  9.25545155E-05 -6.56414440E-04 -7.37065716E-04 -5.69180491E-06 -2.21509755E-05
 -2.71877959E-05  0.00000000E+00 -4.15311230E-05  6.53626207E-05  0.00000000E+00
  9.05158416E-05  3.99035678E-05  0.00000000E+00  3.22683190E-05  0.00000000E+00
  0.00000000E+00 -5.03299465E-05  1.90843563E-05 -4.54368251E-06  0.00000000E+00
  0.00000000E+00 -1.45291916E-04  1.12808997E-04  4.67902058E-03 -2.81214073E-04
  1.72157036E-05  1.60291883E-03  1.83590042E-03  1.07069370E-04  9.56473473E-06
  0.00000000E+00 -6.23471719E-04 -4.77213075E-05  0.00000000E+00 -1.13786515E-03
  7.84871392E-04  0.00000000E+00 -4.07585821E-04  5.61199506E-05  0.00000000E+00
  2.88141561E-05  0.00000000E+00  0.00000000E+00 -5.44411158E-05  3.71574343E-06
 -3.80508196E-04  0.00000000E+00  0.00000000E+00  7.43513436E-04 -2.43602727E-06
 -4.49157376E-04  0.00000000E+00  0.00000000E+00  2.49589996E-04 -7.71760652E-06
  0.00000000E+00  8.02462481E-05  1.43813944E-05  0.00000000E+00  0.00000000E+00
 -1.08861683E-04 -9.44055547E-06  0.00000000E+00  2.54347727E-04 -2.39300991E-05
  0.00000000E+00  0.00000000E+00 -3.59674922E-04  2.88855448E-05  9.76909870E-01
 -9.20923361E-03  4.33217662E-02  1.99643887E-03 -9.22450138E-04  1.50890387E-03
 -1.33836553E-03  0.00000000E+00 -1.44533303E-03  1.36162165E-03  0.00000000E+00
  6.85609922E-05 -1.16260803E-03  0.00000000E+00 -1.39696411E-04 -1.36847883E-05
  0.00000000E+00  4.47085000E-05  0.00000000E+00  0.00000000E+00 -3.50751464E-05
  2.32851863E-05  7.51385512E-04  0.00000000E+00  0.00000000E+00 -2.27691389E-04
 -4.16484816E-04 -3.58778939E-04  0.00000000E+00  0.00000000E+00 -3.09224633E-04
 -3.73038966E-04  0.00000000E+00  4.74167935E-05 -4.80535995E-05  0.00000000E+00
  0.00000000E+00 -3.86808151E-05 -1.75077832E-05  0.00000000E+00  2.45286449E-05
  2.24574547E-05  0.00000000E+00  0.00000000E+00 -3.06042080E-04 -1.53795512E-04
  3.97542472E-05  4.92276894E-05 -2.66261778E-04 -6.82290889E-04 -1.40049867E-04
 -2.72785434E-05 -9.82339916E-05  0.00000000E+00  2.77254113E-04  7.20574342E-04
  0.00000000E+00 -8.51431584E-04 -4.78890893E-04  0.00000000E+00 -1.22424022E-04
 -2.64691653E-05  0.00000000E+00 -1.84617246E-05  0.00000000E+00  0.00000000E+00
 -3.04698381E-05  1.50185383E-05 -3.29818495E-04  0.00000000E+00  0.00000000E+00
 -8.31406007E-04  1.28284936E-04 -3.62051689E-05  0.00000000E+00  0.00000000E+00
  9.96250686E-05 -1.19774077E-04  0.00000000E+00 -2.10077405E-05 -1.20406974E-04
  0.00000000E+00  0.00000000E+00 -6.09961717E-05 -1.37821221E-04  0.00000000E+00
  6.84623238E-06 -1.49309472E-04  0.00000000E+00  0.00000000E+00  4.43504193E-05
 -4.24275251E-04 -2.78026754E-03  1.23641693E-04 -1.33377571E-04 -2.59787807E-04
  1.31186221E-04 -8.38856146E-06 -2.85324226E-05  0.00000000E+00  6.96092731E-05
  1.68588500E-04  0.00000000E+00  2.32611350E-04  1.94210400E-04  0.00000000E+00
  1.25837884E-04  2.04805150E-05  0.00000000E+00 -3.45755871E-06  0.00000000E+00
  0.00000000E+00 -1.79867627E-05  1.18013918E-06  3.46629794E-07  0.00000000E+00
  0.00000000E+00  8.13980969E-05  8.97336403E-05 -1.00530961E-04  0.00000000E+00
  0.00000000E+00  1.70799717E-04  1.59258494E-04  0.00000000E+00  1.57623279E-05
 -3.66472526E-06  0.00000000E+00  0.00000000E+00 -4.50015989E-06 -1.17897577E-05
  0.00000000E+00 -3.38185199E-05  4.57660541E-05  0.00000000E+00  0.00000000E+00
  8.57164718E-05  9.03753353E-05  3.71877488E-05 -9.83358852E-04 -4.97601281E-04
 -9.92022147E-06 -2.23367077E-05  1.64331574E-05  0.00000000E+00 -3.39862674E-06
  2.77000558E-04  0.00000000E+00 -3.78755284E-05  1.37250946E-04  0.00000000E+00
  2.55219595E-05  0.00000000E+00  0.00000000E+00  1.31959520E-05  1.17324958E-05
 -2.44354401E-05  0.00000000E+00  0.00000000E+00  8.82495701E-06  3.23685996E-05
  1.12890274E-04  7.67239195E-05 -2.77155906E-05  7.73524616E-04  6.91500849E-04
  1.01070274E-05  2.63746655E-06  0.00000000E+00 -6.95543371E-05  1.77633997E-05
  0.00000000E+00  2.93989603E-04  8.72143848E-04  0.00000000E+00 -9.19063295E-06
  7.56438366E-05  0.00000000E+00 -1.85281907E-06  0.00000000E+00  0.00000000E+00
  4.97001240E-08 -7.28677371E-06 -3.75760006E-05  0.00000000E+00  0.00000000E+00
 -2.50898856E-05  8.90222265E-05 -2.67027982E-05  0.00000000E+00  0.00000000E+00
 -2.59026788E-04 -1.53238876E-04  0.00000000E+00  9.15746835E-06  5.98718296E-06
  0.00000000E+00  0.00000000E+00  2.96643192E-06 -1.89836172E-05  0.00000000E+00
 -3.88055877E-05 -3.71095487E-05  0.00000000E+00  0.00000000E+00 -7.33924480E-05
  9.60181745E-06  2.81939811E-03  3.81032900E-05  9.99594713E-05 -6.93037620E-05
 -4.80100144E-04  7.41981471E-06  1.58074428E-05  0.00000000E+00 -6.23145206E-05
 -5.75804723E-05  0.00000000E+00  2.33662601E-04 -1.66730756E-04  0.00000000E+00
 -1.98815596E-04 -6.82703477E-05  0.00000000E+00 -8.68910311E-06  0.00000000E+00
  0.00000000E+00  2.24756757E-05  1.93759480E-05  4.15973465E-06  0.00000000E+00
  0.00000000E+00 -1.17996775E-04 -4.47449925E-05 -3.13324869E-06  0.00000000E+00
  0.00000000E+00 -2.21599860E-04 -1.93282944E-04  0.00000000E+00  3.31689325E-06
 -4.72601103E-08  0.00000000E+00  0.00000000E+00  1.82979148E-06 -1.42141954E-05
  0.00000000E+00 -4.68769634E-05  1.35519433E-06  0.00000000E+00  0.00000000E+00
 -7.81946741E-05  1.93076015E-04  2.58730081E-04  1.46562522E-03 -7.82362463E-05
 -1.54865588E-03  3.77930631E-04 -1.44621134E-04 -1.85705833E-07  0.00000000E+00
 -2.08337982E-03 -4.03633493E-04  0.00000000E+00  1.00687352E-03  7.47038164E-04
  0.00000000E+00 -1.69515542E-04  5.27814448E-05  0.00000000E+00 -1.23448350E-04
  0.00000000E+00  0.00000000E+00  2.42770288E-04  9.51182697E-05 -4.41217129E-04
  0.00000000E+00  0.00000000E+00  8.99262611E-04 -6.76033797E-05  1.32975578E-05
  0.00000000E+00  0.00000000E+00 -3.33577862E-04 -1.29965576E-04  0.00000000E+00
 -1.91858369E-06  1.49460759E-05  0.00000000E+00  0.00000000E+00  1.95815976E-05
  1.45640986E-05  0.00000000E+00  1.68847556E-04 -6.99645039E-05  0.00000000E+00
  0.00000000E+00 -2.41710883E-04  3.68636817E-05  9.76648960E-01 -9.85010122E-03
  4.35664822E-02  4.48702078E-03 -4.41657185E-04  2.14834337E-03  4.85730844E-04
  0.00000000E+00 -2.38376212E-03 -6.07631954E-04  0.00000000E+00  1.14376354E-03
 -1.52737309E-06  0.00000000E+00  6.17817457E-06 -4.45696198E-05  0.00000000E+00
 -2.31937189E-04  0.00000000E+00  0.00000000E+00  1.02860968E-04  3.16938820E-05
  3.90467409E-04  0.00000000E+00  0.00000000E+00 -8.31196167E-04 -4.21528964E-04
 -1.56477566E-04  0.00000000E+00  0.00000000E+00  2.59607855E-04  1.97884713E-05
  0.00000000E+00  5.22616647E-05  1.79190611E-05  0.00000000E+00  0.00000000E+00
 -2.17939916E-05 -1.35431332E-05  0.00000000E+00  1.37581773E-04  9.02525297E-06
  0.00000000E+00  0.00000000E+00 -1.88606310E-04 -1.41253228E-04  4.72345226E-04
  2.00205312E-03  9.62633906E-05  1.45733706E-05 -3.75101611E-05 -2.45353571E-04
  0.00000000E+00  1.38988528E-04 -1.25482703E-03  0.00000000E+00  3.36144084E-04
 -3.23922552E-04  0.00000000E+00 -1.86466547E-06  0.00000000E+00  0.00000000E+00
  7.63060421E-05  1.94853537E-05 -1.61200477E-04  0.00000000E+00  0.00000000E+00
 -5.35382459E-04 -4.58507126E-05  9.76830796E-01 -9.16057745E-03  4.34474631E-02
  2.09309673E-04 -1.19254538E-03 -1.59423988E-03  1.40894813E-03  0.00000000E+00
  1.60415437E-03 -1.25009943E-03  0.00000000E+00 -5.48001791E-04 -8.01492499E-04
  0.00000000E+00  5.90125858E-05 -4.88248252E-05  0.00000000E+00  3.01274097E-05
  0.00000000E+00  0.00000000E+00 -1.16925419E-04 -8.76027127E-06  7.54329645E-04
  0.00000000E+00  0.00000000E+00 -2.01149070E-04 -2.41376663E-04 -2.66667170E-04
  0.00000000E+00  0.00000000E+00  1.62455068E-04  1.11995213E-04  0.00000000E+00
 -6.45303145E-05  8.20460754E-07  0.00000000E+00  0.00000000E+00  1.94300679E-05
  1.07553127E-05  0.00000000E+00 -3.84722135E-06  1.17414726E-04  0.00000000E+00
  0.00000000E+00  2.46579164E-04  1.04249931E-04 -4.77077467E-03 -2.10387569E-04