title                                                                   
SP        RMP2-FC                                                     Aug-CC-pVTZ         
Number of atoms                            I                5
Info1-9                                    I   N=           9
          33          24           0           0           0         110
           1           2           1
Full Title                                 C   N=           1
title       
Route                                      C   N=           4
#p SP mp2/aug-cc-pvtz density=current           
Charge                                     I                0
Multiplicity                               I                1
Number of electrons                        I               32
Number of alpha electrons                  I               16
Number of beta electrons                   I               16
Number of basis functions                  I              207
Number of independent functions            I              207
Number of point charges in /Mol/           I                0
Number of translation vectors              I                0
Atomic numbers                             I   N=           5
           1           8           8           7           8
Nuclear charges                            R   N=           5
  1.00000000E+00  8.00000000E+00  8.00000000E+00  7.00000000E+00  8.00000000E+00
Current cartesian coordinates              R   N=          15
  2.92389496E+00  3.20657452E+00 -8.56598790E-33  2.74760455E+00  1.38398209E+00
  1.21815399E-32 -9.59203360E-17  1.28466312E+00  1.10117660E-32 -4.94414701E-01
 -1.45567823E+00  5.53500505E-32 -2.68047856E+00 -1.79574858E+00 -2.22735387E-32
Number of symbols in /Mol/                 I                0
Force Field                                I                0
Atom Types                                 C   N=           5
                                                            
Int Atom Types                             I   N=           5
           0           0           0           0           0
MM charges                                 R   N=           5
  0.00000000E+00  0.00000000E+00  0.00000000E+00  0.00000000E+00  0.00000000E+00
Integer atomic weights                     I   N=           5
           1          16          16          14          16
Real atomic weights                        R   N=           5
  1.00782504E+00  1.59949146E+01  1.59949146E+01  1.40030740E+01  1.59949146E+01
Atom fragment info                         I   N=           5
           0           0           0           0           0
Atom residue num                           I   N=           5
           0           0           0           0           0
Nuclear spins                              I   N=           5
           1           0           0           2           0
Nuclear ZEff                               R   N=           5
 -1.00000000E+00 -5.60000000E+00 -5.60000000E+00 -4.55000000E+00 -5.60000000E+00
Nuclear ZNuc                               R   N=           5
  1.00000000E+00  8.00000000E+00  8.00000000E+00  7.00000000E+00  8.00000000E+00
Nuclear QMom                               R   N=           5
  0.00000000E+00  0.00000000E+00  0.00000000E+00  2.04400000E+00  0.00000000E+00
Nuclear GFac                               R   N=           5
  2.79284600E+00  0.00000000E+00  0.00000000E+00  4.03761000E-01  0.00000000E+00
MicOpt                                     I   N=           5
          -1          -1          -1          -1          -1
Number of residues                         I                0
Number of secondary structures             I                0
SymInf integers                            I   N=          26
           1           2           1           1           1           1
           1          -1           0           0           0           0
           0           0           0           0           0           0
           0           0           0           0           0           0
           0           0
RotTr to input orientation                 R   N=          12
 -9.95354699E-01 -9.79878428E-17 -9.62757675E-02  9.62757675E-02 -7.34573379E-17
 -9.95354699E-01  9.04604982E-17 -1.00000000E+00  8.25499612E-17  2.60159716E+00
  0.00000000E+00  3.47317924E+00
Number of contracted shells                I               65
Number of primitive shells                 I              119
Pure/Cartesian d shells                    I                0
Pure/Cartesian f shells                    I                0
Highest angular momentum                   I                3
Largest degree of contraction              I                7
Shell types                                I   N=          65
           0           0           0           0           1           1
           1          -2          -2           0           0           0
           0           0           1           1           1           1
          -2          -2          -2          -3          -3           0
           0           0           0           0           1           1
           1           1          -2          -2          -2          -3
          -3           0           0           0           0           0
           1           1           1           1          -2          -2
          -2          -3          -3           0           0           0
           0           0           1           1           1           1
          -2          -2          -2          -3          -3
Number of primitives per shell             I   N=          65
           3           1           1           1           1           1
           1           1           1           7           6           1
           1           1           3           1           1           1
           1           1           1           1           1           7
           6           1           1           1           3           1
           1           1           1           1           1           1
           1           7           6           1           1           1
           3           1           1           1           1           1
           1           1           1           7           6           1
           1           1           3           1           1           1
           1           1           1           1           1
Shell to atom map                          I   N=          65
           1           1           1           1           1           1
           1           1           1           2           2           2
           2           2           2           2           2           2
           2           2           2           2           2           3
           3           3           3           3           3           3
           3           3           3           3           3           3
           3           4           4           4           4           4
           4           4           4           4           4           4
           4           4           4           5           5           5
           5           5           5           5           5           5
           5           5           5           5           5
Primitive exponents                        R   N=         119
  3.38700000E+01  5.09500000E+00  1.15900000E+00  3.25800000E-01  1.02700000E-01
  2.52600000E-02  1.40700000E+00  3.88000000E-01  1.02000000E-01  1.05700000E+00
  2.47000000E-01  1.53300000E+04  2.29900000E+03  5.22400000E+02  1.47300000E+02
  4.75500000E+01  1.67600000E+01  6.20700000E+00  5.22400000E+02  1.47300000E+02
  4.75500000E+01  1.67600000E+01  6.20700000E+00  6.88200000E-01  1.75200000E+00
  2.38400000E-01  7.37600000E-02  3.44600000E+01  7.74900000E+00  2.28000000E+00
  7.15600000E-01  2.14000000E-01  5.97400000E-02  2.31400000E+00  6.45000000E-01
  2.14000000E-01  1.42800000E+00  5.00000000E-01  1.53300000E+04  2.29900000E+03
  5.22400000E+02  1.47300000E+02  4.75500000E+01  1.67600000E+01  6.20700000E+00
  5.22400000E+02  1.47300000E+02  4.75500000E+01  1.67600000E+01  6.20700000E+00
  6.88200000E-01  1.75200000E+00  2.38400000E-01  7.37600000E-02  3.44600000E+01
  7.74900000E+00  2.28000000E+00  7.15600000E-01  2.14000000E-01  5.97400000E-02
  2.31400000E+00  6.45000000E-01  2.14000000E-01  1.42800000E+00  5.00000000E-01
  1.14200000E+04  1.71200000E+03  3.89300000E+02  1.10000000E+02  3.55700000E+01
  1.25400000E+01  4.64400000E+00  3.89300000E+02  1.10000000E+02  3.55700000E+01
  1.25400000E+01  4.64400000E+00  5.11800000E-01  1.29300000E+00  1.78700000E-01
  5.76000000E-02  2.66300000E+01  5.94800000E+00  1.74200000E+00  5.55000000E-01
  1.72500000E-01  4.91000000E-02  1.65400000E+00  4.69000000E-01  1.51000000E-01
  1.09300000E+00  3.64000000E-01  1.53300000E+04  2.29900000E+03  5.22400000E+02
  1.47300000E+02  4.75500000E+01  1.67600000E+01  6.20700000E+00  5.22400000E+02
  1.47300000E+02  4.75500000E+01  1.67600000E+01  6.20700000E+00  6.88200000E-01
  1.75200000E+00  2.38400000E-01  7.37600000E-02  3.44600000E+01  7.74900000E+00
  2.28000000E+00  7.15600000E-01  2.14000000E-01  5.97400000E-02  2.31400000E+00
  6.45000000E-01  2.14000000E-01  1.42800000E+00  5.00000000E-01
Contraction coefficients                   R   N=         119
  2.54948632E-02  1.90362766E-01  8.52162022E-01  1.00000000E+00  1.00000000E+00
  1.00000000E+00  1.00000000E+00  1.00000000E+00  1.00000000E+00  1.00000000E+00
  1.00000000E+00  5.19808943E-04  4.02025621E-03  2.07128267E-02  8.10105536E-02
  2.35962985E-01  4.42653446E-01  3.57064423E-01 -4.42115008E-05 -1.22591041E-03
 -1.05517725E-02 -6.74452633E-02 -1.71198607E-01  1.07329856E+00  1.00000000E+00
  1.00000000E+00  1.00000000E+00  4.11634896E-02  2.57762836E-01  8.02419274E-01
  1.00000000E+00  1.00000000E+00  1.00000000E+00  1.00000000E+00  1.00000000E+00
  1.00000000E+00  1.00000000E+00  1.00000000E+00  5.19808943E-04  4.02025621E-03
  2.07128267E-02  8.10105536E-02  2.35962985E-01  4.42653446E-01  3.57064423E-01
 -4.42115008E-05 -1.22591041E-03 -1.05517725E-02 -6.74452633E-02 -1.71198607E-01
  1.07329856E+00  1.00000000E+00  1.00000000E+00  1.00000000E+00  4.11634896E-02
  2.57762836E-01  8.02419274E-01  1.00000000E+00  1.00000000E+00  1.00000000E+00
  1.00000000E+00  1.00000000E+00  1.00000000E+00  1.00000000E+00  1.00000000E+00
  5.34563860E-04  4.13435660E-03  2.12335358E-02  8.25006224E-02  2.38138871E-01
  4.42551547E-01  3.53757422E-01 -4.89867350E-05 -1.19527323E-03 -1.03490714E-02
 -6.48680190E-02 -1.71552477E-01  1.07289568E+00  1.00000000E+00  1.00000000E+00
  1.00000000E+00  3.98072123E-02  2.49002660E-01  8.10479727E-01  1.00000000E+00
  1.00000000E+00  1.00000000E+00  1.00000000E+00  1.00000000E+00  1.00000000E+00
  1.00000000E+00  1.00000000E+00  5.19808943E-04  4.02025621E-03  2.07128267E-02
  8.10105536E-02  2.35962985E-01  4.42653446E-01  3.57064423E-01 -4.42115008E-05
 -1.22591041E-03 -1.05517725E-02 -6.74452633E-02 -1.71198607E-01  1.07329856E+00
  1.00000000E+00  1.00000000E+00  1.00000000E+00  4.11634896E-02  2.57762836E-01
  8.02419274E-01  1.00000000E+00  1.00000000E+00  1.00000000E+00  1.00000000E+00
  1.00000000E+00  1.00000000E+00  1.00000000E+00  1.00000000E+00
Coordinates of each shell                  R   N=         195
  2.92389496E+00  3.20657452E+00  3.94250136E-32  2.92389496E+00  3.20657452E+00
  3.94250136E-32  2.92389496E+00  3.20657452E+00  3.94250136E-32  2.92389496E+00
  3.20657452E+00  3.94250136E-32  2.92389496E+00  3.20657452E+00  3.94250136E-32
  2.92389496E+00  3.20657452E+00  3.94250136E-32  2.92389496E+00  3.20657452E+00
  3.94250136E-32  2.92389496E+00  3.20657452E+00  3.94250136E-32  2.92389496E+00
  3.20657452E+00  3.94250136E-32  2.74760455E+00  1.38398209E+00  2.70535248E-32
  2.74760455E+00  1.38398209E+00  2.70535248E-32  2.74760455E+00  1.38398209E+00
  2.70535248E-32  2.74760455E+00  1.38398209E+00  2.70535248E-32  2.74760455E+00
  1.38398209E+00  2.70535248E-32  2.74760455E+00  1.38398209E+00  2.70535248E-32
  2.74760455E+00  1.38398209E+00  2.70535248E-32  2.74760455E+00  1.38398209E+00
  2.70535248E-32  2.74760455E+00  1.38398209E+00  2.70535248E-32  2.74760455E+00
  1.38398209E+00  2.70535248E-32  2.74760455E+00  1.38398209E+00  2.70535248E-32
  2.74760455E+00  1.38398209E+00  2.70535248E-32  2.74760455E+00  1.38398209E+00
  2.70535248E-32  2.74760455E+00  1.38398209E+00  2.70535248E-32  7.04781565E-19
  1.28466312E+00  7.88056928E-33  7.04781565E-19  1.28466312E+00  7.88056928E-33
  7.04781565E-19  1.28466312E+00  7.88056928E-33  7.04781565E-19  1.28466312E+00
  7.88056928E-33  7.04781565E-19  1.28466312E+00  7.88056928E-33  7.04781565E-19
  1.28466312E+00  7.88056928E-33  7.04781565E-19  1.28466312E+00  7.88056928E-33
  7.04781565E-19  1.28466312E+00  7.88056928E-33  7.04781565E-19  1.28466312E+00
  7.88056928E-33  7.04781565E-19  1.28466312E+00  7.88056928E-33  7.04781565E-19
  1.28466312E+00  7.88056928E-33  7.04781565E-19  1.28466312E+00  7.88056928E-33
  7.04781565E-19  1.28466312E+00  7.88056928E-33  7.04781565E-19  1.28466312E+00
  7.88056928E-33 -4.94414701E-01 -1.45567823E+00 -1.22700597E-32 -4.94414701E-01
 -1.45567823E+00 -1.22700597E-32 -4.94414701E-01 -1.45567823E+00 -1.22700597E-32
 -4.94414701E-01 -1.45567823E+00 -1.22700597E-32 -4.94414701E-01 -1.45567823E+00
 -1.22700597E-32 -4.94414701E-01 -1.45567823E+00 -1.22700597E-32 -4.94414701E-01
 -1.45567823E+00 -1.22700597E-32 -4.94414701E-01 -1.45567823E+00 -1.22700597E-32
 -4.94414701E-01 -1.45567823E+00 -1.22700597E-32 -4.94414701E-01 -1.45567823E+00
 -1.22700597E-32 -4.94414701E-01 -1.45567823E+00 -1.22700597E-32 -4.94414701E-01
 -1.45567823E+00 -1.22700597E-32 -4.94414701E-01 -1.45567823E+00 -1.22700597E-32
 -4.94414701E-01 -1.45567823E+00 -1.22700597E-32 -2.68047856E+00 -1.79574858E+00
 -2.91259185E-32 -2.68047856E+00 -1.79574858E+00 -2.91259185E-32 -2.68047856E+00
 -1.79574858E+00 -2.91259185E-32 -2.68047856E+00 -1.79574858E+00 -2.91259185E-32
 -2.68047856E+00 -1.79574858E+00 -2.91259185E-32 -2.68047856E+00 -1.79574858E+00
 -2.91259185E-32 -2.68047856E+00 -1.79574858E+00 -2.91259185E-32 -2.68047856E+00
 -1.79574858E+00 -2.91259185E-32 -2.68047856E+00 -1.79574858E+00 -2.91259185E-32
 -2.68047856E+00 -1.79574858E+00 -2.91259185E-32 -2.68047856E+00 -1.79574858E+00
 -2.91259185E-32 -2.68047856E+00 -1.79574858E+00 -2.91259185E-32 -2.68047856E+00
 -1.79574858E+00 -2.91259185E-32 -2.68047856E+00 -1.79574858E+00 -2.91259185E-32
Num ILSW                                   I              100
ILSW                                       I   N=         100
           0           0           0           0           2           0
           0           0           0           0           0          -1
           5           0           0           0           0           0
           0           0           0           0           0           0
           1           0           0           0           0           0
           0           0      100000           0          -1           0
           0           0           0           0           0           0
           0           0           0           1           0           0
           0 -2000000000           1           0           0           0
           0           0           4          52           0           0
           0           0           0           0           0           0
           0           0           0           5           0           1
           0           0           0           0           0           0
           0           0           0           0           0           0
           0           0           0           0           0           0
           0           0           0           0           0           0
           0           0           0           0
Num RLSW                                   I               52
RLSW                                       R   N=          52
  1.00000000E+00  1.00000000E+00  1.00000000E+00  1.00000000E+00  1.00000000E+00
  0.00000000E+00  0.00000000E+00  1.00000000E+00  0.00000000E+00  0.00000000E+00
  0.00000000E+00  0.00000000E+00  1.00000000E+00  0.00000000E+00  0.00000000E+00
  0.00000000E+00  0.00000000E+00  1.00000000E+00  0.00000000E+00  0.00000000E+00
  0.00000000E+00  0.00000000E+00  1.00000000E+00  0.00000000E+00  0.00000000E+00
  0.00000000E+00  0.00000000E+00  1.00000000E+00  0.00000000E+00  0.00000000E+00
  0.00000000E+00  0.00000000E+00  1.00000000E+00  0.00000000E+00  0.00000000E+00
  0.00000000E+00  0.00000000E+00  0.00000000E+00  1.00000000E+00  1.00000000E+00
  0.00000000E+00  1.00000000E+00  0.00000000E+00  0.00000000E+00  0.00000000E+00
  0.00000000E+00  0.00000000E+00  0.00000000E+00  0.00000000E+00  0.00000000E+00
  0.00000000E+00  0.00000000E+00
MxBond                                     I                2
NBond                                      I   N=           5
           1           2           2           2           1
IBond                                      I   N=          10
           2           0           1           3           2           4
           3           5           4           0
RBond                                      R   N=          10
  1.00000000E+00  0.00000000E+00  1.00000000E+00  1.00000000E+00  1.00000000E+00
  1.00000000E+00  1.00000000E+00  2.00000000E+00  2.00000000E+00  0.00000000E+00
Virial Ratio                               R      2.002432753715411E+00
SCF Energy                                 R     -2.795002099315356E+02
MP2 Energy                                 R     -2.804466883656767E+02
Total Energy                               R     -2.804466883656767E+02
Post-SCF wavefunction norm                 R      1.120848014456571E+00
RMS Density                                R      4.003389268432695E-09
Job Status                                 I                1
Nuclear derivative order                   I                0
External E-field                           R   N=          35
  0.00000000E+00  0.00000000E+00  0.00000000E+00  0.00000000E+00  0.00000000E+00
  0.00000000E+00  0.00000000E+00  0.00000000E+00  0.00000000E+00  0.00000000E+00
  0.00000000E+00  0.00000000E+00  0.00000000E+00  0.00000000E+00  0.00000000E+00
  0.00000000E+00  0.00000000E+00  0.00000000E+00  0.00000000E+00  0.00000000E+00
  0.00000000E+00  0.00000000E+00  0.00000000E+00  0.00000000E+00  0.00000000E+00
  0.00000000E+00  0.00000000E+00  0.00000000E+00  0.00000000E+00  0.00000000E+00
  0.00000000E+00  0.00000000E+00  0.00000000E+00  0.00000000E+00  0.00000000E+00
IOpCl                                      I                0
IROHF                                      I                0
Alpha Orbital Energies                     R   N=         207
 -2.06883900E+01 -2.06877862E+01 -2.06581752E+01 -1.58152133E+01 -1.62343776E+00
 -1.49361076E+00 -1.24999640E+00 -9.49231760E-01 -7.71618507E-01 -7.57505918E-01
 -7.09371854E-01 -6.80122768E-01 -6.21181407E-01 -5.88630230E-01 -4.83664665E-01
 -4.71811460E-01  3.00327933E-02  6.97733704E-02  8.56644698E-02  1.01547606E-01
  1.33874868E-01  1.34055051E-01  1.44385712E-01  1.54822797E-01  1.78581473E-01
  1.94108570E-01  1.99732748E-01  2.04259997E-01  2.21207494E-01  2.36068912E-01
  2.37209373E-01  2.65744630E-01  2.87714067E-01  3.04206135E-01  3.09921588E-01
  3.42333003E-01  3.49210591E-01  3.86932245E-01  4.22537036E-01  4.32148677E-01
  5.26608974E-01  5.28602694E-01  5.56901863E-01  5.80840593E-01  6.24870474E-01
  6.37437607E-01  6.73943034E-01  6.84492007E-01  7.06889962E-01  7.11446803E-01
  7.24283930E-01  7.30432148E-01  7.45208488E-01  7.90626616E-01  7.92580325E-01
  8.09733186E-01  8.13761486E-01  8.29913545E-01  8.67112489E-01  9.08237877E-01
  9.22506386E-01  9.25234096E-01  9.57999233E-01  9.75456714E-01  9.85230200E-01
  1.01771337E+00  1.05138142E+00  1.05405229E+00  1.08103718E+00  1.11652577E+00
  1.13974420E+00  1.18873291E+00  1.22032752E+00  1.23230309E+00  1.33719690E+00
  1.34767908E+00  1.38780225E+00  1.45118600E+00  1.48769286E+00  1.50953929E+00
  1.53705751E+00  1.56514994E+00  1.57697850E+00  1.61250880E+00  1.66298404E+00
  1.66959861E+00  1.70185652E+00  1.79303954E+00  1.83048697E+00  1.83219722E+00
  1.87869658E+00  1.90831192E+00  1.95600432E+00  1.98921573E+00  2.00401217E+00
  2.07309210E+00  2.11925966E+00  2.12997753E+00  2.15177023E+00  2.22157399E+00
  2.26345901E+00  2.26582596E+00  2.28789165E+00  2.31393668E+00  2.34041200E+00
  2.38614440E+00  2.42221210E+00  2.42535539E+00  2.45264098E+00  2.46124901E+00
  2.47419405E+00  2.49908891E+00  2.59085414E+00  2.59547890E+00  2.61736181E+00
  2.62344944E+00  2.63577241E+00  2.66607389E+00  2.75506767E+00  2.81782292E+00
  2.84905975E+00  2.87884250E+00  2.89490486E+00  2.91179223E+00  2.95727517E+00
  3.01976902E+00  3.06212402E+00  3.11746630E+00  3.20583527E+00  3.22466316E+00
  3.31410834E+00  3.33762536E+00  3.51463950E+00  3.63798814E+00  3.83138491E+00
  3.84116751E+00  4.14852278E+00  4.16676759E+00  4.18191622E+00  4.25127323E+00
  4.35178010E+00  4.39293791E+00  4.46431423E+00  4.51731565E+00  4.65655004E+00
  4.70828894E+00  4.80170288E+00  4.81475939E+00  4.83082284E+00  4.89417064E+00
  5.01828306E+00  5.07315986E+00  5.09718070E+00  5.14512246E+00  5.17472885E+00
  5.23887718E+00  5.26681964E+00  5.30527278E+00  5.32868361E+00  5.34905718E+00
  5.60194781E+00  5.67093615E+00  5.76050378E+00  5.83004917E+00  5.95092938E+00
  6.16223438E+00  6.30857752E+00  6.33231293E+00  6.39213346E+00  6.49007109E+00
  6.50228696E+00  6.61316987E+00  6.66862528E+00  6.69495050E+00  6.75983383E+00
  6.76348870E+00  6.82820065E+00  6.89370435E+00  7.00988916E+00  7.05433139E+00
  7.05833376E+00  7.09029454E+00  7.11991809E+00  7.14569814E+00  7.18099434E+00
  7.21784492E+00  7.24262339E+00  7.31000027E+00  7.32274902E+00  7.34299187E+00
  7.39489737E+00  7.42409665E+00  7.48062083E+00  7.60547974E+00  7.60900946E+00
  7.61715678E+00  7.65873590E+00  7.78342615E+00  7.88331656E+00  8.07591448E+00
  8.30792753E+00  8.40896711E+00  8.53737149E+00  1.33600725E+01  1.43150957E+01
  1.51499821E+01  1.61246721E+01
Alpha MO coefficients                      R   N=       42849
  9.18580008E-05 -6.35887226E-04 -7.38426197E-04 -4.49384033E-06 -2.16922541E-05
 -2.73431907E-05  0.00000000E+00 -4.75088344E-05  6.02271878E-05  0.00000000E+00
  8.91077568E-05  4.04331928E-05  0.00000000E+00  3.16478243E-05  0.00000000E+00
  0.00000000E+00 -4.93708286E-05  2.14292379E-05 -3.97868388E-06  0.00000000E+00
  0.00000000E+00 -1.40085304E-04  1.16490504E-04  4.68424136E-03 -2.82386536E-04
  1.92191991E-05  1.52666877E-03  1.81031169E-03  1.05965276E-04  7.82710710E-06
  0.00000000E+00 -6.13828193E-04 -3.64505338E-05  0.00000000E+00 -1.08350148E-03
  7.81379021E-04  0.00000000E+00 -4.00468955E-04  6.27701247E-05  0.00000000E+00
  2.88347896E-05  0.00000000E+00  0.00000000E+00 -5.44817970E-05  5.22745972E-06
 -3.77625589E-04  0.00000000E+00  0.00000000E+00  7.40975887E-04 -2.73847443E-05
 -4.47072056E-04  0.00000000E+00  0.00000000E+00  2.39371362E-04 -4.14355324E-06
  0.00000000E+00  7.99949434E-05  1.27698665E-05  0.00000000E+00  0.00000000E+00
 -1.09787402E-04 -3.46575102E-06  0.00000000E+00  2.55810065E-04 -2.62122380E-05
  0.00000000E+00  0.00000000E+00 -3.55167540E-04  4.50460903E-05  9.76526038E-01
 -9.20579661E-03  4.32825059E-02  2.15874995E-03 -8.52483532E-04  1.50337435E-03
 -1.32084619E-03  0.00000000E+00 -1.45162466E-03  1.33403354E-03  0.00000000E+00
  9.43551377E-05 -1.19681503E-03  0.00000000E+00 -1.31397921E-04 -1.97726458E-05
  0.00000000E+00  5.03784035E-05  0.00000000E+00  0.00000000E+00 -3.19262792E-05
  1.95742269E-05  7.33695968E-04  0.00000000E+00  0.00000000E+00 -2.51511707E-04
 -3.78664883E-04 -3.70334440E-04  0.00000000E+00  0.00000000E+00 -3.07096627E-04
 -3.63940407E-04  0.00000000E+00  4.86553773E-05 -4.73663370E-05  0.00000000E+00
  0.00000000E+00 -3.82587892E-05 -1.47162949E-05  0.00000000E+00  2.25123532E-05
  2.82049570E-05  0.00000000E+00  0.00000000E+00 -2.99022554E-04 -1.35399947E-04
  2.69595765E-05 -2.48860284E-05 -2.48756812E-04 -7.06734591E-04 -1.69743255E-04
 -2.30925588E-05 -9.42501807E-05  0.00000000E+00  3.12618608E-04  6.49304857E-04
  0.00000000E+00 -8.77126051E-04 -5.76103863E-04  0.00000000E+00 -1.21891335E-04
 -3.63322972E-05  0.00000000E+00 -9.18936485E-06  0.00000000E+00  0.00000000E+00
 -2.50974000E-05  9.52352646E-06 -3.01281082E-04  0.00000000E+00  0.00000000E+00
 -8.24469686E-04  1.23809023E-04 -3.01315630E-05  0.00000000E+00  0.00000000E+00
  1.13982058E-04 -1.06903122E-04  0.00000000E+00 -2.00388140E-05 -1.17829496E-04
  0.00000000E+00  0.00000000E+00 -5.95298913E-05 -1.36858092E-04  0.00000000E+00
  2.98578116E-06 -1.44805991E-04  0.00000000E+00  0.00000000E+00  6.37416183E-05
 -4.23615686E-04 -2.78004038E-02  3.80342529E-04 -1.24945876E-03 -3.81484801E-04
  1.26648548E-04 -6.29259236E-05 -4.18681686E-05  0.00000000E+00  1.28504046E-04
  1.86770010E-04  0.00000000E+00  1.85508734E-04  2.23195989E-04  0.00000000E+00
  1.20353247E-04  2.43629458E-05  0.00000000E+00  2.05201391E-06  0.00000000E+00
  0.00000000E+00 -2.02011410E-05 -6.78838194E-08 -7.23856087E-06  0.00000000E+00
  0.00000000E+00  9.70457564E-05  1.06276961E-04 -9.28135285E-05  0.00000000E+00
  0.00000000E+00  1.54480163E-04  1.69692209E-04  0.00000000E+00  1.39832717E-05
 -5.05381751E-06  0.00000000E+00  0.00000000E+00 -5.61274483E-06 -1.04599865E-05
  0.00000000E+00 -3.43652262E-05  4.64219849E-05  0.00000000E+00  0.00000000E+00
  8.80968590E-05  9.62945152E-05  4.07957636E-05 -9.99816213E-04 -5.07150534E-04
 -1.21987172E-05 -2.31279427E-05  1.57240137E-05  0.00000000E+00  1.44180744E-06
  2.77278025E-04  0.00000000E+00 -3.81072206E-05  1.35172143E-04  0.00000000E+00
  2.67068250E-05  0.00000000E+00  0.00000000E+00  1.17427138E-05  1.11201740E-05
 -2.58196927E-05  0.00000000E+00  0.00000000E+00  6.03196528E-06  3.54813688E-05
  2.16625415E-04  7.71276759E-05 -2.79871056E-05  7.71504992E-04  6.89779950E-04
  1.26235167E-05  2.58089051E-06  0.00000000E+00 -8.58090128E-05  1.72227682E-05
  0.00000000E+00  3.08667737E-04  9.01129122E-04  0.00000000E+00 -5.05300029E-06
  8.09168508E-05  0.00000000E+00 -1.51911599E-06  0.00000000E+00  0.00000000E+00
 -1.39978683E-06 -6.42653251E-06 -4.52520978E-05  0.00000000E+00  0.00000000E+00
 -3.76563498E-06  8.46917757E-05 -3.43568963E-05  0.00000000E+00  0.00000000E+00
 -2.60283678E-04 -1.52864936E-04  0.00000000E+00  1.11101041E-05  6.11238097E-06
  0.00000000E+00  0.00000000E+00  1.82123155E-07 -1.86643478E-05  0.00000000E+00
 -3.38152382E-05 -3.76818340E-05  0.00000000E+00  0.00000000E+00 -8.41873428E-05
  1.72233814E-05  2.78471082E-02 -1.98380513E-04  1.20893541E-03 -2.83535856E-05
 -5.03701122E-04  4.73031280E-05 -1.81873165E-05  0.00000000E+00 -1.02193358E-04
 -1.86125585E-05  0.00000000E+00  2.50233897E-04 -1.63032393E-04  0.00000000E+00
 -1.84656045E-04 -5.52510429E-05  0.00000000E+00 -7.08190717E-06  0.00000000E+00
  0.00000000E+00  2.03148163E-05  1.91348901E-05  2.28569335E-05  0.00000000E+00
  0.00000000E+00 -1.14081276E-04 -4.94171187E-05 -1.11510868E-05  0.00000000E+00
  0.00000000E+00 -2.07288252E-04 -2.05820874E-04  0.00000000E+00  5.85516958E-06
 -8.29763110E-07  0.00000000E+00  0.00000000E+00  2.61957459E-06 -1.63088979E-05
  0.00000000E+00 -4.74358683E-05  1.12168647E-06  0.00000000E+00  0.00000000E+00
 -8.40729621E-05  1.82453906E-04  2.60453011E-04  1.46690993E-03 -8.72331151E-05
 -1.50628499E-03  4.14373476E-04 -1.46210703E-04 -3.19460587E-06  0.00000000E+00
 -2.06670555E-03 -3.80739702E-04  0.00000000E+00  1.00245793E-03  7.56828656E-04
  0.00000000E+00 -1.75658509E-04  5.64001567E-05  0.00000000E+00 -1.23700306E-04
  0.00000000E+00  0.00000000E+00  2.41037130E-04  9.44167976E-05 -4.52629236E-04
  0.00000000E+00  0.00000000E+00  8.74880404E-04 -4.56237056E-05  7.13776680E-06
  0.00000000E+00  0.00000000E+00 -3.32612983E-04 -1.19972749E-04  0.00000000E+00
 -2.61129612E-06  1.18651721E-05  0.00000000E+00  0.00000000E+00  1.62661992E-05
  9.72475582E-06  0.00000000E+00  1.67314866E-04 -7.30439935E-05  0.00000000E+00
  0.00000000E+00 -2.44622159E-04  2.29232135E-05  9.76260389E-01 -9.84464235E-03
  4.35421176E-02  4.47386731E-03 -4.48106586E-04  2.14389919E-03  4.80908780E-04
  0.00000000E+00 -2.37968998E-03 -5.98252138E-04  0.00000000E+00  1.14676147E-03
  9.56526120E-06  0.00000000E+00  7.22885360E-06 -4.01159432E-05  0.00000000E+00
 -2.32124840E-04  0.00000000E+00  0.00000000E+00  1.03151427E-04  3.14144979E-05
  3.88050775E-04  0.00000000E+00  0.00000000E+00 -8.27566531E-04 -4.14939182E-04
 -1.58357804E-04  0.00000000E+00  0.00000000E+00  2.64372916E-04  2.60012283E-05
  0.00000000E+00  5.24217662E-05  1.75309370E-05  0.00000000E+00  0.00000000E+00
 -2.25152644E-05 -1.37272575E-05  0.00000000E+00  1.35700546E-04  1.05438464E-05
  0.00000000E+00  0.00000000E+00 -1.85855965E-04 -1.36790355E-04  4.75081942E-04
  2.03803426E-03  9.74546046E-05  1.41049989E-05 -4.11304215E-05 -2.46208893E-04
  0.00000000E+00  1.15070684E-04 -1.26690681E-03  0.00000000E+00  3.09924167E-04
 -3.31197616E-04  0.00000000E+00 -2.04879465E-06  0.00000000E+00  0.00000000E+00
  7.63948092E-05  1.55682607E-05 -1.59733811E-04  0.00000000E+00  0.00000000E+00
 -5.37071226E-04 -2.56276416E-05  9.76829732E-01 -9.16052904E-03  4.34491913E-02
  1.79876369E-04 -1.11665261E-03 -1.56258603E-03  1.43760303E-03  0.00000000E+00
  1.57380207E-03 -1.27870963E-03  0.00000000E+00 -5.63980028E-04 -8.47174769E-04
  0.00000000E+00  5.48852099E-05 -2.66998039E-05  0.00000000E+00  2.94173926E-05
  0.00000000E+00  0.00000000E+00 -1.17590157E-04 -3.62130313E-06  7.55404889E-04
  0.00000000E+00  0.00000000E+00 -2.00511539E-04 -2.35471443E-04 -2.69189328E-04
  0.00000000E+00  0.00000000E+00  1.66868643E-04  1.27622613E-04  0.00000000E+00
 -6.41253355E-05  1.14230299E-06  0.00000000E+00  0.00000000E+00  1.88902237E-05
  1.00660861E-05  0.00000000E+00 -5.90065353E-07  1.22051354E-04  0.00000000E+00
  0.00000000E+00  2.54241216E-04  9.18137842E-05 -4.77910507E-03 -2.04595243E-04