 Entering Gaussian System, Link 0=g16
 Input=hoono_r4_1p176334.gjf
 Output=hoono_r4_1p176334.log
 Initial command:
 /sw/contrib/gaussian/g16/B01/g16/l1.exe "/scr/Gau-8623.inp" -scrdir="/scr/"
 Entering Link 1 = /sw/contrib/gaussian/g16/B01/g16/l1.exe PID=      8624.
  
 Copyright (c) 1988-2017, Gaussian, Inc.  All Rights Reserved.
  
 This is part of the Gaussian(R) 16 program.  It is based on
 the Gaussian(R) 09 system (copyright 2009, Gaussian, Inc.),
 the Gaussian(R) 03 system (copyright 2003, Gaussian, Inc.),
 the Gaussian(R) 98 system (copyright 1998, Gaussian, Inc.),
 the Gaussian(R) 94 system (copyright 1995, Gaussian, Inc.),
 the Gaussian 92(TM) system (copyright 1992, Gaussian, Inc.),
 the Gaussian 90(TM) system (copyright 1990, Gaussian, Inc.),
 the Gaussian 88(TM) system (copyright 1988, Gaussian, Inc.),
 the Gaussian 86(TM) system (copyright 1986, Carnegie Mellon
 University), and the Gaussian 82(TM) system (copyright 1983,
 Carnegie Mellon University). Gaussian is a federally registered
 trademark of Gaussian, Inc.
  
 This software contains proprietary and confidential information,
 including trade secrets, belonging to Gaussian, Inc.
  
 This software is provided under written license and may be
 used, copied, transmitted, or stored only in accord with that
 written license.
  
 The following legend is applicable only to US Government
 contracts under FAR:
  
                    RESTRICTED RIGHTS LEGEND
  
 Use, reproduction and disclosure by the US Government is
 subject to restrictions as set forth in subparagraphs (a)
 and (c) of the Commercial Computer Software - Restricted
 Rights clause in FAR 52.227-19.
  
 Gaussian, Inc.
 340 Quinnipiac St., Bldg. 40, Wallingford CT 06492
  
  
 ---------------------------------------------------------------
 Warning -- This program may not be used in any manner that
 competes with the business of Gaussian, Inc. or will provide
 assistance to any competitor of Gaussian, Inc.  The licensee
 of this program is prohibited from giving any competitor of
 Gaussian, Inc. access to this program.  By using this program,
 the user acknowledges that Gaussian, Inc. is engaged in the
 business of creating and licensing software in the field of
 computational chemistry and represents and warrants to the
 licensee that it is not a competitor of Gaussian, Inc. and that
 it will not use this program in any manner prohibited above.
 ---------------------------------------------------------------
  

 Cite this work as:
 Gaussian 16, Revision B.01,
 M. J. Frisch, G. W. Trucks, H. B. Schlegel, G. E. Scuseria, 
 M. A. Robb, J. R. Cheeseman, G. Scalmani, V. Barone, 
 G. A. Petersson, H. Nakatsuji, X. Li, M. Caricato, A. V. Marenich, 
 J. Bloino, B. G. Janesko, R. Gomperts, B. Mennucci, H. P. Hratchian, 
 J. V. Ortiz, A. F. Izmaylov, J. L. Sonnenberg, D. Williams-Young, 
 F. Ding, F. Lipparini, F. Egidi, J. Goings, B. Peng, A. Petrone, 
 T. Henderson, D. Ranasinghe, V. G. Zakrzewski, J. Gao, N. Rega, 
 G. Zheng, W. Liang, M. Hada, M. Ehara, K. Toyota, R. Fukuda, 
 J. Hasegawa, M. Ishida, T. Nakajima, Y. Honda, O. Kitao, H. Nakai, 
 T. Vreven, K. Throssell, J. A. Montgomery, Jr., J. E. Peralta, 
 F. Ogliaro, M. J. Bearpark, J. J. Heyd, E. N. Brothers, K. N. Kudin, 
 V. N. Staroverov, T. A. Keith, R. Kobayashi, J. Normand, 
 K. Raghavachari, A. P. Rendell, J. C. Burant, S. S. Iyengar, 
 J. Tomasi, M. Cossi, J. M. Millam, M. Klene, C. Adamo, R. Cammi, 
 J. W. Ochterski, R. L. Martin, K. Morokuma, O. Farkas, 
 J. B. Foresman, and D. J. Fox, Gaussian, Inc., Wallingford CT, 2016.
 
 ******************************************
 Gaussian 16:  ES64L-G16RevB.01 20-Dec-2017
                14-Feb-2022 
 ******************************************
 %nproc=28
 Will use up to   28 processors via shared memory.
 %mem=120GB
 %chk=hoono_r4_1p176334.chk
 -------------------------------------
 #p SP mp2/aug-cc-pvtz density=current
 -------------------------------------
 1/30=1,38=1,172=1/1;
 2/12=2,17=6,18=5,40=1/2;
 3/5=16,6=1,7=10,11=9,25=1,30=1,71=1/1,2,3;
 4//1;
 5/5=2,38=5/2;
 8/6=4,10=1/1;
 9/15=1,16=-3/6;
 10/5=1,13=10/2;
 6/7=2,8=2,9=2,10=2,22=-1/1;
 99/5=1,9=1/99;
 Leave Link    1 at Mon Feb 14 12:45:57 2022, MaxMem= 16106127360 cpu:               2.4 elap:               0.1
 (Enter /sw/contrib/gaussian/g16/B01/g16/l101.exe)
 -----
 title
 -----
 Symbolic Z-matrix:
 Charge =  0 Multiplicity = 1
 H
 O                    1    r1
 O                    2    r2       1    a1
 N                    3    r3       2    a2       1    d1       0
 O                    4    r4       3    a3       2    d2       0
       Variables:
  r1                    0.96898                  
  r2                    1.45492                  
  r3                    1.45878                  
  r4                    1.17633                  
  a1                   97.59495                  
  a2                  102.29752                  
  a3                  109.06955                  
  d1                  180.                       
  d2                  180.                       
 
 ITRead=  0  0  0  0  0
 MicOpt= -1 -1 -1 -1 -1
 NAtoms=      5 NQM=        5 NQMF=       0 NMMI=      0 NMMIF=      0
                NMic=       0 NMicF=      0.
                    Isotopes and Nuclear Properties:
 (Nuclear quadrupole moments (NQMom) in fm**2, nuclear magnetic moments (NMagM)
  in nuclear magnetons)

  Atom         1           2           3           4           5
 IAtWgt=           1          16          16          14          16
 AtmWgt=   1.0078250  15.9949146  15.9949146  14.0030740  15.9949146
 NucSpn=           1           0           0           2           0
 AtZEff=  -0.0000000  -0.0000000  -0.0000000  -0.0000000  -0.0000000
 NQMom=    0.0000000   0.0000000   0.0000000   2.0440000   0.0000000
 NMagM=    2.7928460   0.0000000   0.0000000   0.4037610   0.0000000
 AtZNuc=   1.0000000   8.0000000   8.0000000   7.0000000   8.0000000
 Leave Link  101 at Mon Feb 14 12:45:57 2022, MaxMem= 16106127360 cpu:               3.2 elap:               0.1
 (Enter /sw/contrib/gaussian/g16/B01/g16/l202.exe)
                          Input orientation:                          
 ---------------------------------------------------------------------
 Center     Atomic      Atomic             Coordinates (Angstroms)
 Number     Number       Type             X           Y           Z
 ---------------------------------------------------------------------
      1          1           0        0.000000    0.000000    0.000000
      2          8           0        0.000000    0.000000    0.968976
      3          8           0        1.442156    0.000000    1.161271
      4          7           0        1.561752    0.000000    2.615144
      5          8           0        2.701298    0.000000    2.907030
 ---------------------------------------------------------------------
                    Distance matrix (angstroms):
                    1          2          3          4          5
     1  H    0.000000
     2  O    0.968976   0.000000
     3  O    1.851584   1.454919   0.000000
     4  N    3.045989   2.269127   1.458784   0.000000
     5  O    3.968354   3.324615   2.152467   1.176334   0.000000
 Stoichiometry    HNO3
 Framework group  CS[SG(HNO3)]
 Deg. of freedom     7
 Full point group                 CS      NOp   2
 Largest Abelian subgroup         CS      NOp   2
 Largest concise Abelian subgroup C1      NOp   1
                         Standard orientation:                         
 ---------------------------------------------------------------------
 Center     Atomic      Atomic             Coordinates (Angstroms)
 Number     Number       Type             X           Y           Z
 ---------------------------------------------------------------------
      1          1           0        1.547022    1.690615    0.000000
      2          8           0        1.453957    0.726119    0.000000
      3          8           0        0.000000    0.673223    0.000000
      4          7           0       -0.258679   -0.762442    0.000000
      5          8           0       -1.420991   -0.943532    0.000000
 ---------------------------------------------------------------------
 Rotational constants (GHZ):          54.9170590           4.9979452           4.5810303
 Leave Link  202 at Mon Feb 14 12:45:57 2022, MaxMem= 16106127360 cpu:               0.5 elap:               0.0
 (Enter /sw/contrib/gaussian/g16/B01/g16/l301.exe)
 Standard basis: Aug-CC-pVTZ (5D, 7F)
 Ernie: Thresh=  0.10000D-02 Tol=  0.10000D-05 Strict=F.
 Ernie:  12 primitive shells out of 131 were deleted.
 There are   166 symmetry adapted cartesian basis functions of A'  symmetry.
 There are    79 symmetry adapted cartesian basis functions of A"  symmetry.
 There are   136 symmetry adapted basis functions of A'  symmetry.
 There are    71 symmetry adapted basis functions of A"  symmetry.
   207 basis functions,   315 primitive gaussians,   245 cartesian basis functions
    16 alpha electrons       16 beta electrons
       nuclear repulsion energy       116.7025856329 Hartrees.
 IExCor=    0 DFT=F Ex=HF Corr=None ExCW=0 ScaHFX=  1.000000
 ScaDFX=  1.000000  1.000000  1.000000  1.000000 ScalE2=  1.000000  1.000000
 IRadAn=      5 IRanWt=     -1 IRanGd=            0 ICorTp=0 IEmpDi=  4
 NAtoms=    5 NActive=    5 NUniq=    5 SFac= 1.00D+00 NAtFMM=   60 NAOKFM=F Big=F
 Integral buffers will be    131072 words long.
 Raffenetti 1 integral format.
 Two-electron integral symmetry is turned on.
 Leave Link  301 at Mon Feb 14 12:45:57 2022, MaxMem= 16106127360 cpu:               2.3 elap:               0.1
 (Enter /sw/contrib/gaussian/g16/B01/g16/l302.exe)
 NPDir=0 NMtPBC=     1 NCelOv=     1 NCel=       1 NClECP=     1 NCelD=      1
         NCelK=      1 NCelE2=     1 NClLst=     1 CellRange=     0.0.
 One-electron integrals computed using PRISM.
 One-electron integral symmetry used in STVInt
 NBasis=   207 RedAO= T EigKep=  1.83D-04  NBF=   136    71
 NBsUse=   207 1.00D-06 EigRej= -1.00D+00 NBFU=   136    71
 Leave Link  302 at Mon Feb 14 12:45:57 2022, MaxMem= 16106127360 cpu:               5.0 elap:               0.2
 (Enter /sw/contrib/gaussian/g16/B01/g16/l303.exe)
 DipDrv:  MaxL=1.
 Leave Link  303 at Mon Feb 14 12:45:57 2022, MaxMem= 16106127360 cpu:               0.8 elap:               0.1
 (Enter /sw/contrib/gaussian/g16/B01/g16/l401.exe)
 ExpMin= 2.53D-02 ExpMax= 1.53D+04 ExpMxC= 5.22D+02 IAcc=3 IRadAn=         5 AccDes= 0.00D+00
 Harris functional with IExCor=  205 and IRadAn=       5 diagonalized for initial guess.
 HarFok:  IExCor=  205 AccDes= 0.00D+00 IRadAn=         5 IDoV= 1 UseB2=F ITyADJ=14
 ICtDFT=  3500011 ScaDFX=  1.000000  1.000000  1.000000  1.000000
 FoFCou: FMM=F IPFlag=           0 FMFlag=      100000 FMFlg1=           0
         NFxFlg=           0 DoJE=T BraDBF=F KetDBF=T FulRan=T
         wScrn=  0.000000 ICntrl=       500 IOpCl=  0 I1Cent=   200000004 NGrid=           0
         NMat0=    1 NMatS0=      1 NMatT0=    0 NMatD0=    1 NMtDS0=    0 NMtDT0=    0
 Petite list used in FoFCou.
 Harris En= -279.628745723880    
 JPrj=0 DoOrth=F DoCkMO=F.
 Initial guess orbital symmetries:
       Occupied  (A') (A') (A') (A') (A') (A') (A') (A') (A') (A')
                 (A") (A') (A') (A") (A") (A')
       Virtual   (A") (A') (A') (A') (A') (A') (A") (A') (A') (A')
                 (A") (A') (A") (A') (A') (A") (A') (A") (A') (A')
                 (A') (A') (A') (A') (A') (A") (A') (A") (A') (A')
                 (A") (A') (A") (A') (A') (A") (A') (A") (A') (A')
                 (A") (A') (A") (A') (A") (A') (A') (A') (A") (A")
                 (A') (A') (A') (A') (A") (A') (A") (A') (A") (A')
                 (A') (A') (A") (A') (A') (A") (A') (A") (A') (A')
                 (A") (A') (A') (A") (A") (A') (A') (A") (A') (A')
                 (A') (A") (A') (A") (A') (A") (A') (A") (A') (A')
                 (A') (A") (A') (A") (A') (A") (A") (A') (A') (A')
                 (A") (A') (A") (A') (A') (A') (A') (A") (A") (A')
                 (A") (A') (A') (A') (A") (A') (A') (A') (A") (A')
                 (A") (A') (A') (A") (A") (A') (A') (A") (A") (A')
                 (A') (A') (A') (A") (A") (A') (A") (A') (A') (A')
                 (A') (A") (A") (A') (A') (A") (A') (A') (A') (A')
                 (A") (A') (A') (A") (A') (A") (A') (A") (A') (A")
                 (A') (A") (A') (A") (A') (A") (A") (A") (A') (A')
                 (A") (A') (A") (A') (A") (A') (A") (A") (A') (A')
                 (A') (A') (A') (A') (A') (A') (A') (A') (A') (A')
                 (A')
 The electronic state of the initial guess is 1-A'.
 Leave Link  401 at Mon Feb 14 12:45:57 2022, MaxMem= 16106127360 cpu:               6.8 elap:               0.3
 (Enter /sw/contrib/gaussian/g16/B01/g16/l502.exe)
 Keep R1 ints in memory in symmetry-blocked form, NReq=348887737.
 FoFCou: FMM=F IPFlag=           0 FMFlag=           0 FMFlg1=           0
         NFxFlg=           0 DoJE=F BraDBF=F KetDBF=F FulRan=T
         wScrn=  0.000000 ICntrl=       600 IOpCl=  0 I1Cent=           0 NGrid=           0
         NMat0=    1 NMatS0=  21528 NMatT0=    0 NMatD0=    1 NMtDS0=    0 NMtDT0=    0
 Petite list used in FoFCou.
 Closed shell SCF:
 Using DIIS extrapolation, IDIIS=  1040.
 NGot= 16106127360 LenX= 15988850015 LenY= 15988789549
 Requested convergence on RMS density matrix=1.00D-08 within 128 cycles.
 Requested convergence on MAX density matrix=1.00D-06.
 Requested convergence on             energy=1.00D-06.
 No special actions if energy rises.

 Cycle   1  Pass 1  IDiag  1:
 E= -279.368310758585    
 DIIS: error= 2.67D-02 at cycle   1 NSaved=   1.
 NSaved= 1 IEnMin= 1 EnMin= -279.368310758585     IErMin= 1 ErrMin= 2.67D-02
 ErrMax= 2.67D-02  0.00D+00 EMaxC= 1.00D-01 BMatC= 4.39D-01 BMatP= 4.39D-01
 IDIUse=3 WtCom= 7.33D-01 WtEn= 2.67D-01
 Coeff-Com:  0.100D+01
 Coeff-En:   0.100D+01
 Coeff:      0.100D+01
 Gap=     0.511 Goal=   None    Shift=    0.000
 GapD=    0.511 DampG=2.000 DampE=0.500 DampFc=1.0000 IDamp=-1.
 RMSDP=1.63D-03 MaxDP=9.95D-02              OVMax= 1.15D-01

 Cycle   2  Pass 1  IDiag  1:
 E= -279.449721298941     Delta-E=       -0.081410540356 Rises=F Damp=F
 DIIS: error= 1.81D-02 at cycle   2 NSaved=   2.
 NSaved= 2 IEnMin= 2 EnMin= -279.449721298941     IErMin= 2 ErrMin= 1.81D-02
 ErrMax= 1.81D-02  0.00D+00 EMaxC= 1.00D-01 BMatC= 7.42D-02 BMatP= 4.39D-01
 IDIUse=3 WtCom= 8.19D-01 WtEn= 1.81D-01
 Coeff-Com:  0.199D+00 0.801D+00
 Coeff-En:   0.110D-01 0.989D+00
 Coeff:      0.165D+00 0.835D+00
 Gap=     0.532 Goal=   None    Shift=    0.000
 RMSDP=9.10D-04 MaxDP=3.77D-02 DE=-8.14D-02 OVMax= 7.00D-02

 Cycle   3  Pass 1  IDiag  1:
 E= -279.480076684086     Delta-E=       -0.030355385144 Rises=F Damp=F
 DIIS: error= 1.05D-02 at cycle   3 NSaved=   3.
 NSaved= 3 IEnMin= 3 EnMin= -279.480076684086     IErMin= 3 ErrMin= 1.05D-02
 ErrMax= 1.05D-02  0.00D+00 EMaxC= 1.00D-01 BMatC= 2.93D-02 BMatP= 7.42D-02
 IDIUse=3 WtCom= 8.95D-01 WtEn= 1.05D-01
 Coeff-Com: -0.332D-01 0.377D+00 0.657D+00
 Coeff-En:   0.000D+00 0.239D+00 0.761D+00
 Coeff:     -0.297D-01 0.362D+00 0.668D+00
 Gap=     0.511 Goal=   None    Shift=    0.000
 RMSDP=3.81D-04 MaxDP=1.57D-02 DE=-3.04D-02 OVMax= 3.91D-02

 Cycle   4  Pass 1  IDiag  1:
 E= -279.499583423073     Delta-E=       -0.019506738988 Rises=F Damp=F
 DIIS: error= 1.30D-03 at cycle   4 NSaved=   4.
 NSaved= 4 IEnMin= 4 EnMin= -279.499583423073     IErMin= 4 ErrMin= 1.30D-03
 ErrMax= 1.30D-03  0.00D+00 EMaxC= 1.00D-01 BMatC= 5.02D-04 BMatP= 2.93D-02
 IDIUse=3 WtCom= 9.87D-01 WtEn= 1.30D-02
 Coeff-Com: -0.117D-01 0.561D-01 0.157D+00 0.798D+00
 Coeff-En:   0.000D+00 0.000D+00 0.000D+00 0.100D+01
 Coeff:     -0.115D-01 0.554D-01 0.155D+00 0.801D+00
 Gap=     0.503 Goal=   None    Shift=    0.000
 RMSDP=9.12D-05 MaxDP=2.78D-03 DE=-1.95D-02 OVMax= 1.13D-02

 Cycle   5  Pass 1  IDiag  1:
 E= -279.500275843222     Delta-E=       -0.000692420149 Rises=F Damp=F
 DIIS: error= 7.43D-04 at cycle   5 NSaved=   5.
 NSaved= 5 IEnMin= 5 EnMin= -279.500275843222     IErMin= 5 ErrMin= 7.43D-04
 ErrMax= 7.43D-04  0.00D+00 EMaxC= 1.00D-01 BMatC= 8.87D-05 BMatP= 5.02D-04
 IDIUse=3 WtCom= 9.93D-01 WtEn= 7.43D-03
 Coeff-Com:  0.620D-02-0.723D-01-0.119D+00 0.186D-01 0.117D+01
 Coeff-En:   0.000D+00 0.000D+00 0.000D+00 0.000D+00 0.100D+01
 Coeff:      0.616D-02-0.718D-01-0.118D+00 0.185D-01 0.116D+01
 Gap=     0.503 Goal=   None    Shift=    0.000
 RMSDP=7.73D-05 MaxDP=2.14D-03 DE=-6.92D-04 OVMax= 1.13D-02

 Cycle   6  Pass 1  IDiag  1:
 E= -279.500599043893     Delta-E=       -0.000323200671 Rises=F Damp=F
 DIIS: error= 2.90D-04 at cycle   6 NSaved=   6.
 NSaved= 6 IEnMin= 6 EnMin= -279.500599043893     IErMin= 6 ErrMin= 2.90D-04
 ErrMax= 2.90D-04  0.00D+00 EMaxC= 1.00D-01 BMatC= 1.70D-05 BMatP= 8.87D-05
 IDIUse=3 WtCom= 9.97D-01 WtEn= 2.90D-03
 Coeff-Com:  0.492D-03 0.292D-02 0.690D-02-0.131D+00-0.249D+00 0.137D+01
 Coeff-En:   0.000D+00 0.000D+00 0.000D+00 0.000D+00 0.000D+00 0.100D+01
 Coeff:      0.490D-03 0.291D-02 0.688D-02-0.131D+00-0.248D+00 0.137D+01
 Gap=     0.503 Goal=   None    Shift=    0.000
 RMSDP=4.61D-05 MaxDP=1.27D-03 DE=-3.23D-04 OVMax= 5.69D-03

 Cycle   7  Pass 1  IDiag  1:
 E= -279.500673953984     Delta-E=       -0.000074910092 Rises=F Damp=F
 DIIS: error= 1.23D-04 at cycle   7 NSaved=   7.
 NSaved= 7 IEnMin= 7 EnMin= -279.500673953984     IErMin= 7 ErrMin= 1.23D-04
 ErrMax= 1.23D-04  0.00D+00 EMaxC= 1.00D-01 BMatC= 4.36D-06 BMatP= 1.70D-05
 IDIUse=3 WtCom= 9.99D-01 WtEn= 1.23D-03
 Coeff-Com: -0.955D-03 0.134D-01 0.264D-01-0.217D-01-0.280D+00 0.365D+00
 Coeff-Com:  0.898D+00
 Coeff-En:   0.000D+00 0.000D+00 0.000D+00 0.000D+00 0.000D+00 0.000D+00
 Coeff-En:   0.100D+01
 Coeff:     -0.954D-03 0.134D-01 0.264D-01-0.217D-01-0.280D+00 0.365D+00
 Coeff:      0.898D+00
 Gap=     0.503 Goal=   None    Shift=    0.000
 RMSDP=1.32D-05 MaxDP=3.80D-04 DE=-7.49D-05 OVMax= 1.56D-03

 Cycle   8  Pass 1  IDiag  1:
 E= -279.500682775440     Delta-E=       -0.000008821455 Rises=F Damp=F
 DIIS: error= 5.95D-05 at cycle   8 NSaved=   8.
 NSaved= 8 IEnMin= 8 EnMin= -279.500682775440     IErMin= 8 ErrMin= 5.95D-05
 ErrMax= 5.95D-05  0.00D+00 EMaxC= 1.00D-01 BMatC= 6.32D-07 BMatP= 4.36D-06
 IDIUse=1 WtCom= 1.00D+00 WtEn= 0.00D+00
 Coeff-Com: -0.447D-03 0.334D-02 0.746D-02 0.277D-01-0.389D-01-0.204D+00
 Coeff-Com:  0.200D+00 0.100D+01
 Coeff:     -0.447D-03 0.334D-02 0.746D-02 0.277D-01-0.389D-01-0.204D+00
 Coeff:      0.200D+00 0.100D+01
 Gap=     0.503 Goal=   None    Shift=    0.000
 RMSDP=6.85D-06 MaxDP=2.04D-04 DE=-8.82D-06 OVMax= 7.38D-04

 Cycle   9  Pass 1  IDiag  1:
 E= -279.500684573985     Delta-E=       -0.000001798546 Rises=F Damp=F
 DIIS: error= 1.66D-05 at cycle   9 NSaved=   9.
 NSaved= 9 IEnMin= 9 EnMin= -279.500684573985     IErMin= 9 ErrMin= 1.66D-05
 ErrMax= 1.66D-05  0.00D+00 EMaxC= 1.00D-01 BMatC= 7.48D-08 BMatP= 6.32D-07
 IDIUse=1 WtCom= 1.00D+00 WtEn= 0.00D+00
 Coeff-Com:  0.130D-03-0.177D-02-0.317D-02-0.242D-02 0.350D-01 0.190D-02
 Coeff-Com: -0.180D+00-0.986D-01 0.125D+01
 Coeff:      0.130D-03-0.177D-02-0.317D-02-0.242D-02 0.350D-01 0.190D-02
 Coeff:     -0.180D+00-0.986D-01 0.125D+01
 Gap=     0.503 Goal=   None    Shift=    0.000
 RMSDP=2.02D-06 MaxDP=7.00D-05 DE=-1.80D-06 OVMax= 1.86D-04

 Cycle  10  Pass 1  IDiag  1:
 E= -279.500684748075     Delta-E=       -0.000000174089 Rises=F Damp=F
 DIIS: error= 4.26D-06 at cycle  10 NSaved=  10.
 NSaved=10 IEnMin=10 EnMin= -279.500684748075     IErMin=10 ErrMin= 4.26D-06
 ErrMax= 4.26D-06  0.00D+00 EMaxC= 1.00D-01 BMatC= 6.00D-09 BMatP= 7.48D-08
 IDIUse=1 WtCom= 1.00D+00 WtEn= 0.00D+00
 Coeff-Com:  0.290D-04-0.212D-03-0.262D-03-0.273D-02 0.101D-02 0.201D-01
 Coeff-Com: -0.125D-01-0.707D-01-0.984D-01 0.116D+01
 Coeff:      0.290D-04-0.212D-03-0.262D-03-0.273D-02 0.101D-02 0.201D-01
 Coeff:     -0.125D-01-0.707D-01-0.984D-01 0.116D+01
 Gap=     0.503 Goal=   None    Shift=    0.000
 RMSDP=5.28D-07 MaxDP=2.22D-05 DE=-1.74D-07 OVMax= 4.55D-05

 Cycle  11  Pass 1  IDiag  1:
 E= -279.500684761980     Delta-E=       -0.000000013905 Rises=F Damp=F
 DIIS: error= 2.15D-06 at cycle  11 NSaved=  11.
 NSaved=11 IEnMin=11 EnMin= -279.500684761980     IErMin=11 ErrMin= 2.15D-06
 ErrMax= 2.15D-06  0.00D+00 EMaxC= 1.00D-01 BMatC= 7.30D-10 BMatP= 6.00D-09
 IDIUse=1 WtCom= 1.00D+00 WtEn= 0.00D+00
 Coeff-Com: -0.223D-04 0.251D-03 0.503D-03 0.575D-03-0.439D-02-0.393D-02
 Coeff-Com:  0.234D-01 0.303D-01-0.142D+00-0.178D+00 0.127D+01
 Coeff:     -0.223D-04 0.251D-03 0.503D-03 0.575D-03-0.439D-02-0.393D-02
 Coeff:      0.234D-01 0.303D-01-0.142D+00-0.178D+00 0.127D+01
 Gap=     0.503 Goal=   None    Shift=    0.000
 RMSDP=1.89D-07 MaxDP=6.94D-06 DE=-1.39D-08 OVMax= 1.83D-05

 Cycle  12  Pass 1  IDiag  1:
 E= -279.500684764017     Delta-E=       -0.000000002037 Rises=F Damp=F
 DIIS: error= 6.10D-07 at cycle  12 NSaved=  12.
 NSaved=12 IEnMin=12 EnMin= -279.500684764017     IErMin=12 ErrMin= 6.10D-07
 ErrMax= 6.10D-07  0.00D+00 EMaxC= 1.00D-01 BMatC= 7.93D-11 BMatP= 7.30D-10
 IDIUse=1 WtCom= 1.00D+00 WtEn= 0.00D+00
 Coeff-Com:  0.141D-05-0.314D-04-0.675D-04 0.194D-03 0.114D-02-0.244D-02
 Coeff-Com: -0.431D-02 0.580D-02 0.430D-01-0.121D+00-0.262D+00 0.134D+01
 Coeff:      0.141D-05-0.314D-04-0.675D-04 0.194D-03 0.114D-02-0.244D-02
 Coeff:     -0.431D-02 0.580D-02 0.430D-01-0.121D+00-0.262D+00 0.134D+01
 Gap=     0.503 Goal=   None    Shift=    0.000
 RMSDP=7.60D-08 MaxDP=2.99D-06 DE=-2.04D-09 OVMax= 7.01D-06

 Cycle  13  Pass 1  IDiag  1:
 E= -279.500684764272     Delta-E=       -0.000000000256 Rises=F Damp=F
 DIIS: error= 1.80D-07 at cycle  13 NSaved=  13.
 NSaved=13 IEnMin=13 EnMin= -279.500684764272     IErMin=13 ErrMin= 1.80D-07
 ErrMax= 1.80D-07  0.00D+00 EMaxC= 1.00D-01 BMatC= 4.44D-12 BMatP= 7.93D-11
 IDIUse=1 WtCom= 1.00D+00 WtEn= 0.00D+00
 Coeff-Com:  0.132D-05-0.143D-04-0.230D-04-0.946D-04 0.123D-03 0.806D-03
 Coeff-Com: -0.997D-03-0.324D-02 0.700D-03 0.424D-01-0.418D-01-0.316D+00
 Coeff-Com:  0.132D+01
 Coeff:      0.132D-05-0.143D-04-0.230D-04-0.946D-04 0.123D-03 0.806D-03
 Coeff:     -0.997D-03-0.324D-02 0.700D-03 0.424D-01-0.418D-01-0.316D+00
 Coeff:      0.132D+01
 Gap=     0.503 Goal=   None    Shift=    0.000
 RMSDP=2.00D-08 MaxDP=5.91D-07 DE=-2.56D-10 OVMax= 1.62D-06

 Cycle  14  Pass 1  IDiag  1:
 E= -279.500684764287     Delta-E=       -0.000000000015 Rises=F Damp=F
 DIIS: error= 2.55D-08 at cycle  14 NSaved=  14.
 NSaved=14 IEnMin=14 EnMin= -279.500684764287     IErMin=14 ErrMin= 2.55D-08
 ErrMax= 2.55D-08  0.00D+00 EMaxC= 1.00D-01 BMatC= 2.16D-13 BMatP= 4.44D-12
 IDIUse=1 WtCom= 1.00D+00 WtEn= 0.00D+00
 Coeff-Com: -0.195D-06 0.317D-05 0.566D-05 0.452D-05-0.843D-04 0.486D-04
 Coeff-Com:  0.299D-03 0.209D-03-0.249D-02 0.169D-02 0.166D-01-0.259D-01
 Coeff-Com: -0.197D+00 0.121D+01
 Coeff:     -0.195D-06 0.317D-05 0.566D-05 0.452D-05-0.843D-04 0.486D-04
 Coeff:      0.299D-03 0.209D-03-0.249D-02 0.169D-02 0.166D-01-0.259D-01
 Coeff:     -0.197D+00 0.121D+01
 Gap=     0.503 Goal=   None    Shift=    0.000
 RMSDP=3.94D-09 MaxDP=9.54D-08 DE=-1.52D-11 OVMax= 3.57D-07

 SCF Done:  E(RHF) =  -279.500684764     A.U. after   14 cycles
            NFock= 14  Conv=0.39D-08     -V/T= 2.0024
 KE= 2.788182763463D+02 PE=-8.947104300644D+02 EE= 2.196888833210D+02
 Leave Link  502 at Mon Feb 14 12:46:01 2022, MaxMem= 16106127360 cpu:              56.8 elap:               3.7
 (Enter /sw/contrib/gaussian/g16/B01/g16/l801.exe)
 ExpMin= 2.53D-02 ExpMax= 1.53D+04 ExpMxC= 5.22D+02 IAcc=3 IRadAn=         5 AccDes= 0.00D+00
 HarFok:  IExCor=  205 AccDes= 0.00D+00 IRadAn=         5 IDoV=-2 UseB2=F ITyADJ=14
 ICtDFT= 12500011 ScaDFX=  1.000000  1.000000  1.000000  1.000000
 Largest valence mixing into a core orbital is  2.09D-04
 Largest core mixing into a valence orbital is  3.65D-05
 Range of M.O.s used for correlation:     5   207
 NBasis=   207 NAE=    16 NBE=    16 NFC=     4 NFV=     0
 NROrb=    203 NOA=    12 NOB=    12 NVA=   191 NVB=   191

 **** Warning!!: The largest alpha MO coefficient is  0.17667538D+02

 Leave Link  801 at Mon Feb 14 12:46:01 2022, MaxMem= 16106127360 cpu:               2.0 elap:               0.1
 (Enter /sw/contrib/gaussian/g16/B01/g16/l906.exe)
 Frozen-core derivative calculation, NFC=   4 NFV=   0.
 FulOut=F Deriv=T AODrv=F NAtomX=     5
   MMem=          76  MDisk=          12 MDiskD=          12
  W3Min=      811440 MinDsk=     1524655 NBas6D=         245
 NBas2D=       30762    NTT=       30135    LW2=     3500000
    MDV= 16105579927 MDiskM=      328644 NBas2p=       30466
 Fully in-core method, ICMem=   960157634.
 IMap=   1   2   3   4   5   6   7   8   9  10  11  12  13  14  15  16
 JobTyp=1 Pass  1 fully in-core, NPsUse= 28.
 Compute canonical integrals.
 FoFCou: FMM=F IPFlag=           0 FMFlag=           0 FMFlg1=           0
         NFxFlg=           0 DoJE=F BraDBF=F KetDBF=F FulRan=T
         wScrn=  0.000000 ICntrl=       600 IOpCl=  1 I1Cent=           0 NGrid=           0
         NMat0=    1 NMatS0=  30762 NMatT0=    0 NMatD0=    1 NMtDS0=    0 NMtDT0=    0
 Symmetry not used in FoFCou.
 Spin components of T(2) and E(2):
     alpha-alpha T2 =       0.3414192018D-01 E2=     -0.1225273431D+00
     alpha-beta  T2 =       0.1875007323D+00 E2=     -0.7009544590D+00
     beta-beta   T2 =       0.3414192018D-01 E2=     -0.1225273431D+00
 The integrals were generated   1 times.
 ANorm=    0.1120617942D+01
 E2 =    -0.9460091452D+00 EUMP2 =    -0.28044669390945D+03
 Leave Link  906 at Mon Feb 14 12:46:10 2022, MaxMem= 16106127360 cpu:             243.9 elap:               8.8
 (Enter /sw/contrib/gaussian/g16/B01/g16/l1002.exe)
 Minotr:  Closed shell wavefunction.
          Computing MP2/KS-MP2 derivatives.
          Using Z-Vector for PSCF gradient.
          Skipping F1 and S1 gradient terms here.
          Frozen-core window.
          Direct CPHF calculation.
          Differentiating once with respect to electric field.
                with respect to dipole field.
          Electric field/nuclear overlap derivatives assumed to be zero.
          Using symmetry in CPHF.
          Requested convergence is 1.0D-10 RMS, and 1.0D-09 maximum.
          NewPWx=F KeepS1=T KeepF1=T KeepIn=T MapXYZ=F SortEE=F KeepMc=T.
 Keep R1 ints in memory in symmetry-blocked form, NReq=348888868.
 FoFCou: FMM=F IPFlag=           0 FMFlag=           0 FMFlg1=           0
         NFxFlg=           0 DoJE=F BraDBF=F KetDBF=F FulRan=T
         wScrn=  0.000000 ICntrl=       600 IOpCl=  0 I1Cent=           0 NGrid=           0
         NMat0=    1 NMatS0=  21528 NMatT0=    0 NMatD0=    1 NMtDS0=    0 NMtDT0=    0
 Petite list used in FoFCou.
          MDV=   16106127360 using IRadAn=       5.
          Solving linear equations separately, MaxMat=       0.
          There are     1 degrees of freedom in the 1st order CPHF.  IDoFFX=0 NUNeed=     1.
 LinEq1:  Iter=  0 NonCon=     1 RMS=5.99D-03 Max=1.34D-01 NDo=     1
 AX will form     1 AO Fock derivatives at one time.
 LinEq1:  Iter=  1 NonCon=     1 RMS=1.92D-03 Max=3.90D-02 NDo=     1
 LinEq1:  Iter=  2 NonCon=     1 RMS=8.80D-04 Max=1.43D-02 NDo=     1
 LinEq1:  Iter=  3 NonCon=     1 RMS=3.93D-04 Max=8.08D-03 NDo=     1
 LinEq1:  Iter=  4 NonCon=     1 RMS=1.21D-04 Max=1.94D-03 NDo=     1
 LinEq1:  Iter=  5 NonCon=     1 RMS=4.73D-05 Max=7.55D-04 NDo=     1
 LinEq1:  Iter=  6 NonCon=     1 RMS=2.11D-05 Max=2.41D-04 NDo=     1
 LinEq1:  Iter=  7 NonCon=     1 RMS=8.47D-06 Max=1.62D-04 NDo=     1
 LinEq1:  Iter=  8 NonCon=     1 RMS=3.61D-06 Max=3.52D-05 NDo=     1
 LinEq1:  Iter=  9 NonCon=     1 RMS=9.79D-07 Max=1.34D-05 NDo=     1
 LinEq1:  Iter= 10 NonCon=     1 RMS=1.92D-07 Max=2.08D-06 NDo=     1
 LinEq1:  Iter= 11 NonCon=     1 RMS=3.56D-08 Max=3.68D-07 NDo=     1
 LinEq1:  Iter= 12 NonCon=     1 RMS=8.60D-09 Max=1.32D-07 NDo=     1
 LinEq1:  Iter= 13 NonCon=     1 RMS=1.56D-09 Max=2.66D-08 NDo=     1
 LinEq1:  Iter= 14 NonCon=     1 RMS=2.81D-10 Max=3.94D-09 NDo=     1
 LinEq1:  Iter= 15 NonCon=     0 RMS=5.01D-11 Max=5.57D-10 NDo=     1
 Linear equations converged to 1.000D-10 1.000D-09 after    15 iterations.
 End of Minotr F.D. properties file   721 does not exist.
 End of Minotr F.D. properties file   722 does not exist.
 End of Minotr F.D. properties file   788 does not exist.
 Leave Link 1002 at Mon Feb 14 12:46:14 2022, MaxMem= 16106127360 cpu:              52.9 elap:               3.9
 (Enter /sw/contrib/gaussian/g16/B01/g16/l601.exe)
 Copying SCF densities to generalized density rwf, IOpCl= 0 IROHF=0.

 **********************************************************************

            Population analysis using the MP2 Density.

 **********************************************************************

 Orbital symmetries:
       Occupied  (A') (A') (A') (A') (A') (A') (A') (A') (A') (A')
                 (A") (A') (A") (A') (A") (A')
       Virtual   (A') (A") (A') (A') (A') (A") (A') (A') (A") (A')
                 (A") (A') (A') (A') (A") (A') (A') (A") (A') (A')
                 (A') (A') (A') (A') (A") (A') (A') (A") (A') (A')
                 (A") (A') (A") (A') (A') (A") (A') (A') (A") (A')
                 (A") (A') (A") (A') (A') (A") (A') (A') (A") (A')
                 (A") (A') (A') (A') (A") (A') (A") (A') (A") (A')
                 (A') (A') (A") (A') (A') (A") (A') (A") (A') (A')
                 (A") (A') (A') (A") (A") (A') (A') (A") (A') (A')
                 (A') (A") (A') (A") (A') (A") (A') (A") (A') (A')
                 (A") (A') (A') (A") (A') (A") (A') (A") (A') (A')
                 (A") (A') (A") (A') (A') (A") (A') (A') (A") (A')
                 (A") (A') (A') (A') (A") (A') (A') (A') (A") (A')
                 (A") (A') (A") (A') (A') (A") (A") (A') (A") (A')
                 (A') (A') (A') (A") (A") (A") (A') (A') (A') (A')
                 (A") (A') (A") (A') (A') (A") (A') (A') (A') (A')
                 (A") (A') (A') (A") (A') (A") (A') (A") (A') (A")
                 (A') (A") (A') (A') (A") (A") (A") (A') (A") (A')
                 (A") (A') (A") (A') (A") (A') (A") (A") (A') (A')
                 (A') (A') (A') (A') (A') (A') (A') (A') (A') (A')
                 (A')
 The electronic state is 1-A'.
 Alpha  occ. eigenvalues --  -20.69219 -20.68407 -20.66069 -15.81365  -1.61956
 Alpha  occ. eigenvalues --   -1.49562  -1.25497  -0.94884  -0.77216  -0.75771
 Alpha  occ. eigenvalues --   -0.71071  -0.67868  -0.61929  -0.58979  -0.48568
 Alpha  occ. eigenvalues --   -0.47359
 Alpha virt. eigenvalues --    0.02948   0.06995   0.08603   0.10172   0.13387
 Alpha virt. eigenvalues --    0.13406   0.14396   0.15440   0.17816   0.19424
 Alpha virt. eigenvalues --    0.19960   0.20636   0.22063   0.23496   0.23734
 Alpha virt. eigenvalues --    0.26598   0.29286   0.30366   0.31020   0.34349
 Alpha virt. eigenvalues --    0.34954   0.38700   0.42173   0.43156   0.52745
 Alpha virt. eigenvalues --    0.52838   0.55814   0.58152   0.62287   0.63855
 Alpha virt. eigenvalues --    0.67619   0.68408   0.70634   0.71100   0.72392
 Alpha virt. eigenvalues --    0.72907   0.74468   0.79125   0.79169   0.81051
 Alpha virt. eigenvalues --    0.81219   0.82913   0.86776   0.90777   0.92143
 Alpha virt. eigenvalues --    0.92579   0.95630   0.97631   0.98415   1.01619
 Alpha virt. eigenvalues --    1.05163   1.05441   1.08128   1.11689   1.14066
 Alpha virt. eigenvalues --    1.18915   1.21997   1.23184   1.33842   1.35009
 Alpha virt. eigenvalues --    1.38533   1.45316   1.48751   1.50828   1.53787
 Alpha virt. eigenvalues --    1.56693   1.57985   1.61283   1.66284   1.66939
 Alpha virt. eigenvalues --    1.70347   1.79287   1.83176   1.83449   1.87679
 Alpha virt. eigenvalues --    1.91012   1.95769   1.99070   2.00594   2.07746
 Alpha virt. eigenvalues --    2.12081   2.13146   2.14930   2.22414   2.26396
 Alpha virt. eigenvalues --    2.26433   2.28904   2.31366   2.34227   2.38563
 Alpha virt. eigenvalues --    2.42316   2.42748   2.45403   2.46208   2.47582
 Alpha virt. eigenvalues --    2.50018   2.58868   2.59549   2.61985   2.62242
 Alpha virt. eigenvalues --    2.63383   2.66585   2.75531   2.82235   2.85304
 Alpha virt. eigenvalues --    2.88160   2.89265   2.92206   2.95664   3.02385
 Alpha virt. eigenvalues --    3.06899   3.11981   3.20415   3.22511   3.31556
 Alpha virt. eigenvalues --    3.34081   3.51459   3.64291   3.83758   3.84268
 Alpha virt. eigenvalues --    4.14798   4.16216   4.18285   4.24425   4.35096
 Alpha virt. eigenvalues --    4.39234   4.46174   4.51802   4.65494   4.70954
 Alpha virt. eigenvalues --    4.80212   4.82363   4.82756   4.89609   5.02409
 Alpha virt. eigenvalues --    5.07698   5.10119   5.14687   5.17715   5.24029
 Alpha virt. eigenvalues --    5.27163   5.30854   5.32864   5.35043   5.60507
 Alpha virt. eigenvalues --    5.66440   5.76419   5.82657   5.95953   6.16709
 Alpha virt. eigenvalues --    6.30764   6.33771   6.39357   6.49361   6.50531
 Alpha virt. eigenvalues --    6.61291   6.66722   6.69722   6.75682   6.76236
 Alpha virt. eigenvalues --    6.82921   6.89616   7.01160   7.05465   7.05593
 Alpha virt. eigenvalues --    7.08922   7.12162   7.14818   7.18071   7.22092
 Alpha virt. eigenvalues --    7.24045   7.30415   7.31338   7.34371   7.39502
 Alpha virt. eigenvalues --    7.43046   7.48375   7.60671   7.60798   7.62088
 Alpha virt. eigenvalues --    7.66421   7.78435   7.87759   8.09047   8.31240
 Alpha virt. eigenvalues --    8.40848   8.54295  13.37963  14.34757  15.15914
 Alpha virt. eigenvalues --   15.98503
          Condensed to atoms (all electrons):
               1          2          3          4          5
     1  H    0.589389   0.128387   0.020063   0.012357  -0.000649
     2  O    0.128387   8.321178  -0.173491  -0.090414   0.015481
     3  O    0.020063  -0.173491   8.464720  -0.127731  -0.037627
     4  N    0.012357  -0.090414  -0.127731   6.969749  -0.055081
     5  O   -0.000649   0.015481  -0.037627  -0.055081   8.272376
 Mulliken charges:
               1
     1  H    0.250453
     2  O   -0.201140
     3  O   -0.145934
     4  N    0.291121
     5  O   -0.194499
 Sum of Mulliken charges =  -0.00000
 Mulliken charges with hydrogens summed into heavy atoms:
               1
     2  O    0.049313
     3  O   -0.145934
     4  N    0.291121
     5  O   -0.194499
 Electronic spatial extent (au):  <R**2>=            253.4193
 Charge=              0.0000 electrons
 Dipole moment (field-independent basis, Debye):
    X=              0.5291    Y=              1.3854    Z=             -0.0000  Tot=              1.4830
 Quadrupole moment (field-independent basis, Debye-Ang):
   XX=            -22.4980   YY=            -18.6158   ZZ=            -22.0197
   XY=              3.2373   XZ=              0.0000   YZ=              0.0000
 Traceless Quadrupole moment (field-independent basis, Debye-Ang):
   XX=             -1.4535   YY=              2.4287   ZZ=             -0.9752
   XY=              3.2373   XZ=              0.0000   YZ=              0.0000
 Octapole moment (field-independent basis, Debye-Ang**2):
  XXX=              2.9039  YYY=             11.4366  ZZZ=             -0.0000  XYY=              7.9611
  XXY=              6.5982  XXZ=              0.0000  XZZ=             -1.5600  YZZ=             -0.8357
  YYZ=             -0.0000  XYZ=             -0.0000
 Hexadecapole moment (field-independent basis, Debye-Ang**3):
 XXXX=           -158.6810 YYYY=            -90.1140 ZZZZ=            -18.2501 XXXY=            -36.8908
 XXXZ=              0.0000 YYYX=            -30.9040 YYYZ=              0.0000 ZZZX=              0.0000
 ZZZY=              0.0000 XXYY=            -34.0790 XXZZ=            -30.9045 YYZZ=            -20.7531
 XXYZ=              0.0000 YYXZ=              0.0000 ZZXY=            -15.1272
 N-N= 1.167025856329D+02 E-N=-8.955011996152D+02  KE= 2.801740133644D+02
 Symmetry A'   KE= 2.662049468543D+02
 Symmetry A"   KE= 1.396906651015D+01
 No NMR shielding tensors so no spin-rotation constants.
 Leave Link  601 at Mon Feb 14 12:46:14 2022, MaxMem= 16106127360 cpu:               4.5 elap:               0.2
 (Enter /sw/contrib/gaussian/g16/B01/g16/l9999.exe)
 1\1\GINC-N2115\SP\RMP2-FC\Aug-CC-pVTZ\H1N1O3\CGAVINH\14-Feb-2022\0\\#p
  SP mp2/aug-cc-pvtz density=current\\title\\0,1\H\O,1,0.96897556\O,2,1
 .45491931,1,97.59494903\N,3,1.45878406,2,102.29752444,1,180.,0\O,4,1.1
 763344851,3,109.06955123,2,180.,0\\Version=ES64L-G16RevB.01\State=1-A'
 \HF=-279.5006848\MP2=-280.4466939\RMSD=3.943e-09\Dipole=-0.1548622,0.,
 -0.5625185\Quadrupole=-1.5142428,-0.7250268,2.2392696,0.,2.086527,0.\P
 G=CS [SG(H1N1O3)]\\@


 IN THE FIGHT BETWEEN YOU AND THE WORLD, BACK THE WORLD

                                        -- FRANZ KAFKA
 Job cpu time:       0 days  0 hours  6 minutes 23.9 seconds.
 Elapsed time:       0 days  0 hours  0 minutes 17.7 seconds.
 File lengths (MBytes):  RWF=     22 Int=      0 D2E=      0 Chk=      8 Scr=      1
 Normal termination of Gaussian 16 at Mon Feb 14 12:46:14 2022.
