title                                                                   
SP        RMP2-FC                                                     Aug-CC-pVTZ         
Number of atoms                            I                5
Info1-9                                    I   N=           9
          33          24           0           0           0         110
           1           2           1
Full Title                                 C   N=           1
title       
Route                                      C   N=           4
#p SP mp2/aug-cc-pvtz density=current           
Charge                                     I                0
Multiplicity                               I                1
Number of electrons                        I               32
Number of alpha electrons                  I               16
Number of beta electrons                   I               16
Number of basis functions                  I              207
Number of independent functions            I              207
Number of point charges in /Mol/           I                0
Number of translation vectors              I                0
Atomic numbers                             I   N=           5
           1           8           8           7           8
Nuclear charges                            R   N=           5
  1.00000000E+00  8.00000000E+00  8.00000000E+00  7.00000000E+00  8.00000000E+00
Current cartesian coordinates              R   N=          15
  2.92602769E+00  3.17561241E+00  1.66952934E-31  2.74777817E+00  1.36661093E+00
  1.22335246E-31  2.13964692E-16  1.27221742E+00  1.58271055E-32 -4.94326233E-01
 -1.43980202E+00 -4.61063866E-32 -2.68099618E+00 -1.77595313E+00 -1.43087691E-31
Number of symbols in /Mol/                 I                0
Force Field                                I                0
Atom Types                                 C   N=           5
                                                            
Int Atom Types                             I   N=           5
           0           0           0           0           0
MM charges                                 R   N=           5
  0.00000000E+00  0.00000000E+00  0.00000000E+00  0.00000000E+00  0.00000000E+00
Integer atomic weights                     I   N=           5
           1          16          16          14          16
Real atomic weights                        R   N=           5
  1.00782504E+00  1.59949146E+01  1.59949146E+01  1.40030740E+01  1.59949146E+01
Atom fragment info                         I   N=           5
           0           0           0           0           0
Atom residue num                           I   N=           5
           0           0           0           0           0
Nuclear spins                              I   N=           5
           1           0           0           2           0
Nuclear ZEff                               R   N=           5
 -1.00000000E+00 -5.60000000E+00 -5.60000000E+00 -4.55000000E+00 -5.60000000E+00
Nuclear ZNuc                               R   N=           5
  1.00000000E+00  8.00000000E+00  8.00000000E+00  7.00000000E+00  8.00000000E+00
Nuclear QMom                               R   N=           5
  0.00000000E+00  0.00000000E+00  0.00000000E+00  2.04400000E+00  0.00000000E+00
Nuclear GFac                               R   N=           5
  2.79284600E+00  0.00000000E+00  0.00000000E+00  4.03761000E-01  0.00000000E+00
MicOpt                                     I   N=           5
          -1          -1          -1          -1          -1
Number of residues                         I                0
Number of secondary structures             I                0
SymInf integers                            I   N=          26
           1           2           1           1           1           1
           1          -1           0           0           0           0
           0           0           0           0           0           0
           0           0           0           0           0           0
           0           0
RotTr to input orientation                 R   N=          12
 -9.95180518E-01  1.22515987E-16 -9.80598661E-02  9.80598661E-02 -9.45989753E-17
 -9.95180518E-01 -1.31201886E-16 -1.00000000E+00  8.21291559E-17  2.60052562E+00
  0.00000000E+00  3.44723349E+00
Number of contracted shells                I               65
Number of primitive shells                 I              119
Pure/Cartesian d shells                    I                0
Pure/Cartesian f shells                    I                0
Highest angular momentum                   I                3
Largest degree of contraction              I                7
Shell types                                I   N=          65
           0           0           0           0           1           1
           1          -2          -2           0           0           0
           0           0           1           1           1           1
          -2          -2          -2          -3          -3           0
           0           0           0           0           1           1
           1           1          -2          -2          -2          -3
          -3           0           0           0           0           0
           1           1           1           1          -2          -2
          -2          -3          -3           0           0           0
           0           0           1           1           1           1
          -2          -2          -2          -3          -3
Number of primitives per shell             I   N=          65
           3           1           1           1           1           1
           1           1           1           7           6           1
           1           1           3           1           1           1
           1           1           1           1           1           7
           6           1           1           1           3           1
           1           1           1           1           1           1
           1           7           6           1           1           1
           3           1           1           1           1           1
           1           1           1           7           6           1
           1           1           3           1           1           1
           1           1           1           1           1
Shell to atom map                          I   N=          65
           1           1           1           1           1           1
           1           1           1           2           2           2
           2           2           2           2           2           2
           2           2           2           2           2           3
           3           3           3           3           3           3
           3           3           3           3           3           3
           3           4           4           4           4           4
           4           4           4           4           4           4
           4           4           4           5           5           5
           5           5           5           5           5           5
           5           5           5           5           5
Primitive exponents                        R   N=         119
  3.38700000E+01  5.09500000E+00  1.15900000E+00  3.25800000E-01  1.02700000E-01
  2.52600000E-02  1.40700000E+00  3.88000000E-01  1.02000000E-01  1.05700000E+00
  2.47000000E-01  1.53300000E+04  2.29900000E+03  5.22400000E+02  1.47300000E+02
  4.75500000E+01  1.67600000E+01  6.20700000E+00  5.22400000E+02  1.47300000E+02
  4.75500000E+01  1.67600000E+01  6.20700000E+00  6.88200000E-01  1.75200000E+00
  2.38400000E-01  7.37600000E-02  3.44600000E+01  7.74900000E+00  2.28000000E+00
  7.15600000E-01  2.14000000E-01  5.97400000E-02  2.31400000E+00  6.45000000E-01
  2.14000000E-01  1.42800000E+00  5.00000000E-01  1.53300000E+04  2.29900000E+03
  5.22400000E+02  1.47300000E+02  4.75500000E+01  1.67600000E+01  6.20700000E+00
  5.22400000E+02  1.47300000E+02  4.75500000E+01  1.67600000E+01  6.20700000E+00
  6.88200000E-01  1.75200000E+00  2.38400000E-01  7.37600000E-02  3.44600000E+01
  7.74900000E+00  2.28000000E+00  7.15600000E-01  2.14000000E-01  5.97400000E-02
  2.31400000E+00  6.45000000E-01  2.14000000E-01  1.42800000E+00  5.00000000E-01
  1.14200000E+04  1.71200000E+03  3.89300000E+02  1.10000000E+02  3.55700000E+01
  1.25400000E+01  4.64400000E+00  3.89300000E+02  1.10000000E+02  3.55700000E+01
  1.25400000E+01  4.64400000E+00  5.11800000E-01  1.29300000E+00  1.78700000E-01
  5.76000000E-02  2.66300000E+01  5.94800000E+00  1.74200000E+00  5.55000000E-01
  1.72500000E-01  4.91000000E-02  1.65400000E+00  4.69000000E-01  1.51000000E-01
  1.09300000E+00  3.64000000E-01  1.53300000E+04  2.29900000E+03  5.22400000E+02
  1.47300000E+02  4.75500000E+01  1.67600000E+01  6.20700000E+00  5.22400000E+02
  1.47300000E+02  4.75500000E+01  1.67600000E+01  6.20700000E+00  6.88200000E-01
  1.75200000E+00  2.38400000E-01  7.37600000E-02  3.44600000E+01  7.74900000E+00
  2.28000000E+00  7.15600000E-01  2.14000000E-01  5.97400000E-02  2.31400000E+00
  6.45000000E-01  2.14000000E-01  1.42800000E+00  5.00000000E-01
Contraction coefficients                   R   N=         119
  2.54948632E-02  1.90362766E-01  8.52162022E-01  1.00000000E+00  1.00000000E+00
  1.00000000E+00  1.00000000E+00  1.00000000E+00  1.00000000E+00  1.00000000E+00
  1.00000000E+00  5.19808943E-04  4.02025621E-03  2.07128267E-02  8.10105536E-02
  2.35962985E-01  4.42653446E-01  3.57064423E-01 -4.42115008E-05 -1.22591041E-03
 -1.05517725E-02 -6.74452633E-02 -1.71198607E-01  1.07329856E+00  1.00000000E+00
  1.00000000E+00  1.00000000E+00  4.11634896E-02  2.57762836E-01  8.02419274E-01
  1.00000000E+00  1.00000000E+00  1.00000000E+00  1.00000000E+00  1.00000000E+00
  1.00000000E+00  1.00000000E+00  1.00000000E+00  5.19808943E-04  4.02025621E-03
  2.07128267E-02  8.10105536E-02  2.35962985E-01  4.42653446E-01  3.57064423E-01
 -4.42115008E-05 -1.22591041E-03 -1.05517725E-02 -6.74452633E-02 -1.71198607E-01
  1.07329856E+00  1.00000000E+00  1.00000000E+00  1.00000000E+00  4.11634896E-02
  2.57762836E-01  8.02419274E-01  1.00000000E+00  1.00000000E+00  1.00000000E+00
  1.00000000E+00  1.00000000E+00  1.00000000E+00  1.00000000E+00  1.00000000E+00
  5.34563860E-04  4.13435660E-03  2.12335358E-02  8.25006224E-02  2.38138871E-01
  4.42551547E-01  3.53757422E-01 -4.89867350E-05 -1.19527323E-03 -1.03490714E-02
 -6.48680190E-02 -1.71552477E-01  1.07289568E+00  1.00000000E+00  1.00000000E+00
  1.00000000E+00  3.98072123E-02  2.49002660E-01  8.10479727E-01  1.00000000E+00
  1.00000000E+00  1.00000000E+00  1.00000000E+00  1.00000000E+00  1.00000000E+00
  1.00000000E+00  1.00000000E+00  5.19808943E-04  4.02025621E-03  2.07128267E-02
  8.10105536E-02  2.35962985E-01  4.42653446E-01  3.57064423E-01 -4.42115008E-05
 -1.22591041E-03 -1.05517725E-02 -6.74452633E-02 -1.71198607E-01  1.07329856E+00
  1.00000000E+00  1.00000000E+00  1.00000000E+00  4.11634896E-02  2.57762836E-01
  8.02419274E-01  1.00000000E+00  1.00000000E+00  1.00000000E+00  1.00000000E+00
  1.00000000E+00  1.00000000E+00  1.00000000E+00  1.00000000E+00
Coordinates of each shell                  R   N=         195
  2.92602769E+00  3.17561241E+00  5.08869349E-32  2.92602769E+00  3.17561241E+00
  5.08869349E-32  2.92602769E+00  3.17561241E+00  5.08869349E-32  2.92602769E+00
  3.17561241E+00  5.08869349E-32  2.92602769E+00  3.17561241E+00  5.08869349E-32
  2.92602769E+00  3.17561241E+00  5.08869349E-32  2.92602769E+00  3.17561241E+00
  5.08869349E-32  2.92602769E+00  3.17561241E+00  5.08869349E-32  2.92602769E+00
  3.17561241E+00  5.08869349E-32  2.74777817E+00  1.36661093E+00  5.76955694E-32
  2.74777817E+00  1.36661093E+00  5.76955694E-32  2.74777817E+00  1.36661093E+00
  5.76955694E-32  2.74777817E+00  1.36661093E+00  5.76955694E-32  2.74777817E+00
  1.36661093E+00  5.76955694E-32  2.74777817E+00  1.36661093E+00  5.76955694E-32
  2.74777817E+00  1.36661093E+00  5.76955694E-32  2.74777817E+00  1.36661093E+00
  5.76955694E-32  2.74777817E+00  1.36661093E+00  5.76955694E-32  2.74777817E+00
  1.36661093E+00  5.76955694E-32  2.74777817E+00  1.36661093E+00  5.76955694E-32
  2.74777817E+00  1.36661093E+00  5.76955694E-32  2.74777817E+00  1.36661093E+00
  5.76955694E-32  2.74777817E+00  1.36661093E+00  5.76955694E-32  8.88266324E-18
  1.27221742E+00 -7.80285732E-33  8.88266324E-18  1.27221742E+00 -7.80285732E-33
  8.88266324E-18  1.27221742E+00 -7.80285732E-33  8.88266324E-18  1.27221742E+00
 -7.80285732E-33  8.88266324E-18  1.27221742E+00 -7.80285732E-33  8.88266324E-18
  1.27221742E+00 -7.80285732E-33  8.88266324E-18  1.27221742E+00 -7.80285732E-33
  8.88266324E-18  1.27221742E+00 -7.80285732E-33  8.88266324E-18  1.27221742E+00
 -7.80285732E-33  8.88266324E-18  1.27221742E+00 -7.80285732E-33  8.88266324E-18
  1.27221742E+00 -7.80285732E-33  8.88266324E-18  1.27221742E+00 -7.80285732E-33
  8.88266324E-18  1.27221742E+00 -7.80285732E-33  8.88266324E-18  1.27221742E+00
 -7.80285732E-33 -4.94326233E-01 -1.43980202E+00 -3.05664157E-33 -4.94326233E-01
 -1.43980202E+00 -3.05664157E-33 -4.94326233E-01 -1.43980202E+00 -3.05664157E-33
 -4.94326233E-01 -1.43980202E+00 -3.05664157E-33 -4.94326233E-01 -1.43980202E+00
 -3.05664157E-33 -4.94326233E-01 -1.43980202E+00 -3.05664157E-33 -4.94326233E-01
 -1.43980202E+00 -3.05664157E-33 -4.94326233E-01 -1.43980202E+00 -3.05664157E-33
 -4.94326233E-01 -1.43980202E+00 -3.05664157E-33 -4.94326233E-01 -1.43980202E+00
 -3.05664157E-33 -4.94326233E-01 -1.43980202E+00 -3.05664157E-33 -4.94326233E-01
 -1.43980202E+00 -3.05664157E-33 -4.94326233E-01 -1.43980202E+00 -3.05664157E-33
 -4.94326233E-01 -1.43980202E+00 -3.05664157E-33 -2.68099618E+00 -1.77595313E+00
 -5.35790175E-32 -2.68099618E+00 -1.77595313E+00 -5.35790175E-32 -2.68099618E+00
 -1.77595313E+00 -5.35790175E-32 -2.68099618E+00 -1.77595313E+00 -5.35790175E-32
 -2.68099618E+00 -1.77595313E+00 -5.35790175E-32 -2.68099618E+00 -1.77595313E+00
 -5.35790175E-32 -2.68099618E+00 -1.77595313E+00 -5.35790175E-32 -2.68099618E+00
 -1.77595313E+00 -5.35790175E-32 -2.68099618E+00 -1.77595313E+00 -5.35790175E-32
 -2.68099618E+00 -1.77595313E+00 -5.35790175E-32 -2.68099618E+00 -1.77595313E+00
 -5.35790175E-32 -2.68099618E+00 -1.77595313E+00 -5.35790175E-32 -2.68099618E+00
 -1.77595313E+00 -5.35790175E-32 -2.68099618E+00 -1.77595313E+00 -5.35790175E-32
Num ILSW                                   I              100
ILSW                                       I   N=         100
           0           0           0           0           2           0
           0           0           0           0           0          -1
           5           0           0           0           0           0
           0           0           0           0           0           0
           1           0           0           0           0           0
           0           0      100000           0          -1           0
           0           0           0           0           0           0
           0           0           0           1           0           0
           0 -2000000000           1           0           0           0
           0           0           4          52           0           0
           0           0           0           0           0           0
           0           0           0           5           0           1
           0           0           0           0           0           0
           0           0           0           0           0           0
           0           0           0           0           0           0
           0           0           0           0           0           0
           0           0           0           0
Num RLSW                                   I               52
RLSW                                       R   N=          52
  1.00000000E+00  1.00000000E+00  1.00000000E+00  1.00000000E+00  1.00000000E+00
  0.00000000E+00  0.00000000E+00  1.00000000E+00  0.00000000E+00  0.00000000E+00
  0.00000000E+00  0.00000000E+00  1.00000000E+00  0.00000000E+00  0.00000000E+00
  0.00000000E+00  0.00000000E+00  1.00000000E+00  0.00000000E+00  0.00000000E+00
  0.00000000E+00  0.00000000E+00  1.00000000E+00  0.00000000E+00  0.00000000E+00
  0.00000000E+00  0.00000000E+00  1.00000000E+00  0.00000000E+00  0.00000000E+00
  0.00000000E+00  0.00000000E+00  1.00000000E+00  0.00000000E+00  0.00000000E+00
  0.00000000E+00  0.00000000E+00  0.00000000E+00  1.00000000E+00  1.00000000E+00
  0.00000000E+00  1.00000000E+00  0.00000000E+00  0.00000000E+00  0.00000000E+00
  0.00000000E+00  0.00000000E+00  0.00000000E+00  0.00000000E+00  0.00000000E+00
  0.00000000E+00  0.00000000E+00
MxBond                                     I                2
NBond                                      I   N=           5
           1           2           2           2           1
IBond                                      I   N=          10
           2           0           1           3           2           4
           3           5           4           0
RBond                                      R   N=          10
  1.00000000E+00  0.00000000E+00  1.00000000E+00  1.00000000E+00  1.00000000E+00
  1.00000000E+00  1.00000000E+00  2.00000000E+00  2.00000000E+00  0.00000000E+00
Virial Ratio                               R      2.002306670232395E+00
SCF Energy                                 R     -2.795019784214312E+02
MP2 Energy                                 R     -2.804466884797903E+02
Total Energy                               R     -2.804466884797903E+02
Post-SCF wavefunction norm                 R      1.120101095966297E+00
RMS Density                                R      3.788856670805297E-09
Job Status                                 I                1
Nuclear derivative order                   I                0
External E-field                           R   N=          35
  0.00000000E+00  0.00000000E+00  0.00000000E+00  0.00000000E+00  0.00000000E+00
  0.00000000E+00  0.00000000E+00  0.00000000E+00  0.00000000E+00  0.00000000E+00
  0.00000000E+00  0.00000000E+00  0.00000000E+00  0.00000000E+00  0.00000000E+00
  0.00000000E+00  0.00000000E+00  0.00000000E+00  0.00000000E+00  0.00000000E+00
  0.00000000E+00  0.00000000E+00  0.00000000E+00  0.00000000E+00  0.00000000E+00
  0.00000000E+00  0.00000000E+00  0.00000000E+00  0.00000000E+00  0.00000000E+00
  0.00000000E+00  0.00000000E+00  0.00000000E+00  0.00000000E+00  0.00000000E+00
IOpCl                                      I                0
IROHF                                      I                0
Alpha Orbital Energies                     R   N=         207
 -2.06910745E+01 -2.06844331E+01 -2.06594272E+01 -1.58129809E+01 -1.62419681E+00
 -1.49662577E+00 -1.25580068E+00 -9.48231242E-01 -7.73378986E-01 -7.59745341E-01
 -7.11960932E-01 -6.80446173E-01 -6.20668991E-01 -5.89768834E-01 -4.85467774E-01
 -4.72694736E-01  2.97598107E-02  7.15642399E-02  8.59131266E-02  1.01699453E-01
  1.33904255E-01  1.33938565E-01  1.44366659E-01  1.54799219E-01  1.78155844E-01
  1.94155087E-01  1.99783837E-01  2.06367640E-01  2.20790144E-01  2.35226935E-01
  2.37313273E-01  2.66217235E-01  2.93560548E-01  3.04204694E-01  3.10729820E-01
  3.43376285E-01  3.49351918E-01  3.87313343E-01  4.22836745E-01  4.32618573E-01
  5.27281846E-01  5.29152227E-01  5.58478102E-01  5.81537818E-01  6.25867154E-01
  6.38277296E-01  6.74372875E-01  6.85112031E-01  7.06362594E-01  7.11408278E-01
  7.24692790E-01  7.29428174E-01  7.44807041E-01  7.91364513E-01  7.92141931E-01
  8.10419631E-01  8.12631272E-01  8.30687768E-01  8.68129636E-01  9.08169994E-01
  9.22278252E-01  9.26423387E-01  9.57189893E-01  9.76681800E-01  9.85585089E-01
  1.01789869E+00  1.05166982E+00  1.05484049E+00  1.08300560E+00  1.11875057E+00
  1.14203180E+00  1.18925285E+00  1.22120884E+00  1.23403127E+00  1.33863655E+00
  1.35008052E+00  1.38612722E+00  1.45545179E+00  1.48975453E+00  1.51017022E+00
  1.53783924E+00  1.56696401E+00  1.57928905E+00  1.61407762E+00  1.66356358E+00
  1.66925992E+00  1.70334295E+00  1.79337659E+00  1.83150746E+00  1.83454648E+00
  1.87806371E+00  1.91087523E+00  1.95993123E+00  1.99241279E+00  2.00706680E+00
  2.07776851E+00  2.12182535E+00  2.13193099E+00  2.14982543E+00  2.22482423E+00
  2.26383438E+00  2.26512598E+00  2.28959123E+00  2.31505194E+00  2.34446252E+00
  2.38751168E+00  2.42448654E+00  2.42942650E+00  2.45411275E+00  2.46295159E+00
  2.47706098E+00  2.50179578E+00  2.58687150E+00  2.59687230E+00  2.62063321E+00
  2.62557114E+00  2.63436621E+00  2.66645500E+00  2.75752676E+00  2.82256692E+00
  2.85592789E+00  2.88460424E+00  2.89373626E+00  2.92480195E+00  2.95788560E+00
  3.02632936E+00  3.06860266E+00  3.12066558E+00  3.20448238E+00  3.22720795E+00
  3.31764964E+00  3.34235183E+00  3.51676524E+00  3.64621746E+00  3.83851639E+00
  3.85225286E+00  4.15504424E+00  4.16549121E+00  4.18539085E+00  4.25830747E+00
  4.35775006E+00  4.39476566E+00  4.46560808E+00  4.52181479E+00  4.66254545E+00
  4.71336920E+00  4.80597561E+00  4.82451228E+00  4.84091882E+00  4.89588923E+00
  5.02322366E+00  5.07752820E+00  5.10983102E+00  5.14889338E+00  5.18296921E+00
  5.25261919E+00  5.27445586E+00  5.30975185E+00  5.34667646E+00  5.35697401E+00
  5.61015157E+00  5.67362656E+00  5.77141776E+00  5.83282047E+00  5.95817345E+00
  6.16705945E+00  6.30890269E+00  6.33716131E+00  6.39616127E+00  6.49360163E+00
  6.50540186E+00  6.61487285E+00  6.66731353E+00  6.69964615E+00  6.75740072E+00
  6.76321908E+00  6.83285611E+00  6.89825555E+00  7.01773345E+00  7.05734607E+00
  7.05767099E+00  7.09087229E+00  7.12587903E+00  7.15125209E+00  7.18180347E+00
  7.22684221E+00  7.25395741E+00  7.31433791E+00  7.32537672E+00  7.34954052E+00
  7.39908215E+00  7.43274904E+00  7.48447905E+00  7.60847296E+00  7.61939836E+00
  7.62828619E+00  7.66802355E+00  7.79735765E+00  7.88702647E+00  8.09595979E+00
  8.31678702E+00  8.41820544E+00  8.54677880E+00  1.33930179E+01  1.44005576E+01
  1.52657096E+01  1.61523810E+01
Alpha MO coefficients                      R   N=       42849
  9.27559759E-05 -6.42073323E-04 -7.32030445E-04 -4.72176062E-06 -2.07307444E-05
 -2.63428807E-05  0.00000000E+00 -5.85766770E-05  5.29691425E-05  0.00000000E+00
  7.67942718E-05  3.34507814E-05  0.00000000E+00  3.20385851E-05  0.00000000E+00
  0.00000000E+00 -5.04572682E-05  2.25983464E-05 -6.44575419E-06  0.00000000E+00
  0.00000000E+00 -1.40246498E-04  1.26198959E-04  4.47279984E-03 -2.83676100E-04
  9.48199937E-06  1.55512974E-03  1.83257198E-03  1.06404324E-04  7.39149105E-06
  0.00000000E+00 -6.17255232E-04 -3.91637562E-05  0.00000000E+00 -1.08273757E-03
  7.98616954E-04  0.00000000E+00 -4.00216685E-04  6.97158378E-05  0.00000000E+00
  2.90872659E-05  0.00000000E+00  0.00000000E+00 -5.41613048E-05  5.37252370E-06
 -3.79002740E-04  0.00000000E+00  0.00000000E+00  7.42854471E-04 -2.88378380E-05
 -4.46811226E-04  0.00000000E+00  0.00000000E+00  2.41956857E-04 -9.10470048E-06
  0.00000000E+00  8.03095727E-05  1.28007142E-05  0.00000000E+00  0.00000000E+00
 -1.09478156E-04 -3.20033860E-06  0.00000000E+00  2.53783133E-04 -2.84011289E-05
  0.00000000E+00  0.00000000E+00 -3.56852469E-04  5.16772408E-05  9.76911643E-01
 -9.21673353E-03  4.33187552E-02  2.04220277E-03 -9.20933152E-04  1.49490266E-03
 -1.35479912E-03  0.00000000E+00 -1.43750094E-03  1.38351445E-03  0.00000000E+00
  8.19443865E-05 -1.16243711E-03  0.00000000E+00 -1.41512119E-04 -1.87851981E-05
  0.00000000E+00  4.62979786E-05  0.00000000E+00  0.00000000E+00 -3.52449307E-05
  2.15044048E-05  7.47590627E-04  0.00000000E+00  0.00000000E+00 -2.33876757E-04
 -3.89790553E-04 -3.59416620E-04  0.00000000E+00  0.00000000E+00 -3.13365906E-04
 -3.74493861E-04  0.00000000E+00  4.74589672E-05 -4.90318086E-05  0.00000000E+00
  0.00000000E+00 -3.90789801E-05 -1.57062536E-05  0.00000000E+00  2.38308430E-05
  2.23590174E-05  0.00000000E+00  0.00000000E+00 -3.05676764E-04 -1.40123935E-04
  3.90265589E-05  4.57475762E-05 -2.64256903E-04 -7.00216888E-04 -1.41745663E-04
 -2.68595147E-05 -9.74082668E-05  0.00000000E+00  2.67821374E-04  7.08660141E-04
  0.00000000E+00 -8.34615390E-04 -4.76743704E-04  0.00000000E+00 -1.22247713E-04
 -2.65653108E-05  0.00000000E+00 -1.81399676E-05  0.00000000E+00  0.00000000E+00
 -2.95860105E-05  1.50052827E-05 -3.28669653E-04  0.00000000E+00  0.00000000E+00
 -8.27594822E-04  1.27497275E-04 -3.70061048E-05  0.00000000E+00  0.00000000E+00
  9.73593366E-05 -1.16038493E-04  0.00000000E+00 -2.04574660E-05 -1.19940675E-04
  0.00000000E+00  0.00000000E+00 -6.26525226E-05 -1.38006504E-04  0.00000000E+00
  2.14383833E-06 -1.53097400E-04  0.00000000E+00  0.00000000E+00  4.37628854E-05
 -4.16649350E-04 -2.55291338E-03  1.22034928E-04 -1.22233854E-04 -2.46810890E-04
  1.31906882E-04 -7.82913891E-06 -2.76464075E-05  0.00000000E+00  6.86532170E-05
  1.63017645E-04  0.00000000E+00  2.31541810E-04  1.98859944E-04  0.00000000E+00
  1.25625022E-04  2.22101099E-05  0.00000000E+00 -3.31952343E-06  0.00000000E+00
  0.00000000E+00 -1.78770278E-05  1.27377511E-06  8.10413291E-07  0.00000000E+00
  0.00000000E+00  7.98156424E-05  8.71613780E-05 -9.98444270E-05  0.00000000E+00
  0.00000000E+00  1.66068472E-04  1.61046581E-04  0.00000000E+00  1.59220338E-05
 -3.52954228E-06  0.00000000E+00  0.00000000E+00 -4.36768752E-06 -1.19637320E-05
  0.00000000E+00 -3.36157282E-05  4.54077982E-05  0.00000000E+00  0.00000000E+00
  8.34100082E-05  8.98676300E-05  3.87518432E-05 -1.00508148E-03 -4.98921258E-04
 -1.11370481E-05 -2.23408952E-05  1.68478522E-05  0.00000000E+00 -1.18314092E-06
  2.74866376E-04  0.00000000E+00 -4.25172769E-05  1.35187612E-04  0.00000000E+00
  2.61604723E-05  0.00000000E+00  0.00000000E+00  1.21878145E-05  1.09363200E-05
 -2.82834178E-05  0.00000000E+00  0.00000000E+00  1.08723726E-05  3.58413523E-05
  1.09823710E-04  8.52380951E-05 -2.79442794E-05  7.68290054E-04  6.63927626E-04
  1.02333068E-05  2.49751005E-06  0.00000000E+00 -7.24810129E-05  1.76169333E-05
  0.00000000E+00  3.36147000E-04  9.10908430E-04  0.00000000E+00  2.96894533E-06
  8.27019401E-05  0.00000000E+00 -2.30515487E-06  0.00000000E+00  0.00000000E+00
 -2.64379397E-07 -6.07858610E-06 -3.61392791E-05  0.00000000E+00  0.00000000E+00
 -1.97175090E-05  8.42478848E-05 -2.35013304E-05  0.00000000E+00  0.00000000E+00
 -2.69099230E-04 -1.62676954E-04  0.00000000E+00  9.17585563E-06  5.98923356E-06
  0.00000000E+00  0.00000000E+00  2.61059844E-06 -1.86852248E-05  0.00000000E+00
 -4.04178459E-05 -3.81119691E-05  0.00000000E+00  0.00000000E+00 -7.70779023E-05
  2.03927191E-05  2.59188172E-03  3.93817033E-05  9.02733388E-05 -6.92695836E-05
 -4.69631552E-04  7.30530369E-06  1.58351874E-05  0.00000000E+00 -6.25161350E-05
 -5.56184214E-05  0.00000000E+00  2.34564258E-04 -1.89214971E-04  0.00000000E+00
 -1.88688521E-04 -6.49211780E-05  0.00000000E+00 -8.71500826E-06  0.00000000E+00
  0.00000000E+00  2.23990135E-05  1.98015306E-05  4.47226477E-06  0.00000000E+00
  0.00000000E+00 -1.17597034E-04 -4.66584788E-05 -4.16575248E-06  0.00000000E+00
  0.00000000E+00 -2.22642527E-04 -2.06915841E-04  0.00000000E+00  3.28440547E-06
 -5.37886271E-07  0.00000000E+00  0.00000000E+00  1.72141539E-06 -1.36137108E-05
  0.00000000E+00 -4.65206830E-05  3.48690712E-06  0.00000000E+00  0.00000000E+00
 -7.65435698E-05  1.87989562E-04  2.58697624E-04  1.46522223E-03 -7.79995627E-05
 -1.53922751E-03  3.95253991E-04 -1.44449053E-04  1.49476632E-07  0.00000000E+00
 -2.09001943E-03 -4.04131721E-04  0.00000000E+00  1.03896155E-03  7.62649868E-04
  0.00000000E+00 -1.71107263E-04  5.45969614E-05  0.00000000E+00 -1.23349524E-04
  0.00000000E+00  0.00000000E+00  2.43115252E-04  9.40711699E-05 -4.42350840E-04
  0.00000000E+00  0.00000000E+00  8.99082462E-04 -6.61731496E-05  1.16275011E-05
  0.00000000E+00  0.00000000E+00 -3.38306453E-04 -1.22963415E-04  0.00000000E+00
 -1.26852980E-06  1.52936746E-05  0.00000000E+00  0.00000000E+00  1.88477719E-05
  1.33186932E-05  0.00000000E+00  1.64568735E-04 -7.18394114E-05  0.00000000E+00
  0.00000000E+00 -2.40588741E-04  4.23223820E-05  9.76649396E-01 -9.84826303E-03
  4.35679951E-02  4.50117477E-03 -4.45554463E-04  2.14820697E-03  4.81070760E-04
  0.00000000E+00 -2.38416195E-03 -6.04026182E-04  0.00000000E+00  1.13909270E-03
 -3.37968598E-06  0.00000000E+00  4.88528842E-06 -4.19620804E-05  0.00000000E+00
 -2.32356791E-04  0.00000000E+00  0.00000000E+00  1.02744609E-04  3.18519638E-05
  3.90641407E-04  0.00000000E+00  0.00000000E+00 -8.34141507E-04 -4.19344524E-04
 -1.53542577E-04  0.00000000E+00  0.00000000E+00  2.55815586E-04  1.69805927E-05
  0.00000000E+00  5.22726069E-05  1.77047204E-05  0.00000000E+00  0.00000000E+00
 -2.21225060E-05 -1.32878307E-05  0.00000000E+00  1.38374622E-04  9.25836103E-06
  0.00000000E+00  0.00000000E+00 -1.89832014E-04 -1.40713764E-04  4.90104308E-04
  1.89720961E-03  1.24883711E-05  1.05084033E-05 -4.07208126E-05 -2.25120573E-04
  0.00000000E+00  1.19000113E-04 -1.19463514E-03  0.00000000E+00  3.14854541E-04
 -3.09554612E-04  0.00000000E+00  1.24088533E-05  0.00000000E+00  0.00000000E+00
  1.02739393E-04  1.23015119E-05 -1.55961559E-04  0.00000000E+00  0.00000000E+00
 -5.31309453E-04 -2.34205520E-05  9.76827430E-01 -9.14180002E-03  4.34571196E-02
  2.97393326E-04 -1.05311168E-03 -1.56138618E-03  1.44328284E-03  0.00000000E+00
  1.57944706E-03 -1.23427122E-03  0.00000000E+00 -5.43645421E-04 -7.70093675E-04
  0.00000000E+00  5.07735914E-05 -2.01884987E-05  0.00000000E+00  2.55475048E-05
  0.00000000E+00  0.00000000E+00 -1.24091792E-04 -2.18354470E-06  7.45915492E-04
  0.00000000E+00  0.00000000E+00 -2.24249149E-04 -2.28326529E-04 -2.74891455E-04
  0.00000000E+00  0.00000000E+00  1.47495572E-04  1.30809017E-04  0.00000000E+00
 -6.46461030E-05 -3.26268427E-06  0.00000000E+00  0.00000000E+00  1.66283994E-05
  3.65378273E-06  0.00000000E+00 -2.44930230E-06  1.23175371E-04  0.00000000E+00
  0.00000000E+00  2.56282490E-04  9.17979496E-05 -4.56589464E-03 -2.14603175E-04