title                                                                   
SP        RMP2-FC                                                     Aug-CC-pVTZ         
Number of atoms                            I                5
Info1-9                                    I   N=           9
          33          24           0           0           0         110
           1           2           1
Full Title                                 C   N=           1
title       
Route                                      C   N=           4
#p SP mp2/aug-cc-pvtz density=current           
Charge                                     I                0
Multiplicity                               I                1
Number of electrons                        I               32
Number of alpha electrons                  I               16
Number of beta electrons                   I               16
Number of basis functions                  I              207
Number of independent functions            I              207
Number of point charges in /Mol/           I                0
Number of translation vectors              I                0
Atomic numbers                             I   N=           5
           1           8           8           7           8
Nuclear charges                            R   N=           5
  1.00000000E+00  8.00000000E+00  8.00000000E+00  7.00000000E+00  8.00000000E+00
Current cartesian coordinates              R   N=          15
  2.93296555E+00  3.17927953E+00 -7.98997026E-33  2.74804417E+00  1.35754257E+00
 -3.20450541E-32 -1.30737076E-16  1.27123912E+00  1.17461201E-32 -5.02308461E-01
 -1.43931324E+00  2.75622820E-34 -2.67514496E+00 -1.76679255E+00  6.20848850E-33
Number of symbols in /Mol/                 I                0
Force Field                                I                0
Atom Types                                 C   N=           5
                                                            
Int Atom Types                             I   N=           5
           0           0           0           0           0
MM charges                                 R   N=           5
  0.00000000E+00  0.00000000E+00  0.00000000E+00  0.00000000E+00  0.00000000E+00
Integer atomic weights                     I   N=           5
           1          16          16          14          16
Real atomic weights                        R   N=           5
  1.00782504E+00  1.59949146E+01  1.59949146E+01  1.40030740E+01  1.59949146E+01
Atom fragment info                         I   N=           5
           0           0           0           0           0
Atom residue num                           I   N=           5
           0           0           0           0           0
Nuclear spins                              I   N=           5
           1           0           0           2           0
Nuclear ZEff                               R   N=           5
 -1.00000000E+00 -5.60000000E+00 -5.60000000E+00 -4.55000000E+00 -5.60000000E+00
Nuclear ZNuc                               R   N=           5
  1.00000000E+00  8.00000000E+00  8.00000000E+00  7.00000000E+00  8.00000000E+00
Nuclear QMom                               R   N=           5
  0.00000000E+00  0.00000000E+00  0.00000000E+00  2.04400000E+00  0.00000000E+00
Nuclear GFac                               R   N=           5
  2.79284600E+00  0.00000000E+00  0.00000000E+00  4.03761000E-01  0.00000000E+00
MicOpt                                     I   N=           5
          -1          -1          -1          -1          -1
Number of residues                         I                0
Number of secondary structures             I                0
SymInf integers                            I   N=          26
           1           2           1           1           1           1
           1          -1           0           0           0           0
           0           0           0           0           0           0
           0           0           0           0           0           0
           0           0
RotTr to input orientation                 R   N=          12
 -9.94887510E-01 -9.85686340E-17 -1.00989320E-01  1.00989320E-01 -7.26761461E-17
 -9.94887510E-01  9.07251883E-17 -1.00000000E+00  8.22589694E-17  2.59689752E+00
  0.00000000E+00  3.45922369E+00
Number of contracted shells                I               65
Number of primitive shells                 I              119
Pure/Cartesian d shells                    I                0
Pure/Cartesian f shells                    I                0
Highest angular momentum                   I                3
Largest degree of contraction              I                7
Shell types                                I   N=          65
           0           0           0           0           1           1
           1          -2          -2           0           0           0
           0           0           1           1           1           1
          -2          -2          -2          -3          -3           0
           0           0           0           0           1           1
           1           1          -2          -2          -2          -3
          -3           0           0           0           0           0
           1           1           1           1          -2          -2
          -2          -3          -3           0           0           0
           0           0           1           1           1           1
          -2          -2          -2          -3          -3
Number of primitives per shell             I   N=          65
           3           1           1           1           1           1
           1           1           1           7           6           1
           1           1           3           1           1           1
           1           1           1           1           1           7
           6           1           1           1           3           1
           1           1           1           1           1           1
           1           7           6           1           1           1
           3           1           1           1           1           1
           1           1           1           7           6           1
           1           1           3           1           1           1
           1           1           1           1           1
Shell to atom map                          I   N=          65
           1           1           1           1           1           1
           1           1           1           2           2           2
           2           2           2           2           2           2
           2           2           2           2           2           3
           3           3           3           3           3           3
           3           3           3           3           3           3
           3           4           4           4           4           4
           4           4           4           4           4           4
           4           4           4           5           5           5
           5           5           5           5           5           5
           5           5           5           5           5
Primitive exponents                        R   N=         119
  3.38700000E+01  5.09500000E+00  1.15900000E+00  3.25800000E-01  1.02700000E-01
  2.52600000E-02  1.40700000E+00  3.88000000E-01  1.02000000E-01  1.05700000E+00
  2.47000000E-01  1.53300000E+04  2.29900000E+03  5.22400000E+02  1.47300000E+02
  4.75500000E+01  1.67600000E+01  6.20700000E+00  5.22400000E+02  1.47300000E+02
  4.75500000E+01  1.67600000E+01  6.20700000E+00  6.88200000E-01  1.75200000E+00
  2.38400000E-01  7.37600000E-02  3.44600000E+01  7.74900000E+00  2.28000000E+00
  7.15600000E-01  2.14000000E-01  5.97400000E-02  2.31400000E+00  6.45000000E-01
  2.14000000E-01  1.42800000E+00  5.00000000E-01  1.53300000E+04  2.29900000E+03
  5.22400000E+02  1.47300000E+02  4.75500000E+01  1.67600000E+01  6.20700000E+00
  5.22400000E+02  1.47300000E+02  4.75500000E+01  1.67600000E+01  6.20700000E+00
  6.88200000E-01  1.75200000E+00  2.38400000E-01  7.37600000E-02  3.44600000E+01
  7.74900000E+00  2.28000000E+00  7.15600000E-01  2.14000000E-01  5.97400000E-02
  2.31400000E+00  6.45000000E-01  2.14000000E-01  1.42800000E+00  5.00000000E-01
  1.14200000E+04  1.71200000E+03  3.89300000E+02  1.10000000E+02  3.55700000E+01
  1.25400000E+01  4.64400000E+00  3.89300000E+02  1.10000000E+02  3.55700000E+01
  1.25400000E+01  4.64400000E+00  5.11800000E-01  1.29300000E+00  1.78700000E-01
  5.76000000E-02  2.66300000E+01  5.94800000E+00  1.74200000E+00  5.55000000E-01
  1.72500000E-01  4.91000000E-02  1.65400000E+00  4.69000000E-01  1.51000000E-01
  1.09300000E+00  3.64000000E-01  1.53300000E+04  2.29900000E+03  5.22400000E+02
  1.47300000E+02  4.75500000E+01  1.67600000E+01  6.20700000E+00  5.22400000E+02
  1.47300000E+02  4.75500000E+01  1.67600000E+01  6.20700000E+00  6.88200000E-01
  1.75200000E+00  2.38400000E-01  7.37600000E-02  3.44600000E+01  7.74900000E+00
  2.28000000E+00  7.15600000E-01  2.14000000E-01  5.97400000E-02  2.31400000E+00
  6.45000000E-01  2.14000000E-01  1.42800000E+00  5.00000000E-01
Contraction coefficients                   R   N=         119
  2.54948632E-02  1.90362766E-01  8.52162022E-01  1.00000000E+00  1.00000000E+00
  1.00000000E+00  1.00000000E+00  1.00000000E+00  1.00000000E+00  1.00000000E+00
  1.00000000E+00  5.19808943E-04  4.02025621E-03  2.07128267E-02  8.10105536E-02
  2.35962985E-01  4.42653446E-01  3.57064423E-01 -4.42115008E-05 -1.22591041E-03
 -1.05517725E-02 -6.74452633E-02 -1.71198607E-01  1.07329856E+00  1.00000000E+00
  1.00000000E+00  1.00000000E+00  4.11634896E-02  2.57762836E-01  8.02419274E-01
  1.00000000E+00  1.00000000E+00  1.00000000E+00  1.00000000E+00  1.00000000E+00
  1.00000000E+00  1.00000000E+00  1.00000000E+00  5.19808943E-04  4.02025621E-03
  2.07128267E-02  8.10105536E-02  2.35962985E-01  4.42653446E-01  3.57064423E-01
 -4.42115008E-05 -1.22591041E-03 -1.05517725E-02 -6.74452633E-02 -1.71198607E-01
  1.07329856E+00  1.00000000E+00  1.00000000E+00  1.00000000E+00  4.11634896E-02
  2.57762836E-01  8.02419274E-01  1.00000000E+00  1.00000000E+00  1.00000000E+00
  1.00000000E+00  1.00000000E+00  1.00000000E+00  1.00000000E+00  1.00000000E+00
  5.34563860E-04  4.13435660E-03  2.12335358E-02  8.25006224E-02  2.38138871E-01
  4.42551547E-01  3.53757422E-01 -4.89867350E-05 -1.19527323E-03 -1.03490714E-02
 -6.48680190E-02 -1.71552477E-01  1.07289568E+00  1.00000000E+00  1.00000000E+00
  1.00000000E+00  3.98072123E-02  2.49002660E-01  8.10479727E-01  1.00000000E+00
  1.00000000E+00  1.00000000E+00  1.00000000E+00  1.00000000E+00  1.00000000E+00
  1.00000000E+00  1.00000000E+00  5.19808943E-04  4.02025621E-03  2.07128267E-02
  8.10105536E-02  2.35962985E-01  4.42653446E-01  3.57064423E-01 -4.42115008E-05
 -1.22591041E-03 -1.05517725E-02 -6.74452633E-02 -1.71198607E-01  1.07329856E+00
  1.00000000E+00  1.00000000E+00  1.00000000E+00  4.11634896E-02  2.57762836E-01
  8.02419274E-01  1.00000000E+00  1.00000000E+00  1.00000000E+00  1.00000000E+00
  1.00000000E+00  1.00000000E+00  1.00000000E+00  1.00000000E+00
Coordinates of each shell                  R   N=         195
  2.93296555E+00  3.17927953E+00  0.00000000E+00  2.93296555E+00  3.17927953E+00
  0.00000000E+00  2.93296555E+00  3.17927953E+00  0.00000000E+00  2.93296555E+00
  3.17927953E+00  0.00000000E+00  2.93296555E+00  3.17927953E+00  0.00000000E+00
  2.93296555E+00  3.17927953E+00  0.00000000E+00  2.93296555E+00  3.17927953E+00
  0.00000000E+00  2.93296555E+00  3.17927953E+00  0.00000000E+00  2.93296555E+00
  3.17927953E+00  0.00000000E+00  2.74804417E+00  1.35754257E+00  0.00000000E+00
  2.74804417E+00  1.35754257E+00  0.00000000E+00  2.74804417E+00  1.35754257E+00
  0.00000000E+00  2.74804417E+00  1.35754257E+00  0.00000000E+00  2.74804417E+00
  1.35754257E+00  0.00000000E+00  2.74804417E+00  1.35754257E+00  0.00000000E+00
  2.74804417E+00  1.35754257E+00  0.00000000E+00  2.74804417E+00  1.35754257E+00
  0.00000000E+00  2.74804417E+00  1.35754257E+00  0.00000000E+00  2.74804417E+00
  1.35754257E+00  0.00000000E+00  2.74804417E+00  1.35754257E+00  0.00000000E+00
  2.74804417E+00  1.35754257E+00  0.00000000E+00  2.74804417E+00  1.35754257E+00
  0.00000000E+00  2.74804417E+00  1.35754257E+00  0.00000000E+00  2.38531251E-19
  1.27123912E+00  0.00000000E+00  2.38531251E-19  1.27123912E+00  0.00000000E+00
  2.38531251E-19  1.27123912E+00  0.00000000E+00  2.38531251E-19  1.27123912E+00
  0.00000000E+00  2.38531251E-19  1.27123912E+00  0.00000000E+00  2.38531251E-19
  1.27123912E+00  0.00000000E+00  2.38531251E-19  1.27123912E+00  0.00000000E+00
  2.38531251E-19  1.27123912E+00  0.00000000E+00  2.38531251E-19  1.27123912E+00
  0.00000000E+00  2.38531251E-19  1.27123912E+00  0.00000000E+00  2.38531251E-19
  1.27123912E+00  0.00000000E+00  2.38531251E-19  1.27123912E+00  0.00000000E+00
  2.38531251E-19  1.27123912E+00  0.00000000E+00  2.38531251E-19  1.27123912E+00
  0.00000000E+00 -5.02308461E-01 -1.43931324E+00  0.00000000E+00 -5.02308461E-01
 -1.43931324E+00  0.00000000E+00 -5.02308461E-01 -1.43931324E+00  0.00000000E+00
 -5.02308461E-01 -1.43931324E+00  0.00000000E+00 -5.02308461E-01 -1.43931324E+00
  0.00000000E+00 -5.02308461E-01 -1.43931324E+00  0.00000000E+00 -5.02308461E-01
 -1.43931324E+00  0.00000000E+00 -5.02308461E-01 -1.43931324E+00  0.00000000E+00
 -5.02308461E-01 -1.43931324E+00  0.00000000E+00 -5.02308461E-01 -1.43931324E+00
  0.00000000E+00 -5.02308461E-01 -1.43931324E+00  0.00000000E+00 -5.02308461E-01
 -1.43931324E+00  0.00000000E+00 -5.02308461E-01 -1.43931324E+00  0.00000000E+00
 -5.02308461E-01 -1.43931324E+00  0.00000000E+00 -2.67514496E+00 -1.76679255E+00
  0.00000000E+00 -2.67514496E+00 -1.76679255E+00  0.00000000E+00 -2.67514496E+00
 -1.76679255E+00  0.00000000E+00 -2.67514496E+00 -1.76679255E+00  0.00000000E+00
 -2.67514496E+00 -1.76679255E+00  0.00000000E+00 -2.67514496E+00 -1.76679255E+00
  0.00000000E+00 -2.67514496E+00 -1.76679255E+00  0.00000000E+00 -2.67514496E+00
 -1.76679255E+00  0.00000000E+00 -2.67514496E+00 -1.76679255E+00  0.00000000E+00
 -2.67514496E+00 -1.76679255E+00  0.00000000E+00 -2.67514496E+00 -1.76679255E+00
  0.00000000E+00 -2.67514496E+00 -1.76679255E+00  0.00000000E+00 -2.67514496E+00
 -1.76679255E+00  0.00000000E+00 -2.67514496E+00 -1.76679255E+00  0.00000000E+00
Num ILSW                                   I              100
ILSW                                       I   N=         100
           0           0           0           0           2           0
           0           0           0           0           0          -1
           5           0           0           0           0           0
           0           0           0           0           0           0
           1           0           0           0           0           0
           0           0      100000           0          -1           0
           0           0           0           0           0           0
           0           0           0           1           0           0
           0 -2000000000           1           0           0           0
           0           0           4          52           0           0
           0           0           0           0           0           0
           0           0           0           5           0           1
           0           0           0           0           0           0
           0           0           0           0           0           0
           0           0           0           0           0           0
           0           0           0           0           0           0
           0           0           0           0
Num RLSW                                   I               52
RLSW                                       R   N=          52
  1.00000000E+00  1.00000000E+00  1.00000000E+00  1.00000000E+00  1.00000000E+00
  0.00000000E+00  0.00000000E+00  1.00000000E+00  0.00000000E+00  0.00000000E+00
  0.00000000E+00  0.00000000E+00  1.00000000E+00  0.00000000E+00  0.00000000E+00
  0.00000000E+00  0.00000000E+00  1.00000000E+00  0.00000000E+00  0.00000000E+00
  0.00000000E+00  0.00000000E+00  1.00000000E+00  0.00000000E+00  0.00000000E+00
  0.00000000E+00  0.00000000E+00  1.00000000E+00  0.00000000E+00  0.00000000E+00
  0.00000000E+00  0.00000000E+00  1.00000000E+00  0.00000000E+00  0.00000000E+00
  0.00000000E+00  0.00000000E+00  0.00000000E+00  1.00000000E+00  1.00000000E+00
  0.00000000E+00  1.00000000E+00  0.00000000E+00  0.00000000E+00  0.00000000E+00
  0.00000000E+00  0.00000000E+00  0.00000000E+00  0.00000000E+00  0.00000000E+00
  0.00000000E+00  0.00000000E+00
MxBond                                     I                2
NBond                                      I   N=           5
           1           2           2           2           1
IBond                                      I   N=          10
           2           0           1           3           2           4
           3           5           4           0
RBond                                      R   N=          10
  1.00000000E+00  0.00000000E+00  1.00000000E+00  1.00000000E+00  1.00000000E+00
  1.00000000E+00  1.00000000E+00  2.00000000E+00  2.00000000E+00  0.00000000E+00
Virial Ratio                               R      2.002216657928797E+00
SCF Energy                                 R     -2.795029381083792E+02
MP2 Energy                                 R     -2.804466359626971E+02
Total Energy                               R     -2.804466359626971E+02
Post-SCF wavefunction norm                 R      1.119671641308225E+00
RMS Density                                R      3.581005023092188E-09
Job Status                                 I                1
Nuclear derivative order                   I                0
External E-field                           R   N=          35
  0.00000000E+00  0.00000000E+00  0.00000000E+00  0.00000000E+00  0.00000000E+00
  0.00000000E+00  0.00000000E+00  0.00000000E+00  0.00000000E+00  0.00000000E+00
  0.00000000E+00  0.00000000E+00  0.00000000E+00  0.00000000E+00  0.00000000E+00
  0.00000000E+00  0.00000000E+00  0.00000000E+00  0.00000000E+00  0.00000000E+00
  0.00000000E+00  0.00000000E+00  0.00000000E+00  0.00000000E+00  0.00000000E+00
  0.00000000E+00  0.00000000E+00  0.00000000E+00  0.00000000E+00  0.00000000E+00
  0.00000000E+00  0.00000000E+00  0.00000000E+00  0.00000000E+00  0.00000000E+00
IOpCl                                      I                0
IROHF                                      I                0
Alpha Orbital Energies                     R   N=         207
 -2.06890124E+01 -2.06846306E+01 -2.06589612E+01 -1.58116770E+01 -1.63056612E+00
 -1.49579987E+00 -1.25360574E+00 -9.46991880E-01 -7.73754744E-01 -7.61291431E-01
 -7.13497933E-01 -6.80292014E-01 -6.22008709E-01 -5.88899618E-01 -4.84545540E-01
 -4.70942256E-01  2.98438416E-02  7.41209400E-02  8.58087193E-02  1.01717192E-01
  1.33806114E-01  1.34059620E-01  1.44249226E-01  1.54726276E-01  1.78403350E-01
  1.94081254E-01  2.00105373E-01  2.06373095E-01  2.21073774E-01  2.36103657E-01
  2.37437038E-01  2.66139785E-01  2.94240926E-01  3.04200089E-01  3.10834354E-01
  3.43346584E-01  3.50010358E-01  3.87529872E-01  4.22377673E-01  4.31756896E-01
  5.27176440E-01  5.30298570E-01  5.58936908E-01  5.81824464E-01  6.30180123E-01
  6.38011839E-01  6.72008844E-01  6.85084864E-01  7.06475705E-01  7.11356113E-01
  7.24386717E-01  7.29880963E-01  7.44659135E-01  7.91985052E-01  7.92551038E-01
  8.10054979E-01  8.13441941E-01  8.32709698E-01  8.68901364E-01  9.09038101E-01
  9.22688691E-01  9.27055607E-01  9.57041644E-01  9.79236553E-01  9.85321010E-01
  1.01685890E+00  1.05252474E+00  1.05554798E+00  1.08405966E+00  1.11877293E+00
  1.14196457E+00  1.18999354E+00  1.22191107E+00  1.23385948E+00  1.33944868E+00
  1.35098154E+00  1.38752724E+00  1.45391875E+00  1.48819950E+00  1.50998622E+00
  1.53825097E+00  1.56691163E+00  1.57955636E+00  1.61386050E+00  1.66602067E+00
  1.67009035E+00  1.70301346E+00  1.79356547E+00  1.83058379E+00  1.83498596E+00
  1.88046066E+00  1.90990725E+00  1.95407209E+00  1.99425061E+00  2.00571141E+00
  2.07814958E+00  2.12123906E+00  2.13283277E+00  2.15078304E+00  2.22487411E+00
  2.26515252E+00  2.26551218E+00  2.29032553E+00  2.31530731E+00  2.34661281E+00
  2.38686648E+00  2.42626313E+00  2.43075784E+00  2.45440344E+00  2.46389234E+00
  2.47799129E+00  2.50282907E+00  2.59062662E+00  2.59828841E+00  2.62246074E+00
  2.62792806E+00  2.63571428E+00  2.67008238E+00  2.76064624E+00  2.82843325E+00
  2.85881569E+00  2.88810028E+00  2.89624022E+00  2.92720902E+00  2.96008679E+00
  3.02696615E+00  3.06689788E+00  3.12435342E+00  3.20541246E+00  3.22884163E+00
  3.31825286E+00  3.34293529E+00  3.52051672E+00  3.64412279E+00  3.83948792E+00
  3.84692026E+00  4.14971689E+00  4.16427408E+00  4.18511258E+00  4.27665758E+00
  4.35264295E+00  4.39453474E+00  4.46549124E+00  4.52093915E+00  4.67173343E+00
  4.71213961E+00  4.80906076E+00  4.82645467E+00  4.83113289E+00  4.89537580E+00
  5.02202483E+00  5.07825558E+00  5.10663499E+00  5.14040049E+00  5.18152718E+00
  5.24549721E+00  5.27287222E+00  5.30730301E+00  5.33097221E+00  5.36333805E+00
  5.60798124E+00  5.68695830E+00  5.77734675E+00  5.83259425E+00  5.95519891E+00
  6.17075454E+00  6.31030452E+00  6.33914857E+00  6.39560895E+00  6.49362657E+00
  6.50554084E+00  6.61494550E+00  6.66907742E+00  6.70284237E+00  6.75910068E+00
  6.76486972E+00  6.83758847E+00  6.90128004E+00  7.01620387E+00  7.05844313E+00
  7.05884468E+00  7.09133846E+00  7.12845722E+00  7.15190666E+00  7.18274228E+00
  7.23094689E+00  7.24350909E+00  7.31122847E+00  7.34028131E+00  7.35331964E+00
  7.40769569E+00  7.43291572E+00  7.48559175E+00  7.60974965E+00  7.63022138E+00
  7.63785972E+00  7.66825762E+00  7.79614536E+00  7.90007852E+00  8.09654203E+00
  8.31799582E+00  8.41020898E+00  8.54627165E+00  1.34057476E+01  1.44570567E+01
  1.51655541E+01  1.63989784E+01
Alpha MO coefficients                      R   N=       42849
  9.22733639E-05 -6.30794909E-04 -7.28449302E-04 -3.93340660E-06 -2.14090887E-05
 -2.72542053E-05  0.00000000E+00 -4.32035359E-05  5.88797050E-05  0.00000000E+00
  8.85413113E-05  3.69810180E-05  0.00000000E+00  3.19243241E-05  0.00000000E+00
  0.00000000E+00 -4.98118105E-05  2.10707952E-05 -4.30408957E-06  0.00000000E+00
  0.00000000E+00 -1.38634375E-04  1.17883277E-04  4.71231247E-03 -2.82933091E-04
  2.02482757E-05  1.54806487E-03  1.82558382E-03  1.06202802E-04  7.40390633E-06
  0.00000000E+00 -6.17210935E-04 -3.44376344E-05  0.00000000E+00 -1.10131848E-03
  7.86171733E-04  0.00000000E+00 -4.04214568E-04  6.26461653E-05  0.00000000E+00
  2.88638347E-05  0.00000000E+00  0.00000000E+00 -5.42535431E-05  6.22016747E-06
 -3.78222139E-04  0.00000000E+00  0.00000000E+00  7.41246339E-04 -3.70567266E-05
 -4.46855729E-04  0.00000000E+00  0.00000000E+00  2.44739898E-04 -1.33931851E-05
  0.00000000E+00  8.01457764E-05  1.24771619E-05  0.00000000E+00  0.00000000E+00
 -1.09723729E-04 -2.34121341E-06  0.00000000E+00  2.55372811E-04 -2.80044223E-05
  0.00000000E+00  0.00000000E+00 -3.52780947E-04  5.33650179E-05  9.76903552E-01
 -9.21784210E-03  4.33217052E-02  2.06263860E-03 -9.09086473E-04  1.49152959E-03
 -1.34716540E-03  0.00000000E+00 -1.43465636E-03  1.37566329E-03  0.00000000E+00
  8.17125114E-05 -1.16212195E-03  0.00000000E+00 -1.33772578E-04 -1.22743505E-05
  0.00000000E+00  4.60641026E-05  0.00000000E+00  0.00000000E+00 -3.56673560E-05
  2.20228802E-05  7.45509265E-04  0.00000000E+00  0.00000000E+00 -2.39185355E-04
 -3.87753117E-04 -3.59728214E-04  0.00000000E+00  0.00000000E+00 -3.12621227E-04
 -3.70551633E-04  0.00000000E+00  4.74517179E-05 -4.86033480E-05  0.00000000E+00
  0.00000000E+00 -3.90034121E-05 -1.51377911E-05  0.00000000E+00  2.33353348E-05
  2.15812275E-05  0.00000000E+00  0.00000000E+00 -3.06575418E-04 -1.36241044E-04
  3.77604467E-05  3.84023735E-05 -2.64201512E-04 -7.25866027E-04 -1.59583250E-04
 -2.66103006E-05 -9.65019985E-05  0.00000000E+00  2.77237998E-04  7.05592564E-04
  0.00000000E+00 -8.46430735E-04 -4.99008507E-04  0.00000000E+00 -1.26547368E-04
 -3.09018113E-05  0.00000000E+00 -1.79913629E-05  0.00000000E+00  0.00000000E+00
 -3.03286678E-05  1.52481174E-05 -3.25933911E-04  0.00000000E+00  0.00000000E+00
 -8.24612344E-04  1.30228354E-04 -3.37709994E-05  0.00000000E+00  0.00000000E+00
  1.01402595E-04 -1.17388616E-04  0.00000000E+00 -2.06430178E-05 -1.19613943E-04
  0.00000000E+00  0.00000000E+00 -6.33551027E-05 -1.36106802E-04  0.00000000E+00
  3.27290932E-06 -1.50909125E-04  0.00000000E+00  0.00000000E+00  4.29679269E-05
 -4.17326473E-04 -3.92296970E-03  1.35788930E-04 -1.82721750E-04 -2.47241229E-04
  1.48033581E-04 -1.11777673E-05 -2.80480965E-05  0.00000000E+00  7.39266265E-05
  1.64047361E-04  0.00000000E+00  2.44944954E-04  2.07636127E-04  0.00000000E+00
  1.30050622E-04  2.60308590E-05  0.00000000E+00 -2.87569040E-06  0.00000000E+00
  0.00000000E+00 -1.85467589E-05  1.52115017E-06  5.40787670E-07  0.00000000E+00
  0.00000000E+00  8.47178481E-05  8.56981050E-05 -1.02721217E-04  0.00000000E+00
  0.00000000E+00  1.69744580E-04  1.65242343E-04  0.00000000E+00  1.57704936E-05
 -3.12870739E-06  0.00000000E+00  0.00000000E+00 -3.47304194E-06 -1.22293224E-05
  0.00000000E+00 -3.39994861E-05  4.55736961E-05  0.00000000E+00  0.00000000E+00
  8.47088456E-05  8.90874304E-05  4.00237784E-05 -9.83060520E-04 -4.76104800E-04
 -8.99974255E-06 -2.18720153E-05  1.55072272E-05  0.00000000E+00  2.89180036E-06
  2.71844523E-04  0.00000000E+00 -3.92586692E-05  1.30711906E-04  0.00000000E+00
  2.59522418E-05  0.00000000E+00  0.00000000E+00  1.20910647E-05  1.04383760E-05
 -2.76884023E-05  0.00000000E+00  0.00000000E+00  1.18567715E-05  3.34737357E-05
  1.14910490E-04  8.40382406E-05 -2.82953277E-05  7.54770538E-04  6.46104609E-04
  1.08809916E-05  2.22448495E-06  0.00000000E+00 -7.67780959E-05  1.67998765E-05
  0.00000000E+00  3.23443240E-04  9.02928164E-04  0.00000000E+00  1.08272327E-07
  7.68810438E-05  0.00000000E+00 -2.33733474E-06  0.00000000E+00  0.00000000E+00
 -4.94378163E-07 -5.64139584E-06 -3.63210906E-05  0.00000000E+00  0.00000000E+00
 -1.46796973E-05  8.02225847E-05 -2.55879485E-05  0.00000000E+00  0.00000000E+00
 -2.65810362E-04 -1.66734700E-04  0.00000000E+00  9.18584696E-06  5.79234648E-06
  0.00000000E+00  0.00000000E+00  1.83992977E-06 -1.82748028E-05  0.00000000E+00
 -3.86369770E-05 -3.73305161E-05  0.00000000E+00  0.00000000E+00 -7.67499189E-05
  2.15805093E-05  3.96207179E-03  2.54984821E-05  1.52163775E-04 -7.13471850E-05
 -4.62465579E-04  8.60629055E-06  1.39991525E-05  0.00000000E+00 -6.11104487E-05
 -5.15963655E-05  0.00000000E+00  2.41925788E-04 -2.10563188E-04  0.00000000E+00
 -1.82719632E-04 -6.35793283E-05  0.00000000E+00 -8.65304672E-06  0.00000000E+00
  0.00000000E+00  2.33968764E-05  2.13372529E-05  6.54167820E-06  0.00000000E+00
  0.00000000E+00 -1.23367762E-04 -5.68437121E-05 -5.71805985E-06  0.00000000E+00
  0.00000000E+00 -2.29276812E-04 -2.23049885E-04  0.00000000E+00  3.00835553E-06
 -9.75889849E-07  0.00000000E+00  0.00000000E+00  1.47142712E-06 -1.18356596E-05
  0.00000000E+00 -4.62869679E-05  6.14847141E-06  0.00000000E+00  0.00000000E+00
 -8.40314852E-05  1.87102059E-04  2.60347918E-04  1.47527847E-03 -4.25977121E-05
 -1.71652905E-03  3.49667822E-04 -1.64830490E-04 -3.13034706E-06  0.00000000E+00
 -2.05927731E-03 -3.86211674E-04  0.00000000E+00  1.12651141E-03  7.64785954E-04
  0.00000000E+00 -1.62540764E-04  5.62697042E-05  0.00000000E+00 -1.20853719E-04
  0.00000000E+00  0.00000000E+00  2.40748701E-04  9.28787147E-05 -4.18961187E-04
  0.00000000E+00  0.00000000E+00  8.53698911E-04 -9.76793678E-05  2.38166754E-05
  0.00000000E+00  0.00000000E+00 -3.63164483E-04 -1.31392326E-04  0.00000000E+00
 -1.44031449E-05  1.26320656E-05  0.00000000E+00  0.00000000E+00  3.45860883E-05
  2.16869268E-05  0.00000000E+00  1.60799946E-04 -7.17650355E-05  0.00000000E+00
  0.00000000E+00 -2.21311338E-04  4.03125047E-05  9.76631618E-01 -9.83591105E-03
  4.35905117E-02  4.66526916E-03 -3.87578232E-04  2.15731814E-03  4.76542323E-04
  0.00000000E+00 -2.34617061E-03 -5.93205982E-04  0.00000000E+00  1.17706052E-03
  4.04082162E-06  0.00000000E+00  1.08189684E-05 -4.00363354E-05  0.00000000E+00
 -2.38117384E-04  0.00000000E+00  0.00000000E+00  1.12757753E-04  3.45537825E-05
  3.84772664E-04  0.00000000E+00  0.00000000E+00 -8.21509106E-04 -4.11628093E-04
 -1.46639233E-04  0.00000000E+00  0.00000000E+00  2.46737722E-04  1.58222882E-05
  0.00000000E+00  4.75376874E-05  1.70297945E-05  0.00000000E+00  0.00000000E+00
 -1.63284332E-05 -1.06823520E-05  0.00000000E+00  1.43324534E-04  9.72849809E-06
  0.00000000E+00  0.00000000E+00 -1.92791564E-04 -1.40859142E-04  4.74877398E-04
  2.06356347E-03  1.17395753E-04  1.45746489E-05 -4.17999164E-05 -2.46752614E-04
  0.00000000E+00  1.07361633E-04 -1.27604554E-03  0.00000000E+00  3.08306000E-04
 -3.40268599E-04  0.00000000E+00 -2.65722858E-06  0.00000000E+00  0.00000000E+00
  7.60513567E-05  1.48893996E-05 -1.60204419E-04  0.00000000E+00  0.00000000E+00
 -5.37303255E-04 -2.02306493E-05  9.76829239E-01 -9.16312878E-03  4.34500944E-02
  1.64668850E-04 -1.14020376E-03 -1.55634149E-03  1.44693933E-03  0.00000000E+00
  1.56933552E-03 -1.28974179E-03  0.00000000E+00 -5.73205472E-04 -8.67369944E-04
  0.00000000E+00  5.62861066E-05 -2.97140946E-05  0.00000000E+00  2.93722130E-05
  0.00000000E+00  0.00000000E+00 -1.17907777E-04 -2.06421224E-06  7.57319013E-04
  0.00000000E+00  0.00000000E+00 -2.02802255E-04 -2.34186425E-04 -2.65981818E-04
  0.00000000E+00  0.00000000E+00  1.70027328E-04  1.27307865E-04  0.00000000E+00
 -6.40696348E-05  1.42802096E-06  0.00000000E+00  0.00000000E+00  1.88725177E-05
  9.71273914E-06  0.00000000E+00 -8.14005983E-07  1.22988297E-04  0.00000000E+00
  0.00000000E+00  2.58118426E-04  8.94017407E-05 -4.80468173E-03 -2.10099711E-04