title                                                                   
SP        RMP2-FC                                                     Aug-CC-pVTZ         
Number of atoms                            I                5
Info1-9                                    I   N=           9
          33          24           0           0           0         110
           1           2           1
Full Title                                 C   N=           1
title       
Route                                      C   N=           4
#p SP mp2/aug-cc-pvtz density=current           
Charge                                     I                0
Multiplicity                               I                1
Number of electrons                        I               32
Number of alpha electrons                  I               16
Number of beta electrons                   I               16
Number of basis functions                  I              207
Number of independent functions            I              207
Number of point charges in /Mol/           I                0
Number of translation vectors              I                0
Atomic numbers                             I   N=           5
           1           8           8           7           8
Nuclear charges                            R   N=           5
  1.00000000E+00  8.00000000E+00  8.00000000E+00  7.00000000E+00  8.00000000E+00
Current cartesian coordinates              R   N=          15
  2.92507076E+00  3.18128710E+00 -2.92124373E-32  2.74766483E+00  1.35880292E+00
  6.60351705E-33  5.55166140E-18  1.26116570E+00 -1.44291027E-32 -4.91124325E-01
 -1.45143540E+00  2.09862454E-32 -2.68356489E+00 -1.74762353E+00  1.71720115E-34
Number of symbols in /Mol/                 I                0
Force Field                                I                0
Atom Types                                 C   N=           5
                                                            
Int Atom Types                             I   N=           5
           0           0           0           0           0
MM charges                                 R   N=           5
  0.00000000E+00  0.00000000E+00  0.00000000E+00  0.00000000E+00  0.00000000E+00
Integer atomic weights                     I   N=           5
           1          16          16          14          16
Real atomic weights                        R   N=           5
  1.00782504E+00  1.59949146E+01  1.59949146E+01  1.40030740E+01  1.59949146E+01
Atom fragment info                         I   N=           5
           0           0           0           0           0
Atom residue num                           I   N=           5
           0           0           0           0           0
Nuclear spins                              I   N=           5
           1           0           0           2           0
Nuclear ZEff                               R   N=           5
 -1.00000000E+00 -5.60000000E+00 -5.60000000E+00 -4.55000000E+00 -5.60000000E+00
Nuclear ZNuc                               R   N=           5
  1.00000000E+00  8.00000000E+00  8.00000000E+00  7.00000000E+00  8.00000000E+00
Nuclear QMom                               R   N=           5
  0.00000000E+00  0.00000000E+00  0.00000000E+00  2.04400000E+00  0.00000000E+00
Nuclear GFac                               R   N=           5
  2.79284600E+00  0.00000000E+00  0.00000000E+00  4.03761000E-01  0.00000000E+00
MicOpt                                     I   N=           5
          -1          -1          -1          -1          -1
Number of residues                         I                0
Number of secondary structures             I                0
SymInf integers                            I   N=          26
           1           2           1           1           1           1
           1          -1           0           0           0           0
           0           0           0           0           0           0
           0           0           0           0           0           0
           0           0
RotTr to input orientation                 R   N=          12
 -9.95295585E-01 -9.87507599E-17 -9.68849781E-02  9.68849781E-02 -7.24284837E-17
 -9.95295585E-01  9.12689633E-17 -1.00000000E+00  8.16552152E-17  2.60309108E+00
  0.00000000E+00  3.44971643E+00
Number of contracted shells                I               65
Number of primitive shells                 I              119
Pure/Cartesian d shells                    I                0
Pure/Cartesian f shells                    I                0
Highest angular momentum                   I                3
Largest degree of contraction              I                7
Shell types                                I   N=          65
           0           0           0           0           1           1
           1          -2          -2           0           0           0
           0           0           1           1           1           1
          -2          -2          -2          -3          -3           0
           0           0           0           0           1           1
           1           1          -2          -2          -2          -3
          -3           0           0           0           0           0
           1           1           1           1          -2          -2
          -2          -3          -3           0           0           0
           0           0           1           1           1           1
          -2          -2          -2          -3          -3
Number of primitives per shell             I   N=          65
           3           1           1           1           1           1
           1           1           1           7           6           1
           1           1           3           1           1           1
           1           1           1           1           1           7
           6           1           1           1           3           1
           1           1           1           1           1           1
           1           7           6           1           1           1
           3           1           1           1           1           1
           1           1           1           7           6           1
           1           1           3           1           1           1
           1           1           1           1           1
Shell to atom map                          I   N=          65
           1           1           1           1           1           1
           1           1           1           2           2           2
           2           2           2           2           2           2
           2           2           2           2           2           3
           3           3           3           3           3           3
           3           3           3           3           3           3
           3           4           4           4           4           4
           4           4           4           4           4           4
           4           4           4           5           5           5
           5           5           5           5           5           5
           5           5           5           5           5
Primitive exponents                        R   N=         119
  3.38700000E+01  5.09500000E+00  1.15900000E+00  3.25800000E-01  1.02700000E-01
  2.52600000E-02  1.40700000E+00  3.88000000E-01  1.02000000E-01  1.05700000E+00
  2.47000000E-01  1.53300000E+04  2.29900000E+03  5.22400000E+02  1.47300000E+02
  4.75500000E+01  1.67600000E+01  6.20700000E+00  5.22400000E+02  1.47300000E+02
  4.75500000E+01  1.67600000E+01  6.20700000E+00  6.88200000E-01  1.75200000E+00
  2.38400000E-01  7.37600000E-02  3.44600000E+01  7.74900000E+00  2.28000000E+00
  7.15600000E-01  2.14000000E-01  5.97400000E-02  2.31400000E+00  6.45000000E-01
  2.14000000E-01  1.42800000E+00  5.00000000E-01  1.53300000E+04  2.29900000E+03
  5.22400000E+02  1.47300000E+02  4.75500000E+01  1.67600000E+01  6.20700000E+00
  5.22400000E+02  1.47300000E+02  4.75500000E+01  1.67600000E+01  6.20700000E+00
  6.88200000E-01  1.75200000E+00  2.38400000E-01  7.37600000E-02  3.44600000E+01
  7.74900000E+00  2.28000000E+00  7.15600000E-01  2.14000000E-01  5.97400000E-02
  2.31400000E+00  6.45000000E-01  2.14000000E-01  1.42800000E+00  5.00000000E-01
  1.14200000E+04  1.71200000E+03  3.89300000E+02  1.10000000E+02  3.55700000E+01
  1.25400000E+01  4.64400000E+00  3.89300000E+02  1.10000000E+02  3.55700000E+01
  1.25400000E+01  4.64400000E+00  5.11800000E-01  1.29300000E+00  1.78700000E-01
  5.76000000E-02  2.66300000E+01  5.94800000E+00  1.74200000E+00  5.55000000E-01
  1.72500000E-01  4.91000000E-02  1.65400000E+00  4.69000000E-01  1.51000000E-01
  1.09300000E+00  3.64000000E-01  1.53300000E+04  2.29900000E+03  5.22400000E+02
  1.47300000E+02  4.75500000E+01  1.67600000E+01  6.20700000E+00  5.22400000E+02
  1.47300000E+02  4.75500000E+01  1.67600000E+01  6.20700000E+00  6.88200000E-01
  1.75200000E+00  2.38400000E-01  7.37600000E-02  3.44600000E+01  7.74900000E+00
  2.28000000E+00  7.15600000E-01  2.14000000E-01  5.97400000E-02  2.31400000E+00
  6.45000000E-01  2.14000000E-01  1.42800000E+00  5.00000000E-01
Contraction coefficients                   R   N=         119
  2.54948632E-02  1.90362766E-01  8.52162022E-01  1.00000000E+00  1.00000000E+00
  1.00000000E+00  1.00000000E+00  1.00000000E+00  1.00000000E+00  1.00000000E+00
  1.00000000E+00  5.19808943E-04  4.02025621E-03  2.07128267E-02  8.10105536E-02
  2.35962985E-01  4.42653446E-01  3.57064423E-01 -4.42115008E-05 -1.22591041E-03
 -1.05517725E-02 -6.74452633E-02 -1.71198607E-01  1.07329856E+00  1.00000000E+00
  1.00000000E+00  1.00000000E+00  4.11634896E-02  2.57762836E-01  8.02419274E-01
  1.00000000E+00  1.00000000E+00  1.00000000E+00  1.00000000E+00  1.00000000E+00
  1.00000000E+00  1.00000000E+00  1.00000000E+00  5.19808943E-04  4.02025621E-03
  2.07128267E-02  8.10105536E-02  2.35962985E-01  4.42653446E-01  3.57064423E-01
 -4.42115008E-05 -1.22591041E-03 -1.05517725E-02 -6.74452633E-02 -1.71198607E-01
  1.07329856E+00  1.00000000E+00  1.00000000E+00  1.00000000E+00  4.11634896E-02
  2.57762836E-01  8.02419274E-01  1.00000000E+00  1.00000000E+00  1.00000000E+00
  1.00000000E+00  1.00000000E+00  1.00000000E+00  1.00000000E+00  1.00000000E+00
  5.34563860E-04  4.13435660E-03  2.12335358E-02  8.25006224E-02  2.38138871E-01
  4.42551547E-01  3.53757422E-01 -4.89867350E-05 -1.19527323E-03 -1.03490714E-02
 -6.48680190E-02 -1.71552477E-01  1.07289568E+00  1.00000000E+00  1.00000000E+00
  1.00000000E+00  3.98072123E-02  2.49002660E-01  8.10479727E-01  1.00000000E+00
  1.00000000E+00  1.00000000E+00  1.00000000E+00  1.00000000E+00  1.00000000E+00
  1.00000000E+00  1.00000000E+00  5.19808943E-04  4.02025621E-03  2.07128267E-02
  8.10105536E-02  2.35962985E-01  4.42653446E-01  3.57064423E-01 -4.42115008E-05
 -1.22591041E-03 -1.05517725E-02 -6.74452633E-02 -1.71198607E-01  1.07329856E+00
  1.00000000E+00  1.00000000E+00  1.00000000E+00  4.11634896E-02  2.57762836E-01
  8.02419274E-01  1.00000000E+00  1.00000000E+00  1.00000000E+00  1.00000000E+00
  1.00000000E+00  1.00000000E+00  1.00000000E+00  1.00000000E+00
Coordinates of each shell                  R   N=         195
  2.92507076E+00  3.18128710E+00 -1.80271404E-32  2.92507076E+00  3.18128710E+00
 -1.80271404E-32  2.92507076E+00  3.18128710E+00 -1.80271404E-32  2.92507076E+00
  3.18128710E+00 -1.80271404E-32  2.92507076E+00  3.18128710E+00 -1.80271404E-32
  2.92507076E+00  3.18128710E+00 -1.80271404E-32  2.92507076E+00  3.18128710E+00
 -1.80271404E-32  2.92507076E+00  3.18128710E+00 -1.80271404E-32  2.92507076E+00
  3.18128710E+00 -1.80271404E-32  2.74766483E+00  1.35880292E+00 -1.69337919E-32
  2.74766483E+00  1.35880292E+00 -1.69337919E-32  2.74766483E+00  1.35880292E+00
 -1.69337919E-32  2.74766483E+00  1.35880292E+00 -1.69337919E-32  2.74766483E+00
  1.35880292E+00 -1.69337919E-32  2.74766483E+00  1.35880292E+00 -1.69337919E-32
  2.74766483E+00  1.35880292E+00 -1.69337919E-32  2.74766483E+00  1.35880292E+00
 -1.69337919E-32  2.74766483E+00  1.35880292E+00 -1.69337919E-32  2.74766483E+00
  1.35880292E+00 -1.69337919E-32  2.74766483E+00  1.35880292E+00 -1.69337919E-32
  2.74766483E+00  1.35880292E+00 -1.69337919E-32  2.74766483E+00  1.35880292E+00
 -1.69337919E-32  2.74766483E+00  1.35880292E+00 -1.69337919E-32  4.25369861E-18
  1.26116570E+00  0.00000000E+00  4.25369861E-18  1.26116570E+00  0.00000000E+00
  4.25369861E-18  1.26116570E+00  0.00000000E+00  4.25369861E-18  1.26116570E+00
  0.00000000E+00  4.25369861E-18  1.26116570E+00  0.00000000E+00  4.25369861E-18
  1.26116570E+00  0.00000000E+00  4.25369861E-18  1.26116570E+00  0.00000000E+00
  4.25369861E-18  1.26116570E+00  0.00000000E+00  4.25369861E-18  1.26116570E+00
  0.00000000E+00  4.25369861E-18  1.26116570E+00  0.00000000E+00  4.25369861E-18
  1.26116570E+00  0.00000000E+00  4.25369861E-18  1.26116570E+00  0.00000000E+00
  4.25369861E-18  1.26116570E+00  0.00000000E+00  4.25369861E-18  1.26116570E+00
  0.00000000E+00 -4.91124325E-01 -1.45143540E+00  3.02678734E-33 -4.91124325E-01
 -1.45143540E+00  3.02678734E-33 -4.91124325E-01 -1.45143540E+00  3.02678734E-33
 -4.91124325E-01 -1.45143540E+00  3.02678734E-33 -4.91124325E-01 -1.45143540E+00
  3.02678734E-33 -4.91124325E-01 -1.45143540E+00  3.02678734E-33 -4.91124325E-01
 -1.45143540E+00  3.02678734E-33 -4.91124325E-01 -1.45143540E+00  3.02678734E-33
 -4.91124325E-01 -1.45143540E+00  3.02678734E-33 -4.91124325E-01 -1.45143540E+00
  3.02678734E-33 -4.91124325E-01 -1.45143540E+00  3.02678734E-33 -4.91124325E-01
 -1.45143540E+00  3.02678734E-33 -4.91124325E-01 -1.45143540E+00  3.02678734E-33
 -4.91124325E-01 -1.45143540E+00  3.02678734E-33 -2.68356489E+00 -1.74762353E+00
  1.65387455E-32 -2.68356489E+00 -1.74762353E+00  1.65387455E-32 -2.68356489E+00
 -1.74762353E+00  1.65387455E-32 -2.68356489E+00 -1.74762353E+00  1.65387455E-32
 -2.68356489E+00 -1.74762353E+00  1.65387455E-32 -2.68356489E+00 -1.74762353E+00
  1.65387455E-32 -2.68356489E+00 -1.74762353E+00  1.65387455E-32 -2.68356489E+00
 -1.74762353E+00  1.65387455E-32 -2.68356489E+00 -1.74762353E+00  1.65387455E-32
 -2.68356489E+00 -1.74762353E+00  1.65387455E-32 -2.68356489E+00 -1.74762353E+00
  1.65387455E-32 -2.68356489E+00 -1.74762353E+00  1.65387455E-32 -2.68356489E+00
 -1.74762353E+00  1.65387455E-32 -2.68356489E+00 -1.74762353E+00  1.65387455E-32
Num ILSW                                   I              100
ILSW                                       I   N=         100
           0           0           0           0           2           0
           0           0           0           0           0          -1
           5           0           0           0           0           0
           0           0           0           0           0           0
           1           0           0           0           0           0
           0           0      100000           0          -1           0
           0           0           0           0           0           0
           0           0           0           1           0           0
           0 -2000000000           1           0           0           0
           0           0           4          52           0           0
           0           0           0           0           0           0
           0           0           0           5           0           1
           0           0           0           0           0           0
           0           0           0           0           0           0
           0           0           0           0           0           0
           0           0           0           0           0           0
           0           0           0           0
Num RLSW                                   I               52
RLSW                                       R   N=          52
  1.00000000E+00  1.00000000E+00  1.00000000E+00  1.00000000E+00  1.00000000E+00
  0.00000000E+00  0.00000000E+00  1.00000000E+00  0.00000000E+00  0.00000000E+00
  0.00000000E+00  0.00000000E+00  1.00000000E+00  0.00000000E+00  0.00000000E+00
  0.00000000E+00  0.00000000E+00  1.00000000E+00  0.00000000E+00  0.00000000E+00
  0.00000000E+00  0.00000000E+00  1.00000000E+00  0.00000000E+00  0.00000000E+00
  0.00000000E+00  0.00000000E+00  1.00000000E+00  0.00000000E+00  0.00000000E+00
  0.00000000E+00  0.00000000E+00  1.00000000E+00  0.00000000E+00  0.00000000E+00
  0.00000000E+00  0.00000000E+00  0.00000000E+00  1.00000000E+00  1.00000000E+00
  0.00000000E+00  1.00000000E+00  0.00000000E+00  0.00000000E+00  0.00000000E+00
  0.00000000E+00  0.00000000E+00  0.00000000E+00  0.00000000E+00  0.00000000E+00
  0.00000000E+00  0.00000000E+00
MxBond                                     I                2
NBond                                      I   N=           5
           1           2           2           2           1
IBond                                      I   N=          10
           2           0           1           3           2           4
           3           5           4           0
RBond                                      R   N=          10
  1.00000000E+00  0.00000000E+00  1.00000000E+00  1.00000000E+00  1.00000000E+00
  1.00000000E+00  1.00000000E+00  2.00000000E+00  2.00000000E+00  0.00000000E+00
Virial Ratio                               R      2.002325427265276E+00
SCF Energy                                 R     -2.795016616705951E+02
MP2 Energy                                 R     -2.804466436170152E+02
Total Energy                               R     -2.804466436170152E+02
Post-SCF wavefunction norm                 R      1.120176190898745E+00
RMS Density                                R      3.743292228043015E-09
Job Status                                 I                1
Nuclear derivative order                   I                0
External E-field                           R   N=          35
  0.00000000E+00  0.00000000E+00  0.00000000E+00  0.00000000E+00  0.00000000E+00
  0.00000000E+00  0.00000000E+00  0.00000000E+00  0.00000000E+00  0.00000000E+00
  0.00000000E+00  0.00000000E+00  0.00000000E+00  0.00000000E+00  0.00000000E+00
  0.00000000E+00  0.00000000E+00  0.00000000E+00  0.00000000E+00  0.00000000E+00
  0.00000000E+00  0.00000000E+00  0.00000000E+00  0.00000000E+00  0.00000000E+00
  0.00000000E+00  0.00000000E+00  0.00000000E+00  0.00000000E+00  0.00000000E+00
  0.00000000E+00  0.00000000E+00  0.00000000E+00  0.00000000E+00  0.00000000E+00
IOpCl                                      I                0
IROHF                                      I                0
Alpha Orbital Energies                     R   N=         207
 -2.06904180E+01 -2.06839014E+01 -2.06592558E+01 -1.58132148E+01 -1.62497238E+00
 -1.49491156E+00 -1.25349469E+00 -9.48365333E-01 -7.72166212E-01 -7.59567779E-01
 -7.12012712E-01 -6.79078373E-01 -6.20011028E-01 -5.88442451E-01 -4.84692665E-01
 -4.73819666E-01  2.97152124E-02  7.11989230E-02  8.61589672E-02  1.01695912E-01
  1.33888650E-01  1.33891904E-01  1.44135509E-01  1.54452807E-01  1.78377746E-01
  1.94122758E-01  1.99851944E-01  2.06565324E-01  2.20793493E-01  2.36530484E-01
  2.37531969E-01  2.66840326E-01  2.92522632E-01  3.03554625E-01  3.10270774E-01
  3.43773914E-01  3.49595494E-01  3.87587681E-01  4.22465058E-01  4.32039318E-01
  5.28351317E-01  5.28398631E-01  5.58062143E-01  5.80548256E-01  6.25325457E-01
  6.40575130E-01  6.74752634E-01  6.84635455E-01  7.04799516E-01  7.11590206E-01
  7.23620661E-01  7.29198490E-01  7.43585803E-01  7.92598101E-01  7.93498038E-01
  8.10957163E-01  8.13142790E-01  8.31099649E-01  8.68177632E-01  9.09026282E-01
  9.22310056E-01  9.28671935E-01  9.56430254E-01  9.75380149E-01  9.84901322E-01
  1.01689534E+00  1.05193894E+00  1.05496626E+00  1.08296971E+00  1.11732628E+00
  1.14186315E+00  1.19020770E+00  1.21863632E+00  1.23323916E+00  1.33940038E+00
  1.35216747E+00  1.38786857E+00  1.45523233E+00  1.48760871E+00  1.50775355E+00
  1.53769608E+00  1.56802556E+00  1.57950642E+00  1.61261621E+00  1.66459983E+00
  1.67121525E+00  1.70212798E+00  1.79237766E+00  1.83001349E+00  1.83511728E+00
  1.88050419E+00  1.90822170E+00  1.95665679E+00  1.99338242E+00  2.00322815E+00
  2.08041341E+00  2.12271666E+00  2.13072556E+00  2.15128771E+00  2.22608193E+00
  2.26551346E+00  2.26738725E+00  2.28947593E+00  2.31458327E+00  2.34685328E+00
  2.38630890E+00  2.42657885E+00  2.42846542E+00  2.45158564E+00  2.45947059E+00
  2.47834475E+00  2.50075782E+00  2.58879943E+00  2.59863077E+00  2.62241138E+00
  2.62419441E+00  2.63423941E+00  2.67099179E+00  2.75373237E+00  2.81714250E+00
  2.85020117E+00  2.89170924E+00  2.89349957E+00  2.93764740E+00  2.95326915E+00
  3.02687149E+00  3.06461440E+00  3.12614645E+00  3.20503691E+00  3.22421818E+00
  3.31896304E+00  3.33812638E+00  3.52513787E+00  3.63888724E+00  3.83845176E+00
  3.84417733E+00  4.14948758E+00  4.16727523E+00  4.18469936E+00  4.25801694E+00
  4.34887622E+00  4.39351742E+00  4.46338059E+00  4.52032694E+00  4.65713249E+00
  4.71195611E+00  4.80232509E+00  4.82869624E+00  4.83093267E+00  4.89640324E+00
  5.02457023E+00  5.07650988E+00  5.10665872E+00  5.14592775E+00  5.17430546E+00
  5.24416870E+00  5.27412535E+00  5.30487516E+00  5.33073739E+00  5.35232222E+00
  5.60323203E+00  5.67351516E+00  5.78249255E+00  5.82917718E+00  5.95675261E+00
  6.16948348E+00  6.31067097E+00  6.33637748E+00  6.39483638E+00  6.49595173E+00
  6.50854612E+00  6.61505448E+00  6.66814450E+00  6.70468882E+00  6.75801401E+00
  6.76490718E+00  6.83610725E+00  6.89373224E+00  7.01671812E+00  7.05700340E+00
  7.05865784E+00  7.09175574E+00  7.12324055E+00  7.15152483E+00  7.18238224E+00
  7.22608879E+00  7.24255333E+00  7.30772262E+00  7.32546953E+00  7.34743124E+00
  7.39884896E+00  7.43109724E+00  7.48311925E+00  7.60932332E+00  7.61307437E+00
  7.63081161E+00  7.66919289E+00  7.79776714E+00  7.88092060E+00  8.09411232E+00
  8.31540588E+00  8.40919293E+00  8.54346865E+00  1.33999919E+01  1.43805046E+01
  1.51683683E+01  1.61573711E+01
Alpha MO coefficients                      R   N=       42849
  9.22285197E-05 -6.24961462E-04 -7.27750203E-04 -3.92710101E-06 -2.15383056E-05
 -2.74216739E-05  0.00000000E+00 -4.33773224E-05  5.60647307E-05  0.00000000E+00
  8.72624934E-05  3.68585595E-05  0.00000000E+00  3.17795724E-05  0.00000000E+00
  0.00000000E+00 -5.03608847E-05  2.06742399E-05 -3.98868967E-06  0.00000000E+00
  0.00000000E+00 -1.40892677E-04  1.18130370E-04  4.54656629E-03 -2.81055224E-04
  1.24685576E-05  1.53697118E-03  1.82518864E-03  1.06739877E-04  7.69739148E-06
  0.00000000E+00 -6.18697298E-04 -3.78914706E-05  0.00000000E+00 -1.10249304E-03
  7.73932566E-04  0.00000000E+00 -4.03881450E-04  6.15143229E-05  0.00000000E+00
  2.89563382E-05  0.00000000E+00  0.00000000E+00 -5.44382408E-05  5.80963642E-06
 -3.78843525E-04  0.00000000E+00  0.00000000E+00  7.43318343E-04 -3.14265136E-05
 -4.46433324E-04  0.00000000E+00  0.00000000E+00  2.47659422E-04 -8.66426194E-06
  0.00000000E+00  8.02855683E-05  1.28526426E-05  0.00000000E+00  0.00000000E+00
 -1.09634115E-04 -3.53342183E-06  0.00000000E+00  2.56001804E-04 -2.71532456E-05
  0.00000000E+00  0.00000000E+00 -3.54719732E-04  4.91873598E-05  9.76911121E-01
 -9.21657017E-03  4.33185969E-02  2.02716032E-03 -9.04912642E-04  1.50037979E-03
 -1.34345828E-03  0.00000000E+00 -1.44298578E-03  1.37157291E-03  0.00000000E+00
  8.27527670E-05 -1.14529057E-03  0.00000000E+00 -1.35668972E-04 -1.42436841E-05
  0.00000000E+00  4.67427595E-05  0.00000000E+00  0.00000000E+00 -3.40689170E-05
  2.20725405E-05  7.48686247E-04  0.00000000E+00  0.00000000E+00 -2.36586025E-04
 -3.90512175E-04 -3.65794179E-04  0.00000000E+00  0.00000000E+00 -3.02403844E-04
 -3.59765442E-04  0.00000000E+00  4.72404109E-05 -4.85483730E-05  0.00000000E+00
  0.00000000E+00 -3.94023832E-05 -1.48790043E-05  0.00000000E+00  2.50692543E-05
  2.23468128E-05  0.00000000E+00  0.00000000E+00 -3.03450921E-04 -1.41362955E-04
  3.88425183E-05  4.50669721E-05 -2.62761595E-04 -7.21511764E-04 -1.64786777E-04
 -2.62744737E-05 -9.65420750E-05  0.00000000E+00  2.71533551E-04  7.01563327E-04
  0.00000000E+00 -8.11616994E-04 -4.59764458E-04  0.00000000E+00 -1.24350559E-04
 -3.12701212E-05  0.00000000E+00 -1.82584802E-05  0.00000000E+00  0.00000000E+00
 -3.00168220E-05  1.62728075E-05 -3.26766452E-04  0.00000000E+00  0.00000000E+00
 -8.23913993E-04  1.24248172E-04 -3.60980317E-05  0.00000000E+00  0.00000000E+00
  9.08931028E-05 -1.22207241E-04  0.00000000E+00 -2.03344789E-05 -1.19606355E-04
  0.00000000E+00  0.00000000E+00 -6.21937368E-05 -1.37238581E-04  0.00000000E+00
  4.29657757E-06 -1.53405239E-04  0.00000000E+00  0.00000000E+00  4.32780606E-05
 -4.12603563E-04 -2.64157795E-03  1.29217422E-04 -1.23323153E-04 -2.25492326E-04
  1.53503038E-04 -7.67936679E-06 -2.55925296E-05  0.00000000E+00  7.30256889E-05
  1.52802673E-04  0.00000000E+00  2.45329034E-04  1.89297372E-04  0.00000000E+00
  1.30943020E-04  2.53676176E-05  0.00000000E+00 -3.84453792E-06  0.00000000E+00
  0.00000000E+00 -1.82035357E-05  1.84713517E-06  5.38355952E-06  0.00000000E+00
  0.00000000E+00  8.89205009E-05  7.87774013E-05 -9.63913747E-05  0.00000000E+00
  0.00000000E+00  1.76794095E-04  1.58022438E-04  0.00000000E+00  1.65165393E-05
 -2.55076287E-06  0.00000000E+00  0.00000000E+00 -2.69325682E-06 -1.23352692E-05
  0.00000000E+00 -3.12387463E-05  4.37324118E-05  0.00000000E+00  0.00000000E+00
  8.91333373E-05  8.88098751E-05  3.92702305E-05 -9.78711744E-04 -4.77795673E-04
 -1.07433812E-05 -2.02544453E-05  1.50342561E-05  0.00000000E+00 -3.81703164E-06
  2.65779362E-04  0.00000000E+00 -4.53309116E-05  1.30880809E-04  0.00000000E+00
  2.54588849E-05  0.00000000E+00  0.00000000E+00  1.12344911E-05  1.09454540E-05
 -3.01660507E-05  0.00000000E+00  0.00000000E+00  1.22072826E-05  3.56491609E-05
  1.13107053E-04  8.37551846E-05 -2.74299578E-05  7.28767490E-04  6.57843506E-04
  1.03158000E-05  2.52207041E-06  0.00000000E+00 -7.43526821E-05  1.28378913E-05
  0.00000000E+00  3.39812853E-04  9.15702022E-04  0.00000000E+00  1.64894561E-06
  8.50281931E-05  0.00000000E+00 -2.31716097E-06  0.00000000E+00  0.00000000E+00
 -1.55651514E-07 -4.96384674E-06 -3.46408321E-05  0.00000000E+00  0.00000000E+00
 -1.71554016E-05  7.68293488E-05 -2.34990061E-05  0.00000000E+00  0.00000000E+00
 -2.72308748E-04 -1.72278214E-04  0.00000000E+00  8.87389992E-06  6.18026134E-06
  0.00000000E+00  0.00000000E+00  2.39139917E-06 -1.83066417E-05  0.00000000E+00
 -3.87012700E-05 -3.91450905E-05  0.00000000E+00  0.00000000E+00 -7.50789997E-05
  2.37444961E-05  2.68126197E-03  3.99315438E-05  9.85695750E-05 -8.87344663E-05
 -4.95694994E-04  5.52819848E-06  1.28943286E-05  0.00000000E+00 -5.59480128E-05
 -4.33782896E-05  0.00000000E+00  2.67837894E-04 -1.88729186E-04  0.00000000E+00
 -1.97190087E-04 -6.87626385E-05  0.00000000E+00 -9.00416468E-06  0.00000000E+00
  0.00000000E+00  2.22201288E-05  2.15007102E-05  9.88117203E-06  0.00000000E+00
  0.00000000E+00 -1.13652844E-04 -5.98487435E-05  2.16578975E-06  0.00000000E+00
  0.00000000E+00 -2.21963691E-04 -2.36693375E-04  0.00000000E+00  1.48238736E-06
 -3.12731040E-06  0.00000000E+00  0.00000000E+00 -7.84187475E-07 -1.15299576E-05
  0.00000000E+00 -4.45002408E-05  6.82895963E-06  0.00000000E+00  0.00000000E+00
 -7.81951979E-05  1.80269826E-04  2.58024556E-04  1.45869214E-03 -8.05179245E-05
 -1.48341923E-03  4.14816715E-04 -1.45402767E-04  7.30897093E-07  0.00000000E+00
 -2.08548097E-03 -3.63510505E-04  0.00000000E+00  1.00068432E-03  7.42070724E-04
  0.00000000E+00 -1.64860749E-04  6.62605447E-05  0.00000000E+00 -1.22514308E-04
  0.00000000E+00  0.00000000E+00  2.47064081E-04  8.61599359E-05 -4.47191468E-04
  0.00000000E+00  0.00000000E+00  8.86451176E-04 -9.09764282E-05  5.45588165E-06
  0.00000000E+00  0.00000000E+00 -3.38815160E-04 -1.18128939E-04  0.00000000E+00
 -2.20119513E-06  1.45515106E-05  0.00000000E+00  0.00000000E+00  1.94323503E-05
  1.12184154E-05  0.00000000E+00  1.67273953E-04 -7.46702047E-05  0.00000000E+00
  0.00000000E+00 -2.34732097E-04  4.59929617E-05  9.76647178E-01 -9.85008421E-03
  4.35707458E-02  4.47126352E-03 -4.53532337E-04  2.15722479E-03  4.30491194E-04
  0.00000000E+00 -2.39380098E-03 -5.50510115E-04  0.00000000E+00  1.13400153E-03
 -3.83781844E-06  0.00000000E+00  2.80974341E-06 -4.58720309E-05  0.00000000E+00
 -2.33194793E-04  0.00000000E+00  0.00000000E+00  1.02916932E-04  2.90281908E-05
  3.89146423E-04  0.00000000E+00  0.00000000E+00 -8.48502064E-04 -3.80116644E-04
 -1.58542434E-04  0.00000000E+00  0.00000000E+00  2.51120632E-04  1.89259322E-05
  0.00000000E+00  5.26070877E-05  1.72660096E-05  0.00000000E+00  0.00000000E+00
 -2.20367198E-05 -1.16085523E-05  0.00000000E+00  1.37778639E-04  4.14847105E-06
  0.00000000E+00  0.00000000E+00 -1.99006638E-04 -1.27774419E-04  4.75029029E-04
  2.05480884E-03  1.09044979E-04  1.48245300E-05 -4.08800633E-05 -2.46926928E-04
  0.00000000E+00  1.13482326E-04 -1.27257221E-03  0.00000000E+00  3.16819283E-04
 -3.35309729E-04  0.00000000E+00 -2.54116396E-06  0.00000000E+00  0.00000000E+00
  7.61392574E-05  1.54883153E-05 -1.59759193E-04  0.00000000E+00  0.00000000E+00
 -5.37584829E-04 -2.63071386E-05  9.76829597E-01 -9.16316380E-03  4.34507323E-02
  1.69914042E-04 -1.15579659E-03 -1.56079324E-03  1.44077389E-03  0.00000000E+00
  1.57344417E-03 -1.28318143E-03  0.00000000E+00 -5.66018822E-04 -8.60432332E-04
  0.00000000E+00  5.69418902E-05 -3.69040292E-05  0.00000000E+00  2.92693405E-05
  0.00000000E+00  0.00000000E+00 -1.17775612E-04 -2.78799198E-06  7.56878135E-04
  0.00000000E+00  0.00000000E+00 -2.01296298E-04 -2.35111852E-04 -2.66798181E-04
  0.00000000E+00  0.00000000E+00  1.66290778E-04  1.27414680E-04  0.00000000E+00
 -6.41064786E-05  1.21514020E-06  0.00000000E+00  0.00000000E+00  1.87217464E-05
  1.00469546E-05  0.00000000E+00 -1.22115303E-06  1.22721406E-04  0.00000000E+00
  0.00000000E+00  2.56723833E-04  9.19013010E-05 -4.63839597E-03 -2.10310737E-04