title                                                                   
SP        RMP2-FC                                                     Aug-CC-pVTZ         
Number of atoms                            I                5
Info1-9                                    I   N=           9
          33          24           0           0           0         110
           1           2           1
Full Title                                 C   N=           1
title       
Route                                      C   N=           4
#p SP mp2/aug-cc-pvtz density=current           
Charge                                     I                0
Multiplicity                               I                1
Number of electrons                        I               32
Number of alpha electrons                  I               16
Number of beta electrons                   I               16
Number of basis functions                  I              207
Number of independent functions            I              207
Number of point charges in /Mol/           I                0
Number of translation vectors              I                0
Atomic numbers                             I   N=           5
           1           8           8           7           8
Nuclear charges                            R   N=           5
  1.00000000E+00  8.00000000E+00  8.00000000E+00  7.00000000E+00  8.00000000E+00
Current cartesian coordinates              R   N=          15
  2.92180869E+00  3.19745857E+00  1.02911356E-31  2.74749521E+00  1.37467601E+00
  1.08271630E-31 -5.71347213E-18  1.27237699E+00  3.81387489E-32 -4.86521172E-01
 -1.44105349E+00 -3.18607681E-32 -2.68701527E+00 -1.78581352E+00 -1.57375451E-31
Number of symbols in /Mol/                 I                0
Force Field                                I                0
Atom Types                                 C   N=           5
                                                            
Int Atom Types                             I   N=           5
           0           0           0           0           0
MM charges                                 R   N=           5
  0.00000000E+00  0.00000000E+00  0.00000000E+00  0.00000000E+00  0.00000000E+00
Integer atomic weights                     I   N=           5
           1          16          16          14          16
Real atomic weights                        R   N=           5
  1.00782504E+00  1.59949146E+01  1.59949146E+01  1.40030740E+01  1.59949146E+01
Atom fragment info                         I   N=           5
           0           0           0           0           0
Atom residue num                           I   N=           5
           0           0           0           0           0
Nuclear spins                              I   N=           5
           1           0           0           2           0
Nuclear ZEff                               R   N=           5
 -1.00000000E+00 -5.60000000E+00 -5.60000000E+00 -4.55000000E+00 -5.60000000E+00
Nuclear ZNuc                               R   N=           5
  1.00000000E+00  8.00000000E+00  8.00000000E+00  7.00000000E+00  8.00000000E+00
Nuclear QMom                               R   N=           5
  0.00000000E+00  0.00000000E+00  0.00000000E+00  2.04400000E+00  0.00000000E+00
Nuclear GFac                               R   N=           5
  2.79284600E+00  0.00000000E+00  0.00000000E+00  4.03761000E-01  0.00000000E+00
MicOpt                                     I   N=           5
          -1          -1          -1          -1          -1
Number of residues                         I                0
Number of secondary structures             I                0
SymInf integers                            I   N=          26
           1           2           1           1           1           1
           1          -1           0           0           0           0
           0           0           0           0           0           0
           0           0           0           0           0           0
           0           0
RotTr to input orientation                 R   N=          12
 -9.95458536E-01 -9.83110523E-17 -9.51961293E-02  9.51961293E-02 -7.30242071E-17
 -9.95458536E-01  9.09129543E-17 -1.00000000E+00  8.20514019E-17  2.60415372E+00
  0.00000000E+00  3.46108231E+00
Number of contracted shells                I               65
Number of primitive shells                 I              119
Pure/Cartesian d shells                    I                0
Pure/Cartesian f shells                    I                0
Highest angular momentum                   I                3
Largest degree of contraction              I                7
Shell types                                I   N=          65
           0           0           0           0           1           1
           1          -2          -2           0           0           0
           0           0           1           1           1           1
          -2          -2          -2          -3          -3           0
           0           0           0           0           1           1
           1           1          -2          -2          -2          -3
          -3           0           0           0           0           0
           1           1           1           1          -2          -2
          -2          -3          -3           0           0           0
           0           0           1           1           1           1
          -2          -2          -2          -3          -3
Number of primitives per shell             I   N=          65
           3           1           1           1           1           1
           1           1           1           7           6           1
           1           1           3           1           1           1
           1           1           1           1           1           7
           6           1           1           1           3           1
           1           1           1           1           1           1
           1           7           6           1           1           1
           3           1           1           1           1           1
           1           1           1           7           6           1
           1           1           3           1           1           1
           1           1           1           1           1
Shell to atom map                          I   N=          65
           1           1           1           1           1           1
           1           1           1           2           2           2
           2           2           2           2           2           2
           2           2           2           2           2           3
           3           3           3           3           3           3
           3           3           3           3           3           3
           3           4           4           4           4           4
           4           4           4           4           4           4
           4           4           4           5           5           5
           5           5           5           5           5           5
           5           5           5           5           5
Primitive exponents                        R   N=         119
  3.38700000E+01  5.09500000E+00  1.15900000E+00  3.25800000E-01  1.02700000E-01
  2.52600000E-02  1.40700000E+00  3.88000000E-01  1.02000000E-01  1.05700000E+00
  2.47000000E-01  1.53300000E+04  2.29900000E+03  5.22400000E+02  1.47300000E+02
  4.75500000E+01  1.67600000E+01  6.20700000E+00  5.22400000E+02  1.47300000E+02
  4.75500000E+01  1.67600000E+01  6.20700000E+00  6.88200000E-01  1.75200000E+00
  2.38400000E-01  7.37600000E-02  3.44600000E+01  7.74900000E+00  2.28000000E+00
  7.15600000E-01  2.14000000E-01  5.97400000E-02  2.31400000E+00  6.45000000E-01
  2.14000000E-01  1.42800000E+00  5.00000000E-01  1.53300000E+04  2.29900000E+03
  5.22400000E+02  1.47300000E+02  4.75500000E+01  1.67600000E+01  6.20700000E+00
  5.22400000E+02  1.47300000E+02  4.75500000E+01  1.67600000E+01  6.20700000E+00
  6.88200000E-01  1.75200000E+00  2.38400000E-01  7.37600000E-02  3.44600000E+01
  7.74900000E+00  2.28000000E+00  7.15600000E-01  2.14000000E-01  5.97400000E-02
  2.31400000E+00  6.45000000E-01  2.14000000E-01  1.42800000E+00  5.00000000E-01
  1.14200000E+04  1.71200000E+03  3.89300000E+02  1.10000000E+02  3.55700000E+01
  1.25400000E+01  4.64400000E+00  3.89300000E+02  1.10000000E+02  3.55700000E+01
  1.25400000E+01  4.64400000E+00  5.11800000E-01  1.29300000E+00  1.78700000E-01
  5.76000000E-02  2.66300000E+01  5.94800000E+00  1.74200000E+00  5.55000000E-01
  1.72500000E-01  4.91000000E-02  1.65400000E+00  4.69000000E-01  1.51000000E-01
  1.09300000E+00  3.64000000E-01  1.53300000E+04  2.29900000E+03  5.22400000E+02
  1.47300000E+02  4.75500000E+01  1.67600000E+01  6.20700000E+00  5.22400000E+02
  1.47300000E+02  4.75500000E+01  1.67600000E+01  6.20700000E+00  6.88200000E-01
  1.75200000E+00  2.38400000E-01  7.37600000E-02  3.44600000E+01  7.74900000E+00
  2.28000000E+00  7.15600000E-01  2.14000000E-01  5.97400000E-02  2.31400000E+00
  6.45000000E-01  2.14000000E-01  1.42800000E+00  5.00000000E-01
Contraction coefficients                   R   N=         119
  2.54948632E-02  1.90362766E-01  8.52162022E-01  1.00000000E+00  1.00000000E+00
  1.00000000E+00  1.00000000E+00  1.00000000E+00  1.00000000E+00  1.00000000E+00
  1.00000000E+00  5.19808943E-04  4.02025621E-03  2.07128267E-02  8.10105536E-02
  2.35962985E-01  4.42653446E-01  3.57064423E-01 -4.42115008E-05 -1.22591041E-03
 -1.05517725E-02 -6.74452633E-02 -1.71198607E-01  1.07329856E+00  1.00000000E+00
  1.00000000E+00  1.00000000E+00  4.11634896E-02  2.57762836E-01  8.02419274E-01
  1.00000000E+00  1.00000000E+00  1.00000000E+00  1.00000000E+00  1.00000000E+00
  1.00000000E+00  1.00000000E+00  1.00000000E+00  5.19808943E-04  4.02025621E-03
  2.07128267E-02  8.10105536E-02  2.35962985E-01  4.42653446E-01  3.57064423E-01
 -4.42115008E-05 -1.22591041E-03 -1.05517725E-02 -6.74452633E-02 -1.71198607E-01
  1.07329856E+00  1.00000000E+00  1.00000000E+00  1.00000000E+00  4.11634896E-02
  2.57762836E-01  8.02419274E-01  1.00000000E+00  1.00000000E+00  1.00000000E+00
  1.00000000E+00  1.00000000E+00  1.00000000E+00  1.00000000E+00  1.00000000E+00
  5.34563860E-04  4.13435660E-03  2.12335358E-02  8.25006224E-02  2.38138871E-01
  4.42551547E-01  3.53757422E-01 -4.89867350E-05 -1.19527323E-03 -1.03490714E-02
 -6.48680190E-02 -1.71552477E-01  1.07289568E+00  1.00000000E+00  1.00000000E+00
  1.00000000E+00  3.98072123E-02  2.49002660E-01  8.10479727E-01  1.00000000E+00
  1.00000000E+00  1.00000000E+00  1.00000000E+00  1.00000000E+00  1.00000000E+00
  1.00000000E+00  1.00000000E+00  5.19808943E-04  4.02025621E-03  2.07128267E-02
  8.10105536E-02  2.35962985E-01  4.42653446E-01  3.57064423E-01 -4.42115008E-05
 -1.22591041E-03 -1.05517725E-02 -6.74452633E-02 -1.71198607E-01  1.07329856E+00
  1.00000000E+00  1.00000000E+00  1.00000000E+00  4.11634896E-02  2.57762836E-01
  8.02419274E-01  1.00000000E+00  1.00000000E+00  1.00000000E+00  1.00000000E+00
  1.00000000E+00  1.00000000E+00  1.00000000E+00  1.00000000E+00
Coordinates of each shell                  R   N=         195
  2.92180869E+00  3.19745857E+00  9.83069489E-32  2.92180869E+00  3.19745857E+00
  9.83069489E-32  2.92180869E+00  3.19745857E+00  9.83069489E-32  2.92180869E+00
  3.19745857E+00  9.83069489E-32  2.92180869E+00  3.19745857E+00  9.83069489E-32
  2.92180869E+00  3.19745857E+00  9.83069489E-32  2.92180869E+00  3.19745857E+00
  9.83069489E-32  2.92180869E+00  3.19745857E+00  9.83069489E-32  2.92180869E+00
  3.19745857E+00  9.83069489E-32  2.74749521E+00  1.37467601E+00  7.24627984E-32
  2.74749521E+00  1.37467601E+00  7.24627984E-32  2.74749521E+00  1.37467601E+00
  7.24627984E-32  2.74749521E+00  1.37467601E+00  7.24627984E-32  2.74749521E+00
  1.37467601E+00  7.24627984E-32  2.74749521E+00  1.37467601E+00  7.24627984E-32
  2.74749521E+00  1.37467601E+00  7.24627984E-32  2.74749521E+00  1.37467601E+00
  7.24627984E-32  2.74749521E+00  1.37467601E+00  7.24627984E-32  2.74749521E+00
  1.37467601E+00  7.24627984E-32  2.74749521E+00  1.37467601E+00  7.24627984E-32
  2.74749521E+00  1.37467601E+00  7.24627984E-32  2.74749521E+00  1.37467601E+00
  7.24627984E-32  2.74749521E+00  1.37467601E+00  7.24627984E-32  6.25971419E-18
  1.27237699E+00  1.55764199E-32  6.25971419E-18  1.27237699E+00  1.55764199E-32
  6.25971419E-18  1.27237699E+00  1.55764199E-32  6.25971419E-18  1.27237699E+00
  1.55764199E-32  6.25971419E-18  1.27237699E+00  1.55764199E-32  6.25971419E-18
  1.27237699E+00  1.55764199E-32  6.25971419E-18  1.27237699E+00  1.55764199E-32
  6.25971419E-18  1.27237699E+00  1.55764199E-32  6.25971419E-18  1.27237699E+00
  1.55764199E-32  6.25971419E-18  1.27237699E+00  1.55764199E-32  6.25971419E-18
  1.27237699E+00  1.55764199E-32  6.25971419E-18  1.27237699E+00  1.55764199E-32
  6.25971419E-18  1.27237699E+00  1.55764199E-32  6.25971419E-18  1.27237699E+00
  1.55764199E-32 -4.86521172E-01 -1.44105349E+00 -2.74929231E-32 -4.86521172E-01
 -1.44105349E+00 -2.74929231E-32 -4.86521172E-01 -1.44105349E+00 -2.74929231E-32
 -4.86521172E-01 -1.44105349E+00 -2.74929231E-32 -4.86521172E-01 -1.44105349E+00
 -2.74929231E-32 -4.86521172E-01 -1.44105349E+00 -2.74929231E-32 -4.86521172E-01
 -1.44105349E+00 -2.74929231E-32 -4.86521172E-01 -1.44105349E+00 -2.74929231E-32
 -4.86521172E-01 -1.44105349E+00 -2.74929231E-32 -4.86521172E-01 -1.44105349E+00
 -2.74929231E-32 -4.86521172E-01 -1.44105349E+00 -2.74929231E-32 -4.86521172E-01
 -1.44105349E+00 -2.74929231E-32 -4.86521172E-01 -1.44105349E+00 -2.74929231E-32
 -4.86521172E-01 -1.44105349E+00 -2.74929231E-32 -2.68701527E+00 -1.78581352E+00
 -7.62712791E-32 -2.68701527E+00 -1.78581352E+00 -7.62712791E-32 -2.68701527E+00
 -1.78581352E+00 -7.62712791E-32 -2.68701527E+00 -1.78581352E+00 -7.62712791E-32
 -2.68701527E+00 -1.78581352E+00 -7.62712791E-32 -2.68701527E+00 -1.78581352E+00
 -7.62712791E-32 -2.68701527E+00 -1.78581352E+00 -7.62712791E-32 -2.68701527E+00
 -1.78581352E+00 -7.62712791E-32 -2.68701527E+00 -1.78581352E+00 -7.62712791E-32
 -2.68701527E+00 -1.78581352E+00 -7.62712791E-32 -2.68701527E+00 -1.78581352E+00
 -7.62712791E-32 -2.68701527E+00 -1.78581352E+00 -7.62712791E-32 -2.68701527E+00
 -1.78581352E+00 -7.62712791E-32 -2.68701527E+00 -1.78581352E+00 -7.62712791E-32
Num ILSW                                   I              100
ILSW                                       I   N=         100
           0           0           0           0           2           0
           0           0           0           0           0          -1
           5           0           0           0           0           0
           0           0           0           0           0           0
           1           0           0           0           0           0
           0           0      100000           0          -1           0
           0           0           0           0           0           0
           0           0           0           1           0           0
           0 -2000000000           1           0           0           0
           0           0           4          52           0           0
           0           0           0           0           0           0
           0           0           0           5           0           1
           0           0           0           0           0           0
           0           0           0           0           0           0
           0           0           0           0           0           0
           0           0           0           0           0           0
           0           0           0           0
Num RLSW                                   I               52
RLSW                                       R   N=          52
  1.00000000E+00  1.00000000E+00  1.00000000E+00  1.00000000E+00  1.00000000E+00
  0.00000000E+00  0.00000000E+00  1.00000000E+00  0.00000000E+00  0.00000000E+00
  0.00000000E+00  0.00000000E+00  1.00000000E+00  0.00000000E+00  0.00000000E+00
  0.00000000E+00  0.00000000E+00  1.00000000E+00  0.00000000E+00  0.00000000E+00
  0.00000000E+00  0.00000000E+00  1.00000000E+00  0.00000000E+00  0.00000000E+00
  0.00000000E+00  0.00000000E+00  1.00000000E+00  0.00000000E+00  0.00000000E+00
  0.00000000E+00  0.00000000E+00  1.00000000E+00  0.00000000E+00  0.00000000E+00
  0.00000000E+00  0.00000000E+00  0.00000000E+00  1.00000000E+00  1.00000000E+00
  0.00000000E+00  1.00000000E+00  0.00000000E+00  0.00000000E+00  0.00000000E+00
  0.00000000E+00  0.00000000E+00  0.00000000E+00  0.00000000E+00  0.00000000E+00
  0.00000000E+00  0.00000000E+00
MxBond                                     I                2
NBond                                      I   N=           5
           1           2           2           2           1
IBond                                      I   N=          10
           2           0           1           3           2           4
           3           5           4           0
RBond                                      R   N=          10
  1.00000000E+00  0.00000000E+00  1.00000000E+00  1.00000000E+00  1.00000000E+00
  1.00000000E+00  1.00000000E+00  2.00000000E+00  2.00000000E+00  0.00000000E+00
Virial Ratio                               R      2.002485518624595E+00
SCF Energy                                 R     -2.795002414943454E+02
MP2 Energy                                 R     -2.804466512481736E+02
Total Energy                               R     -2.804466512481736E+02
Post-SCF wavefunction norm                 R      1.120782785515672E+00
RMS Density                                R      4.006806774252713E-09
Job Status                                 I                1
Nuclear derivative order                   I                0
External E-field                           R   N=          35
  0.00000000E+00  0.00000000E+00  0.00000000E+00  0.00000000E+00  0.00000000E+00
  0.00000000E+00  0.00000000E+00  0.00000000E+00  0.00000000E+00  0.00000000E+00
  0.00000000E+00  0.00000000E+00  0.00000000E+00  0.00000000E+00  0.00000000E+00
  0.00000000E+00  0.00000000E+00  0.00000000E+00  0.00000000E+00  0.00000000E+00
  0.00000000E+00  0.00000000E+00  0.00000000E+00  0.00000000E+00  0.00000000E+00
  0.00000000E+00  0.00000000E+00  0.00000000E+00  0.00000000E+00  0.00000000E+00
  0.00000000E+00  0.00000000E+00  0.00000000E+00  0.00000000E+00  0.00000000E+00
IOpCl                                      I                0
IROHF                                      I                0
Alpha Orbital Energies                     R   N=         207
 -2.06927230E+01 -2.06839730E+01 -2.06609862E+01 -1.58139854E+01 -1.61774120E+00
 -1.49555126E+00 -1.25520076E+00 -9.49158105E-01 -7.71915944E-01 -7.57107034E-01
 -7.10285052E-01 -6.78383137E-01 -6.18794794E-01 -5.89928472E-01 -4.85866877E-01
 -4.74035039E-01  2.94135760E-02  6.92328042E-02  8.60707171E-02  1.01720361E-01
  1.33840993E-01  1.34105021E-01  1.43912624E-01  1.54338647E-01  1.78122079E-01
  1.94261578E-01  1.99521897E-01  2.06350113E-01  2.20545182E-01  2.34769402E-01
  2.37326473E-01  2.65958266E-01  2.92630385E-01  3.03572341E-01  3.10092538E-01
  3.43515730E-01  3.49465329E-01  3.86912386E-01  4.21620396E-01  4.31533817E-01
  5.27489397E-01  5.27992512E-01  5.57976952E-01  5.81462300E-01  6.21592033E-01
  6.38667227E-01  6.76906728E-01  6.83940217E-01  7.06320498E-01  7.10949528E-01
  7.23837661E-01  7.28933957E-01  7.44687258E-01  7.91123280E-01  7.91549092E-01
  8.10602516E-01  8.11981842E-01  8.28536222E-01  8.67557631E-01  9.07551268E-01
  9.21216476E-01  9.25575856E-01  9.56177802E-01  9.75807867E-01  9.83951397E-01
  1.01607706E+00  1.05148319E+00  1.05426209E+00  1.08084357E+00  1.11657227E+00
  1.14043259E+00  1.18901603E+00  1.21964084E+00  1.23149374E+00  1.33824724E+00
  1.34993756E+00  1.38495889E+00  1.45303211E+00  1.48738435E+00  1.50799397E+00
  1.53779098E+00  1.56692590E+00  1.57990227E+00  1.61265525E+00  1.66226612E+00
  1.66929795E+00  1.70353782E+00  1.79274759E+00  1.83194551E+00  1.83439848E+00
  1.87616697E+00  1.91006329E+00  1.95827317E+00  1.99010517E+00  2.00609341E+00
  2.07738979E+00  2.12072991E+00  2.13122855E+00  2.14905383E+00  2.22401578E+00
  2.26369835E+00  2.26419113E+00  2.28881663E+00  2.31337748E+00  2.34152671E+00
  2.38541050E+00  2.42263608E+00  2.42691446E+00  2.45398743E+00  2.46176696E+00
  2.47546992E+00  2.49969828E+00  2.58835368E+00  2.59504700E+00  2.61935192E+00
  2.62149456E+00  2.63352120E+00  2.66517259E+00  2.75438706E+00  2.82126202E+00
  2.85189997E+00  2.88050443E+00  2.89218865E+00  2.92124667E+00  2.95606579E+00
  3.02331394E+00  3.06933799E+00  3.11906035E+00  3.20391820E+00  3.22447542E+00
  3.31510050E+00  3.34049081E+00  3.51355227E+00  3.64267064E+00  3.83720576E+00
  3.84188328E+00  4.14769080E+00  4.16177758E+00  4.18246204E+00  4.23874779E+00
  4.35068162E+00  4.39196750E+00  4.46108323E+00  4.51754648E+00  4.65211979E+00
  4.70908074E+00  4.80079704E+00  4.82313978E+00  4.82707400E+00  4.89623061E+00
  5.02442453E+00  5.07677208E+00  5.10024965E+00  5.14782480E+00  5.17632538E+00
  5.23936115E+00  5.27140230E+00  5.30846444E+00  5.32822128E+00  5.34878071E+00
  5.60441312E+00  5.66061118E+00  5.76207012E+00  5.82561953E+00  5.96054990E+00
  6.16646797E+00  6.30718377E+00  6.33747486E+00  6.39322579E+00  6.49360895E+00
  6.50528229E+00  6.61256271E+00  6.66689973E+00  6.69627285E+00  6.75641621E+00
  6.76193527E+00  6.82778012E+00  6.89525711E+00  7.01083335E+00  7.05393462E+00
  7.05551371E+00  7.08886321E+00  7.12049234E+00  7.14754894E+00  7.18037704E+00
  7.21920983E+00  7.23987394E+00  7.30279701E+00  7.30834462E+00  7.34230214E+00
  7.39346331E+00  7.43004142E+00  7.48342101E+00  7.60379789E+00  7.60619903E+00
  7.61853224E+00  7.66360271E+00  7.78227411E+00  7.87380826E+00  8.08950129E+00
  8.31147617E+00  8.40819099E+00  8.54238063E+00  1.33745397E+01  1.43284678E+01
  1.51579298E+01  1.59174261E+01
Alpha MO coefficients                      R   N=       42849
  9.16431259E-05 -6.48084145E-04 -7.25985549E-04 -5.09805610E-06 -2.13067972E-05
 -2.66970970E-05  0.00000000E+00 -4.38924568E-05  6.17452755E-05  0.00000000E+00
  8.59197604E-05  3.54489177E-05  0.00000000E+00  3.17799394E-05  0.00000000E+00
  0.00000000E+00 -4.96529668E-05  2.09446809E-05 -5.92308352E-06  0.00000000E+00
  0.00000000E+00 -1.39071501E-04  1.17675510E-04  4.46343375E-03 -2.81074295E-04
  9.26328993E-06  1.56470979E-03  1.82295510E-03  1.06284618E-04  7.59248597E-06
  0.00000000E+00 -6.17054371E-04 -3.73033847E-05  0.00000000E+00 -1.10388496E-03
  7.99106030E-04  0.00000000E+00 -4.02582296E-04  6.38595003E-05  0.00000000E+00
  2.88356969E-05  0.00000000E+00  0.00000000E+00 -5.40449565E-05  5.38543260E-06
 -3.78510013E-04  0.00000000E+00  0.00000000E+00  7.39502003E-04 -2.72231481E-05
 -4.46893575E-04  0.00000000E+00  0.00000000E+00  2.40956479E-04 -1.68386513E-05
  0.00000000E+00  7.99993721E-05  1.29594306E-05  0.00000000E+00  0.00000000E+00
 -1.09462190E-04 -4.36089949E-06  0.00000000E+00  2.54498535E-04 -2.73091280E-05
  0.00000000E+00  0.00000000E+00 -3.53960780E-04  4.67228074E-05  9.76915764E-01
 -9.21436313E-03  4.33150976E-02  2.01554536E-03 -9.27918094E-04  1.49696783E-03
 -1.36259828E-03  0.00000000E+00 -1.43769013E-03  1.39153833E-03  0.00000000E+00
  8.13355507E-05 -1.16083516E-03  0.00000000E+00 -1.36397833E-04 -1.21981829E-05
  0.00000000E+00  4.64497571E-05  0.00000000E+00  0.00000000E+00 -3.48336938E-05
  2.07314430E-05  7.48943762E-04  0.00000000E+00  0.00000000E+00 -2.26161280E-04
 -3.91404702E-04 -3.59583849E-04  0.00000000E+00  0.00000000E+00 -3.12718714E-04
 -3.77904256E-04  0.00000000E+00  4.74565514E-05 -4.92957462E-05  0.00000000E+00
  0.00000000E+00 -3.89694009E-05 -1.63643394E-05  0.00000000E+00  2.35447948E-05
  2.23566239E-05  0.00000000E+00  0.00000000E+00 -3.03804849E-04 -1.43093654E-04
  4.01625873E-05  5.21241323E-05 -2.64629257E-04 -6.77911638E-04 -1.27336780E-04
 -2.72271065E-05 -9.84068356E-05  0.00000000E+00  2.63580687E-04  7.13377113E-04
  0.00000000E+00 -8.27958439E-04 -4.59119688E-04  0.00000000E+00 -1.24254925E-04
 -2.41116264E-05  0.00000000E+00 -1.81917035E-05  0.00000000E+00  0.00000000E+00
 -2.90830902E-05  1.48557823E-05 -3.31052321E-04  0.00000000E+00  0.00000000E+00
 -8.32275914E-04  1.24908385E-04 -3.88055385E-05  0.00000000E+00  0.00000000E+00
  9.25044993E-05 -1.16379280E-04  0.00000000E+00 -2.06291583E-05 -1.20522124E-04
  0.00000000E+00  0.00000000E+00 -6.19131730E-05 -1.39458676E-04  0.00000000E+00
  2.56386423E-06 -1.54295298E-04  0.00000000E+00  0.00000000E+00  4.54087988E-05
 -4.18699392E-04 -1.91205518E-03  1.14878061E-04 -9.45895213E-05 -2.46579630E-04
  1.23305878E-04 -6.26474510E-06 -2.77669706E-05  0.00000000E+00  6.60190699E-05
  1.63493339E-04  0.00000000E+00  2.20684459E-04  1.92676014E-04  0.00000000E+00
  1.23590878E-04  2.18497018E-05  0.00000000E+00 -3.63675291E-06  0.00000000E+00
  0.00000000E+00 -1.73126360E-05  9.07206426E-07  6.04302879E-07  0.00000000E+00
  0.00000000E+00  7.64486760E-05  8.97320940E-05 -9.75276505E-05  0.00000000E+00
  0.00000000E+00  1.63079365E-04  1.58084060E-04  0.00000000E+00  1.59143240E-05
 -3.92921914E-06  0.00000000E+00  0.00000000E+00 -5.13139775E-06 -1.16953770E-05
  0.00000000E+00 -3.32704710E-05  4.51747907E-05  0.00000000E+00  0.00000000E+00
  8.25859563E-05  9.09211984E-05  3.82021613E-05 -9.97985301E-04 -4.99443456E-04
 -1.25888743E-05 -2.23821248E-05  1.66076442E-05  0.00000000E+00 -1.88154895E-06
  2.78274475E-04  0.00000000E+00 -4.40607471E-05  1.36883715E-04  0.00000000E+00
  2.60782276E-05  0.00000000E+00  0.00000000E+00  1.28948033E-05  1.14729750E-05
 -2.73366555E-05  0.00000000E+00  0.00000000E+00  1.06736199E-05  3.60347204E-05
  1.13636052E-04  8.38697963E-05 -2.77467274E-05  7.51893280E-04  6.62048727E-04
  9.65807526E-06  2.72546384E-06  0.00000000E+00 -6.93140369E-05  1.56933536E-05
  0.00000000E+00  3.42958589E-04  9.02008872E-04  0.00000000E+00  6.18166705E-06
  8.59201177E-05  0.00000000E+00 -2.18875349E-06  0.00000000E+00  0.00000000E+00
  2.17323559E-07 -6.47677934E-06 -3.57627668E-05  0.00000000E+00  0.00000000E+00
 -2.49525028E-05  8.66950613E-05 -2.13041855E-05  0.00000000E+00  0.00000000E+00
 -2.70216851E-04 -1.58253439E-04  0.00000000E+00  9.21548423E-06  6.21216106E-06
  0.00000000E+00  0.00000000E+00  3.40783305E-06 -1.91731890E-05  0.00000000E+00
 -4.17501188E-05 -3.90144258E-05  0.00000000E+00  0.00000000E+00 -7.66742344E-05
  1.79962857E-05  1.95100187E-03  4.66140077E-05  6.06201437E-05 -6.56167624E-05
 -4.76056026E-04  7.00439939E-06  1.66237541E-05  0.00000000E+00 -6.42499940E-05
 -5.82568900E-05  0.00000000E+00  2.28918973E-04 -1.66497569E-04  0.00000000E+00
 -1.93356255E-04 -6.49482422E-05  0.00000000E+00 -8.74063788E-06  0.00000000E+00
  0.00000000E+00  2.13572219E-05  1.82328658E-05  2.86889865E-06  0.00000000E+00
  0.00000000E+00 -1.11649157E-04 -3.65616367E-05 -3.02308100E-06  0.00000000E+00
  0.00000000E+00 -2.14976039E-04 -1.90456188E-04  0.00000000E+00  3.56126994E-06
 -1.41620100E-07  0.00000000E+00  0.00000000E+00  1.96103079E-06 -1.53198704E-05
  0.00000000E+00 -4.66516853E-05  8.70614038E-07  0.00000000E+00  0.00000000E+00
 -6.90240242E-05  1.88667348E-04  2.56665400E-04  1.45126707E-03 -1.12157769E-04
 -1.37698860E-03  4.40997346E-04 -1.24564112E-04  3.35730728E-06  0.00000000E+00
 -2.11255850E-03 -4.19697143E-04  0.00000000E+00  9.56695347E-04  7.60531670E-04
  0.00000000E+00 -1.78274173E-04  5.49029848E-05  0.00000000E+00 -1.25207722E-04
  0.00000000E+00  0.00000000E+00  2.44394200E-04  9.49296686E-05 -4.64151722E-04
  0.00000000E+00  0.00000000E+00  9.40086294E-04 -3.51927907E-05  5.05164669E-07
  0.00000000E+00  0.00000000E+00 -3.15332670E-04 -1.15357681E-04  0.00000000E+00
  1.12999152E-05  1.78076291E-05  0.00000000E+00  0.00000000E+00  3.79232245E-06
  5.01883299E-06  0.00000000E+00  1.68340271E-04 -7.18011338E-05  0.00000000E+00
  0.00000000E+00 -2.59418468E-04  4.30208909E-05  9.76664138E-01 -9.85704647E-03
  4.35460246E-02  4.35292565E-03 -4.98868042E-04  2.13896756E-03  4.85179292E-04
  0.00000000E+00 -2.41672918E-03 -6.13546146E-04  0.00000000E+00  1.10603321E-03
 -1.03088639E-05  0.00000000E+00 -9.66407265E-07 -4.45988381E-05  0.00000000E+00
 -2.26866744E-04  0.00000000E+00  0.00000000E+00  9.32626477E-05  2.91884982E-05
  3.95683082E-04  0.00000000E+00  0.00000000E+00 -8.45013800E-04 -4.26487510E-04
 -1.60587394E-04  0.00000000E+00  0.00000000E+00  2.65396571E-04  1.82484327E-05
  0.00000000E+00  5.67369199E-05  1.83458561E-05  0.00000000E+00  0.00000000E+00
 -2.75159308E-05 -1.58464847E-05  0.00000000E+00  1.33327879E-04  8.87007013E-06
  0.00000000E+00  0.00000000E+00 -1.86600119E-04 -1.40433663E-04  4.74774430E-04
  2.05922092E-03  1.13548487E-04  1.53201874E-05 -4.05330040E-05 -2.46886911E-04
  0.00000000E+00  1.15264479E-04 -1.27434277E-03  0.00000000E+00  3.13238584E-04
 -3.36572875E-04  0.00000000E+00 -2.67699169E-06  0.00000000E+00  0.00000000E+00
  7.58794447E-05  1.59670376E-05 -1.60065161E-04  0.00000000E+00  0.00000000E+00
 -5.37323091E-04 -2.69610746E-05  9.76830923E-01 -9.16313959E-03  4.34494485E-02
  1.62598218E-04 -1.14053065E-03 -1.56751257E-03  1.43824608E-03  0.00000000E+00
  1.57897085E-03 -1.28075943E-03  0.00000000E+00 -5.66279529E-04 -8.65548928E-04
  0.00000000E+00  5.51281119E-05 -3.34613070E-05  0.00000000E+00  2.96586230E-05
  0.00000000E+00  0.00000000E+00 -1.18210396E-04 -3.66406533E-06  7.57715638E-04
  0.00000000E+00  0.00000000E+00 -2.01565399E-04 -2.36467221E-04 -2.66503911E-04
  0.00000000E+00  0.00000000E+00  1.67878682E-04  1.28367154E-04  0.00000000E+00
 -6.41939373E-05  1.12410727E-06  0.00000000E+00  0.00000000E+00  1.88297279E-05
  1.00088847E-05  0.00000000E+00 -1.51263281E-06  1.22698341E-04  0.00000000E+00
  0.00000000E+00  2.56291086E-04  9.36725004E-05 -4.55573935E-03 -2.12456141E-04