title                                                                   
SP        RMP2-FC                                                     Aug-CC-pVTZ         
Number of atoms                            I                5
Info1-9                                    I   N=           9
          33          24           0           0           0         110
           1           2           1
Full Title                                 C   N=           1
title       
Route                                      C   N=           4
#p SP mp2/aug-cc-pvtz density=current           
Charge                                     I                0
Multiplicity                               I                1
Number of electrons                        I               32
Number of alpha electrons                  I               16
Number of beta electrons                   I               16
Number of basis functions                  I              207
Number of independent functions            I              207
Number of point charges in /Mol/           I                0
Number of translation vectors              I                0
Atomic numbers                             I   N=           5
           1           8           8           7           8
Nuclear charges                            R   N=           5
  1.00000000E+00  8.00000000E+00  8.00000000E+00  7.00000000E+00  8.00000000E+00
Current cartesian coordinates              R   N=          15
  2.87402601E+00  3.24778553E+00  1.06771068E-31  2.74418614E+00  1.42129626E+00
  5.68363850E-32  8.44424377E-17  1.25207021E+00 -9.29175139E-32 -4.89279299E-01
 -1.46086429E+00 -7.12358663E-32 -2.67532000E+00 -1.80108341E+00  9.12077425E-31
Number of symbols in /Mol/                 I                0
Force Field                                I                0
Atom Types                                 C   N=           5
                                                            
Int Atom Types                             I   N=           5
           0           0           0           0           0
MM charges                                 R   N=           5
  0.00000000E+00  0.00000000E+00  0.00000000E+00  0.00000000E+00  0.00000000E+00
Integer atomic weights                     I   N=           5
           1          16          16          14          16
Real atomic weights                        R   N=           5
  1.00782504E+00  1.59949146E+01  1.59949146E+01  1.40030740E+01  1.59949146E+01
Atom fragment info                         I   N=           5
           0           0           0           0           0
Atom residue num                           I   N=           5
           0           0           0           0           0
Nuclear spins                              I   N=           5
           1           0           0           2           0
Nuclear ZEff                               R   N=           5
 -1.00000000E+00 -5.60000000E+00 -5.60000000E+00 -4.55000000E+00 -5.60000000E+00
Nuclear ZNuc                               R   N=           5
  1.00000000E+00  8.00000000E+00  8.00000000E+00  7.00000000E+00  8.00000000E+00
Nuclear QMom                               R   N=           5
  0.00000000E+00  0.00000000E+00  0.00000000E+00  2.04400000E+00  0.00000000E+00
Nuclear GFac                               R   N=           5
  2.79284600E+00  0.00000000E+00  0.00000000E+00  4.03761000E-01  0.00000000E+00
MicOpt                                     I   N=           5
          -1          -1          -1          -1          -1
Number of residues                         I                0
Number of secondary structures             I                0
SymInf integers                            I   N=          26
           1           2           1           1           1           1
           1          -1           0           0           0           0
           0           0           0           0           0           0
           0           0           0           0           0           0
           0           0
RotTr to input orientation                 R   N=          12
 -9.97482846E-01 -8.74597948E-16 -7.09081882E-02  7.09081882E-02  7.66451285E-16
 -9.97482846E-01  9.26744123E-16 -1.00000000E+00 -7.02505853E-16  2.63649706E+00
  0.00000000E+00  3.44340233E+00
Number of contracted shells                I               65
Number of primitive shells                 I              119
Pure/Cartesian d shells                    I                0
Pure/Cartesian f shells                    I                0
Highest angular momentum                   I                3
Largest degree of contraction              I                7
Shell types                                I   N=          65
           0           0           0           0           1           1
           1          -2          -2           0           0           0
           0           0           1           1           1           1
          -2          -2          -2          -3          -3           0
           0           0           0           0           1           1
           1           1          -2          -2          -2          -3
          -3           0           0           0           0           0
           1           1           1           1          -2          -2
          -2          -3          -3           0           0           0
           0           0           1           1           1           1
          -2          -2          -2          -3          -3
Number of primitives per shell             I   N=          65
           3           1           1           1           1           1
           1           1           1           7           6           1
           1           1           3           1           1           1
           1           1           1           1           1           7
           6           1           1           1           3           1
           1           1           1           1           1           1
           1           7           6           1           1           1
           3           1           1           1           1           1
           1           1           1           7           6           1
           1           1           3           1           1           1
           1           1           1           1           1
Shell to atom map                          I   N=          65
           1           1           1           1           1           1
           1           1           1           2           2           2
           2           2           2           2           2           2
           2           2           2           2           2           3
           3           3           3           3           3           3
           3           3           3           3           3           3
           3           4           4           4           4           4
           4           4           4           4           4           4
           4           4           4           5           5           5
           5           5           5           5           5           5
           5           5           5           5           5
Primitive exponents                        R   N=         119
  3.38700000E+01  5.09500000E+00  1.15900000E+00  3.25800000E-01  1.02700000E-01
  2.52600000E-02  1.40700000E+00  3.88000000E-01  1.02000000E-01  1.05700000E+00
  2.47000000E-01  1.53300000E+04  2.29900000E+03  5.22400000E+02  1.47300000E+02
  4.75500000E+01  1.67600000E+01  6.20700000E+00  5.22400000E+02  1.47300000E+02
  4.75500000E+01  1.67600000E+01  6.20700000E+00  6.88200000E-01  1.75200000E+00
  2.38400000E-01  7.37600000E-02  3.44600000E+01  7.74900000E+00  2.28000000E+00
  7.15600000E-01  2.14000000E-01  5.97400000E-02  2.31400000E+00  6.45000000E-01
  2.14000000E-01  1.42800000E+00  5.00000000E-01  1.53300000E+04  2.29900000E+03
  5.22400000E+02  1.47300000E+02  4.75500000E+01  1.67600000E+01  6.20700000E+00
  5.22400000E+02  1.47300000E+02  4.75500000E+01  1.67600000E+01  6.20700000E+00
  6.88200000E-01  1.75200000E+00  2.38400000E-01  7.37600000E-02  3.44600000E+01
  7.74900000E+00  2.28000000E+00  7.15600000E-01  2.14000000E-01  5.97400000E-02
  2.31400000E+00  6.45000000E-01  2.14000000E-01  1.42800000E+00  5.00000000E-01
  1.14200000E+04  1.71200000E+03  3.89300000E+02  1.10000000E+02  3.55700000E+01
  1.25400000E+01  4.64400000E+00  3.89300000E+02  1.10000000E+02  3.55700000E+01
  1.25400000E+01  4.64400000E+00  5.11800000E-01  1.29300000E+00  1.78700000E-01
  5.76000000E-02  2.66300000E+01  5.94800000E+00  1.74200000E+00  5.55000000E-01
  1.72500000E-01  4.91000000E-02  1.65400000E+00  4.69000000E-01  1.51000000E-01
  1.09300000E+00  3.64000000E-01  1.53300000E+04  2.29900000E+03  5.22400000E+02
  1.47300000E+02  4.75500000E+01  1.67600000E+01  6.20700000E+00  5.22400000E+02
  1.47300000E+02  4.75500000E+01  1.67600000E+01  6.20700000E+00  6.88200000E-01
  1.75200000E+00  2.38400000E-01  7.37600000E-02  3.44600000E+01  7.74900000E+00
  2.28000000E+00  7.15600000E-01  2.14000000E-01  5.97400000E-02  2.31400000E+00
  6.45000000E-01  2.14000000E-01  1.42800000E+00  5.00000000E-01
Contraction coefficients                   R   N=         119
  2.54948632E-02  1.90362766E-01  8.52162022E-01  1.00000000E+00  1.00000000E+00
  1.00000000E+00  1.00000000E+00  1.00000000E+00  1.00000000E+00  1.00000000E+00
  1.00000000E+00  5.19808943E-04  4.02025621E-03  2.07128267E-02  8.10105536E-02
  2.35962985E-01  4.42653446E-01  3.57064423E-01 -4.42115008E-05 -1.22591041E-03
 -1.05517725E-02 -6.74452633E-02 -1.71198607E-01  1.07329856E+00  1.00000000E+00
  1.00000000E+00  1.00000000E+00  4.11634896E-02  2.57762836E-01  8.02419274E-01
  1.00000000E+00  1.00000000E+00  1.00000000E+00  1.00000000E+00  1.00000000E+00
  1.00000000E+00  1.00000000E+00  1.00000000E+00  5.19808943E-04  4.02025621E-03
  2.07128267E-02  8.10105536E-02  2.35962985E-01  4.42653446E-01  3.57064423E-01
 -4.42115008E-05 -1.22591041E-03 -1.05517725E-02 -6.74452633E-02 -1.71198607E-01
  1.07329856E+00  1.00000000E+00  1.00000000E+00  1.00000000E+00  4.11634896E-02
  2.57762836E-01  8.02419274E-01  1.00000000E+00  1.00000000E+00  1.00000000E+00
  1.00000000E+00  1.00000000E+00  1.00000000E+00  1.00000000E+00  1.00000000E+00
  5.34563860E-04  4.13435660E-03  2.12335358E-02  8.25006224E-02  2.38138871E-01
  4.42551547E-01  3.53757422E-01 -4.89867350E-05 -1.19527323E-03 -1.03490714E-02
 -6.48680190E-02 -1.71552477E-01  1.07289568E+00  1.00000000E+00  1.00000000E+00
  1.00000000E+00  3.98072123E-02  2.49002660E-01  8.10479727E-01  1.00000000E+00
  1.00000000E+00  1.00000000E+00  1.00000000E+00  1.00000000E+00  1.00000000E+00
  1.00000000E+00  1.00000000E+00  5.19808943E-04  4.02025621E-03  2.07128267E-02
  8.10105536E-02  2.35962985E-01  4.42653446E-01  3.57064423E-01 -4.42115008E-05
 -1.22591041E-03 -1.05517725E-02 -6.74452633E-02 -1.71198607E-01  1.07329856E+00
  1.00000000E+00  1.00000000E+00  1.00000000E+00  4.11634896E-02  2.57762836E-01
  8.02419274E-01  1.00000000E+00  1.00000000E+00  1.00000000E+00  1.00000000E+00
  1.00000000E+00  1.00000000E+00  1.00000000E+00  1.00000000E+00
Coordinates of each shell                  R   N=         195
  2.87402601E+00  3.24778553E+00 -3.97028848E-31  2.87402601E+00  3.24778553E+00
 -3.97028848E-31  2.87402601E+00  3.24778553E+00 -3.97028848E-31  2.87402601E+00
  3.24778553E+00 -3.97028848E-31  2.87402601E+00  3.24778553E+00 -3.97028848E-31
  2.87402601E+00  3.24778553E+00 -3.97028848E-31  2.87402601E+00  3.24778553E+00
 -3.97028848E-31  2.87402601E+00  3.24778553E+00 -3.97028848E-31  2.87402601E+00
  3.24778553E+00 -3.97028848E-31  2.74418614E+00  1.42129626E+00 -4.61702571E-31
  2.74418614E+00  1.42129626E+00 -4.61702571E-31  2.74418614E+00  1.42129626E+00
 -4.61702571E-31  2.74418614E+00  1.42129626E+00 -4.61702571E-31  2.74418614E+00
  1.42129626E+00 -4.61702571E-31  2.74418614E+00  1.42129626E+00 -4.61702571E-31
  2.74418614E+00  1.42129626E+00 -4.61702571E-31  2.74418614E+00  1.42129626E+00
 -4.61702571E-31  2.74418614E+00  1.42129626E+00 -4.61702571E-31  2.74418614E+00
  1.42129626E+00 -4.61702571E-31  2.74418614E+00  1.42129626E+00 -4.61702571E-31
  2.74418614E+00  1.42129626E+00 -4.61702571E-31  2.74418614E+00  1.42129626E+00
 -4.61702571E-31  2.74418614E+00  1.42129626E+00 -4.61702571E-31 -1.78899555E-17
  1.25207021E+00  6.15764391E-32 -1.78899555E-17  1.25207021E+00  6.15764391E-32
 -1.78899555E-17  1.25207021E+00  6.15764391E-32 -1.78899555E-17  1.25207021E+00
  6.15764391E-32 -1.78899555E-17  1.25207021E+00  6.15764391E-32 -1.78899555E-17
  1.25207021E+00  6.15764391E-32 -1.78899555E-17  1.25207021E+00  6.15764391E-32
 -1.78899555E-17  1.25207021E+00  6.15764391E-32 -1.78899555E-17  1.25207021E+00
  6.15764391E-32 -1.78899555E-17  1.25207021E+00  6.15764391E-32 -1.78899555E-17
  1.25207021E+00  6.15764391E-32 -1.78899555E-17  1.25207021E+00  6.15764391E-32
 -1.78899555E-17  1.25207021E+00  6.15764391E-32 -1.78899555E-17  1.25207021E+00
  6.15764391E-32 -4.89279299E-01 -1.46086429E+00  2.29379165E-32 -4.89279299E-01
 -1.46086429E+00  2.29379165E-32 -4.89279299E-01 -1.46086429E+00  2.29379165E-32
 -4.89279299E-01 -1.46086429E+00  2.29379165E-32 -4.89279299E-01 -1.46086429E+00
  2.29379165E-32 -4.89279299E-01 -1.46086429E+00  2.29379165E-32 -4.89279299E-01
 -1.46086429E+00  2.29379165E-32 -4.89279299E-01 -1.46086429E+00  2.29379165E-32
 -4.89279299E-01 -1.46086429E+00  2.29379165E-32 -4.89279299E-01 -1.46086429E+00
  2.29379165E-32 -4.89279299E-01 -1.46086429E+00  2.29379165E-32 -4.89279299E-01
 -1.46086429E+00  2.29379165E-32 -4.89279299E-01 -1.46086429E+00  2.29379165E-32
 -4.89279299E-01 -1.46086429E+00  2.29379165E-32 -2.67532000E+00 -1.80108341E+00
  4.29684061E-31 -2.67532000E+00 -1.80108341E+00  4.29684061E-31 -2.67532000E+00
 -1.80108341E+00  4.29684061E-31 -2.67532000E+00 -1.80108341E+00  4.29684061E-31
 -2.67532000E+00 -1.80108341E+00  4.29684061E-31 -2.67532000E+00 -1.80108341E+00
  4.29684061E-31 -2.67532000E+00 -1.80108341E+00  4.29684061E-31 -2.67532000E+00
 -1.80108341E+00  4.29684061E-31 -2.67532000E+00 -1.80108341E+00  4.29684061E-31
 -2.67532000E+00 -1.80108341E+00  4.29684061E-31 -2.67532000E+00 -1.80108341E+00
  4.29684061E-31 -2.67532000E+00 -1.80108341E+00  4.29684061E-31 -2.67532000E+00
 -1.80108341E+00  4.29684061E-31 -2.67532000E+00 -1.80108341E+00  4.29684061E-31
Num ILSW                                   I              100
ILSW                                       I   N=         100
           0           0           0           0           2           0
           0           0           0           0           0          -1
           5           0           0           0           0           0
           0           0           0           0           0           0
           1           0           0           0           0           0
           0           0      100000           0          -1           0
           0           0           0           0           0           0
           0           0           0           1           0           0
           0 -2000000000           1           0           0           0
           0           0           4          52           0           0
           0           0           0           0           0           0
           0           0           0           5           0           1
           0           0           0           0           0           0
           0           0           0           0           0           0
           0           0           0           0           0           0
           0           0           0           0           0           0
           0           0           0           0
Num RLSW                                   I               52
RLSW                                       R   N=          52
  1.00000000E+00  1.00000000E+00  1.00000000E+00  1.00000000E+00  1.00000000E+00
  0.00000000E+00  0.00000000E+00  1.00000000E+00  0.00000000E+00  0.00000000E+00
  0.00000000E+00  0.00000000E+00  1.00000000E+00  0.00000000E+00  0.00000000E+00
  0.00000000E+00  0.00000000E+00  1.00000000E+00  0.00000000E+00  0.00000000E+00
  0.00000000E+00  0.00000000E+00  1.00000000E+00  0.00000000E+00  0.00000000E+00
  0.00000000E+00  0.00000000E+00  1.00000000E+00  0.00000000E+00  0.00000000E+00
  0.00000000E+00  0.00000000E+00  1.00000000E+00  0.00000000E+00  0.00000000E+00
  0.00000000E+00  0.00000000E+00  0.00000000E+00  1.00000000E+00  1.00000000E+00
  0.00000000E+00  1.00000000E+00  0.00000000E+00  0.00000000E+00  0.00000000E+00
  0.00000000E+00  0.00000000E+00  0.00000000E+00  0.00000000E+00  0.00000000E+00
  0.00000000E+00  0.00000000E+00
MxBond                                     I                2
NBond                                      I   N=           5
           1           2           2           2           1
IBond                                      I   N=          10
           2           0           1           3           2           4
           3           5           4           0
RBond                                      R   N=          10
  1.00000000E+00  0.00000000E+00  1.00000000E+00  1.00000000E+00  1.00000000E+00
  1.00000000E+00  1.00000000E+00  2.00000000E+00  2.00000000E+00  0.00000000E+00
Virial Ratio                               R      2.002382930413412E+00
SCF Energy                                 R     -2.795016980676796E+02
MP2 Energy                                 R     -2.804466442848398E+02
Total Energy                               R     -2.804466442848398E+02
Post-SCF wavefunction norm                 R      1.120230017103557E+00
RMS Density                                R      3.804893835700820E-09
Job Status                                 I                1
Nuclear derivative order                   I                0
External E-field                           R   N=          35
  0.00000000E+00  0.00000000E+00  0.00000000E+00  0.00000000E+00  0.00000000E+00
  0.00000000E+00  0.00000000E+00  0.00000000E+00  0.00000000E+00  0.00000000E+00
  0.00000000E+00  0.00000000E+00  0.00000000E+00  0.00000000E+00  0.00000000E+00
  0.00000000E+00  0.00000000E+00  0.00000000E+00  0.00000000E+00  0.00000000E+00
  0.00000000E+00  0.00000000E+00  0.00000000E+00  0.00000000E+00  0.00000000E+00
  0.00000000E+00  0.00000000E+00  0.00000000E+00  0.00000000E+00  0.00000000E+00
  0.00000000E+00  0.00000000E+00  0.00000000E+00  0.00000000E+00  0.00000000E+00
IOpCl                                      I                0
IROHF                                      I                0
Alpha Orbital Energies                     R   N=         207
 -2.06904476E+01 -2.06846265E+01 -2.06604692E+01 -1.58132840E+01 -1.62398499E+00
 -1.49532616E+00 -1.25509004E+00 -9.47795718E-01 -7.71682022E-01 -7.59760267E-01
 -7.11579050E-01 -6.81525908E-01 -6.20839032E-01 -5.88332735E-01 -4.85095631E-01
 -4.72205302E-01  2.96327386E-02  7.15017336E-02  8.59716424E-02  1.02108434E-01
  1.33784960E-01  1.33800024E-01  1.43892927E-01  1.54034431E-01  1.78316450E-01
  1.94317905E-01  1.99959622E-01  2.06134634E-01  2.20660927E-01  2.35227140E-01
  2.37259005E-01  2.67130446E-01  2.93638432E-01  3.03096142E-01  3.10844561E-01
  3.43802560E-01  3.49258397E-01  3.86578222E-01  4.22416246E-01  4.32753531E-01
  5.27547039E-01  5.27987720E-01  5.56815246E-01  5.79442551E-01  6.25578185E-01
  6.39426987E-01  6.74787884E-01  6.84564430E-01  7.07224254E-01  7.10199886E-01
  7.24564086E-01  7.28610623E-01  7.44635388E-01  7.92128868E-01  7.93133774E-01
  8.11155609E-01  8.12616875E-01  8.29181989E-01  8.68210231E-01  9.08562904E-01
  9.21673246E-01  9.26733554E-01  9.54253557E-01  9.72534756E-01  9.83397184E-01
  1.01638404E+00  1.05085535E+00  1.05590592E+00  1.07836624E+00  1.11412269E+00
  1.13879742E+00  1.19127717E+00  1.21938377E+00  1.23454015E+00  1.34013703E+00
  1.35148753E+00  1.38443246E+00  1.45471356E+00  1.48816259E+00  1.50876930E+00
  1.53633007E+00  1.56550546E+00  1.57869061E+00  1.61133549E+00  1.66052570E+00
  1.67244485E+00  1.70329084E+00  1.79189527E+00  1.83540702E+00  1.83667792E+00
  1.87714662E+00  1.90756537E+00  1.95376911E+00  1.99103304E+00  2.00587956E+00
  2.07852928E+00  2.12439933E+00  2.13298027E+00  2.14953114E+00  2.22328274E+00
  2.26405611E+00  2.26533359E+00  2.29094115E+00  2.31219736E+00  2.33610895E+00
  2.38437747E+00  2.42179208E+00  2.42943370E+00  2.45515836E+00  2.46117180E+00
  2.47658028E+00  2.49705889E+00  2.58794504E+00  2.59786572E+00  2.61934450E+00
  2.62736614E+00  2.63818211E+00  2.66499750E+00  2.75394896E+00  2.81859569E+00
  2.84088025E+00  2.87560625E+00  2.89496484E+00  2.92686542E+00  2.96178077E+00
  3.01604733E+00  3.06449121E+00  3.11807890E+00  3.20293213E+00  3.22322852E+00
  3.31825283E+00  3.34887940E+00  3.52743563E+00  3.63494749E+00  3.83680162E+00
  3.84360367E+00  4.14693649E+00  4.16371434E+00  4.18221923E+00  4.25468936E+00
  4.35565080E+00  4.39017233E+00  4.46295076E+00  4.52061952E+00  4.65314611E+00
  4.70952792E+00  4.79999099E+00  4.82394595E+00  4.83115120E+00  4.89459382E+00
  5.02485394E+00  5.07773414E+00  5.10391917E+00  5.15083909E+00  5.17362028E+00
  5.23895197E+00  5.27326137E+00  5.30802931E+00  5.32574514E+00  5.34821012E+00
  5.59396663E+00  5.67338124E+00  5.76495275E+00  5.83117716E+00  5.95751067E+00
  6.16374343E+00  6.30892900E+00  6.33979704E+00  6.39594953E+00  6.49422556E+00
  6.50668140E+00  6.61093599E+00  6.67063742E+00  6.70107476E+00  6.75284521E+00
  6.76315949E+00  6.83152558E+00  6.90037928E+00  7.01710781E+00  7.05593704E+00
  7.06076608E+00  7.08979305E+00  7.12293170E+00  7.14689508E+00  7.18070240E+00
  7.22675957E+00  7.23984143E+00  7.30607934E+00  7.32565310E+00  7.33850117E+00
  7.39586803E+00  7.43382444E+00  7.48200142E+00  7.61272463E+00  7.61638707E+00
  7.62040758E+00  7.66160419E+00  7.78652190E+00  7.87988070E+00  8.09570616E+00
  8.31390377E+00  8.40943373E+00  8.54558820E+00  1.33779845E+01  1.44218002E+01
  1.51461927E+01  1.61502026E+01
Alpha MO coefficients                      R   N=       42849
  9.27741477E-05 -6.62921093E-04 -7.40968430E-04 -6.18603155E-06 -2.24972060E-05
 -2.72952089E-05  0.00000000E+00 -4.07768460E-05  6.74029594E-05  0.00000000E+00
  9.17960485E-05  4.14757814E-05  0.00000000E+00  3.24356249E-05  0.00000000E+00
  0.00000000E+00 -5.05633343E-05  1.82867878E-05 -4.25582142E-06  0.00000000E+00
  0.00000000E+00 -1.47937898E-04  1.10637419E-04  4.72141708E-03 -2.80909738E-04
  1.84271669E-05  1.62190139E-03  1.84053689E-03  1.07395225E-04  1.04535514E-05
  0.00000000E+00 -6.26020134E-04 -5.27959710E-05  0.00000000E+00 -1.15264822E-03
  7.80453221E-04  0.00000000E+00 -4.09216506E-04  5.31020259E-05  0.00000000E+00
  2.88026523E-05  0.00000000E+00  0.00000000E+00 -5.45361743E-05  2.82801031E-06
 -3.81408330E-04  0.00000000E+00  0.00000000E+00  7.44464109E-04  1.01039030E-05
 -4.50045158E-04  0.00000000E+00  0.00000000E+00  2.52545069E-04 -4.19795087E-06
  0.00000000E+00  8.03125222E-05  1.50854014E-05  0.00000000E+00  0.00000000E+00
 -1.08453558E-04 -1.19621777E-05  0.00000000E+00  2.54088299E-04 -2.23769651E-05
  0.00000000E+00  0.00000000E+00 -3.61936608E-04  1.98239182E-05  9.76909220E-01
 -9.20635620E-03  4.33231916E-02  1.97828419E-03 -9.23977401E-04  1.51500763E-03
 -1.33126532E-03  0.00000000E+00 -1.44910881E-03  1.35226666E-03  0.00000000E+00
  6.28929356E-05 -1.16263049E-03  0.00000000E+00 -1.41774628E-04 -1.43529739E-05
  0.00000000E+00  4.40486626E-05  0.00000000E+00  0.00000000E+00 -3.50453676E-05
  2.40664699E-05  7.53129392E-04  0.00000000E+00  0.00000000E+00 -2.25257594E-04
 -4.27580957E-04 -3.58482957E-04  0.00000000E+00  0.00000000E+00 -3.07634529E-04
 -3.72076892E-04  0.00000000E+00  4.73944065E-05 -4.76738055E-05  0.00000000E+00
  0.00000000E+00 -3.85186840E-05 -1.82382385E-05  0.00000000E+00  2.50120351E-05
  2.26332429E-05  0.00000000E+00  0.00000000E+00 -3.06087182E-04 -1.59755272E-04
  4.00523342E-05  5.06784184E-05 -2.67082285E-04 -6.73243758E-04 -1.38579491E-04
 -2.73823014E-05 -9.85567985E-05  0.00000000E+00  2.80243815E-04  7.25223455E-04
  0.00000000E+00 -8.57196883E-04 -4.78639338E-04  0.00000000E+00 -1.21066923E-04
 -2.59791361E-05  0.00000000E+00 -1.85952410E-05  0.00000000E+00  0.00000000E+00
 -3.08414903E-05  1.49669691E-05 -3.30395097E-04  0.00000000E+00  0.00000000E+00
 -8.32587345E-04  1.28652894E-04 -3.61985843E-05  0.00000000E+00  0.00000000E+00
  1.00747029E-04 -1.20840555E-04  0.00000000E+00 -2.11442619E-05 -1.20552153E-04
  0.00000000E+00  0.00000000E+00 -6.03370448E-05 -1.37843286E-04  0.00000000E+00
  8.45670374E-06 -1.47937528E-04  0.00000000E+00  0.00000000E+00  4.44610552E-05
 -4.26784849E-04 -2.88265824E-03  1.24483681E-04 -1.38297378E-04 -2.66088664E-04
  1.29154886E-04 -8.59795016E-06 -2.88668679E-05  0.00000000E+00  6.97108101E-05
  1.70648918E-04  0.00000000E+00  2.32128356E-04  1.91512721E-04  0.00000000E+00
  1.25356569E-04  1.89511529E-05  0.00000000E+00 -3.49867589E-06  0.00000000E+00
  0.00000000E+00 -1.80299754E-05  1.15764410E-06  2.14283650E-07  0.00000000E+00
  0.00000000E+00  8.17990540E-05  9.05979991E-05 -1.00594739E-04  0.00000000E+00
  0.00000000E+00  1.72571443E-04  1.58142130E-04  0.00000000E+00  1.57168122E-05
 -3.72302821E-06  0.00000000E+00  0.00000000E+00 -4.58595022E-06 -1.17219636E-05
  0.00000000E+00 -3.39038252E-05  4.59319653E-05  0.00000000E+00  0.00000000E+00
  8.65815393E-05  9.05490773E-05  3.63605735E-05 -9.80029202E-04 -5.01482365E-04
 -9.55189943E-06 -2.24244860E-05  1.65736687E-05  0.00000000E+00 -5.01217475E-06
  2.77583411E-04  0.00000000E+00 -3.64235614E-05  1.38625854E-04  0.00000000E+00
  2.52924956E-05  0.00000000E+00  0.00000000E+00  1.34444080E-05  1.20616887E-05
 -2.31603615E-05  0.00000000E+00  0.00000000E+00  7.79338005E-06  3.13678779E-05
  1.13220886E-04  7.36026486E-05 -2.75388893E-05  7.80959744E-04  7.06886148E-04
  1.00321582E-05  2.69724471E-06  0.00000000E+00 -6.80802054E-05  1.83956815E-05
  0.00000000E+00  2.78079869E-04  8.59297527E-04  0.00000000E+00 -1.42475411E-05
  7.32094544E-05  0.00000000E+00 -1.67246853E-06  0.00000000E+00  0.00000000E+00
  1.45914651E-07 -7.78131021E-06 -3.82279633E-05  0.00000000E+00  0.00000000E+00
 -2.73140632E-05  9.11017218E-05 -2.81209008E-05  0.00000000E+00  0.00000000E+00
 -2.55378001E-04 -1.49320757E-04  0.00000000E+00  9.13180661E-06  5.97892419E-06
  0.00000000E+00  0.00000000E+00  3.11295723E-06 -1.90549624E-05  0.00000000E+00
 -3.81317040E-05 -3.66594176E-05  0.00000000E+00  0.00000000E+00 -7.18064622E-05
  5.42763376E-06  2.92185881E-03  3.73895792E-05  1.04372072E-04 -6.96715251E-05
 -4.84656232E-04  7.50103622E-06  1.57978376E-05  0.00000000E+00 -6.24137023E-05
 -5.84621576E-05  0.00000000E+00  2.33030504E-04 -1.57556378E-04  0.00000000E+00
 -2.03381348E-04 -7.00649656E-05  0.00000000E+00 -8.67575494E-06  0.00000000E+00
  0.00000000E+00  2.25095927E-05  1.92165099E-05  4.06821196E-06  0.00000000E+00
  0.00000000E+00 -1.18268807E-04 -4.40388777E-05 -2.80147346E-06  0.00000000E+00
  0.00000000E+00 -2.21491020E-04 -1.87692100E-04  0.00000000E+00  3.34294326E-06
  1.56891290E-07  0.00000000E+00  0.00000000E+00  1.89020960E-06 -1.44748907E-05
  0.00000000E+00 -4.70698886E-05  4.50494979E-07  0.00000000E+00  0.00000000E+00
 -7.90954865E-05  1.95173815E-04  2.58746758E-04  1.46578969E-03 -7.83496643E-05
 -1.55180167E-03  3.70113303E-04 -1.44671383E-04 -3.35637828E-07  0.00000000E+00
 -2.08095411E-03 -4.03631266E-04  0.00000000E+00  9.94706615E-04  7.41288183E-04
  0.00000000E+00 -1.68896756E-04  5.16747749E-05  0.00000000E+00 -1.23483490E-04
  0.00000000E+00  0.00000000E+00  2.42605601E-04  9.55759307E-05 -4.40872792E-04
  0.00000000E+00  0.00000000E+00  8.99474151E-04 -6.80333911E-05  1.39121088E-05
  0.00000000E+00  0.00000000E+00 -3.31666014E-04 -1.32716335E-04  0.00000000E+00
 -2.16157736E-06  1.48058705E-05  0.00000000E+00  0.00000000E+00  1.98642134E-05
  1.50520518E-05  0.00000000E+00  1.70534706E-04 -6.92351382E-05  0.00000000E+00
  0.00000000E+00 -2.42101069E-04  3.47865231E-05  9.76648767E-01 -9.85083869E-03
  4.35658469E-02  4.48135542E-03 -4.39991560E-04  2.14837096E-03  4.87870065E-04
  0.00000000E+00 -2.38363987E-03 -6.09434675E-04  0.00000000E+00  1.14547099E-03
 -8.05008265E-07  0.00000000E+00  6.76481129E-06 -4.55402982E-05  0.00000000E+00
 -2.31768123E-04  0.00000000E+00  0.00000000E+00  1.02912418E-04  3.16481575E-05
  3.90444863E-04  0.00000000E+00  0.00000000E+00 -8.29968526E-04 -4.22642306E-04
 -1.57566863E-04  0.00000000E+00  0.00000000E+00  2.61047153E-04  2.09036445E-05
  0.00000000E+00  5.22557923E-05  1.80154190E-05  0.00000000E+00  0.00000000E+00
 -2.16626801E-05 -1.36543657E-05  0.00000000E+00  1.37295347E-04  8.93544588E-06
  0.00000000E+00  0.00000000E+00 -1.88085718E-04 -1.41541120E-04  4.71344296E-04
  1.97804379E-03  8.88059883E-05  1.43344118E-05 -3.59988335E-05 -2.44746394E-04
  0.00000000E+00  1.50312666E-04 -1.24636909E-03  0.00000000E+00  3.46689933E-04
 -3.17871279E-04  0.00000000E+00 -1.52899604E-06  0.00000000E+00  0.00000000E+00
  7.63778836E-05  2.11895257E-05 -1.61649031E-04  0.00000000E+00  0.00000000E+00
 -5.34319709E-04 -5.51123892E-05  9.76831061E-01 -9.15949416E-03  4.34465424E-02
  2.27704438E-04 -1.21613705E-03 -1.60749100E-03  1.39473036E-03  0.00000000E+00
  1.61642404E-03 -1.23530486E-03  0.00000000E+00 -5.39378850E-04 -7.75100568E-04
  0.00000000E+00  6.08362202E-05 -5.59238534E-05  0.00000000E+00  3.03712065E-05
  0.00000000E+00  0.00000000E+00 -1.16372660E-04 -1.11831875E-05  7.53065660E-04
  0.00000000E+00  0.00000000E+00 -2.00660475E-04 -2.44009220E-04 -2.66676091E-04
  0.00000000E+00  0.00000000E+00  1.60074407E-04  1.05275826E-04  0.00000000E+00
 -6.46934031E-05  6.20003432E-07  0.00000000E+00  0.00000000E+00  1.96583751E-05
  1.11395324E-05  0.00000000E+00 -4.95024915E-06  1.15170481E-04  0.00000000E+00
  0.00000000E+00  2.42015941E-04  1.09418511E-04 -4.81293878E-03 -2.09989846E-04