 Entering Gaussian System, Link 0=g16
 Input=hoono_d1_193p8757.gjf
 Output=hoono_d1_193p8757.log
 Initial command:
 /sw/contrib/gaussian/g16/B01/g16/l1.exe "/scr/Gau-5986.inp" -scrdir="/scr/"
 Entering Link 1 = /sw/contrib/gaussian/g16/B01/g16/l1.exe PID=      5987.
  
 Copyright (c) 1988-2017, Gaussian, Inc.  All Rights Reserved.
  
 This is part of the Gaussian(R) 16 program.  It is based on
 the Gaussian(R) 09 system (copyright 2009, Gaussian, Inc.),
 the Gaussian(R) 03 system (copyright 2003, Gaussian, Inc.),
 the Gaussian(R) 98 system (copyright 1998, Gaussian, Inc.),
 the Gaussian(R) 94 system (copyright 1995, Gaussian, Inc.),
 the Gaussian 92(TM) system (copyright 1992, Gaussian, Inc.),
 the Gaussian 90(TM) system (copyright 1990, Gaussian, Inc.),
 the Gaussian 88(TM) system (copyright 1988, Gaussian, Inc.),
 the Gaussian 86(TM) system (copyright 1986, Carnegie Mellon
 University), and the Gaussian 82(TM) system (copyright 1983,
 Carnegie Mellon University). Gaussian is a federally registered
 trademark of Gaussian, Inc.
  
 This software contains proprietary and confidential information,
 including trade secrets, belonging to Gaussian, Inc.
  
 This software is provided under written license and may be
 used, copied, transmitted, or stored only in accord with that
 written license.
  
 The following legend is applicable only to US Government
 contracts under FAR:
  
                    RESTRICTED RIGHTS LEGEND
  
 Use, reproduction and disclosure by the US Government is
 subject to restrictions as set forth in subparagraphs (a)
 and (c) of the Commercial Computer Software - Restricted
 Rights clause in FAR 52.227-19.
  
 Gaussian, Inc.
 340 Quinnipiac St., Bldg. 40, Wallingford CT 06492
  
  
 ---------------------------------------------------------------
 Warning -- This program may not be used in any manner that
 competes with the business of Gaussian, Inc. or will provide
 assistance to any competitor of Gaussian, Inc.  The licensee
 of this program is prohibited from giving any competitor of
 Gaussian, Inc. access to this program.  By using this program,
 the user acknowledges that Gaussian, Inc. is engaged in the
 business of creating and licensing software in the field of
 computational chemistry and represents and warrants to the
 licensee that it is not a competitor of Gaussian, Inc. and that
 it will not use this program in any manner prohibited above.
 ---------------------------------------------------------------
  

 Cite this work as:
 Gaussian 16, Revision B.01,
 M. J. Frisch, G. W. Trucks, H. B. Schlegel, G. E. Scuseria, 
 M. A. Robb, J. R. Cheeseman, G. Scalmani, V. Barone, 
 G. A. Petersson, H. Nakatsuji, X. Li, M. Caricato, A. V. Marenich, 
 J. Bloino, B. G. Janesko, R. Gomperts, B. Mennucci, H. P. Hratchian, 
 J. V. Ortiz, A. F. Izmaylov, J. L. Sonnenberg, D. Williams-Young, 
 F. Ding, F. Lipparini, F. Egidi, J. Goings, B. Peng, A. Petrone, 
 T. Henderson, D. Ranasinghe, V. G. Zakrzewski, J. Gao, N. Rega, 
 G. Zheng, W. Liang, M. Hada, M. Ehara, K. Toyota, R. Fukuda, 
 J. Hasegawa, M. Ishida, T. Nakajima, Y. Honda, O. Kitao, H. Nakai, 
 T. Vreven, K. Throssell, J. A. Montgomery, Jr., J. E. Peralta, 
 F. Ogliaro, M. J. Bearpark, J. J. Heyd, E. N. Brothers, K. N. Kudin, 
 V. N. Staroverov, T. A. Keith, R. Kobayashi, J. Normand, 
 K. Raghavachari, A. P. Rendell, J. C. Burant, S. S. Iyengar, 
 J. Tomasi, M. Cossi, J. M. Millam, M. Klene, C. Adamo, R. Cammi, 
 J. W. Ochterski, R. L. Martin, K. Morokuma, O. Farkas, 
 J. B. Foresman, and D. J. Fox, Gaussian, Inc., Wallingford CT, 2016.
 
 ******************************************
 Gaussian 16:  ES64L-G16RevB.01 20-Dec-2017
                21-Feb-2022 
 ******************************************
 %nproc=28
 Will use up to   28 processors via shared memory.
 %mem=120GB
 %chk=hoono_d1_193p8757.chk
 ---------------------------------------
 #p freq mp2/aug-cc-pvtz density=current
 ---------------------------------------
 1/10=4,30=1,38=1/1,3;
 2/12=2,17=6,18=5,40=1/2;
 3/5=16,6=1,7=10,11=9,25=1,30=1,71=2,140=1/1,2,3;
 4//1;
 5/5=2,38=5,98=1/2;
 8/6=3,8=1,10=1,19=11,30=-1/1;
 9/15=3,16=-3/6;
 11/6=1,8=1,15=11,17=12,24=-1,27=1,28=-2,29=300,32=6,42=3/1,2,10;
 10/6=2,21=1/2;
 8/6=4,8=1,10=1,19=11,30=-1/11,4;
 10/5=1,20=4/2;
 11/12=2,14=11,16=1,17=2,28=-2,42=3,76=2/2,10,12;
 6/7=2,8=2,9=2,10=2,22=-1/1;
 7/8=1,10=1,12=2,25=1,44=2/1,2,3,16;
 1/10=4,30=1/3;
 99//99;
 Leave Link    1 at Mon Feb 21 21:00:28 2022, MaxMem= 16106127360 cpu:               2.9 elap:               0.1
 (Enter /sw/contrib/gaussian/g16/B01/g16/l101.exe)
 -----
 title
 -----
 Symbolic Z-matrix:
 Charge =  0 Multiplicity = 1
 H
 O                    1    r1
 O                    2    r2       1    a1
 N                    3    r3       2    a2       1    d1       0
 O                    4    r4       3    a3       2    d2       0
       Variables:
  r1                    0.96898                  
  r2                    1.45492                  
  r3                    1.45878                  
  r4                    1.17073                  
  a1                   97.59495                  
  a2                  102.29752                  
  a3                  109.06955                  
  d1                  193.87573                  
  d2                  180.                       
 
 ITRead=  0  0  0  0  0
 MicOpt= -1 -1 -1 -1 -1
 NAtoms=      5 NQM=        5 NQMF=       0 NMMI=      0 NMMIF=      0
                NMic=       0 NMicF=      0.
                    Isotopes and Nuclear Properties:
 (Nuclear quadrupole moments (NQMom) in fm**2, nuclear magnetic moments (NMagM)
  in nuclear magnetons)

  Atom         1           2           3           4           5
 IAtWgt=           1          16          16          14          16
 AtmWgt=   1.0078250  15.9949146  15.9949146  14.0030740  15.9949146
 NucSpn=           1           0           0           2           0
 AtZEff=  -0.0000000  -0.0000000  -0.0000000  -0.0000000  -0.0000000
 NQMom=    0.0000000   0.0000000   0.0000000   2.0440000   0.0000000
 NMagM=    2.7928460   0.0000000   0.0000000   0.4037610   0.0000000
 AtZNuc=   1.0000000   8.0000000   8.0000000   7.0000000   8.0000000
 Leave Link  101 at Mon Feb 21 21:00:28 2022, MaxMem= 16106127360 cpu:               2.8 elap:               0.1
 (Enter /sw/contrib/gaussian/g16/B01/g16/l103.exe)

 GradGradGradGradGradGradGradGradGradGradGradGradGradGradGradGradGradGrad
 Berny optimization.
 Initialization pass.
                       ----------------------------
                       !    Initial Parameters    !
                       ! (Angstroms and Degrees)  !
 ----------------------                            ----------------------
 !      Name          Value   Derivative information (Atomic Units)     !
 ------------------------------------------------------------------------
 !       r1          0.969    calculate D2E/DX2 analytically            !
 !       r2          1.4549   calculate D2E/DX2 analytically            !
 !       r3          1.4588   calculate D2E/DX2 analytically            !
 !       r4          1.1707   calculate D2E/DX2 analytically            !
 !       a1         97.5949   calculate D2E/DX2 analytically            !
 !       a2        102.2975   calculate D2E/DX2 analytically            !
 !       a3        109.0696   calculate D2E/DX2 analytically            !
 !       d1        193.8757   calculate D2E/DX2 analytically            !
 !       d2        180.0      calculate D2E/DX2 analytically            !
 ------------------------------------------------------------------------
 Trust Radius=3.00D-01 FncErr=1.00D-07 GrdErr=1.00D-07 EigMax=2.50D+02 EigMin=1.00D-04
 Number of steps in this run=      2 maximum allowed number of steps=      2.
 GradGradGradGradGradGradGradGradGradGradGradGradGradGradGradGradGradGrad

 Leave Link  103 at Mon Feb 21 21:00:28 2022, MaxMem= 16106127360 cpu:               0.5 elap:               0.0
 (Enter /sw/contrib/gaussian/g16/B01/g16/l202.exe)
                          Input orientation:                          
 ---------------------------------------------------------------------
 Center     Atomic      Atomic             Coordinates (Angstroms)
 Number     Number       Type             X           Y           Z
 ---------------------------------------------------------------------
      1          1           0        0.000000    0.000000    0.000000
      2          8           0        0.000000    0.000000    0.968976
      3          8           0        1.442156    0.000000    1.161271
      4          7           0        1.567249   -0.341814    2.573916
      5          8           0        2.701897   -0.374921    2.860417
 ---------------------------------------------------------------------
                    Distance matrix (angstroms):
                    1          2          3          4          5
     1  H    0.000000
     2  O    0.968976   0.000000
     3  O    1.851584   1.454919   0.000000
     4  N    3.032845   2.269127   1.458784   0.000000
     5  O    3.952569   3.319392   2.148165   1.170729   0.000000
 Stoichiometry    HNO3
 Framework group  C1[X(HNO3)]
 Deg. of freedom     9
 Full point group                 C1      NOp   1
 Largest Abelian subgroup         C1      NOp   1
 Largest concise Abelian subgroup C1      NOp   1
                         Standard orientation:                         
 ---------------------------------------------------------------------
 Center     Atomic      Atomic             Coordinates (Angstroms)
 Number     Number       Type             X           Y           Z
 ---------------------------------------------------------------------
      1          1           0        2.235061    0.419069    0.192805
      2          8           0        1.599536   -0.281661   -0.016957
      3          8           0        0.400112    0.541836   -0.022268
      4          7           0       -0.662665   -0.456962    0.008673
      5          8           0       -1.699199    0.087283    0.007536
 ---------------------------------------------------------------------
 Rotational constants (GHZ):          54.7851098           5.0121302           4.5960878
 Leave Link  202 at Mon Feb 21 21:00:28 2022, MaxMem= 16106127360 cpu:               2.1 elap:               0.1
 (Enter /sw/contrib/gaussian/g16/B01/g16/l301.exe)
 Standard basis: Aug-CC-pVTZ (5D, 7F)
 Ernie: Thresh=  0.10000D-02 Tol=  0.10000D-05 Strict=F.
 Ernie:  12 primitive shells out of 131 were deleted.
 There are   245 symmetry adapted cartesian basis functions of A   symmetry.
 There are   207 symmetry adapted basis functions of A   symmetry.
   207 basis functions,   315 primitive gaussians,   245 cartesian basis functions
    16 alpha electrons       16 beta electrons
       nuclear repulsion energy       116.8802733771 Hartrees.
 IExCor=    0 DFT=F Ex=HF Corr=None ExCW=0 ScaHFX=  1.000000
 ScaDFX=  1.000000  1.000000  1.000000  1.000000 ScalE2=  1.000000  1.000000
 IRadAn=      5 IRanWt=     -1 IRanGd=            0 ICorTp=0 IEmpDi=  4
 NAtoms=    5 NActive=    5 NUniq=    5 SFac= 1.00D+00 NAtFMM=   60 NAOKFM=F Big=F
 Integral buffers will be    131072 words long.
 Raffenetti 1 integral format.
 Two-electron integral symmetry is turned on.
 Leave Link  301 at Mon Feb 21 21:00:28 2022, MaxMem= 16106127360 cpu:               1.4 elap:               0.1
 (Enter /sw/contrib/gaussian/g16/B01/g16/l302.exe)
 NPDir=0 NMtPBC=     1 NCelOv=     1 NCel=       1 NClECP=     1 NCelD=      1
         NCelK=      1 NCelE2=     1 NClLst=     1 CellRange=     0.0.
 One-electron integrals computed using PRISM.
 One-electron integral symmetry used in STVInt
 NBasis=   207 RedAO= T EigKep=  1.83D-04  NBF=   207
 NBsUse=   207 1.00D-06 EigRej= -1.00D+00 NBFU=   207
 Leave Link  302 at Mon Feb 21 21:00:29 2022, MaxMem= 16106127360 cpu:               6.1 elap:               0.3
 (Enter /sw/contrib/gaussian/g16/B01/g16/l303.exe)
 DipDrv:  MaxL=1.
 Leave Link  303 at Mon Feb 21 21:00:29 2022, MaxMem= 16106127360 cpu:               1.1 elap:               0.1
 (Enter /sw/contrib/gaussian/g16/B01/g16/l401.exe)
 ExpMin= 2.53D-02 ExpMax= 1.53D+04 ExpMxC= 5.22D+02 IAcc=3 IRadAn=         5 AccDes= 0.00D+00
 Harris functional with IExCor=  205 and IRadAn=       5 diagonalized for initial guess.
 HarFok:  IExCor=  205 AccDes= 0.00D+00 IRadAn=         5 IDoV= 1 UseB2=F ITyADJ=14
 ICtDFT=  3500011 ScaDFX=  1.000000  1.000000  1.000000  1.000000
 FoFCou: FMM=F IPFlag=           0 FMFlag=      100000 FMFlg1=           0
         NFxFlg=           0 DoJE=T BraDBF=F KetDBF=T FulRan=T
         wScrn=  0.000000 ICntrl=       500 IOpCl=  0 I1Cent=   200000004 NGrid=           0
         NMat0=    1 NMatS0=      1 NMatT0=    0 NMatD0=    1 NMtDS0=    0 NMtDT0=    0
 Petite list used in FoFCou.
 Harris En= -279.628799647975    
 JPrj=0 DoOrth=F DoCkMO=F.
 Leave Link  401 at Mon Feb 21 21:00:29 2022, MaxMem= 16106127360 cpu:               7.3 elap:               0.3
 (Enter /sw/contrib/gaussian/g16/B01/g16/l502.exe)
 Keep R1 ints in memory in canonical form, NReq=245616981.
 FoFCou: FMM=F IPFlag=           0 FMFlag=           0 FMFlg1=           0
         NFxFlg=           0 DoJE=F BraDBF=F KetDBF=F FulRan=T
         wScrn=  0.000000 ICntrl=       600 IOpCl=  0 I1Cent=           0 NGrid=           0
         NMat0=    1 NMatS0=  21528 NMatT0=    0 NMatD0=    1 NMtDS0=    0 NMtDT0=    0
 Symmetry not used in FoFCou.
 Two-electron integral symmetry not used.
 Closed shell SCF:
 Using DIIS extrapolation, IDIIS=  1040.
 NGot= 16106127360 LenX= 15874260251 LenY= 15874199785
 Requested convergence on RMS density matrix=1.00D-08 within 128 cycles.
 Requested convergence on MAX density matrix=1.00D-06.
 Requested convergence on             energy=1.00D-06.
 No special actions if energy rises.

 Cycle   1  Pass 1  IDiag  1:
 E= -279.370699330759    
 DIIS: error= 2.24D-02 at cycle   1 NSaved=   1.
 NSaved= 1 IEnMin= 1 EnMin= -279.370699330759     IErMin= 1 ErrMin= 2.24D-02
 ErrMax= 2.24D-02  0.00D+00 EMaxC= 1.00D-01 BMatC= 4.38D-01 BMatP= 4.38D-01
 IDIUse=3 WtCom= 7.76D-01 WtEn= 2.24D-01
 Coeff-Com:  0.100D+01
 Coeff-En:   0.100D+01
 Coeff:      0.100D+01
 Gap=     0.517 Goal=   None    Shift=    0.000
 GapD=    0.517 DampG=2.000 DampE=0.500 DampFc=1.0000 IDamp=-1.
 RMSDP=1.62D-03 MaxDP=9.91D-02              OVMax= 1.12D-01

 Cycle   2  Pass 1  IDiag  1:
 E= -279.452620334592     Delta-E=       -0.081921003833 Rises=F Damp=F
 DIIS: error= 1.67D-02 at cycle   2 NSaved=   2.
 NSaved= 2 IEnMin= 2 EnMin= -279.452620334592     IErMin= 2 ErrMin= 1.67D-02
 ErrMax= 1.67D-02  0.00D+00 EMaxC= 1.00D-01 BMatC= 7.18D-02 BMatP= 4.38D-01
 IDIUse=3 WtCom= 8.33D-01 WtEn= 1.67D-01
 Coeff-Com:  0.195D+00 0.805D+00
 Coeff-En:   0.000D+00 0.100D+01
 Coeff:      0.162D+00 0.838D+00
 Gap=     0.530 Goal=   None    Shift=    0.000
 RMSDP=8.98D-04 MaxDP=3.72D-02 DE=-8.19D-02 OVMax= 6.55D-02

 Cycle   3  Pass 1  IDiag  1:
 E= -279.481946287323     Delta-E=       -0.029325952731 Rises=F Damp=F
 DIIS: error= 9.61D-03 at cycle   3 NSaved=   3.
 NSaved= 3 IEnMin= 3 EnMin= -279.481946287323     IErMin= 3 ErrMin= 9.61D-03
 ErrMax= 9.61D-03  0.00D+00 EMaxC= 1.00D-01 BMatC= 2.84D-02 BMatP= 7.18D-02
 IDIUse=3 WtCom= 9.04D-01 WtEn= 9.61D-02
 Coeff-Com: -0.330D-01 0.377D+00 0.656D+00
 Coeff-En:   0.000D+00 0.237D+00 0.763D+00
 Coeff:     -0.298D-01 0.363D+00 0.667D+00
 Gap=     0.509 Goal=   None    Shift=    0.000
 RMSDP=3.74D-04 MaxDP=1.54D-02 DE=-2.93D-02 OVMax= 3.76D-02

 Cycle   4  Pass 1  IDiag  1:
 E= -279.500789868107     Delta-E=       -0.018843580785 Rises=F Damp=F
 DIIS: error= 1.21D-03 at cycle   4 NSaved=   4.
 NSaved= 4 IEnMin= 4 EnMin= -279.500789868107     IErMin= 4 ErrMin= 1.21D-03
 ErrMax= 1.21D-03  0.00D+00 EMaxC= 1.00D-01 BMatC= 4.83D-04 BMatP= 2.84D-02
 IDIUse=3 WtCom= 9.88D-01 WtEn= 1.21D-02
 Coeff-Com: -0.117D-01 0.576D-01 0.158D+00 0.796D+00
 Coeff-En:   0.000D+00 0.000D+00 0.000D+00 0.100D+01
 Coeff:     -0.115D-01 0.569D-01 0.156D+00 0.799D+00
 Gap=     0.501 Goal=   None    Shift=    0.000
 RMSDP=8.98D-05 MaxDP=2.18D-03 DE=-1.88D-02 OVMax= 1.07D-02

 Cycle   5  Pass 1  IDiag  1:
 E= -279.501456362720     Delta-E=       -0.000666494612 Rises=F Damp=F
 DIIS: error= 6.81D-04 at cycle   5 NSaved=   5.
 NSaved= 5 IEnMin= 5 EnMin= -279.501456362720     IErMin= 5 ErrMin= 6.81D-04
 ErrMax= 6.81D-04  0.00D+00 EMaxC= 1.00D-01 BMatC= 8.67D-05 BMatP= 4.83D-04
 IDIUse=3 WtCom= 9.93D-01 WtEn= 6.81D-03
 Coeff-Com:  0.612D-02-0.720D-01-0.118D+00 0.202D-01 0.116D+01
 Coeff-En:   0.000D+00 0.000D+00 0.000D+00 0.000D+00 0.100D+01
 Coeff:      0.608D-02-0.715D-01-0.117D+00 0.201D-01 0.116D+01
 Gap=     0.501 Goal=   None    Shift=    0.000
 RMSDP=7.59D-05 MaxDP=2.09D-03 DE=-6.66D-04 OVMax= 1.08D-02

 Cycle   6  Pass 1  IDiag  1:
 E= -279.501768802342     Delta-E=       -0.000312439622 Rises=F Damp=F
 DIIS: error= 2.79D-04 at cycle   6 NSaved=   6.
 NSaved= 6 IEnMin= 6 EnMin= -279.501768802342     IErMin= 6 ErrMin= 2.79D-04
 ErrMax= 2.79D-04  0.00D+00 EMaxC= 1.00D-01 BMatC= 1.65D-05 BMatP= 8.67D-05
 IDIUse=3 WtCom= 9.97D-01 WtEn= 2.79D-03
 Coeff-Com:  0.596D-03 0.149D-02 0.460D-02-0.129D+00-0.230D+00 0.135D+01
 Coeff-En:   0.000D+00 0.000D+00 0.000D+00 0.000D+00 0.000D+00 0.100D+01
 Coeff:      0.595D-03 0.149D-02 0.459D-02-0.129D+00-0.229D+00 0.135D+01
 Gap=     0.501 Goal=   None    Shift=    0.000
 RMSDP=4.50D-05 MaxDP=1.05D-03 DE=-3.12D-04 OVMax= 5.49D-03

 Cycle   7  Pass 1  IDiag  1:
 E= -279.501840721195     Delta-E=       -0.000071918852 Rises=F Damp=F
 DIIS: error= 9.57D-05 at cycle   7 NSaved=   7.
 NSaved= 7 IEnMin= 7 EnMin= -279.501840721195     IErMin= 7 ErrMin= 9.57D-05
 ErrMax= 9.57D-05  0.00D+00 EMaxC= 1.00D-01 BMatC= 4.48D-06 BMatP= 1.65D-05
 IDIUse=1 WtCom= 1.00D+00 WtEn= 0.00D+00
 Coeff-Com: -0.934D-03 0.134D-01 0.265D-01-0.241D-01-0.286D+00 0.389D+00
 Coeff-Com:  0.883D+00
 Coeff:     -0.934D-03 0.134D-01 0.265D-01-0.241D-01-0.286D+00 0.389D+00
 Coeff:      0.883D+00
 Gap=     0.501 Goal=   None    Shift=    0.000
 RMSDP=1.32D-05 MaxDP=3.77D-04 DE=-7.19D-05 OVMax= 1.53D-03

 Cycle   8  Pass 1  IDiag  1:
 E= -279.501849553058     Delta-E=       -0.000008831863 Rises=F Damp=F
 DIIS: error= 4.72D-05 at cycle   8 NSaved=   8.
 NSaved= 8 IEnMin= 8 EnMin= -279.501849553058     IErMin= 8 ErrMin= 4.72D-05
 ErrMax= 4.72D-05  0.00D+00 EMaxC= 1.00D-01 BMatC= 6.04D-07 BMatP= 4.48D-06
 IDIUse=1 WtCom= 1.00D+00 WtEn= 0.00D+00
 Coeff-Com: -0.449D-03 0.345D-02 0.761D-02 0.274D-01-0.411D-01-0.198D+00
 Coeff-Com:  0.172D+00 0.103D+01
 Coeff:     -0.449D-03 0.345D-02 0.761D-02 0.274D-01-0.411D-01-0.198D+00
 Coeff:      0.172D+00 0.103D+01
 Gap=     0.501 Goal=   None    Shift=    0.000
 RMSDP=6.89D-06 MaxDP=2.02D-04 DE=-8.83D-06 OVMax= 7.46D-04

 Cycle   9  Pass 1  IDiag  1:
 E= -279.501851320093     Delta-E=       -0.000001767035 Rises=F Damp=F
 DIIS: error= 1.53D-05 at cycle   9 NSaved=   9.
 NSaved= 9 IEnMin= 9 EnMin= -279.501851320093     IErMin= 9 ErrMin= 1.53D-05
 ErrMax= 1.53D-05  0.00D+00 EMaxC= 1.00D-01 BMatC= 6.91D-08 BMatP= 6.04D-07
 IDIUse=1 WtCom= 1.00D+00 WtEn= 0.00D+00
 Coeff-Com:  0.123D-03-0.171D-02-0.308D-02-0.204D-02 0.342D-01-0.228D-04
 Coeff-Com: -0.167D+00-0.102D+00 0.124D+01
 Coeff:      0.123D-03-0.171D-02-0.308D-02-0.204D-02 0.342D-01-0.228D-04
 Coeff:     -0.167D+00-0.102D+00 0.124D+01
 Gap=     0.501 Goal=   None    Shift=    0.000
 RMSDP=1.94D-06 MaxDP=5.16D-05 DE=-1.77D-06 OVMax= 1.69D-04

 Cycle  10  Pass 1  IDiag  1:
 E= -279.501851480417     Delta-E=       -0.000000160325 Rises=F Damp=F
 DIIS: error= 3.87D-06 at cycle  10 NSaved=  10.
 NSaved=10 IEnMin=10 EnMin= -279.501851480417     IErMin=10 ErrMin= 3.87D-06
 ErrMax= 3.87D-06  0.00D+00 EMaxC= 1.00D-01 BMatC= 5.56D-09 BMatP= 6.91D-08
 IDIUse=1 WtCom= 1.00D+00 WtEn= 0.00D+00
 Coeff-Com:  0.310D-04-0.244D-03-0.323D-03-0.270D-02 0.165D-02 0.197D-01
 Coeff-Com: -0.130D-01-0.745D-01-0.813D-01 0.115D+01
 Coeff:      0.310D-04-0.244D-03-0.323D-03-0.270D-02 0.165D-02 0.197D-01
 Coeff:     -0.130D-01-0.745D-01-0.813D-01 0.115D+01
 Gap=     0.501 Goal=   None    Shift=    0.000
 RMSDP=5.10D-07 MaxDP=2.10D-05 DE=-1.60D-07 OVMax= 4.02D-05

 Cycle  11  Pass 1  IDiag  1:
 E= -279.501851493227     Delta-E=       -0.000000012810 Rises=F Damp=F
 DIIS: error= 1.77D-06 at cycle  11 NSaved=  11.
 NSaved=11 IEnMin=11 EnMin= -279.501851493227     IErMin=11 ErrMin= 1.77D-06
 ErrMax= 1.77D-06  0.00D+00 EMaxC= 1.00D-01 BMatC= 6.81D-10 BMatP= 5.56D-09
 IDIUse=1 WtCom= 1.00D+00 WtEn= 0.00D+00
 Coeff-Com: -0.215D-04 0.246D-03 0.493D-03 0.546D-03-0.433D-02-0.369D-02
 Coeff-Com:  0.214D-01 0.314D-01-0.140D+00-0.184D+00 0.128D+01
 Coeff:     -0.215D-04 0.246D-03 0.493D-03 0.546D-03-0.433D-02-0.369D-02
 Coeff:      0.214D-01 0.314D-01-0.140D+00-0.184D+00 0.128D+01
 Gap=     0.501 Goal=   None    Shift=    0.000
 RMSDP=1.87D-07 MaxDP=6.50D-06 DE=-1.28D-08 OVMax= 1.64D-05

 Cycle  12  Pass 1  IDiag  1:
 E= -279.501851495198     Delta-E=       -0.000000001970 Rises=F Damp=F
 DIIS: error= 5.30D-07 at cycle  12 NSaved=  12.
 NSaved=12 IEnMin=12 EnMin= -279.501851495198     IErMin=12 ErrMin= 5.30D-07
 ErrMax= 5.30D-07  0.00D+00 EMaxC= 1.00D-01 BMatC= 8.14D-11 BMatP= 6.81D-10
 IDIUse=1 WtCom= 1.00D+00 WtEn= 0.00D+00
 Coeff-Com:  0.147D-05-0.319D-04-0.700D-04 0.185D-03 0.115D-02-0.233D-02
 Coeff-Com: -0.441D-02 0.530D-02 0.442D-01-0.115D+00-0.299D+00 0.137D+01
 Coeff:      0.147D-05-0.319D-04-0.700D-04 0.185D-03 0.115D-02-0.233D-02
 Coeff:     -0.441D-02 0.530D-02 0.442D-01-0.115D+00-0.299D+00 0.137D+01
 Gap=     0.501 Goal=   None    Shift=    0.000
 RMSDP=8.30D-08 MaxDP=2.83D-06 DE=-1.97D-09 OVMax= 9.50D-06

 Cycle  13  Pass 1  IDiag  1:
 E= -279.501851495503     Delta-E=       -0.000000000306 Rises=F Damp=F
 DIIS: error= 2.00D-07 at cycle  13 NSaved=  13.
 NSaved=13 IEnMin=13 EnMin= -279.501851495503     IErMin=13 ErrMin= 2.00D-07
 ErrMax= 2.00D-07  0.00D+00 EMaxC= 1.00D-01 BMatC= 7.86D-12 BMatP= 8.14D-11
 IDIUse=1 WtCom= 1.00D+00 WtEn= 0.00D+00
 Coeff-Com:  0.144D-05-0.148D-04-0.237D-04-0.110D-03 0.923D-04 0.986D-03
 Coeff-Com: -0.776D-03-0.409D-02-0.111D-02 0.527D-01-0.296D-01-0.423D+00
 Coeff-Com:  0.141D+01
 Coeff:      0.144D-05-0.148D-04-0.237D-04-0.110D-03 0.923D-04 0.986D-03
 Coeff:     -0.776D-03-0.409D-02-0.111D-02 0.527D-01-0.296D-01-0.423D+00
 Coeff:      0.141D+01
 Gap=     0.501 Goal=   None    Shift=    0.000
 RMSDP=3.15D-08 MaxDP=7.36D-07 DE=-3.06D-10 OVMax= 4.77D-06

 Cycle  14  Pass 1  IDiag  1:
 E= -279.501851495545     Delta-E=       -0.000000000042 Rises=F Damp=F
 DIIS: error= 1.22D-07 at cycle  14 NSaved=  14.
 NSaved=14 IEnMin=14 EnMin= -279.501851495545     IErMin=14 ErrMin= 1.22D-07
 ErrMax= 1.22D-07  0.00D+00 EMaxC= 1.00D-01 BMatC= 1.77D-12 BMatP= 7.86D-12
 IDIUse=1 WtCom= 1.00D+00 WtEn= 0.00D+00
 Coeff-Com: -0.684D-06 0.942D-05 0.161D-04 0.294D-04-0.183D-03-0.107D-03
 Coeff-Com:  0.776D-03 0.113D-02-0.464D-02-0.751D-02 0.414D-01 0.282D-01
 Coeff-Com: -0.614D+00 0.155D+01
 Coeff:     -0.684D-06 0.942D-05 0.161D-04 0.294D-04-0.183D-03-0.107D-03
 Coeff:      0.776D-03 0.113D-02-0.464D-02-0.751D-02 0.414D-01 0.282D-01
 Coeff:     -0.614D+00 0.155D+01
 Gap=     0.501 Goal=   None    Shift=    0.000
 RMSDP=1.73D-08 MaxDP=5.01D-07 DE=-4.20D-11 OVMax= 3.08D-06

 Cycle  15  Pass 1  IDiag  1:
 E= -279.501851495558     Delta-E=       -0.000000000013 Rises=F Damp=F
 DIIS: error= 7.31D-08 at cycle  15 NSaved=  15.
 NSaved=15 IEnMin=15 EnMin= -279.501851495558     IErMin=15 ErrMin= 7.31D-08
 ErrMax= 7.31D-08  0.00D+00 EMaxC= 1.00D-01 BMatC= 5.54D-13 BMatP= 1.77D-12
 IDIUse=1 WtCom= 1.00D+00 WtEn= 0.00D+00
 Coeff-Com:  0.103D-06-0.244D-05-0.598D-05 0.100D-04 0.115D-03-0.208D-03
 Coeff-Com: -0.330D-03 0.210D-03 0.391D-02-0.925D-02-0.225D-01 0.107D+00
 Coeff-Com:  0.335D-01-0.122D+01 0.211D+01
 Coeff:      0.103D-06-0.244D-05-0.598D-05 0.100D-04 0.115D-03-0.208D-03
 Coeff:     -0.330D-03 0.210D-03 0.391D-02-0.925D-02-0.225D-01 0.107D+00
 Coeff:      0.335D-01-0.122D+01 0.211D+01
 Gap=     0.501 Goal=   None    Shift=    0.000
 RMSDP=1.60D-08 MaxDP=4.76D-07 DE=-1.27D-11 OVMax= 2.92D-06

 Cycle  16  Pass 1  IDiag  1:
 E= -279.501851495564     Delta-E=       -0.000000000006 Rises=F Damp=F
 DIIS: error= 2.13D-08 at cycle  16 NSaved=  16.
 NSaved=16 IEnMin=16 EnMin= -279.501851495564     IErMin=16 ErrMin= 2.13D-08
 ErrMax= 2.13D-08  0.00D+00 EMaxC= 1.00D-01 BMatC= 5.74D-14 BMatP= 5.54D-13
 IDIUse=1 WtCom= 1.00D+00 WtEn= 0.00D+00
 Coeff-Com:  0.600D-07-0.734D-06-0.215D-06-0.959D-05-0.840D-05 0.837D-04
 Coeff-Com: -0.651D-06-0.275D-03-0.530D-03 0.414D-02 0.602D-03-0.433D-01
 Coeff-Com:  0.117D+00 0.884D-01-0.671D+00 0.151D+01
 Coeff:      0.600D-07-0.734D-06-0.215D-06-0.959D-05-0.840D-05 0.837D-04
 Coeff:     -0.651D-06-0.275D-03-0.530D-03 0.414D-02 0.602D-03-0.433D-01
 Coeff:      0.117D+00 0.884D-01-0.671D+00 0.151D+01
 Gap=     0.501 Goal=   None    Shift=    0.000
 RMSDP=4.98D-09 MaxDP=1.47D-07 DE=-5.57D-12 OVMax= 9.19D-07

 SCF Done:  E(RHF) =  -279.501851496     A.U. after   16 cycles
            NFock= 16  Conv=0.50D-08     -V/T= 2.0024
 KE= 2.788456487005D+02 PE=-8.950863944475D+02 EE= 2.198586208744D+02
 Leave Link  502 at Mon Feb 21 21:00:37 2022, MaxMem= 16106127360 cpu:              44.5 elap:               7.6
 (Enter /sw/contrib/gaussian/g16/B01/g16/l801.exe)
 ExpMin= 2.53D-02 ExpMax= 1.53D+04 ExpMxC= 5.22D+02 IAcc=3 IRadAn=         5 AccDes= 0.00D+00
 HarFok:  IExCor=  205 AccDes= 0.00D+00 IRadAn=         5 IDoV=-2 UseB2=F ITyADJ=14
 ICtDFT= 12500011 ScaDFX=  1.000000  1.000000  1.000000  1.000000
 Largest valence mixing into a core orbital is  2.08D-04
 Largest core mixing into a valence orbital is  3.63D-05
 Range of M.O.s used for correlation:     5   207
 NBasis=   207 NAE=    16 NBE=    16 NFC=     4 NFV=     0
 NROrb=    203 NOA=    12 NOB=    12 NVA=   191 NVB=   191

 **** Warning!!: The largest alpha MO coefficient is  0.18148551D+02

 Leave Link  801 at Mon Feb 21 21:00:37 2022, MaxMem= 16106127360 cpu:               2.2 elap:               0.1
 (Enter /sw/contrib/gaussian/g16/B01/g16/l906.exe)
 Frozen-core derivative calculation, NFC=   4 NFV=   0.
 FulOut=F Deriv=T AODrv=T NAtomX=     5
   MMem=           0  MDisk=          12 MDiskD=          12
  W3Min=      811440 MinDsk=     2425030 NBas6D=         245
 NBas2D=       30762    NTT=       30135    LW2=     7400000
    MDV= 16105638402 MDiskM=      328645 NBas2p=       30702
 Disk-based method using ON**2 memory for 12 occupieds at a time.
 Permanent disk used for amplitudes=    11516536 words.
 Estimated scratch disk usage=   321251614 words.
 IMap=   1   2   3   4   5   6   7   8   9  10  11  12  13  14  15  16
 Actual    scratch disk usage=   310331678 words.
 JobTyp=1 Pass  1:  I=   5 to  16 NPSUse= 28 ParTrn=T ParDer=T DoDerP=T.
 (rs|ai) integrals will be sorted in core.
 Spin components of T(2) and E(2):
     alpha-alpha T2 =       0.3402821773D-01 E2=     -0.1224142749D+00
     alpha-beta  T2 =       0.1868623774D+00 E2=     -0.7002768298D+00
     beta-beta   T2 =       0.3402821773D-01 E2=     -0.1224142749D+00
 The integrals were generated   1 times.
 ANorm=    0.1120231589D+01
 E2 =    -0.9451053795D+00 EUMP2 =    -0.28044695687510D+03
 Leave Link  906 at Mon Feb 21 21:02:15 2022, MaxMem= 16106127360 cpu:            2756.7 elap:              98.6
 (Enter /sw/contrib/gaussian/g16/B01/g16/l1101.exe)
 Using compressed Sx but separate Hx and Fx, NAtomX=     5.
 Will process      6 centers per pass.
 Leave Link 1101 at Mon Feb 21 21:02:16 2022, MaxMem= 16106127360 cpu:               5.2 elap:               0.2
 (Enter /sw/contrib/gaussian/g16/B01/g16/l1102.exe)
 Leave Link 1102 at Mon Feb 21 21:02:16 2022, MaxMem= 16106127360 cpu:               0.5 elap:               0.0
 (Enter /sw/contrib/gaussian/g16/B01/g16/l1110.exe)
 Forming Gx(P) for the SCF density, NAtomX=     5.
 Integral derivatives from FoFJK, PRISM(SPDF).
 Do as many integral derivatives as possible in FoFJK.
 G2DrvN: MDV=   16106126844.
 G2DrvN: will do     6 centers at a time, making    1 passes.
 Calling FoFCou, ICntrl=  3107 FMM=F I1Cent=   0 AccDes= 0.00D+00.
 FoFJK:  IHMeth= 1 ICntrl=    3107 DoSepK=F KAlg= 0 I1Cent=           0 FoldK=F
 IRaf=         0 NMat=       1 IRICut=       1 DoRegI=T DoRafI=F ISym2E= 0 IDoP0=0 IntGTp=1.
 FoFCou: FMM=F IPFlag=           0 FMFlag=      100000 FMFlg1=           0
         NFxFlg=           0 DoJE=F BraDBF=F KetDBF=F FulRan=T
         wScrn=  0.000000 ICntrl=      3107 IOpCl=  0 I1Cent=           0 NGrid=           0
         NMat0=    1 NMatS0=      1 NMatT0=    0 NMatD0=    1 NMtDS0=    0 NMtDT0=    0
 Symmetry not used in FoFCou.
 End of G2Drv F.D. properties file   721 does not exist.
 End of G2Drv F.D. properties file   722 does not exist.
 End of G2Drv F.D. properties file   788 does not exist.
 Leave Link 1110 at Mon Feb 21 21:02:19 2022, MaxMem= 16106127360 cpu:              82.8 elap:               3.0
 (Enter /sw/contrib/gaussian/g16/B01/g16/l1002.exe)
 Minotr:  Closed shell wavefunction.
          IDoAtm=11111
          Frozen-core window.
          Direct CPHF calculation.
          Differentiating once with respect to electric field.
                with respect to dipole field.
          Differentiating once with respect to nuclear coordinates.
          Requested convergence is 1.0D-08 RMS, and 1.0D-07 maximum.
          Secondary convergence is 1.0D-12 RMS, and 1.0D-12 maximum.
          NewPWx=T KeepS1=T KeepF1=T KeepIn=T MapXYZ=F SortEE=F KeepMc=T.
 Keep R1 ints in memory in canonical form, NReq=245618222.
 FoFCou: FMM=F IPFlag=           0 FMFlag=           0 FMFlg1=           0
         NFxFlg=           0 DoJE=F BraDBF=F KetDBF=F FulRan=T
         wScrn=  0.000000 ICntrl=       600 IOpCl=  0 I1Cent=           0 NGrid=           0
         NMat0=    1 NMatS0=  21528 NMatT0=    0 NMatD0=    1 NMtDS0=    0 NMtDT0=    0
 Symmetry not used in FoFCou.
 Two-electron integral symmetry not used.
          MDV=   16106127360 using IRadAn=       1.
          Solving linear equations simultaneously, MaxMat=       0.
          There are    18 degrees of freedom in the 1st order CPHF.  IDoFFX=6 NUNeed=    18.
     15 vectors produced by pass  0 Test12= 1.70D-14 5.56D-09 XBig12= 9.50D+00 1.08D+00.
 AX will form    15 AO Fock derivatives at one time.
     15 vectors produced by pass  1 Test12= 1.70D-14 5.56D-09 XBig12= 1.17D+00 2.16D-01.
     15 vectors produced by pass  2 Test12= 1.70D-14 5.56D-09 XBig12= 1.25D-01 9.08D-02.
     15 vectors produced by pass  3 Test12= 1.70D-14 5.56D-09 XBig12= 4.12D-03 8.91D-03.
     15 vectors produced by pass  4 Test12= 1.70D-14 5.56D-09 XBig12= 7.51D-05 1.55D-03.
     15 vectors produced by pass  5 Test12= 1.70D-14 5.56D-09 XBig12= 1.05D-06 1.66D-04.
     15 vectors produced by pass  6 Test12= 1.70D-14 5.56D-09 XBig12= 1.03D-08 1.27D-05.
     12 vectors produced by pass  7 Test12= 1.70D-14 5.56D-09 XBig12= 8.33D-11 1.16D-06.
      3 vectors produced by pass  8 Test12= 1.70D-14 5.56D-09 XBig12= 7.23D-13 1.17D-07.
      2 vectors produced by pass  9 Test12= 1.70D-14 5.56D-09 XBig12= 4.77D-15 9.67D-09.
 InvSVY:  IOpt=1 It=  1 EMax= 1.78D-15
 Solved reduced A of dimension   122 with    15 vectors.
 FullF1:  Do perturbations      1 to      18.
 Saving first derivative matrices.
 End of Minotr F.D. properties file   721 does not exist.
 End of Minotr F.D. properties file   722 does not exist.
 End of Minotr F.D. properties file   788 does not exist.
 Leave Link 1002 at Mon Feb 21 21:02:22 2022, MaxMem= 16106127360 cpu:              98.4 elap:               3.6
 (Enter /sw/contrib/gaussian/g16/B01/g16/l811.exe)
 MDV= 16106127360.
 Form MO integral derivatives with frozen-active canonical formalism.
 MOERI=1 MOERIx=1 NAtoms=     5 NAtomX=     5.
 Discarding MO integrals.
 MO basis two electron integral derivatives will not be stored on disk.
 IAlg= 3 DoFC=T DoPWx=T Debug=F.
 Frozen-core window:  NFC=   4 NFV=   0.
 Reordered first order wavefunction length =     18678272
 In DefCFB: NBatch=  1 ICI= 16 ICA=191 LFMax= 96
            Large arrays: LIAPS=   619940160 LIARS=   288257200 words.
 In StABat: MaxSiz= 55 MinSiz= 25 NAtomB=  5
 DoIAMN: NPSUse= 28.
 Leave Link  811 at Mon Feb 21 21:03:54 2022, MaxMem= 16106127360 cpu:            2568.5 elap:              91.9
 (Enter /sw/contrib/gaussian/g16/B01/g16/l804.exe)
 Frozen-core window:  NFC=   4 NFV=   0.
 Closed-shell transformation, MDV= 16106127360 ITran=4 ISComp=1.
 Semi-Direct transformation.
 ModeAB=           2 MOrb=            16 LenV=   16104925821
 LASXX=     67341636 LTotXX=    67341636 LenRXX=    67341636
 LTotAB=    68301760 MaxLAS=    99807120 LenRXY=    99807120
 NonZer=   134683272 LenScr=   202817536 LnRSAI=           0
 LnScr1=           0 LExtra=           0 Total=    369966292
 MaxDsk=          -1 SrtSym=           F ITran=            4
 DoSDTr:  NPSUse= 28
 JobTyp=0 Pass  1:  I=   1 to  16.
 (rs|ai) integrals will be sorted in core.
 Complete sort for first half transformation.
 First half transformation complete.
 Begin second half transformation for I=  10.
 Begin second half transformation for I=  10.
 Complete sort for second half transformation.
 Second half transformation complete.
 SymMOI:  orbitals are not symmetric.
 Spin components of T(2) and E(2):
     alpha-alpha T2 =       0.3402821773D-01 E2=     -0.1224142749D+00
     alpha-beta  T2 =       0.1868623774D+00 E2=     -0.7002768298D+00
     beta-beta   T2 =       0.3402821773D-01 E2=     -0.1224142749D+00
 ANorm=    0.1584246706D+01
 E2 =    -0.9451053795D+00 EUMP2 =    -0.28044695687510D+03
 Leave Link  804 at Mon Feb 21 21:04:07 2022, MaxMem= 16106127360 cpu:             369.8 elap:              13.2
 (Enter /sw/contrib/gaussian/g16/B01/g16/l1002.exe)
 Minotr:  Closed shell wavefunction.
          Computing MP2/KS-MP2 derivatives.
          Using Z-Vector for PSCF gradient.
          Skipping F1 and S1 gradient terms here.
          IDoAtm=11111
          Frozen-core window.
          Using MO integrals in the linear equations.
          Forming densities via direct SCF.
          Differentiating once with respect to electric field.
                with respect to dipole field.
          Differentiating once with respect to nuclear coordinates.
          Requested convergence is 1.0D-10 RMS, and 1.0D-09 maximum.
          NewPWx=F KeepS1=T KeepF1=T KeepIn=T MapXYZ=F SortEE=F KeepMc=T.
          MDV=   16106127360 using IRadAn=       5.
          Solving linear equations separately, MaxMat=       0.
          There are     1 degrees of freedom in the 1st order CPHF.  IDoFFX=0 NUNeed=     1.
 FoFJK:  IHMeth= 1 ICntrl=       0 DoSepK=F KAlg= 0 I1Cent=           0 FoldK=F
 IRaf=         0 NMat=       1 IRICut=       1 DoRegI=T DoRafI=F ISym2E= 0 IDoP0=0 IntGTp=1.
 FoFCou: FMM=F IPFlag=           0 FMFlag=      100000 FMFlg1=           0
         NFxFlg=           0 DoJE=F BraDBF=F KetDBF=F FulRan=T
         wScrn=  0.000000 ICntrl=         0 IOpCl=  0 I1Cent=           0 NGrid=           0
         NMat0=    1 NMatS0=      1 NMatT0=    0 NMatD0=    1 NMtDS0=    0 NMtDT0=    0
 Symmetry not used in FoFCou.
 LinEq1:  Iter=  0 NonCon=     1 RMS=5.95D-03 Max=1.27D-01 NDo=     1
 LinEq1:  Iter=  1 NonCon=     1 RMS=1.90D-03 Max=3.70D-02 NDo=     1
 LinEq1:  Iter=  2 NonCon=     1 RMS=8.66D-04 Max=1.14D-02 NDo=     1
 LinEq1:  Iter=  3 NonCon=     1 RMS=3.86D-04 Max=7.56D-03 NDo=     1
 LinEq1:  Iter=  4 NonCon=     1 RMS=1.19D-04 Max=1.55D-03 NDo=     1
 LinEq1:  Iter=  5 NonCon=     1 RMS=4.56D-05 Max=6.98D-04 NDo=     1
 LinEq1:  Iter=  6 NonCon=     1 RMS=2.04D-05 Max=2.36D-04 NDo=     1
 LinEq1:  Iter=  7 NonCon=     1 RMS=8.29D-06 Max=1.56D-04 NDo=     1
 LinEq1:  Iter=  8 NonCon=     1 RMS=3.69D-06 Max=5.98D-05 NDo=     1
 LinEq1:  Iter=  9 NonCon=     1 RMS=1.12D-06 Max=2.63D-05 NDo=     1
 LinEq1:  Iter= 10 NonCon=     1 RMS=3.02D-07 Max=8.28D-06 NDo=     1
 LinEq1:  Iter= 11 NonCon=     1 RMS=8.26D-08 Max=1.62D-06 NDo=     1
 LinEq1:  Iter= 12 NonCon=     1 RMS=2.04D-08 Max=1.87D-07 NDo=     1
 LinEq1:  Iter= 13 NonCon=     1 RMS=3.89D-09 Max=4.12D-08 NDo=     1
 LinEq1:  Iter= 14 NonCon=     1 RMS=6.39D-10 Max=1.00D-08 NDo=     1
 LinEq1:  Iter= 15 NonCon=     1 RMS=1.46D-10 Max=2.36D-09 NDo=     1
 LinEq1:  Iter= 16 NonCon=     0 RMS=3.81D-11 Max=5.08D-10 NDo=     1
 Linear equations converged to 1.000D-10 1.000D-09 after    16 iterations.
 End of Minotr F.D. properties file   721 does not exist.
 End of Minotr F.D. properties file   722 does not exist.
 End of Minotr F.D. properties file   788 does not exist.
 Leave Link 1002 at Mon Feb 21 21:04:10 2022, MaxMem= 16106127360 cpu:              67.3 elap:               2.5
 (Enter /sw/contrib/gaussian/g16/B01/g16/l1102.exe)
 Use density number 2.
 Symmetrizing basis deriv contribution to polar:
 IMax=3 JMax=2 DiffMx= 0.00D+00
 Leave Link 1102 at Mon Feb 21 21:04:10 2022, MaxMem= 16106127360 cpu:               1.2 elap:               0.1
 (Enter /sw/contrib/gaussian/g16/B01/g16/l1110.exe)
 Forming Gx(P) for generalized density number  2 NAtomX=     5.
 Integral derivatives from FoFJK, PRISM(SPDF).
 Do as many integral derivatives as possible in FoFJK.
 G2DrvN: MDV=   16106126844.
 G2DrvN: will do     6 centers at a time, making    1 passes.
 Calling FoFCou, ICntrl=  3107 FMM=F I1Cent=   0 AccDes= 0.00D+00.
 FoFJK:  IHMeth= 1 ICntrl=    3107 DoSepK=F KAlg= 0 I1Cent=           0 FoldK=F
 IRaf=         0 NMat=       1 IRICut=       1 DoRegI=T DoRafI=F ISym2E= 0 IDoP0=0 IntGTp=1.
 FoFCou: FMM=F IPFlag=           0 FMFlag=      100000 FMFlg1=           0
         NFxFlg=           0 DoJE=F BraDBF=F KetDBF=F FulRan=T
         wScrn=  0.000000 ICntrl=      3107 IOpCl=  0 I1Cent=           0 NGrid=           0
         NMat0=    1 NMatS0=      1 NMatT0=    0 NMatD0=    1 NMtDS0=    0 NMtDT0=    0
 Symmetry not used in FoFCou.
 End of G2Drv F.D. properties file   721 does not exist.
 End of G2Drv F.D. properties file   722 does not exist.
 End of G2Drv F.D. properties file   788 does not exist.
 Leave Link 1110 at Mon Feb 21 21:04:13 2022, MaxMem= 16106127360 cpu:              86.6 elap:               3.1
 (Enter /sw/contrib/gaussian/g16/B01/g16/l1112.exe)
 MP22nd: MDV=   16106127360
 This link is doing NAtomX=     5 total of    18 degrees of freedom.
 Using ON3 I/O method in MakUI.
 Frozen-core window:  NFC=   4 NFV=   0.
 Using Ix for Sx.
 Use MO integrals over full window.
 Using OV2 memory method for fx*t*t/D, MaxI=    16 DoOO2=F NP=  28.
 R2 and R3 integrals will be kept in memory, NReq=   915591705.
 FoFCou: FMM=F IPFlag=           0 FMFlag=           0 FMFlg1=           0
         NFxFlg=           0 DoJE=F BraDBF=F KetDBF=F FulRan=T
         wScrn=  0.000000 ICntrl=       600 IOpCl=  0 I1Cent=           0 NGrid=           0
         NMat0=    1 NMatS0=      1 NMatT0=    0 NMatD0=    1 NMtDS0=    0 NMtDT0=    0
 Symmetry not used in FoFCou.
 DD1Dir will call FoFMem   1 times, MxPair=       272
 NAB=   136 NAA=     0 NBB=     0.
 Symmetry is being used.
 FoFJK:  IHMeth= 1 ICntrl=       0 DoSepK=F KAlg= 0 I1Cent=           0 FoldK=F
 IRaf=         0 NMat=      18 IRICut=      45 DoRegI=T DoRafI=T ISym2E= 2 IDoP0=3 IntGTp=3.
 Discarding MO integrals.
 Leave Link 1112 at Mon Feb 21 21:04:39 2022, MaxMem= 16106127360 cpu:             712.4 elap:              25.5
 (Enter /sw/contrib/gaussian/g16/B01/g16/l601.exe)
 Copying SCF densities to generalized density rwf, IOpCl= 0 IROHF=0.

 **********************************************************************

            Population analysis using the MP2 Density.

 **********************************************************************

 Orbital symmetries:
       Occupied  (A) (A) (A) (A) (A) (A) (A) (A) (A) (A) (A) (A)
                 (A) (A) (A) (A)
       Virtual   (A) (A) (A) (A) (A) (A) (A) (A) (A) (A) (A) (A)
                 (A) (A) (A) (A) (A) (A) (A) (A) (A) (A) (A) (A)
                 (A) (A) (A) (A) (A) (A) (A) (A) (A) (A) (A) (A)
                 (A) (A) (A) (A) (A) (A) (A) (A) (A) (A) (A) (A)
                 (A) (A) (A) (A) (A) (A) (A) (A) (A) (A) (A) (A)
                 (A) (A) (A) (A) (A) (A) (A) (A) (A) (A) (A) (A)
                 (A) (A) (A) (A) (A) (A) (A) (A) (A) (A) (A) (A)
                 (A) (A) (A) (A) (A) (A) (A) (A) (A) (A) (A) (A)
                 (A) (A) (A) (A) (A) (A) (A) (A) (A) (A) (A) (A)
                 (A) (A) (A) (A) (A) (A) (A) (A) (A) (A) (A) (A)
                 (A) (A) (A) (A) (A) (A) (A) (A) (A) (A) (A) (A)
                 (A) (A) (A) (A) (A) (A) (A) (A) (A) (A) (A) (A)
                 (A) (A) (A) (A) (A) (A) (A) (A) (A) (A) (A) (A)
                 (A) (A) (A) (A) (A) (A) (A) (A) (A) (A) (A) (A)
                 (A) (A) (A) (A) (A) (A) (A) (A) (A) (A) (A) (A)
                 (A) (A) (A) (A) (A) (A) (A) (A) (A) (A) (A)
 The electronic state is 1-A.
 Alpha  occ. eigenvalues --  -20.69111 -20.68425 -20.66019 -15.81265  -1.62403
 Alpha  occ. eigenvalues --   -1.49587  -1.25445  -0.94810  -0.77240  -0.75959
 Alpha  occ. eigenvalues --   -0.71328  -0.67859  -0.61967  -0.58856  -0.48758
 Alpha  occ. eigenvalues --   -0.47143
 Alpha virt. eigenvalues --    0.02957   0.07163   0.08592   0.10176   0.13205
 Alpha virt. eigenvalues --    0.13516   0.14383   0.15442   0.17806   0.19406
 Alpha virt. eigenvalues --    0.19904   0.20672   0.22079   0.23533   0.23721
 Alpha virt. eigenvalues --    0.26733   0.29172   0.29913   0.31222   0.34350
 Alpha virt. eigenvalues --    0.35547   0.38768   0.41435   0.42854   0.52714
 Alpha virt. eigenvalues --    0.53163   0.55863   0.58068   0.62597   0.63807
 Alpha virt. eigenvalues --    0.67308   0.68336   0.70698   0.71375   0.71816
 Alpha virt. eigenvalues --    0.73300   0.74928   0.78435   0.79350   0.81073
 Alpha virt. eigenvalues --    0.81511   0.83547   0.86741   0.90837   0.91406
 Alpha virt. eigenvalues --    0.93556   0.95459   0.97050   0.98886   1.01498
 Alpha virt. eigenvalues --    1.05414   1.06151   1.08469   1.11131   1.12592
 Alpha virt. eigenvalues --    1.20128   1.21802   1.23492   1.33574   1.35119
 Alpha virt. eigenvalues --    1.39017   1.45652   1.49456   1.50795   1.53652
 Alpha virt. eigenvalues --    1.56739   1.58153   1.59927   1.66169   1.66737
 Alpha virt. eigenvalues --    1.70739   1.78718   1.82885   1.83780   1.88246
 Alpha virt. eigenvalues --    1.90270   1.95635   1.98073   2.03340   2.07742
 Alpha virt. eigenvalues --    2.11266   2.12593   2.15793   2.21997   2.25578
 Alpha virt. eigenvalues --    2.27372   2.28571   2.31182   2.34326   2.38820
 Alpha virt. eigenvalues --    2.40037   2.45044   2.45341   2.46759   2.48117
 Alpha virt. eigenvalues --    2.50901   2.58917   2.59917   2.61791   2.62765
 Alpha virt. eigenvalues --    2.63935   2.66454   2.74753   2.83074   2.84356
 Alpha virt. eigenvalues --    2.88679   2.90435   2.91424   2.96069   3.01969
 Alpha virt. eigenvalues --    3.07891   3.11865   3.20444   3.23014   3.31581
 Alpha virt. eigenvalues --    3.34030   3.51166   3.65007   3.83688   3.85050
 Alpha virt. eigenvalues --    4.13210   4.16578   4.20860   4.25298   4.33594
 Alpha virt. eigenvalues --    4.39356   4.48045   4.52686   4.64615   4.71109
 Alpha virt. eigenvalues --    4.80357   4.82103   4.82555   4.89753   5.02241
 Alpha virt. eigenvalues --    5.07047   5.09983   5.14631   5.18465   5.25355
 Alpha virt. eigenvalues --    5.27163   5.30209   5.33079   5.35030   5.59606
 Alpha virt. eigenvalues --    5.67362   5.75740   5.83387   5.95340   6.17009
 Alpha virt. eigenvalues --    6.31289   6.34385   6.39162   6.49457   6.50498
 Alpha virt. eigenvalues --    6.62607   6.64991   6.70773   6.74467   6.77070
 Alpha virt. eigenvalues --    6.83624   6.89826   7.01011   7.05383   7.05829
 Alpha virt. eigenvalues --    7.09600   7.12856   7.14484   7.19233   7.22510
 Alpha virt. eigenvalues --    7.23675   7.30226   7.32166   7.36002   7.38824
 Alpha virt. eigenvalues --    7.42743   7.48674   7.60572   7.61800   7.63575
 Alpha virt. eigenvalues --    7.67909   7.78297   7.88264   8.09091   8.30924
 Alpha virt. eigenvalues --    8.39575   8.53959  13.38202  14.40335  15.16032
 Alpha virt. eigenvalues --   16.14943
          Condensed to atoms (all electrons):
               1          2          3          4          5
     1  H    0.590653   0.128523   0.020191   0.011146  -0.000574
     2  O    0.128523   8.319707  -0.171747  -0.089570   0.014899
     3  O    0.020191  -0.171747   8.466102  -0.128947  -0.038633
     4  N    0.011146  -0.089570  -0.128947   6.969187  -0.053945
     5  O   -0.000574   0.014899  -0.038633  -0.053945   8.271664
 Mulliken charges:
               1
     1  H    0.250060
     2  O   -0.201812
     3  O   -0.146966
     4  N    0.292129
     5  O   -0.193411
 Sum of Mulliken charges =  -0.00000
 Mulliken charges with hydrogens summed into heavy atoms:
               1
     2  O    0.048249
     3  O   -0.146966
     4  N    0.292129
     5  O   -0.193411
 APT charges:
               1
     1  H    0.297386
     2  O   -0.286530
     3  O   -0.493144
     4  N    0.874228
     5  O   -0.391940
 Sum of APT charges =  -0.00000
 APT charges with hydrogens summed into heavy atoms:
               1
     2  O    0.010856
     3  O   -0.493144
     4  N    0.874228
     5  O   -0.391940
 Electronic spatial extent (au):  <R**2>=            252.8080
 Charge=             -0.0000 electrons
 Dipole moment (field-independent basis, Debye):
    X=              1.1957    Y=              0.7613    Z=              0.3656  Tot=              1.4639
 Quadrupole moment (field-independent basis, Debye-Ang):
   XX=            -18.1288   YY=            -23.1341   ZZ=            -21.9041
   XY=              2.6931   XZ=              0.9605   YZ=              0.2902
 Traceless Quadrupole moment (field-independent basis, Debye-Ang):
   XX=              2.9269   YY=             -2.0785   ZZ=             -0.8484
   XY=              2.6931   XZ=              0.9605   YZ=              0.2902
 Octapole moment (field-independent basis, Debye-Ang**2):
  XXX=             17.7081  YYY=              1.7448  ZZZ=              0.1291  XYY=              1.0016
  XXY=              5.9284  XXZ=              2.2922  XZZ=             -1.5486  YZZ=              0.2782
  YYZ=              0.0457  XYZ=              0.4944
 Hexadecapole moment (field-independent basis, Debye-Ang**3):
 XXXX=           -191.5046 YYYY=            -41.0869 ZZZZ=            -18.3123 XXXY=             11.4041
 XXXZ=              5.7936 YYYX=              0.9337 YYYZ=              0.2656 ZZZX=              0.3780
 ZZZY=              0.1987 XXYY=            -42.6295 XXZZ=            -41.1492 YYZZ=             -9.8600
 XXYZ=              1.1695 YYXZ=              0.2469 ZZXY=              0.5381
 N-N= 1.168802733771D+02 E-N=-8.958708146991D+02  KE= 2.801981028013D+02
  Exact polarizability:  41.671   0.943  22.499   0.190   0.036  17.984
 Approx polarizability:  31.917  -1.165  20.539   0.163   0.136  15.597
 No NMR shielding tensors so no spin-rotation constants.
 Leave Link  601 at Mon Feb 21 21:04:39 2022, MaxMem= 16106127360 cpu:               4.0 elap:               0.2
 (Enter /sw/contrib/gaussian/g16/B01/g16/l701.exe)
 ... and contract with generalized density number  2.
 Compute integral second derivatives.
 Leave Link  701 at Mon Feb 21 21:04:39 2022, MaxMem= 16106127360 cpu:               5.7 elap:               0.2
 (Enter /sw/contrib/gaussian/g16/B01/g16/l702.exe)
 L702 exits ... SP integral derivatives will be done elsewhere.
 Leave Link  702 at Mon Feb 21 21:04:39 2022, MaxMem= 16106127360 cpu:               0.4 elap:               0.0
 (Enter /sw/contrib/gaussian/g16/B01/g16/l703.exe)
 Integral derivatives from FoFJK, PRISM(SPDF).
 Compute integral second derivatives, UseDBF=F ICtDFT=           0.
 Calling FoFJK, ICntrl=  10100127 FMM=F ISym2X=0 I1Cent= 0 IOpClX= 0 NMat=1 NMatS=1 NMatT=0.
 FoFJK:  IHMeth= 1 ICntrl=10100127 DoSepK=F KAlg= 0 I1Cent=           0 FoldK=F
 IRaf=         0 NMat=       1 IRICut=       1 DoRegI=T DoRafI=F ISym2E= 0 IDoP0=0 IntGTp=1.
 FoFCou: FMM=F IPFlag=           0 FMFlag=      100000 FMFlg1=         800
         NFxFlg=           0 DoJE=F BraDBF=F KetDBF=F FulRan=T
         wScrn=  0.000000 ICntrl=  10100127 IOpCl=  0 I1Cent=           0 NGrid=           0
         NMat0=    1 NMatS0=      1 NMatT0=    0 NMatD0=    1 NMtDS0=    0 NMtDT0=    0
 Symmetry not used in FoFCou.
 Leave Link  703 at Mon Feb 21 21:04:54 2022, MaxMem= 16106127360 cpu:             421.8 elap:              15.1
 (Enter /sw/contrib/gaussian/g16/B01/g16/l716.exe)
 Dipole        = 4.70422042D-01 2.99522946D-01 1.43834887D-01
 Polarizability= 4.16709760D+01 9.42761603D-01 2.24994479D+01
                 1.90164248D-01 3.60514050D-02 1.79839005D+01
 Full mass-weighted force constant matrix:
 Low frequencies --- -253.4467  -12.9279   -0.0016   -0.0010   -0.0006    2.6894
 Low frequencies ---   25.1581  227.7342  343.9581
 ******    1 imaginary frequencies (negative Signs) ****** 
 Diagonal vibrational polarizability:
       35.5716223       6.3050401      49.7253853
 Harmonic frequencies (cm**-1), IR intensities (KM/Mole), Raman scattering
 activities (A**4/AMU), depolarization ratios for plane and unpolarized
 incident light, reduced masses (AMU), force constants (mDyne/A),
 and normal coordinates:
                      1                      2                      3
                      A                      A                      A
 Frequencies --   -253.4367               227.7100               343.9532
 Red. masses --      1.1427                10.6662                 8.6707
 Frc consts  --      0.0432                 0.3259                 0.6044
 IR Inten    --    126.0351                 0.8992                 5.0807
  Atom  AN      X      Y      Z        X      Y      Z        X      Y      Z
     1   1    -0.12  -0.18   0.97     0.11  -0.05  -0.55     0.15  -0.67   0.07
     2   8     0.01   0.02  -0.06    -0.01  -0.01  -0.31    -0.30  -0.25   0.01
     3   8     0.01  -0.00  -0.04     0.00   0.01   0.33     0.14   0.43  -0.03
     4   7    -0.01  -0.01   0.06     0.01   0.01   0.53     0.19   0.18  -0.00
     5   8    -0.00   0.00  -0.01    -0.00  -0.01  -0.44    -0.02  -0.30   0.01
                      4                      5                      6
                      A                      A                      A
 Frequencies --    453.5145               786.3587               965.6272
 Red. masses --     12.0882                12.9670                15.3052
 Frc consts  --      1.4649                 4.7242                 8.4083
 IR Inten    --    194.7191               168.8245                24.8326
  Atom  AN      X      Y      Z        X      Y      Z        X      Y      Z
     1   1    -0.45   0.06   0.12    -0.17   0.33   0.12    -0.13   0.08  -0.11
     2   8    -0.38   0.03  -0.01     0.39  -0.18  -0.01    -0.40   0.33   0.00
     3   8    -0.40  -0.24   0.00    -0.21  -0.18   0.01     0.59  -0.46   0.01
     4   7     0.52   0.12  -0.00     0.26   0.58  -0.01     0.05   0.27  -0.01
     5   8     0.35   0.11  -0.00    -0.39  -0.17   0.00    -0.23  -0.11   0.01
                      7                      8                      9
                      A                      A                      A
 Frequencies --   1372.1020              1677.1918              3777.8241
 Red. masses --      1.1307                13.2913                 1.0676
 Frc consts  --      1.2542                22.0284                 8.9772
 IR Inten    --    148.6904               141.4449                81.1926
  Atom  AN      X      Y      Z        X      Y      Z        X      Y      Z
     1   1     0.77  -0.63  -0.03     0.27  -0.20  -0.01     0.66   0.72   0.22
     2   8     0.01   0.06   0.01     0.03   0.03   0.00    -0.04  -0.04  -0.01
     3   8    -0.05  -0.03  -0.01    -0.09  -0.12   0.00     0.00  -0.00  -0.00
     4   7     0.02  -0.00  -0.00    -0.54   0.46  -0.01    -0.00  -0.00   0.00
     5   8    -0.03   0.01   0.00     0.52  -0.30   0.00     0.00  -0.00  -0.00

 -------------------
 - Thermochemistry -
 -------------------
 Temperature   298.150 Kelvin.  Pressure   1.00000 Atm.
 Atom     1 has atomic number  1 and mass   1.00783
 Atom     2 has atomic number  8 and mass  15.99491
 Atom     3 has atomic number  8 and mass  15.99491
 Atom     4 has atomic number  7 and mass  14.00307
 Atom     5 has atomic number  8 and mass  15.99491
 Molecular mass:    62.99564 amu.
 Principal axes and moments of inertia in atomic units:
                           1         2         3
     Eigenvalues --    32.94218 360.07468 392.66900
           X            0.99994   0.01023   0.00440
           Y           -0.01027   0.99990   0.00936
           Z           -0.00430  -0.00941   0.99995
 This molecule is an asymmetric top.
 Rotational symmetry number  1.
 Rotational temperatures (Kelvin)      2.62927     0.24054     0.22058
 Rotational constants (GHZ):          54.78511     5.01213     4.59609
    1 imaginary frequencies ignored.
 Zero-point vibrational energy      57446.4 (Joules/Mol)
                                   13.73001 (Kcal/Mol)
 Warning -- explicit consideration of   3 degrees of freedom as
           vibrations may cause significant error
 Vibrational temperatures:    327.62   494.87   652.51  1131.39  1389.32
          (Kelvin)           1974.15  2413.10  5435.45
 
 Zero-point correction=                           0.021880 (Hartree/Particle)
 Thermal correction to Energy=                    0.025995
 Thermal correction to Enthalpy=                  0.026939
 Thermal correction to Gibbs Free Energy=        -0.004242
 Sum of electronic and zero-point Energies=           -280.425077
 Sum of electronic and thermal Energies=              -280.420962
 Sum of electronic and thermal Enthalpies=            -280.420017
 Sum of electronic and thermal Free Energies=         -280.451199
 
                     E (Thermal)             CV                S
                      KCal/Mol        Cal/Mol-Kelvin    Cal/Mol-Kelvin
 Total                   16.312             11.947             65.627
 Electronic               0.000              0.000              0.000
 Translational            0.889              2.981             38.341
 Rotational               0.889              2.981             23.059
 Vibrational             14.535              5.985              4.228
 Vibration     1          0.651              1.799              1.897
 Vibration     2          0.723              1.588              1.194
 Vibration     3          0.812              1.353              0.785
                       Q            Log10(Q)             Ln(Q)
 Total Bot       0.893676D+02          1.951180          4.492758
 Total V=0       0.103597D+13         12.015347         27.666360
 Vib (Bot)       0.186135D-09         -9.730171        -22.404547
 Vib (Bot)    1  0.865814D+00         -0.062575         -0.144085
 Vib (Bot)    2  0.538501D+00         -0.268814         -0.618967
 Vib (Bot)    3  0.377049D+00         -0.423603         -0.975381
 Vib (V=0)       0.215773D+01          0.333996          0.769055
 Vib (V=0)    1  0.149982D+01          0.176038          0.405343
 Vib (V=0)    2  0.123484D+01          0.091609          0.210938
 Vib (V=0)    3  0.112623D+01          0.051628          0.118877
 Electronic      0.100000D+01          0.000000          0.000000
 Translational   0.196526D+08          7.293420         16.793719
 Rotational      0.244304D+05          4.387931         10.103585
 
                                                                title
                                                             IR Spectrum
 
     3                                                                      1         1                                              
     7                                                                      6         3             9     7          4   3   2       
     7                                                                      7         7             6     8          5   4   2       
     8                                                                      7         2             6     6          4   4   8       
 
     X                                                                      X         X             X     X          X   X   X       
     X                                                                      X         X             X     X          X               
     X                                                                      X         X             X     X          X               
     X                                                                      X         X                   X          X               
     X                                                                      X         X                   X          X               
     X                                                                      X         X                   X          X               
     X                                                                      X         X                   X          X               
     X                                                                      X         X                   X          X               
                                                                            X         X                   X          X               
                                                                            X         X                   X          X               
                                                                            X         X                   X          X               
                                                                            X         X                   X          X               
                                                                            X         X                   X          X               
                                                                            X         X                   X          X               
                                                                            X         X                   X          X               
                                                                                                          X          X               
                                                                                                          X          X               
                                                                                                                     X               
                                                                                                                     X               
                                                                                                                     X               
 
 ***** Axes restored to original set *****
 -------------------------------------------------------------------
 Center     Atomic                   Forces (Hartrees/Bohr)
 Number     Number              X              Y              Z
 -------------------------------------------------------------------
      1        1          -0.000166674   -0.000984855    0.000005929
      2        8           0.000832889    0.001325152   -0.000232416
      3        8          -0.000992346    0.000414294    0.000070822
      4        7          -0.000115614   -0.001159150   -0.000086310
      5        8           0.000441745    0.000404559    0.000241974
 -------------------------------------------------------------------
 Cartesian Forces:  Max     0.001325152 RMS     0.000655475
 -----------------------------------------------------------------------------------------------
                       Internal Coordinate Forces (Hartree/Bohr or radian)
  Cent   Atom   N1       Length/X         N2         Alpha/Y        N3         Beta/Z          J
 -----------------------------------------------------------------------------------------------
      1  H 
      2  O        1  -0.000006(     1)
      3  O        2  -0.000630(     2)      1   0.000305(     5)
      4  N        3   0.000356(     3)      2   0.000705(     6)      1   0.001788(     8)     0
      5  O        4   0.000476(     4)      3   0.000051(     7)      2   0.000912(     9)     0
 -----------------------------------------------------------------------------------------------
 Internal  Forces:  Max     0.001787503 RMS     0.000772495
 Force constants in Cartesian coordinates: 
                1             2             3             4             5 
      1  0.647646D-01
      2 -0.112061D-02 -0.199268D-02
      3  0.506378D-02  0.552387D-03  0.512089D+00
      4 -0.355408D-01  0.305164D-02 -0.158766D-01  0.271368D+00
      5  0.449263D-03  0.281686D-02 -0.861283D-03 -0.700702D-02  0.426666D-02
      6  0.483868D-01 -0.215451D-02 -0.508634D+00  0.332128D-01 -0.637009D-02
      7 -0.190181D-01 -0.353704D-02  0.122222D-01 -0.218243D+00 -0.452632D-02
      8  0.165156D-02  0.967544D-03 -0.431891D-03  0.278092D-02 -0.862499D-02
      9 -0.528607D-01  0.136748D-03 -0.246913D-03 -0.192203D-01  0.605561D-02
     10 -0.892650D-02  0.127303D-02 -0.473173D-02 -0.179641D-01  0.107291D-01
     11 -0.288745D-02 -0.262099D-02  0.887454D-03  0.427182D-03 -0.355395D-02
     12  0.469583D-02  0.949895D-03 -0.462341D-02  0.115770D-01 -0.412065D-02
     13 -0.127919D-02  0.332979D-03  0.332238D-02  0.380428D-03  0.355007D-03
     14  0.190724D-02  0.829270D-03 -0.146667D-03  0.747275D-03  0.509541D-02
     15 -0.528576D-02  0.515484D-03  0.141527D-02 -0.969288D-02  0.529641D-02
                6             7             8             9            10 
      6  0.593390D+00
      7 -0.222273D-01  0.339955D+00
      8  0.977709D-02  0.731467D-02  0.121710D-01
      9 -0.770779D-01  0.372416D-01 -0.314214D-01  0.173860D+00
     10 -0.511434D-01 -0.768771D-01 -0.439647D-01  0.168804D+00  0.827711D+00
     11 -0.868179D-02 -0.208030D-01  0.165983D-02  0.267265D-01  0.309089D-01
     12  0.152847D-01  0.603660D-01  0.212843D-01 -0.762677D-01 -0.128950D-01
     13 -0.822888D-02 -0.258164D-01  0.322176D-01 -0.133964D+00 -0.723943D+00
     14  0.742931D-02  0.215517D-01 -0.617337D-02 -0.149752D-02  0.105375D-02
     15 -0.229632D-01 -0.876024D-01  0.791909D-03 -0.202679D-01 -0.100033D+00
               11            12            13            14            15 
     11  0.195926D-01
     12 -0.410282D-01  0.177514D+00
     13 -0.764557D-02 -0.637438D-01  0.750658D+00
     14 -0.150775D-01  0.229147D-01 -0.252600D-01  0.153262D-01
     15  0.220960D-01 -0.111908D+00  0.202614D+00 -0.286998D-01  0.153724D+00
 Force constants in internal coordinates: 
                1             2             3             4             5 
      1  0.512089D+00
      2 -0.102614D-01  0.280509D+00
      3  0.340111D-02  0.323132D-02  0.117519D+00
      4 -0.357048D-02  0.592393D-02  0.152686D+00  0.812214D+00
      5  0.910554D-02  0.659782D-01  0.222831D-02  0.473745D-02  0.217143D+00
      6  0.431881D-02  0.597592D-01  0.413444D-01  0.221432D-01  0.306236D-01
      7 -0.122480D-02  0.378607D-01  0.317092D-01  0.847022D-01  0.207046D-01
      8  0.264420D-04  0.308975D-02 -0.358757D-02 -0.772202D-03 -0.348635D-02
      9 -0.185536D-03  0.139820D-02 -0.109236D-04 -0.886103D-04 -0.243393D-02
                6             7             8             9 
      6  0.285629D+00
      7  0.959758D-01  0.482447D+00
      8 -0.616170D-02 -0.826430D-03 -0.661473D-02
      9 -0.622958D-04  0.546981D-03 -0.347998D-02  0.408866D-01
 Leave Link  716 at Mon Feb 21 21:04:54 2022, MaxMem= 16106127360 cpu:               0.8 elap:               0.1
 (Enter /sw/contrib/gaussian/g16/B01/g16/l103.exe)

 GradGradGradGradGradGradGradGradGradGradGradGradGradGradGradGradGradGrad
 Berny optimization.
 Search for a local minimum.
 Step number   1 out of a maximum of    2
 All quantities printed in internal units (Hartrees-Bohrs-Radians)
 Second derivative matrix not updated -- analytic derivatives used.
 The second derivative matrix:
                          r1        r2        r3        r4        a1
           r1           0.51209
           r2          -0.01026   0.28051
           r3           0.00340   0.00323   0.11752
           r4          -0.00357   0.00592   0.15269   0.81221
           a1           0.00911   0.06598   0.00223   0.00474   0.21714
           a2           0.00432   0.05976   0.04134   0.02214   0.03062
           a3          -0.00122   0.03786   0.03171   0.08470   0.02070
           d1           0.00003   0.00309  -0.00359  -0.00077  -0.00349
           d2          -0.00019   0.00140  -0.00001  -0.00009  -0.00243
                          a2        a3        d1        d2
           a2           0.28563
           a3           0.09598   0.48245
           d1          -0.00616  -0.00083  -0.00661
           d2          -0.00006   0.00055  -0.00348   0.04089
 ITU=  0
     Eigenvalues ---   -0.00722   0.04109   0.07879   0.17487   0.22733
     Eigenvalues ---    0.32567   0.51272   0.51754   0.87102
 Eigenvalue     1 is  -7.22D-03 should be greater than     0.000000 Eigenvector:
                          d1        d2        r3        a2        r2
   1                    0.99627   0.07367   0.02848   0.02018  -0.01961
                          a1        r4        a3        r1
   1                    0.01940  -0.00460  -0.00271  -0.00114
 Angle between quadratic step and forces=  32.34 degrees.
 Linear search not attempted -- first point.
 Variable       Old X    -DE/DX   Delta X   Delta X   Delta X     New X
                                 (Linear)    (Quad)   (Total)
    r1        1.83110  -0.00001   0.00000  -0.00043  -0.00043   1.83067
    r2        2.74940  -0.00063   0.00000  -0.00834  -0.00834   2.74106
    r3        2.75670   0.00036   0.00000   0.00876   0.00876   2.76546
    r4        2.21236   0.00048   0.00000  -0.00087  -0.00087   2.21149
    a1        1.70335   0.00031   0.00000   0.00712   0.00712   1.71047
    a2        1.78543   0.00071   0.00000   0.00796   0.00796   1.79339
    a3        1.90362   0.00005   0.00000  -0.00113  -0.00113   1.90249
    d1        3.38377   0.00179   0.00000   0.25889   0.25889   3.64266
    d2        3.14159   0.00091   0.00000   0.03828   0.03828   3.17987
         Item               Value     Threshold  Converged?
 Maximum Force            0.001788     0.000450     NO 
 RMS     Force            0.000772     0.000300     NO 
 Maximum Displacement     0.258886     0.001800     NO 
 RMS     Displacement     0.087401     0.001200     NO 
 Predicted change in Energy=-7.504172D-04
                       ----------------------------
                       ! Non-Optimized Parameters !
                       ! (Angstroms and Degrees)  !
 ----------------------                            ----------------------
 !      Name          Value   Derivative information (Atomic Units)     !
 ------------------------------------------------------------------------
 !       r1          0.9687   -DE/DX =    0.0                           !
 !       r2          1.4505   -DE/DX =   -0.0006                        !
 !       r3          1.4634   -DE/DX =    0.0004                        !
 !       r4          1.1703   -DE/DX =    0.0005                        !
 !       a1         98.0029   -DE/DX =    0.0003                        !
 !       a2        102.7538   -DE/DX =    0.0007                        !
 !       a3        109.0047   -DE/DX =    0.0001                        !
 !       d1        208.7088   -DE/DX =    0.0018                        !
 !       d2        182.193    -DE/DX =    0.0009                        !
 ------------------------------------------------------------------------
 GradGradGradGradGradGradGradGradGradGradGradGradGradGradGradGradGradGrad

 Leave Link  103 at Mon Feb 21 21:04:55 2022, MaxMem= 16106127360 cpu:               1.9 elap:               0.1
 (Enter /sw/contrib/gaussian/g16/B01/g16/l9999.exe)

 ----------------------------------------------------------------------

 Electric dipole moment (input orientation):
 (Debye = 10**-18 statcoulomb cm , SI units = C m)
                  (au)            (Debye)         (10**-30 SI)
   Tot        0.575933D+00      0.146388D+01      0.488297D+01
   x         -0.146568D+00     -0.372538D+00     -0.124265D+01
   y         -0.277713D-01     -0.705876D-01     -0.235455D+00
   z         -0.556279D+00     -0.141392D+01     -0.471633D+01

 Dipole polarizability, Alpha (input orientation).
 (esu units = cm**3 , SI units = C**2 m**2 J**-1)
 Alpha(0;0):
               (au)            (10**-24 esu)      (10**-40 SI)
   iso        0.273848D+02      0.405800D+01      0.451514D+01
   aniso      0.218469D+02      0.323737D+01      0.360206D+01
   xx         0.321729D+02      0.476753D+01      0.530459D+01
   yx        -0.162051D+01     -0.240135D+00     -0.267186D+00
   yy         0.184870D+02      0.273949D+01      0.304809D+01
   zx         0.949901D+01      0.140761D+01      0.156618D+01
   zy        -0.259716D+01     -0.384860D+00     -0.428214D+00
   zz         0.314944D+02      0.466700D+01      0.519273D+01

 ----------------------------------------------------------------------

 Dipole orientation:
     1          0.00000000          0.00000000         -0.00000000
     8         -0.46599065          0.08829493         -1.76860911
     8          2.07703019          0.12282884         -2.81314127
     7          1.63031054          0.89819772         -5.42056385
     8          3.56645648          1.00017778         -6.48614445

 Electric dipole moment (dipole orientation):
 (Debye = 10**-18 statcoulomb cm , SI units = C m)
                  (au)            (Debye)         (10**-30 SI)
   Tot        0.575933D+00      0.146388D+01      0.488297D+01
   x          0.000000D+00      0.000000D+00      0.000000D+00
   y          0.000000D+00      0.000000D+00      0.000000D+00
   z          0.575933D+00      0.146388D+01      0.488297D+01

 Dipole polarizability, Alpha (dipole orientation).
 (esu units = cm**3 , SI units = C**2 m**2 J**-1)
 Alpha(0;0):
               (au)            (10**-24 esu)      (10**-40 SI)
   iso        0.273848D+02      0.405800D+01      0.451514D+01
   aniso      0.218469D+02      0.323737D+01      0.360206D+01
   xx         0.274643D+02      0.406978D+01      0.452824D+01
   yx         0.125681D+01      0.186240D+00      0.207220D+00
   yy         0.187939D+02      0.278496D+01      0.309869D+01
   zx        -0.840282D+01     -0.124517D+01     -0.138544D+01
   zy        -0.371233D+01     -0.550111D+00     -0.612081D+00
   zz         0.358962D+02      0.531927D+01      0.591848D+01

 ----------------------------------------------------------------------
 1\1\GINC-N2129\Freq\RMP2-FC\Aug-CC-pVTZ\H1N1O3\CGAVINH\21-Feb-2022\1\\
 #p freq mp2/aug-cc-pvtz density=current\\title\\0,1\H\O,1,r1\O,2,r2,1,
 a1\N,3,r3,2,a2,1,d1,0\O,4,r4,3,a3,2,d2,0\\r1=0.96897556\r2=1.45491931\
 r3=1.45878406\r4=1.17072885\a1=97.59494903\a2=102.29752444\a3=109.0695
 5123\d1=193.87572659\d2=180.\\Version=ES64L-G16RevB.01\State=1-A\HF=-2
 79.5018515\MP2=-280.4469569\RMSD=4.983e-09\RMSF=6.555e-04\ZeroPoint=0.
 0218802\Thermal=0.0259953\Dipole=-0.1465676,-0.0277713,-0.5562788\Dipo
 leDeriv=0.2652927,0.0021005,0.047856,0.0023423,0.3536195,0.0021466,0.0
 81144,-0.0103683,0.2732458,-0.3271719,0.0213678,-0.2039772,-0.0157275,
 -0.3119598,-0.0060261,-0.1132873,0.0167895,-0.2204573,-0.0490049,-0.02
 0448,0.1419294,0.1956523,-0.1486902,0.2913288,-0.7293143,0.2518182,-1.
 2817368,0.9003495,-0.1854309,0.8903997,-0.1879322,0.1386489,-0.3355003
 ,0.9041842,-0.331399,1.5836847,-0.7894654,0.1824105,-0.8762078,0.00566
 51,-0.0316185,0.048051,-0.1427266,0.0731597,-0.3547364\Polar=32.172883
 ,-1.620508,18.4869972,9.4990135,-2.5971629,31.4944442\Quadrupole=-1.49
 22187,-0.7758811,2.2680998,-0.08679,2.0807533,0.0504734\PG=C01 [X(H1N1
 O3)]\NImag=1\\0.06476458,-0.00112061,-0.00199268,0.00506378,0.00055239
 ,0.51208900,-0.03554079,0.00305164,-0.01587665,0.27136790,0.00044926,0
 .00281686,-0.00086128,-0.00700702,0.00426666,0.04838682,-0.00215451,-0
 .50863393,0.03321283,-0.00637009,0.59339027,-0.01901810,-0.00353704,0.
 01222222,-0.21824341,-0.00452632,-0.02222732,0.33995498,0.00165156,0.0
 0096754,-0.00043189,0.00278092,-0.00862499,0.00977709,0.00731467,0.012
 17099,-0.05286067,0.00013675,-0.00024691,-0.01922031,0.00605561,-0.077
 07789,0.03724156,-0.03142137,0.17386038,-0.00892650,0.00127303,-0.0047
 3173,-0.01796412,0.01072907,-0.05114344,-0.07687712,-0.04396473,0.1688
 0357,0.82771076,-0.00288745,-0.00262099,0.00088745,0.00042718,-0.00355
 395,-0.00868179,-0.02080304,0.00165983,0.02672654,0.03090888,0.0195926
 0,0.00469583,0.00094990,-0.00462341,0.01157702,-0.00412065,0.01528472,
 0.06036597,0.02128426,-0.07626766,-0.01289498,-0.04102820,0.17751444,-
 0.00127919,0.00033298,0.00332238,0.00038043,0.00035501,-0.00822888,-0.
 02581635,0.03221758,-0.13396415,-0.72394301,-0.00764557,-0.06374384,0.
 75065812,0.00190724,0.00082927,-0.00014667,0.00074727,0.00509541,0.007
 42931,0.02155173,-0.00617337,-0.00149752,0.00105375,-0.01507748,0.0229
 1469,-0.02525999,0.01532617,-0.00528576,0.00051548,0.00141527,-0.00969
 288,0.00529641,-0.02296316,-0.08760243,0.00079191,-0.02026792,-0.10003
 342,0.02209600,-0.11190808,0.20261449,-0.02869981,0.15372390\\0.000166
 67,0.00098485,-0.00000593,-0.00083289,-0.00132515,0.00023242,0.0009923
 5,-0.00041429,-0.00007082,0.00011561,0.00115915,0.00008631,-0.00044175
 ,-0.00040456,-0.00024197\\\@


 SOME PHYSICISTS WOULD PREFER TO COME BACK TO THE IDEA OF AN OBJECTIVE
 REAL WORLD WHOSE SMALLEST PARTS EXIST OBJECTIVELY IN THE SAME SENSE AS
 STONES OR TREES EXIST INDEPENDENTLY OF WHETHER WE OBSERVE THEM.
 THIS, HOWEVER, IS IMPOSSIBLE.  -- WERNER HEISENBERG
 Job cpu time:       0 days  2 hours  0 minutes 56.5 seconds.
 Elapsed time:       0 days  0 hours  4 minutes 26.4 seconds.
 File lengths (MBytes):  RWF=   7239 Int=      0 D2E=      0 Chk=      8 Scr=      1
 Normal termination of Gaussian 16 at Mon Feb 21 21:04:56 2022.
