title                                                                   
Freq      RMP2-FC                                                     Aug-CC-pVTZ         
Number of atoms                            I                5
Info1-9                                    I   N=           9
          33          24           0           0           0         100
           6           2           1
Full Title                                 C   N=           1
title       
Route                                      C   N=           4
#p freq mp2/aug-cc-pvtz density=current         
Charge                                     I                0
Multiplicity                               I                1
Number of electrons                        I               32
Number of alpha electrons                  I               16
Number of beta electrons                   I               16
Number of basis functions                  I              207
Number of independent functions            I              207
Number of point charges in /Mol/           I                0
Number of translation vectors              I                0
Atomic numbers                             I   N=           5
           1           8           8           7           8
Nuclear charges                            R   N=           5
  1.00000000E+00  8.00000000E+00  8.00000000E+00  7.00000000E+00  8.00000000E+00
Current cartesian coordinates              R   N=          15
  2.92460532E+00  3.19291873E+00  1.96124350E-31  2.74764108E+00  1.37039161E+00
  1.65157895E-31  4.70847755E-17  1.27208848E+00  9.22746184E-33 -4.90466904E-01
 -1.44063156E+00 -3.13800387E-32 -2.68405821E+00 -1.78104231E+00 -1.32214325E-31
Number of symbols in /Mol/                 I                0
Force Field                                I                0
Atom Types                                 C   N=           5
                                                            
Int Atom Types                             I   N=           5
           0           0           0           0           0
MM charges                                 R   N=           5
  0.00000000E+00  0.00000000E+00  0.00000000E+00  0.00000000E+00  0.00000000E+00
Integer atomic weights                     I   N=           5
           1          16          16          14          16
Real atomic weights                        R   N=           5
  1.00782504E+00  1.59949146E+01  1.59949146E+01  1.40030740E+01  1.59949146E+01
Atom fragment info                         I   N=           5
           0           0           0           0           0
Atom residue num                           I   N=           5
           0           0           0           0           0
Nuclear spins                              I   N=           5
           1           0           0           2           0
Nuclear ZEff                               R   N=           5
 -1.00000000E+00 -5.60000000E+00 -5.60000000E+00 -4.55000000E+00 -5.60000000E+00
Nuclear ZNuc                               R   N=           5
  1.00000000E+00  8.00000000E+00  8.00000000E+00  7.00000000E+00  8.00000000E+00
Nuclear QMom                               R   N=           5
  0.00000000E+00  0.00000000E+00  0.00000000E+00  2.04400000E+00  0.00000000E+00
Nuclear GFac                               R   N=           5
  2.79284600E+00  0.00000000E+00  0.00000000E+00  4.03761000E-01  0.00000000E+00
MicOpt                                     I   N=           5
          -1          -1          -1          -1          -1
Number of residues                         I                0
Number of secondary structures             I                0
SymInf integers                            I   N=          26
           1           2           1           1           1           1
           1          -1           0           0           0           0
           0           0           0           0           0           0
           0           0           0           0           0           0
           0           0
RotTr to input orientation                 R   N=          12
 -9.95319036E-01 -9.83755558E-17 -9.66437623E-02  9.66437623E-02 -7.29372871E-17
 -9.95319036E-01  9.08661295E-17 -1.00000000E+00  8.21032541E-17  2.60233967E+00
  0.00000000E+00  3.46061766E+00
Number of contracted shells                I               65
Number of primitive shells                 I              119
Pure/Cartesian d shells                    I                0
Pure/Cartesian f shells                    I                0
Highest angular momentum                   I                3
Largest degree of contraction              I                7
Shell types                                I   N=          65
           0           0           0           0           1           1
           1          -2          -2           0           0           0
           0           0           1           1           1           1
          -2          -2          -2          -3          -3           0
           0           0           0           0           1           1
           1           1          -2          -2          -2          -3
          -3           0           0           0           0           0
           1           1           1           1          -2          -2
          -2          -3          -3           0           0           0
           0           0           1           1           1           1
          -2          -2          -2          -3          -3
Number of primitives per shell             I   N=          65
           3           1           1           1           1           1
           1           1           1           7           6           1
           1           1           3           1           1           1
           1           1           1           1           1           7
           6           1           1           1           3           1
           1           1           1           1           1           1
           1           7           6           1           1           1
           3           1           1           1           1           1
           1           1           1           7           6           1
           1           1           3           1           1           1
           1           1           1           1           1
Shell to atom map                          I   N=          65
           1           1           1           1           1           1
           1           1           1           2           2           2
           2           2           2           2           2           2
           2           2           2           2           2           3
           3           3           3           3           3           3
           3           3           3           3           3           3
           3           4           4           4           4           4
           4           4           4           4           4           4
           4           4           4           5           5           5
           5           5           5           5           5           5
           5           5           5           5           5
Primitive exponents                        R   N=         119
  3.38700000E+01  5.09500000E+00  1.15900000E+00  3.25800000E-01  1.02700000E-01
  2.52600000E-02  1.40700000E+00  3.88000000E-01  1.02000000E-01  1.05700000E+00
  2.47000000E-01  1.53300000E+04  2.29900000E+03  5.22400000E+02  1.47300000E+02
  4.75500000E+01  1.67600000E+01  6.20700000E+00  5.22400000E+02  1.47300000E+02
  4.75500000E+01  1.67600000E+01  6.20700000E+00  6.88200000E-01  1.75200000E+00
  2.38400000E-01  7.37600000E-02  3.44600000E+01  7.74900000E+00  2.28000000E+00
  7.15600000E-01  2.14000000E-01  5.97400000E-02  2.31400000E+00  6.45000000E-01
  2.14000000E-01  1.42800000E+00  5.00000000E-01  1.53300000E+04  2.29900000E+03
  5.22400000E+02  1.47300000E+02  4.75500000E+01  1.67600000E+01  6.20700000E+00
  5.22400000E+02  1.47300000E+02  4.75500000E+01  1.67600000E+01  6.20700000E+00
  6.88200000E-01  1.75200000E+00  2.38400000E-01  7.37600000E-02  3.44600000E+01
  7.74900000E+00  2.28000000E+00  7.15600000E-01  2.14000000E-01  5.97400000E-02
  2.31400000E+00  6.45000000E-01  2.14000000E-01  1.42800000E+00  5.00000000E-01
  1.14200000E+04  1.71200000E+03  3.89300000E+02  1.10000000E+02  3.55700000E+01
  1.25400000E+01  4.64400000E+00  3.89300000E+02  1.10000000E+02  3.55700000E+01
  1.25400000E+01  4.64400000E+00  5.11800000E-01  1.29300000E+00  1.78700000E-01
  5.76000000E-02  2.66300000E+01  5.94800000E+00  1.74200000E+00  5.55000000E-01
  1.72500000E-01  4.91000000E-02  1.65400000E+00  4.69000000E-01  1.51000000E-01
  1.09300000E+00  3.64000000E-01  1.53300000E+04  2.29900000E+03  5.22400000E+02
  1.47300000E+02  4.75500000E+01  1.67600000E+01  6.20700000E+00  5.22400000E+02
  1.47300000E+02  4.75500000E+01  1.67600000E+01  6.20700000E+00  6.88200000E-01
  1.75200000E+00  2.38400000E-01  7.37600000E-02  3.44600000E+01  7.74900000E+00
  2.28000000E+00  7.15600000E-01  2.14000000E-01  5.97400000E-02  2.31400000E+00
  6.45000000E-01  2.14000000E-01  1.42800000E+00  5.00000000E-01
Contraction coefficients                   R   N=         119
  2.54948632E-02  1.90362766E-01  8.52162022E-01  1.00000000E+00  1.00000000E+00
  1.00000000E+00  1.00000000E+00  1.00000000E+00  1.00000000E+00  1.00000000E+00
  1.00000000E+00  5.19808943E-04  4.02025621E-03  2.07128267E-02  8.10105536E-02
  2.35962985E-01  4.42653446E-01  3.57064423E-01 -4.42115008E-05 -1.22591041E-03
 -1.05517725E-02 -6.74452633E-02 -1.71198607E-01  1.07329856E+00  1.00000000E+00
  1.00000000E+00  1.00000000E+00  4.11634896E-02  2.57762836E-01  8.02419274E-01
  1.00000000E+00  1.00000000E+00  1.00000000E+00  1.00000000E+00  1.00000000E+00
  1.00000000E+00  1.00000000E+00  1.00000000E+00  5.19808943E-04  4.02025621E-03
  2.07128267E-02  8.10105536E-02  2.35962985E-01  4.42653446E-01  3.57064423E-01
 -4.42115008E-05 -1.22591041E-03 -1.05517725E-02 -6.74452633E-02 -1.71198607E-01
  1.07329856E+00  1.00000000E+00  1.00000000E+00  1.00000000E+00  4.11634896E-02
  2.57762836E-01  8.02419274E-01  1.00000000E+00  1.00000000E+00  1.00000000E+00
  1.00000000E+00  1.00000000E+00  1.00000000E+00  1.00000000E+00  1.00000000E+00
  5.34563860E-04  4.13435660E-03  2.12335358E-02  8.25006224E-02  2.38138871E-01
  4.42551547E-01  3.53757422E-01 -4.89867350E-05 -1.19527323E-03 -1.03490714E-02
 -6.48680190E-02 -1.71552477E-01  1.07289568E+00  1.00000000E+00  1.00000000E+00
  1.00000000E+00  3.98072123E-02  2.49002660E-01  8.10479727E-01  1.00000000E+00
  1.00000000E+00  1.00000000E+00  1.00000000E+00  1.00000000E+00  1.00000000E+00
  1.00000000E+00  1.00000000E+00  5.19808943E-04  4.02025621E-03  2.07128267E-02
  8.10105536E-02  2.35962985E-01  4.42653446E-01  3.57064423E-01 -4.42115008E-05
 -1.22591041E-03 -1.05517725E-02 -6.74452633E-02 -1.71198607E-01  1.07329856E+00
  1.00000000E+00  1.00000000E+00  1.00000000E+00  4.11634896E-02  2.57762836E-01
  8.02419274E-01  1.00000000E+00  1.00000000E+00  1.00000000E+00  1.00000000E+00
  1.00000000E+00  1.00000000E+00  1.00000000E+00  1.00000000E+00
Coordinates of each shell                  R   N=         195
  2.92460532E+00  3.19291873E+00  7.37469096E-32  2.92460532E+00  3.19291873E+00
  7.37469096E-32  2.92460532E+00  3.19291873E+00  7.37469096E-32  2.92460532E+00
  3.19291873E+00  7.37469096E-32  2.92460532E+00  3.19291873E+00  7.37469096E-32
  2.92460532E+00  3.19291873E+00  7.37469096E-32  2.92460532E+00  3.19291873E+00
  7.37469096E-32  2.92460532E+00  3.19291873E+00  7.37469096E-32  2.92460532E+00
  3.19291873E+00  7.37469096E-32  2.74764108E+00  1.37039161E+00  6.93315795E-32
  2.74764108E+00  1.37039161E+00  6.93315795E-32  2.74764108E+00  1.37039161E+00
  6.93315795E-32  2.74764108E+00  1.37039161E+00  6.93315795E-32  2.74764108E+00
  1.37039161E+00  6.93315795E-32  2.74764108E+00  1.37039161E+00  6.93315795E-32
  2.74764108E+00  1.37039161E+00  6.93315795E-32  2.74764108E+00  1.37039161E+00
  6.93315795E-32  2.74764108E+00  1.37039161E+00  6.93315795E-32  2.74764108E+00
  1.37039161E+00  6.93315795E-32  2.74764108E+00  1.37039161E+00  6.93315795E-32
  2.74764108E+00  1.37039161E+00  6.93315795E-32  2.74764108E+00  1.37039161E+00
  6.93315795E-32  2.74764108E+00  1.37039161E+00  6.93315795E-32 -5.01598257E-18
  1.27208848E+00 -3.66980592E-35 -5.01598257E-18  1.27208848E+00 -3.66980592E-35
 -5.01598257E-18  1.27208848E+00 -3.66980592E-35 -5.01598257E-18  1.27208848E+00
 -3.66980592E-35 -5.01598257E-18  1.27208848E+00 -3.66980592E-35 -5.01598257E-18
  1.27208848E+00 -3.66980592E-35 -5.01598257E-18  1.27208848E+00 -3.66980592E-35
 -5.01598257E-18  1.27208848E+00 -3.66980592E-35 -5.01598257E-18  1.27208848E+00
 -3.66980592E-35 -5.01598257E-18  1.27208848E+00 -3.66980592E-35 -5.01598257E-18
  1.27208848E+00 -3.66980592E-35 -5.01598257E-18  1.27208848E+00 -3.66980592E-35
 -5.01598257E-18  1.27208848E+00 -3.66980592E-35 -5.01598257E-18  1.27208848E+00
 -3.66980592E-35 -4.90466904E-01 -1.44063156E+00 -1.23415109E-32 -4.90466904E-01
 -1.44063156E+00 -1.23415109E-32 -4.90466904E-01 -1.44063156E+00 -1.23415109E-32
 -4.90466904E-01 -1.44063156E+00 -1.23415109E-32 -4.90466904E-01 -1.44063156E+00
 -1.23415109E-32 -4.90466904E-01 -1.44063156E+00 -1.23415109E-32 -4.90466904E-01
 -1.44063156E+00 -1.23415109E-32 -4.90466904E-01 -1.44063156E+00 -1.23415109E-32
 -4.90466904E-01 -1.44063156E+00 -1.23415109E-32 -4.90466904E-01 -1.44063156E+00
 -1.23415109E-32 -4.90466904E-01 -1.44063156E+00 -1.23415109E-32 -4.90466904E-01
 -1.44063156E+00 -1.23415109E-32 -4.90466904E-01 -1.44063156E+00 -1.23415109E-32
 -4.90466904E-01 -1.44063156E+00 -1.23415109E-32 -2.68405821E+00 -1.78104231E+00
 -6.77144231E-32 -2.68405821E+00 -1.78104231E+00 -6.77144231E-32 -2.68405821E+00
 -1.78104231E+00 -6.77144231E-32 -2.68405821E+00 -1.78104231E+00 -6.77144231E-32
 -2.68405821E+00 -1.78104231E+00 -6.77144231E-32 -2.68405821E+00 -1.78104231E+00
 -6.77144231E-32 -2.68405821E+00 -1.78104231E+00 -6.77144231E-32 -2.68405821E+00
 -1.78104231E+00 -6.77144231E-32 -2.68405821E+00 -1.78104231E+00 -6.77144231E-32
 -2.68405821E+00 -1.78104231E+00 -6.77144231E-32 -2.68405821E+00 -1.78104231E+00
 -6.77144231E-32 -2.68405821E+00 -1.78104231E+00 -6.77144231E-32 -2.68405821E+00
 -1.78104231E+00 -6.77144231E-32 -2.68405821E+00 -1.78104231E+00 -6.77144231E-32
Num ILSW                                   I              100
ILSW                                       I   N=         100
           0           0           0           0           2           0
           0           0           0           0           0          -1
           5           0           0           0           2           0
           0           0           0           0           1           0
           1           0           0           0           0           0
           0           0      100000           0          -1           0
           0           0           0           0           0           0
           0           0           0           1           1           0
           0 -2000000000           1           0           0           0
           0           0           4          52           0           0
           0           0           0           0           0           0
           0           0           0           5           4           1
           0           0           0           0           0           0
           0           0           0           0           0           0
           0           0           0           0           0           0
           0           0           0           0           0           0
           0           0           0           0
Num RLSW                                   I               52
RLSW                                       R   N=          52
  1.00000000E+00  1.00000000E+00  1.00000000E+00  1.00000000E+00  1.00000000E+00
  0.00000000E+00  0.00000000E+00  1.00000000E+00  0.00000000E+00  0.00000000E+00
  0.00000000E+00  0.00000000E+00  1.00000000E+00  0.00000000E+00  0.00000000E+00
  0.00000000E+00  0.00000000E+00  1.00000000E+00  0.00000000E+00  0.00000000E+00
  0.00000000E+00  0.00000000E+00  1.00000000E+00  0.00000000E+00  0.00000000E+00
  0.00000000E+00  0.00000000E+00  1.00000000E+00  0.00000000E+00  0.00000000E+00
  0.00000000E+00  0.00000000E+00  1.00000000E+00  0.00000000E+00  0.00000000E+00
  0.00000000E+00  0.00000000E+00  0.00000000E+00  1.00000000E+00  1.00000000E+00
  0.00000000E+00  1.00000000E+00  0.00000000E+00  0.00000000E+00  0.00000000E+00
  0.00000000E+00  0.00000000E+00  0.00000000E+00  0.00000000E+00  0.00000000E+00
  0.00000000E+00  0.00000000E+00
MxBond                                     I                2
NBond                                      I   N=           5
           1           2           2           2           1
IBond                                      I   N=          10
           2           0           1           3           2           4
           3           5           4           0
RBond                                      R   N=          10
  1.00000000E+00  0.00000000E+00  1.00000000E+00  1.00000000E+00  1.00000000E+00
  1.00000000E+00  1.00000000E+00  2.00000000E+00  2.00000000E+00  0.00000000E+00
Virial Ratio                               R      2.002420344583908E+00
SCF Energy                                 R     -2.795009884821442E+02
MP2 Energy                                 R     -2.804467150716546E+02
Total Energy                               R     -2.804467150716546E+02
Post-SCF wavefunction norm                 R      1.584628874116092E+00
RMS Force                                  R      1.952670700168823E-03
RMS Density                                R      3.898222120724281E-09
NImag                                      I                1
Job Status                                 I                1
Nuclear derivative order                   I                2
External E-field                           R   N=          35
  0.00000000E+00  0.00000000E+00  0.00000000E+00  0.00000000E+00  0.00000000E+00
  0.00000000E+00  0.00000000E+00  0.00000000E+00  0.00000000E+00  0.00000000E+00
  0.00000000E+00  0.00000000E+00  0.00000000E+00  0.00000000E+00  0.00000000E+00
  0.00000000E+00  0.00000000E+00  0.00000000E+00  0.00000000E+00  0.00000000E+00
  0.00000000E+00  0.00000000E+00  0.00000000E+00  0.00000000E+00  0.00000000E+00
  0.00000000E+00  0.00000000E+00  0.00000000E+00  0.00000000E+00  0.00000000E+00
  0.00000000E+00  0.00000000E+00  0.00000000E+00  0.00000000E+00  0.00000000E+00
IOpCl                                      I                0
IROHF                                      I                0
Alpha Orbital Energies                     R   N=         207
 -2.06918075E+01 -2.06841338E+01 -2.06604859E+01 -1.58134108E+01 -1.62085509E+00
 -1.49566625E+00 -1.25480746E+00 -9.48610758E-01 -7.72336631E-01 -7.58139492E-01
 -7.11015847E-01 -6.78886415E-01 -6.19639284E-01 -5.89683705E-01 -4.85550329E-01
 -4.73271747E-01  2.95201309E-02  7.04518333E-02  8.60089045E-02  1.01719447E-01
  1.33896098E-01  1.34031332E-01  1.43994910E-01  1.54435712E-01  1.78189075E-01
  1.94218545E-01  1.99662896E-01  2.06358295E-01  2.20681458E-01  2.35093291E-01
  2.37352514E-01  2.66002659E-01  2.93029164E-01  3.03727456E-01  3.10276450E-01
  3.43478254E-01  3.49600991E-01  3.87066475E-01  4.21809020E-01  4.31587021E-01
  5.27414655E-01  5.28646160E-01  5.58251547E-01  5.81558551E-01  6.23777043E-01
  6.38473855E-01  6.75688635E-01  6.84189745E-01  7.06353848E-01  7.11038495E-01
  7.23971478E-01  7.29165260E-01  7.44675129E-01  7.91340468E-01  7.91796600E-01
  8.10453926E-01  8.12345820E-01  8.29557041E-01  8.67895609E-01  9.07924601E-01
  9.21584413E-01  9.25946415E-01  9.56390873E-01  9.76667625E-01  9.84290126E-01
  1.01627188E+00  1.05174012E+00  1.05452037E+00  1.08158890E+00  1.11711317E+00
  1.14081464E+00  1.18925221E+00  1.22020714E+00  1.23207835E+00  1.33854745E+00
  1.35020068E+00  1.38559658E+00  1.45325548E+00  1.48759092E+00  1.50848077E+00
  1.53792077E+00  1.56693610E+00  1.57981252E+00  1.61295495E+00  1.66324123E+00
  1.66945883E+00  1.70341434E+00  1.79295934E+00  1.83161848E+00  1.83455690E+00
  1.87722916E+00  1.91014414E+00  1.95726026E+00  1.99112929E+00  2.00585050E+00
  2.07752274E+00  2.12086112E+00  2.13162365E+00  2.14947418E+00  2.22423534E+00
  2.26415149E+00  2.26442731E+00  2.28919994E+00  2.31385763E+00  2.34279598E+00
  2.38577771E+00  2.42353914E+00  2.42787676E+00  2.45406173E+00  2.46230175E+00
  2.47607907E+00  2.50051380E+00  2.58891940E+00  2.59580450E+00  2.62018856E+00
  2.62309328E+00  2.63405375E+00  2.66634063E+00  2.75595805E+00  2.82311363E+00
  2.85382350E+00  2.88237449E+00  2.89300587E+00  2.92264738E+00  2.95705239E+00
  3.02422717E+00  3.06874229E+00  3.12034395E+00  3.20430372E+00  3.22555378E+00
  3.31588656E+00  3.34104607E+00  3.51531825E+00  3.64307766E+00  3.83783197E+00
  3.84322777E+00  4.14819140E+00  4.16243213E+00  4.18312599E+00  4.24814961E+00
  4.35115150E+00  4.39261055E+00  4.46220412E+00  4.51835546E+00  4.65694391E+00
  4.70985774E+00  4.80303883E+00  4.82396873E+00  4.82793028E+00  4.89598823E+00
  5.02384931E+00  5.07713545E+00  5.10185673E+00  5.14616133E+00  5.17772598E+00
  5.24094419E+00  5.27179457E+00  5.30852990E+00  5.32892754E+00  5.35171963E+00
  5.60550075E+00  5.66709092E+00  5.76571492E+00  5.82726054E+00  5.95885792E+00
  6.16752761E+00  6.30796054E+00  6.33787245E+00  6.39380990E+00  6.49361187E+00
  6.50533530E+00  6.61315083E+00  6.66744496E+00  6.69789011E+00  6.75709596E+00
  6.76265920E+00  6.83022623E+00  6.89679271E+00  7.01214806E+00  7.05515516E+00
  7.05622603E+00  7.08947525E+00  7.12242185E+00  7.14863003E+00  7.18095352E+00
  7.22212630E+00  7.24083827E+00  7.30508336E+00  7.31689458E+00  7.34474684E+00
  7.39620004E+00  7.43075777E+00  7.48398088E+00  7.60707531E+00  7.61093452E+00
  7.62257744E+00  7.66464088E+00  7.78580495E+00  7.88028031E+00  8.09116081E+00
  8.31306056E+00  8.40868594E+00  8.54334650E+00  1.33831054E+01  1.43610299E+01
  1.51599604E+01  1.60334480E+01
Alpha MO coefficients                      R   N=       42849
  9.18045816E-05 -6.44019355E-04 -7.26646707E-04 -4.81101716E-06 -2.13348329E-05
 -2.68301201E-05  0.00000000E+00 -4.37141766E-05  6.10991635E-05  0.00000000E+00
  8.65522034E-05  3.58457571E-05  0.00000000E+00  3.18203159E-05  0.00000000E+00
  0.00000000E+00 -4.96882268E-05  2.09789221E-05 -5.53043640E-06  0.00000000E+00
  0.00000000E+00 -1.38947211E-04  1.17739911E-04  4.52225958E-03 -2.81499878E-04
  1.18512400E-05  1.56087136E-03  1.82373510E-03  1.06271803E-04  7.53991787E-06
  0.00000000E+00 -6.17122328E-04 -3.65757161E-05  0.00000000E+00 -1.10324945E-03
  7.96142893E-04  0.00000000E+00 -4.02989468E-04  6.35796461E-05  0.00000000E+00
  2.88426087E-05  0.00000000E+00  0.00000000E+00 -5.40972126E-05  5.59215246E-06
 -3.78453199E-04  0.00000000E+00  0.00000000E+00  7.39945050E-04 -2.96596051E-05
 -4.46897513E-04  0.00000000E+00  0.00000000E+00  2.41855369E-04 -1.60490691E-05
  0.00000000E+00  8.00374020E-05  1.28396934E-05  0.00000000E+00  0.00000000E+00
 -1.09530756E-04 -3.86125322E-06  0.00000000E+00  2.54710086E-04 -2.74914607E-05
  0.00000000E+00  0.00000000E+00 -3.53693435E-04  4.83915897E-05  9.76913665E-01
 -9.21521547E-03  4.33167698E-02  2.02698971E-03 -9.23408336E-04  1.49558140E-03
 -1.35886900E-03  0.00000000E+00 -1.43689242E-03  1.38770469E-03  0.00000000E+00
  8.13355496E-05 -1.16125413E-03  0.00000000E+00 -1.35794749E-04 -1.22331687E-05
  0.00000000E+00  4.63592092E-05  0.00000000E+00  0.00000000E+00 -3.50314366E-05
  2.10555154E-05  7.48116184E-04  0.00000000E+00  0.00000000E+00 -2.29406903E-04
 -3.90546268E-04 -3.59609636E-04  0.00000000E+00  0.00000000E+00 -3.12803742E-04
 -3.76140847E-04  0.00000000E+00  4.74526045E-05 -4.91281294E-05  0.00000000E+00
  0.00000000E+00 -3.89817792E-05 -1.60594483E-05  0.00000000E+00  2.34931885E-05
  2.21717201E-05  0.00000000E+00  0.00000000E+00 -3.04537565E-04 -1.41370605E-04
  3.96201257E-05  4.90256534E-05 -2.64514384E-04 -6.90213493E-04 -1.35250084E-04
 -2.71325325E-05 -9.79388807E-05  0.00000000E+00  2.66608885E-04  7.11375587E-04
  0.00000000E+00 -8.32146059E-04 -4.68823251E-04  0.00000000E+00 -1.24824548E-04
 -2.57614310E-05  0.00000000E+00 -1.81644513E-05  0.00000000E+00  0.00000000E+00
 -2.93394234E-05  1.49748040E-05 -3.29881756E-04  0.00000000E+00  0.00000000E+00
 -8.30282320E-04  1.26304401E-04 -3.75720588E-05  0.00000000E+00  0.00000000E+00
  9.46111702E-05 -1.16595671E-04  0.00000000E+00 -2.06492155E-05 -1.20295262E-04
  0.00000000E+00  0.00000000E+00 -6.22653204E-05 -1.38637596E-04  0.00000000E+00
  2.77164275E-06 -1.53474716E-04  0.00000000E+00  0.00000000E+00  4.47493145E-05
 -4.18391120E-04 -2.19500125E-03  1.17885367E-04 -1.06805487E-04 -2.45672303E-04
  1.29413884E-04 -6.99881915E-06 -2.77406876E-05  0.00000000E+00  6.74762858E-05
  1.63570816E-04  0.00000000E+00  2.26975904E-04  1.96454053E-04  0.00000000E+00
  1.25212842E-04  2.28796556E-05  0.00000000E+00 -3.50260170E-06  0.00000000E+00
  0.00000000E+00 -1.75983186E-05  1.06891600E-06  6.67871321E-07  0.00000000E+00
  0.00000000E+00  7.83321852E-05  8.87060975E-05 -9.88570778E-05  0.00000000E+00
  0.00000000E+00  1.64801580E-04  1.59908814E-04  0.00000000E+00  1.58948238E-05
 -3.72851877E-06  0.00000000E+00  0.00000000E+00 -4.72857157E-06 -1.18240815E-05
  0.00000000E+00 -3.34258562E-05  4.52805815E-05  0.00000000E+00  0.00000000E+00
  8.30972695E-05  9.04638731E-05  3.86377979E-05 -9.94062355E-04 -4.93520039E-04
 -1.17429278E-05 -2.22647818E-05  1.63301389E-05  0.00000000E+00 -7.75653090E-07
  2.76676859E-04  0.00000000E+00 -4.29404239E-05  1.35373680E-04  0.00000000E+00
  2.60453654E-05  0.00000000E+00  0.00000000E+00  1.27007474E-05  1.12286625E-05
 -2.74226663E-05  0.00000000E+00  0.00000000E+00  1.10160366E-05  3.54318810E-05
  1.12679436E-04  8.40235081E-05 -2.79123798E-05  7.52476218E-04  6.57419307E-04
  9.94595909E-06  2.60969994E-06  0.00000000E+00 -7.10876397E-05  1.59052453E-05
  0.00000000E+00  3.38401666E-04  9.02109305E-04  0.00000000E+00  4.90577036E-06
  8.37764805E-05  0.00000000E+00 -2.23305405E-06  0.00000000E+00  0.00000000E+00
  5.03304182E-08 -6.27126635E-06 -3.58265816E-05  0.00000000E+00  0.00000000E+00
 -2.25189943E-05  8.51500040E-05 -2.22005756E-05  0.00000000E+00  0.00000000E+00
 -2.69065692E-04 -1.60367806E-04  0.00000000E+00  9.20209515E-06  6.11478472E-06
  0.00000000E+00  0.00000000E+00  3.04989294E-06 -1.89613657E-05  0.00000000E+00
 -4.10766028E-05 -3.86137825E-05  0.00000000E+00  0.00000000E+00 -7.67069449E-05
  1.89226911E-05  2.23392282E-03  4.34251425E-05  7.37396082E-05 -6.74604478E-05
 -4.72311773E-04  7.07486529E-06  1.62729400E-05  0.00000000E+00 -6.31856771E-05
 -5.69440665E-05  0.00000000E+00  2.31944365E-04 -1.77429236E-04  0.00000000E+00
 -1.90694463E-04 -6.46959537E-05  0.00000000E+00 -8.73144242E-06  0.00000000E+00
  0.00000000E+00  2.18796812E-05  1.90099627E-05  3.60331718E-06  0.00000000E+00
  0.00000000E+00 -1.14551266E-04 -4.15222120E-05 -3.61609220E-06  0.00000000E+00
  0.00000000E+00 -2.18587432E-04 -1.98463070E-04  0.00000000E+00  3.40752959E-06
 -3.41877338E-07  0.00000000E+00  0.00000000E+00  1.84109714E-06 -1.44557878E-05
  0.00000000E+00 -4.65525911E-05  2.20021497E-06  0.00000000E+00  0.00000000E+00
 -7.26909121E-05  1.88318708E-04  2.57724771E-04  1.45868241E-03 -9.52730761E-05
 -1.45628541E-03  4.19843959E-04 -1.34465504E-04  1.75535044E-06  0.00000000E+00
 -2.10193647E-03 -4.12033288E-04  0.00000000E+00  9.96295022E-04  7.61545867E-04
  0.00000000E+00 -1.74539764E-04  5.53294462E-05  0.00000000E+00 -1.24356201E-04
  0.00000000E+00  0.00000000E+00  2.43877965E-04  9.45379703E-05 -4.53397290E-04
  0.00000000E+00  0.00000000E+00  9.20033154E-04 -5.06413038E-05  5.95412330E-06
  0.00000000E+00  0.00000000E+00 -3.26593571E-04 -1.19303825E-04  0.00000000E+00
  5.06327163E-06  1.65600496E-05  0.00000000E+00  0.00000000E+00  1.12447547E-05
  9.18902269E-06  0.00000000E+00  1.66522824E-04 -7.17961604E-05  0.00000000E+00
  0.00000000E+00 -2.50123016E-04  4.26016909E-05  9.76656861E-01 -9.85308238E-03
  4.35569684E-02  4.42485881E-03 -4.73158705E-04  2.14355732E-03  4.83048776E-04
  0.00000000E+00 -2.40102442E-03 -6.08721983E-04  0.00000000E+00  1.12207611E-03
 -7.13397381E-06  0.00000000E+00  1.76357702E-06 -4.35416897E-05  0.00000000E+00
 -2.29569281E-04  0.00000000E+00  0.00000000E+00  9.79304235E-05  3.05100936E-05
  3.93224620E-04  0.00000000E+00  0.00000000E+00 -8.39749563E-04 -4.22877054E-04
 -1.57135754E-04  0.00000000E+00  0.00000000E+00  2.60715650E-04  1.75169711E-05
  0.00000000E+00  5.45390965E-05  1.80215268E-05  0.00000000E+00  0.00000000E+00
 -2.48642476E-05 -1.45701153E-05  0.00000000E+00  1.35815435E-04  9.07180068E-06
  0.00000000E+00  0.00000000E+00 -1.88204409E-04 -1.40566669E-04  4.74799682E-04
  2.06029723E-03  1.14500673E-04  1.51349335E-05 -4.08506239E-05 -2.46854064E-04
  0.00000000E+00  1.13287778E-04 -1.27477306E-03  0.00000000E+00  3.12015138E-04
 -3.37499102E-04  0.00000000E+00 -2.67222010E-06  0.00000000E+00  0.00000000E+00
  7.59232753E-05  1.56998477E-05 -1.60100793E-04  0.00000000E+00  0.00000000E+00
 -5.37328041E-04 -2.52767948E-05  9.76830526E-01 -9.16313539E-03  4.34496084E-02
  1.63095381E-04 -1.14046435E-03 -1.56474002E-03  1.44042847E-03  0.00000000E+00
  1.57657797E-03 -1.28301526E-03  0.00000000E+00 -5.67989177E-04 -8.65985813E-04
  0.00000000E+00  5.54147291E-05 -3.25325836E-05  0.00000000E+00  2.95882109E-05
  0.00000000E+00  0.00000000E+00 -1.18137861E-04 -3.26464204E-06  7.57618587E-04
  0.00000000E+00  0.00000000E+00 -2.01880134E-04 -2.35895996E-04 -2.66371680E-04
  0.00000000E+00  0.00000000E+00  1.68414664E-04  1.28100136E-04  0.00000000E+00
 -6.41628060E-05  1.20089090E-06  0.00000000E+00  0.00000000E+00  1.88415607E-05