 Entering Gaussian System, Link 0=g16
 Input=hoono_r4_1p158194.gjf
 Output=hoono_r4_1p158194.log
 Initial command:
 /sw/contrib/gaussian/g16/B01/g16/l1.exe "/scr/Gau-26675.inp" -scrdir="/scr/"
 Entering Link 1 = /sw/contrib/gaussian/g16/B01/g16/l1.exe PID=     26676.
  
 Copyright (c) 1988-2017, Gaussian, Inc.  All Rights Reserved.
  
 This is part of the Gaussian(R) 16 program.  It is based on
 the Gaussian(R) 09 system (copyright 2009, Gaussian, Inc.),
 the Gaussian(R) 03 system (copyright 2003, Gaussian, Inc.),
 the Gaussian(R) 98 system (copyright 1998, Gaussian, Inc.),
 the Gaussian(R) 94 system (copyright 1995, Gaussian, Inc.),
 the Gaussian 92(TM) system (copyright 1992, Gaussian, Inc.),
 the Gaussian 90(TM) system (copyright 1990, Gaussian, Inc.),
 the Gaussian 88(TM) system (copyright 1988, Gaussian, Inc.),
 the Gaussian 86(TM) system (copyright 1986, Carnegie Mellon
 University), and the Gaussian 82(TM) system (copyright 1983,
 Carnegie Mellon University). Gaussian is a federally registered
 trademark of Gaussian, Inc.
  
 This software contains proprietary and confidential information,
 including trade secrets, belonging to Gaussian, Inc.
  
 This software is provided under written license and may be
 used, copied, transmitted, or stored only in accord with that
 written license.
  
 The following legend is applicable only to US Government
 contracts under FAR:
  
                    RESTRICTED RIGHTS LEGEND
  
 Use, reproduction and disclosure by the US Government is
 subject to restrictions as set forth in subparagraphs (a)
 and (c) of the Commercial Computer Software - Restricted
 Rights clause in FAR 52.227-19.
  
 Gaussian, Inc.
 340 Quinnipiac St., Bldg. 40, Wallingford CT 06492
  
  
 ---------------------------------------------------------------
 Warning -- This program may not be used in any manner that
 competes with the business of Gaussian, Inc. or will provide
 assistance to any competitor of Gaussian, Inc.  The licensee
 of this program is prohibited from giving any competitor of
 Gaussian, Inc. access to this program.  By using this program,
 the user acknowledges that Gaussian, Inc. is engaged in the
 business of creating and licensing software in the field of
 computational chemistry and represents and warrants to the
 licensee that it is not a competitor of Gaussian, Inc. and that
 it will not use this program in any manner prohibited above.
 ---------------------------------------------------------------
  

 Cite this work as:
 Gaussian 16, Revision B.01,
 M. J. Frisch, G. W. Trucks, H. B. Schlegel, G. E. Scuseria, 
 M. A. Robb, J. R. Cheeseman, G. Scalmani, V. Barone, 
 G. A. Petersson, H. Nakatsuji, X. Li, M. Caricato, A. V. Marenich, 
 J. Bloino, B. G. Janesko, R. Gomperts, B. Mennucci, H. P. Hratchian, 
 J. V. Ortiz, A. F. Izmaylov, J. L. Sonnenberg, D. Williams-Young, 
 F. Ding, F. Lipparini, F. Egidi, J. Goings, B. Peng, A. Petrone, 
 T. Henderson, D. Ranasinghe, V. G. Zakrzewski, J. Gao, N. Rega, 
 G. Zheng, W. Liang, M. Hada, M. Ehara, K. Toyota, R. Fukuda, 
 J. Hasegawa, M. Ishida, T. Nakajima, Y. Honda, O. Kitao, H. Nakai, 
 T. Vreven, K. Throssell, J. A. Montgomery, Jr., J. E. Peralta, 
 F. Ogliaro, M. J. Bearpark, J. J. Heyd, E. N. Brothers, K. N. Kudin, 
 V. N. Staroverov, T. A. Keith, R. Kobayashi, J. Normand, 
 K. Raghavachari, A. P. Rendell, J. C. Burant, S. S. Iyengar, 
 J. Tomasi, M. Cossi, J. M. Millam, M. Klene, C. Adamo, R. Cammi, 
 J. W. Ochterski, R. L. Martin, K. Morokuma, O. Farkas, 
 J. B. Foresman, and D. J. Fox, Gaussian, Inc., Wallingford CT, 2016.
 
 ******************************************
 Gaussian 16:  ES64L-G16RevB.01 20-Dec-2017
                21-Feb-2022 
 ******************************************
 %nproc=28
 Will use up to   28 processors via shared memory.
 %mem=120GB
 %chk=hoono_r4_1p158194.chk
 ---------------------------------------
 #p freq mp2/aug-cc-pvtz density=current
 ---------------------------------------
 1/10=4,30=1,38=1/1,3;
 2/12=2,17=6,18=5,40=1/2;
 3/5=16,6=1,7=10,11=9,25=1,30=1,71=2,140=1/1,2,3;
 4//1;
 5/5=2,38=5,98=1/2;
 8/6=3,8=1,10=1,19=11,30=-1/1;
 9/15=3,16=-3/6;
 11/6=1,8=1,15=11,17=12,24=-1,27=1,28=-2,29=300,32=6,42=3/1,2,10;
 10/6=2,21=1/2;
 8/6=4,8=1,10=1,19=11,30=-1/11,4;
 10/5=1,20=4/2;
 11/12=2,14=11,16=1,17=2,28=-2,42=3,76=2/2,10,12;
 6/7=2,8=2,9=2,10=2,22=-1/1;
 7/8=1,10=1,12=2,25=1,44=2/1,2,3,16;
 1/10=4,30=1/3;
 99//99;
 Leave Link    1 at Mon Feb 21 20:29:54 2022, MaxMem= 16106127360 cpu:               2.1 elap:               0.1
 (Enter /sw/contrib/gaussian/g16/B01/g16/l101.exe)
 -----
 title
 -----
 Symbolic Z-matrix:
 Charge =  0 Multiplicity = 1
 H
 O                    1    r1
 O                    2    r2       1    a1
 N                    3    r3       2    a2       1    d1       0
 O                    4    r4       3    a3       2    d2       0
       Variables:
  r1                    0.96898                  
  r2                    1.45492                  
  r3                    1.45878                  
  r4                    1.15819                  
  a1                   97.59495                  
  a2                  102.29752                  
  a3                  109.06955                  
  d1                  180.                       
  d2                  180.                       
 
 ITRead=  0  0  0  0  0
 MicOpt= -1 -1 -1 -1 -1
 NAtoms=      5 NQM=        5 NQMF=       0 NMMI=      0 NMMIF=      0
                NMic=       0 NMicF=      0.
                    Isotopes and Nuclear Properties:
 (Nuclear quadrupole moments (NQMom) in fm**2, nuclear magnetic moments (NMagM)
  in nuclear magnetons)

  Atom         1           2           3           4           5
 IAtWgt=           1          16          16          14          16
 AtmWgt=   1.0078250  15.9949146  15.9949146  14.0030740  15.9949146
 NucSpn=           1           0           0           2           0
 AtZEff=  -0.0000000  -0.0000000  -0.0000000  -0.0000000  -0.0000000
 NQMom=    0.0000000   0.0000000   0.0000000   2.0440000   0.0000000
 NMagM=    2.7928460   0.0000000   0.0000000   0.4037610   0.0000000
 AtZNuc=   1.0000000   8.0000000   8.0000000   7.0000000   8.0000000
 Leave Link  101 at Mon Feb 21 20:29:54 2022, MaxMem= 16106127360 cpu:               3.0 elap:               0.1
 (Enter /sw/contrib/gaussian/g16/B01/g16/l103.exe)

 GradGradGradGradGradGradGradGradGradGradGradGradGradGradGradGradGradGrad
 Berny optimization.
 Initialization pass.
                       ----------------------------
                       !    Initial Parameters    !
                       ! (Angstroms and Degrees)  !
 ----------------------                            ----------------------
 !      Name          Value   Derivative information (Atomic Units)     !
 ------------------------------------------------------------------------
 !       r1          0.969    calculate D2E/DX2 analytically            !
 !       r2          1.4549   calculate D2E/DX2 analytically            !
 !       r3          1.4588   calculate D2E/DX2 analytically            !
 !       r4          1.1582   calculate D2E/DX2 analytically            !
 !       a1         97.5949   calculate D2E/DX2 analytically            !
 !       a2        102.2975   calculate D2E/DX2 analytically            !
 !       a3        109.0696   calculate D2E/DX2 analytically            !
 !       d1        180.0      calculate D2E/DX2 analytically            !
 !       d2        180.0      calculate D2E/DX2 analytically            !
 ------------------------------------------------------------------------
 Trust Radius=3.00D-01 FncErr=1.00D-07 GrdErr=1.00D-07 EigMax=2.50D+02 EigMin=1.00D-04
 Number of steps in this run=      2 maximum allowed number of steps=      2.
 GradGradGradGradGradGradGradGradGradGradGradGradGradGradGradGradGradGrad

 Leave Link  103 at Mon Feb 21 20:29:54 2022, MaxMem= 16106127360 cpu:               1.7 elap:               0.1
 (Enter /sw/contrib/gaussian/g16/B01/g16/l202.exe)
                          Input orientation:                          
 ---------------------------------------------------------------------
 Center     Atomic      Atomic             Coordinates (Angstroms)
 Number     Number       Type             X           Y           Z
 ---------------------------------------------------------------------
      1          1           0        0.000000    0.000000    0.000000
      2          8           0        0.000000    0.000000    0.968976
      3          8           0        1.442156    0.000000    1.161271
      4          7           0        1.561752    0.000000    2.615144
      5          8           0        2.683725    0.000000    2.902529
 ---------------------------------------------------------------------
                    Distance matrix (angstroms):
                    1          2          3          4          5
     1  H    0.000000
     2  O    0.968976   0.000000
     3  O    1.851584   1.454919   0.000000
     4  N    3.045989   2.269127   1.458784   0.000000
     5  O    3.953107   3.307719   2.138568   1.158194   0.000000
 Stoichiometry    HNO3
 Framework group  CS[SG(HNO3)]
 Deg. of freedom     7
 Full point group                 CS      NOp   2
 Largest Abelian subgroup         CS      NOp   2
 Largest concise Abelian subgroup C1      NOp   1
                         Standard orientation:                         
 ---------------------------------------------------------------------
 Center     Atomic      Atomic             Coordinates (Angstroms)
 Number     Number       Type             X           Y           Z
 ---------------------------------------------------------------------
      1          1           0        1.553766    1.679602    0.000000
      2          8           0        1.454278    0.715747    0.000000
      3          8           0        0.000000    0.672540    0.000000
      4          7           0       -0.268239   -0.761370   -0.000000
      5          8           0       -1.413789   -0.932039   -0.000000
 ---------------------------------------------------------------------
 Rotational constants (GHZ):          55.0393210           5.0407332           4.6178143
 Leave Link  202 at Mon Feb 21 20:29:54 2022, MaxMem= 16106127360 cpu:               0.3 elap:               0.0
 (Enter /sw/contrib/gaussian/g16/B01/g16/l301.exe)
 Standard basis: Aug-CC-pVTZ (5D, 7F)
 Ernie: Thresh=  0.10000D-02 Tol=  0.10000D-05 Strict=F.
 Ernie:  12 primitive shells out of 131 were deleted.
 There are   166 symmetry adapted cartesian basis functions of A'  symmetry.
 There are    79 symmetry adapted cartesian basis functions of A"  symmetry.
 There are   136 symmetry adapted basis functions of A'  symmetry.
 There are    71 symmetry adapted basis functions of A"  symmetry.
   207 basis functions,   315 primitive gaussians,   245 cartesian basis functions
    16 alpha electrons       16 beta electrons
       nuclear repulsion energy       117.2555583399 Hartrees.
 IExCor=    0 DFT=F Ex=HF Corr=None ExCW=0 ScaHFX=  1.000000
 ScaDFX=  1.000000  1.000000  1.000000  1.000000 ScalE2=  1.000000  1.000000
 IRadAn=      5 IRanWt=     -1 IRanGd=            0 ICorTp=0 IEmpDi=  4
 NAtoms=    5 NActive=    5 NUniq=    5 SFac= 1.00D+00 NAtFMM=   60 NAOKFM=F Big=F
 Integral buffers will be    131072 words long.
 Raffenetti 1 integral format.
 Two-electron integral symmetry is turned on.
 Leave Link  301 at Mon Feb 21 20:29:54 2022, MaxMem= 16106127360 cpu:               2.4 elap:               0.1
 (Enter /sw/contrib/gaussian/g16/B01/g16/l302.exe)
 NPDir=0 NMtPBC=     1 NCelOv=     1 NCel=       1 NClECP=     1 NCelD=      1
         NCelK=      1 NCelE2=     1 NClLst=     1 CellRange=     0.0.
 One-electron integrals computed using PRISM.
 One-electron integral symmetry used in STVInt
 NBasis=   207 RedAO= T EigKep=  1.79D-04  NBF=   136    71
 NBsUse=   207 1.00D-06 EigRej= -1.00D+00 NBFU=   136    71
 Leave Link  302 at Mon Feb 21 20:29:55 2022, MaxMem= 16106127360 cpu:               5.4 elap:               0.2
 (Enter /sw/contrib/gaussian/g16/B01/g16/l303.exe)
 DipDrv:  MaxL=1.
 Leave Link  303 at Mon Feb 21 20:29:55 2022, MaxMem= 16106127360 cpu:               0.9 elap:               0.1
 (Enter /sw/contrib/gaussian/g16/B01/g16/l401.exe)
 ExpMin= 2.53D-02 ExpMax= 1.53D+04 ExpMxC= 5.22D+02 IAcc=3 IRadAn=         5 AccDes= 0.00D+00
 Harris functional with IExCor=  205 and IRadAn=       5 diagonalized for initial guess.
 HarFok:  IExCor=  205 AccDes= 0.00D+00 IRadAn=         5 IDoV= 1 UseB2=F ITyADJ=14
 ICtDFT=  3500011 ScaDFX=  1.000000  1.000000  1.000000  1.000000
 FoFCou: FMM=F IPFlag=           0 FMFlag=      100000 FMFlg1=           0
         NFxFlg=           0 DoJE=T BraDBF=F KetDBF=T FulRan=T
         wScrn=  0.000000 ICntrl=       500 IOpCl=  0 I1Cent=   200000004 NGrid=           0
         NMat0=    1 NMatS0=      1 NMatT0=    0 NMatD0=    1 NMtDS0=    0 NMtDT0=    0
 Petite list used in FoFCou.
 Harris En= -279.628310766671    
 JPrj=0 DoOrth=F DoCkMO=F.
 Initial guess orbital symmetries:
       Occupied  (A') (A') (A') (A') (A') (A') (A') (A') (A') (A')
                 (A") (A') (A') (A") (A") (A')
       Virtual   (A") (A') (A') (A') (A') (A') (A") (A') (A') (A')
                 (A") (A') (A") (A') (A') (A") (A') (A") (A') (A')
                 (A') (A') (A') (A') (A') (A") (A') (A") (A') (A')
                 (A") (A') (A") (A') (A') (A") (A') (A") (A') (A')
                 (A") (A') (A") (A') (A") (A') (A') (A') (A") (A")
                 (A') (A') (A') (A') (A") (A') (A") (A') (A") (A')
                 (A') (A') (A") (A') (A') (A") (A') (A") (A') (A')
                 (A") (A') (A') (A") (A") (A') (A') (A") (A') (A')
                 (A') (A") (A') (A") (A') (A") (A') (A") (A') (A')
                 (A') (A") (A') (A") (A') (A") (A") (A') (A') (A")
                 (A') (A') (A") (A') (A') (A') (A') (A") (A") (A')
                 (A") (A') (A') (A') (A") (A') (A') (A') (A") (A')
                 (A") (A') (A") (A') (A") (A') (A') (A") (A") (A')
                 (A') (A') (A') (A") (A") (A') (A") (A') (A') (A')
                 (A') (A") (A") (A') (A') (A") (A') (A') (A') (A')
                 (A") (A') (A') (A") (A') (A") (A') (A") (A') (A")
                 (A') (A") (A') (A") (A') (A") (A") (A") (A') (A')
                 (A") (A') (A") (A') (A') (A") (A") (A") (A') (A')
                 (A') (A') (A') (A') (A') (A') (A') (A') (A') (A')
                 (A')
 The electronic state of the initial guess is 1-A'.
 Leave Link  401 at Mon Feb 21 20:29:55 2022, MaxMem= 16106127360 cpu:               7.9 elap:               0.3
 (Enter /sw/contrib/gaussian/g16/B01/g16/l502.exe)
 Keep R1 ints in memory in symmetry-blocked form, NReq=348887737.
 FoFCou: FMM=F IPFlag=           0 FMFlag=           0 FMFlg1=           0
         NFxFlg=           0 DoJE=F BraDBF=F KetDBF=F FulRan=T
         wScrn=  0.000000 ICntrl=       600 IOpCl=  0 I1Cent=           0 NGrid=           0
         NMat0=    1 NMatS0=  21528 NMatT0=    0 NMatD0=    1 NMtDS0=    0 NMtDT0=    0
 Petite list used in FoFCou.
 Closed shell SCF:
 Using DIIS extrapolation, IDIIS=  1040.
 NGot= 16106127360 LenX= 15988850015 LenY= 15988789549
 Requested convergence on RMS density matrix=1.00D-08 within 128 cycles.
 Requested convergence on MAX density matrix=1.00D-06.
 Requested convergence on             energy=1.00D-06.
 No special actions if energy rises.

 Cycle   1  Pass 1  IDiag  1:
 E= -279.374831242357    
 DIIS: error= 2.69D-02 at cycle   1 NSaved=   1.
 NSaved= 1 IEnMin= 1 EnMin= -279.374831242357     IErMin= 1 ErrMin= 2.69D-02
 ErrMax= 2.69D-02  0.00D+00 EMaxC= 1.00D-01 BMatC= 4.36D-01 BMatP= 4.36D-01
 IDIUse=3 WtCom= 7.31D-01 WtEn= 2.69D-01
 Coeff-Com:  0.100D+01
 Coeff-En:   0.100D+01
 Coeff:      0.100D+01
 Gap=     0.517 Goal=   None    Shift=    0.000
 GapD=    0.517 DampG=2.000 DampE=0.500 DampFc=1.0000 IDamp=-1.
 RMSDP=1.60D-03 MaxDP=9.83D-02              OVMax= 1.08D-01

 Cycle   2  Pass 1  IDiag  1:
 E= -279.457821584619     Delta-E=       -0.082990342263 Rises=F Damp=F
 DIIS: error= 1.75D-02 at cycle   2 NSaved=   2.
 NSaved= 2 IEnMin= 2 EnMin= -279.457821584619     IErMin= 2 ErrMin= 1.75D-02
 ErrMax= 1.75D-02  0.00D+00 EMaxC= 1.00D-01 BMatC= 6.69D-02 BMatP= 4.36D-01
 IDIUse=3 WtCom= 8.25D-01 WtEn= 1.75D-01
 Coeff-Com:  0.185D+00 0.815D+00
 Coeff-En:   0.000D+00 0.100D+01
 Coeff:      0.153D+00 0.847D+00
 Gap=     0.524 Goal=   None    Shift=    0.000
 RMSDP=8.75D-04 MaxDP=3.64D-02 DE=-8.30D-02 OVMax= 6.73D-02

 Cycle   3  Pass 1  IDiag  1:
 E= -279.484781069223     Delta-E=       -0.026959484604 Rises=F Damp=F
 DIIS: error= 1.01D-02 at cycle   3 NSaved=   3.
 NSaved= 3 IEnMin= 3 EnMin= -279.484781069223     IErMin= 3 ErrMin= 1.01D-02
 ErrMax= 1.01D-02  0.00D+00 EMaxC= 1.00D-01 BMatC= 2.69D-02 BMatP= 6.69D-02
 IDIUse=3 WtCom= 8.99D-01 WtEn= 1.01D-01
 Coeff-Com: -0.326D-01 0.379D+00 0.654D+00
 Coeff-En:   0.000D+00 0.239D+00 0.761D+00
 Coeff:     -0.293D-01 0.365D+00 0.665D+00
 Gap=     0.508 Goal=   None    Shift=    0.000
 RMSDP=3.64D-04 MaxDP=1.47D-02 DE=-2.70D-02 OVMax= 3.61D-02

 Cycle   4  Pass 1  IDiag  1:
 E= -279.502548670913     Delta-E=       -0.017767601690 Rises=F Damp=F
 DIIS: error= 1.27D-03 at cycle   4 NSaved=   4.
 NSaved= 4 IEnMin= 4 EnMin= -279.502548670913     IErMin= 4 ErrMin= 1.27D-03
 ErrMax= 1.27D-03  0.00D+00 EMaxC= 1.00D-01 BMatC= 4.78D-04 BMatP= 2.69D-02
 IDIUse=3 WtCom= 9.87D-01 WtEn= 1.27D-02
 Coeff-Com: -0.116D-01 0.600D-01 0.162D+00 0.789D+00
 Coeff-En:   0.000D+00 0.000D+00 0.000D+00 0.100D+01
 Coeff:     -0.115D-01 0.592D-01 0.160D+00 0.792D+00
 Gap=     0.500 Goal=   None    Shift=    0.000
 RMSDP=8.82D-05 MaxDP=2.75D-03 DE=-1.78D-02 OVMax= 1.09D-02

 Cycle   5  Pass 1  IDiag  1:
 E= -279.503191722571     Delta-E=       -0.000643051658 Rises=F Damp=F
 DIIS: error= 7.24D-04 at cycle   5 NSaved=   5.
 NSaved= 5 IEnMin= 5 EnMin= -279.503191722571     IErMin= 5 ErrMin= 7.24D-04
 ErrMax= 7.24D-04  0.00D+00 EMaxC= 1.00D-01 BMatC= 8.38D-05 BMatP= 4.78D-04
 IDIUse=3 WtCom= 9.93D-01 WtEn= 7.24D-03
 Coeff-Com:  0.597D-02-0.719D-01-0.117D+00 0.223D-01 0.116D+01
 Coeff-En:   0.000D+00 0.000D+00 0.000D+00 0.000D+00 0.100D+01
 Coeff:      0.593D-02-0.714D-01-0.116D+00 0.222D-01 0.116D+01
 Gap=     0.500 Goal=   None    Shift=    0.000
 RMSDP=7.42D-05 MaxDP=2.04D-03 DE=-6.43D-04 OVMax= 1.07D-02

 Cycle   6  Pass 1  IDiag  1:
 E= -279.503490644500     Delta-E=       -0.000298921929 Rises=F Damp=F
 DIIS: error= 2.72D-04 at cycle   6 NSaved=   6.
 NSaved= 6 IEnMin= 6 EnMin= -279.503490644500     IErMin= 6 ErrMin= 2.72D-04
 ErrMax= 2.72D-04  0.00D+00 EMaxC= 1.00D-01 BMatC= 1.59D-05 BMatP= 8.38D-05
 IDIUse=3 WtCom= 9.97D-01 WtEn= 2.72D-03
 Coeff-Com:  0.809D-03-0.114D-02-0.580D-03-0.127D+00-0.194D+00 0.132D+01
 Coeff-En:   0.000D+00 0.000D+00 0.000D+00 0.000D+00 0.000D+00 0.100D+01
 Coeff:      0.807D-03-0.114D-02-0.578D-03-0.126D+00-0.194D+00 0.132D+01
 Gap=     0.500 Goal=   None    Shift=    0.000
 RMSDP=4.36D-05 MaxDP=1.20D-03 DE=-2.99D-04 OVMax= 5.27D-03

 Cycle   7  Pass 1  IDiag  1:
 E= -279.503559042759     Delta-E=       -0.000068398259 Rises=F Damp=F
 DIIS: error= 1.21D-04 at cycle   7 NSaved=   7.
 NSaved= 7 IEnMin= 7 EnMin= -279.503559042759     IErMin= 7 ErrMin= 1.21D-04
 ErrMax= 1.21D-04  0.00D+00 EMaxC= 1.00D-01 BMatC= 4.73D-06 BMatP= 1.59D-05
 IDIUse=3 WtCom= 9.99D-01 WtEn= 1.21D-03
 Coeff-Com: -0.903D-03 0.136D-01 0.264D-01-0.267D-01-0.297D+00 0.420D+00
 Coeff-Com:  0.865D+00
 Coeff-En:   0.000D+00 0.000D+00 0.000D+00 0.000D+00 0.000D+00 0.000D+00
 Coeff-En:   0.100D+01
 Coeff:     -0.902D-03 0.136D-01 0.264D-01-0.266D-01-0.297D+00 0.419D+00
 Coeff:      0.865D+00
 Gap=     0.500 Goal=   None    Shift=    0.000
 RMSDP=1.34D-05 MaxDP=3.77D-04 DE=-6.84D-05 OVMax= 1.53D-03

 Cycle   8  Pass 1  IDiag  1:
 E= -279.503568083694     Delta-E=       -0.000009040935 Rises=F Damp=F
 DIIS: error= 5.30D-05 at cycle   8 NSaved=   8.
 NSaved= 8 IEnMin= 8 EnMin= -279.503568083694     IErMin= 8 ErrMin= 5.30D-05
 ErrMax= 5.30D-05  0.00D+00 EMaxC= 1.00D-01 BMatC= 5.58D-07 BMatP= 4.73D-06
 IDIUse=1 WtCom= 1.00D+00 WtEn= 0.00D+00
 Coeff-Com: -0.452D-03 0.366D-02 0.797D-02 0.268D-01-0.453D-01-0.184D+00
 Coeff-Com:  0.127D+00 0.106D+01
 Coeff:     -0.452D-03 0.366D-02 0.797D-02 0.268D-01-0.453D-01-0.184D+00
 Coeff:      0.127D+00 0.106D+01
 Gap=     0.500 Goal=   None    Shift=    0.000
 RMSDP=6.88D-06 MaxDP=1.97D-04 DE=-9.04D-06 OVMax= 7.50D-04

 Cycle   9  Pass 1  IDiag  1:
 E= -279.503569768709     Delta-E=       -0.000001685015 Rises=F Damp=F
 DIIS: error= 1.42D-05 at cycle   9 NSaved=   9.
 NSaved= 9 IEnMin= 9 EnMin= -279.503569768709     IErMin= 9 ErrMin= 1.42D-05
 ErrMax= 1.42D-05  0.00D+00 EMaxC= 1.00D-01 BMatC= 5.91D-08 BMatP= 5.58D-07
 IDIUse=1 WtCom= 1.00D+00 WtEn= 0.00D+00
 Coeff-Com:  0.109D-03-0.161D-02-0.289D-02-0.133D-02 0.325D-01-0.389D-02
 Coeff-Com: -0.146D+00-0.997D-01 0.122D+01
 Coeff:      0.109D-03-0.161D-02-0.289D-02-0.133D-02 0.325D-01-0.389D-02
 Coeff:     -0.146D+00-0.997D-01 0.122D+01
 Gap=     0.500 Goal=   None    Shift=    0.000
 RMSDP=1.78D-06 MaxDP=5.90D-05 DE=-1.69D-06 OVMax= 1.56D-04

 Cycle  10  Pass 1  IDiag  1:
 E= -279.503569902743     Delta-E=       -0.000000134034 Rises=F Damp=F
 DIIS: error= 3.81D-06 at cycle  10 NSaved=  10.
 NSaved=10 IEnMin=10 EnMin= -279.503569902743     IErMin=10 ErrMin= 3.81D-06
 ErrMax= 3.81D-06  0.00D+00 EMaxC= 1.00D-01 BMatC= 4.66D-09 BMatP= 5.91D-08
 IDIUse=1 WtCom= 1.00D+00 WtEn= 0.00D+00
 Coeff-Com:  0.345D-04-0.300D-03-0.447D-03-0.260D-02 0.281D-02 0.186D-01
 Coeff-Com: -0.137D-01-0.814D-01-0.451D-01 0.112D+01
 Coeff:      0.345D-04-0.300D-03-0.447D-03-0.260D-02 0.281D-02 0.186D-01
 Coeff:     -0.137D-01-0.814D-01-0.451D-01 0.112D+01
 Gap=     0.500 Goal=   None    Shift=    0.000
 RMSDP=4.61D-07 MaxDP=1.87D-05 DE=-1.34D-07 OVMax= 3.59D-05

 Cycle  11  Pass 1  IDiag  1:
 E= -279.503569912713     Delta-E=       -0.000000009970 Rises=F Damp=F
 DIIS: error= 1.75D-06 at cycle  11 NSaved=  11.
 NSaved=11 IEnMin=11 EnMin= -279.503569912713     IErMin=11 ErrMin= 1.75D-06
 ErrMax= 1.75D-06  0.00D+00 EMaxC= 1.00D-01 BMatC= 5.18D-10 BMatP= 4.66D-09
 IDIUse=1 WtCom= 1.00D+00 WtEn= 0.00D+00
 Coeff-Com: -0.189D-04 0.224D-03 0.452D-03 0.450D-03-0.400D-02-0.286D-02
 Coeff-Com:  0.170D-01 0.306D-01-0.129D+00-0.180D+00 0.127D+01
 Coeff:     -0.189D-04 0.224D-03 0.452D-03 0.450D-03-0.400D-02-0.286D-02
 Coeff:      0.170D-01 0.306D-01-0.129D+00-0.180D+00 0.127D+01
 Gap=     0.500 Goal=   None    Shift=    0.000
 RMSDP=1.54D-07 MaxDP=5.61D-06 DE=-9.97D-09 OVMax= 1.54D-05

 Cycle  12  Pass 1  IDiag  1:
 E= -279.503569914067     Delta-E=       -0.000000001354 Rises=F Damp=F
 DIIS: error= 5.32D-07 at cycle  12 NSaved=  12.
 NSaved=12 IEnMin=12 EnMin= -279.503569914067     IErMin=12 ErrMin= 5.32D-07
 ErrMax= 5.32D-07  0.00D+00 EMaxC= 1.00D-01 BMatC= 5.62D-11 BMatP= 5.18D-10
 IDIUse=1 WtCom= 1.00D+00 WtEn= 0.00D+00
 Coeff-Com:  0.866D-06-0.237D-04-0.527D-04 0.154D-03 0.941D-03-0.200D-02
 Coeff-Com: -0.367D-02 0.502D-02 0.381D-01-0.970D-01-0.313D+00 0.137D+01
 Coeff:      0.866D-06-0.237D-04-0.527D-04 0.154D-03 0.941D-03-0.200D-02
 Coeff:     -0.367D-02 0.502D-02 0.381D-01-0.970D-01-0.313D+00 0.137D+01
 Gap=     0.500 Goal=   None    Shift=    0.000
 RMSDP=6.20D-08 MaxDP=2.45D-06 DE=-1.35D-09 OVMax= 6.01D-06

 Cycle  13  Pass 1  IDiag  1:
 E= -279.503569914244     Delta-E=       -0.000000000177 Rises=F Damp=F
 DIIS: error= 1.47D-07 at cycle  13 NSaved=  13.
 NSaved=13 IEnMin=13 EnMin= -279.503569914244     IErMin=13 ErrMin= 1.47D-07
 ErrMax= 1.47D-07  0.00D+00 EMaxC= 1.00D-01 BMatC= 3.20D-12 BMatP= 5.62D-11
 IDIUse=1 WtCom= 1.00D+00 WtEn= 0.00D+00
 Coeff-Com:  0.119D-05-0.133D-04-0.217D-04-0.774D-04 0.122D-03 0.664D-03
 Coeff-Com: -0.602D-03-0.321D-02 0.346D-03 0.380D-01-0.234D-01-0.346D+00
 Coeff-Com:  0.133D+01
 Coeff:      0.119D-05-0.133D-04-0.217D-04-0.774D-04 0.122D-03 0.664D-03
 Coeff:     -0.602D-03-0.321D-02 0.346D-03 0.380D-01-0.234D-01-0.346D+00
 Coeff:      0.133D+01
 Gap=     0.500 Goal=   None    Shift=    0.000
 RMSDP=1.71D-08 MaxDP=4.98D-07 DE=-1.77D-10 OVMax= 1.44D-06

 Cycle  14  Pass 1  IDiag  1:
 E= -279.503569914254     Delta-E=       -0.000000000011 Rises=F Damp=F
 DIIS: error= 2.20D-08 at cycle  14 NSaved=  14.
 NSaved=14 IEnMin=14 EnMin= -279.503569914254     IErMin=14 ErrMin= 2.20D-08
 ErrMax= 2.20D-08  0.00D+00 EMaxC= 1.00D-01 BMatC= 1.55D-13 BMatP= 3.20D-12
 IDIUse=1 WtCom= 1.00D+00 WtEn= 0.00D+00
 Coeff-Com: -0.179D-06 0.295D-05 0.539D-05 0.463D-05-0.777D-04 0.374D-04
 Coeff-Com:  0.249D-03 0.246D-03-0.231D-02 0.870D-03 0.180D-01-0.249D-01
 Coeff-Com: -0.208D+00 0.122D+01
 Coeff:     -0.179D-06 0.295D-05 0.539D-05 0.463D-05-0.777D-04 0.374D-04
 Coeff:      0.249D-03 0.246D-03-0.231D-02 0.870D-03 0.180D-01-0.249D-01
 Coeff:     -0.208D+00 0.122D+01
 Gap=     0.500 Goal=   None    Shift=    0.000
 RMSDP=3.46D-09 MaxDP=8.29D-08 DE=-1.06D-11 OVMax= 3.14D-07

 SCF Done:  E(RHF) =  -279.503569914     A.U. after   14 cycles
            NFock= 14  Conv=0.35D-08     -V/T= 2.0021
 KE= 2.789082805229D+02 PE=-8.958870995208D+02 EE= 2.202196907437D+02
 Leave Link  502 at Mon Feb 21 20:29:59 2022, MaxMem= 16106127360 cpu:              54.5 elap:               3.5
 (Enter /sw/contrib/gaussian/g16/B01/g16/l801.exe)
 ExpMin= 2.53D-02 ExpMax= 1.53D+04 ExpMxC= 5.22D+02 IAcc=3 IRadAn=         5 AccDes= 0.00D+00
 HarFok:  IExCor=  205 AccDes= 0.00D+00 IRadAn=         5 IDoV=-2 UseB2=F ITyADJ=14
 ICtDFT= 12500011 ScaDFX=  1.000000  1.000000  1.000000  1.000000
 Largest valence mixing into a core orbital is  2.07D-04
 Largest core mixing into a valence orbital is  3.58D-05
 Range of M.O.s used for correlation:     5   207
 NBasis=   207 NAE=    16 NBE=    16 NFC=     4 NFV=     0
 NROrb=    203 NOA=    12 NOB=    12 NVA=   191 NVB=   191

 **** Warning!!: The largest alpha MO coefficient is  0.17648660D+02

 Leave Link  801 at Mon Feb 21 20:29:59 2022, MaxMem= 16106127360 cpu:               3.9 elap:               0.2
 (Enter /sw/contrib/gaussian/g16/B01/g16/l906.exe)
 Frozen-core derivative calculation, NFC=   4 NFV=   0.
 FulOut=F Deriv=T AODrv=T NAtomX=     5
   MMem=           0  MDisk=          12 MDiskD=          12
  W3Min=      811440 MinDsk=     2425030 NBas6D=         245
 NBas2D=       30762    NTT=       30135    LW2=     7400000
    MDV= 16105574269 MDiskM=      328644 NBas2p=       30702
 Disk-based method using ON**2 memory for 12 occupieds at a time.
 Permanent disk used for amplitudes=    11516536 words.
 Estimated scratch disk usage=   321251614 words.
 IMap=   1   2   3   4   5   6   7   8   9  10  11  12  13  14  15  16
 Actual    scratch disk usage=   310331678 words.
 JobTyp=1 Pass  1:  I=   5 to  16 NPSUse= 28 ParTrn=T ParDer=T DoDerP=T.
 (rs|ai) integrals will be sorted in core.
 Spin components of T(2) and E(2):
     alpha-alpha T2 =       0.3376903856D-01 E2=     -0.1221371839D+00
     alpha-beta  T2 =       0.1854176855D+00 E2=     -0.6986458333D+00
     beta-beta   T2 =       0.3376903856D-01 E2=     -0.1221371839D+00
 The integrals were generated   1 times.
 ANorm=    0.1119355065D+01
 E2 =    -0.9429202012D+00 EUMP2 =    -0.28044649011543D+03
 Leave Link  906 at Mon Feb 21 20:31:36 2022, MaxMem= 16106127360 cpu:            2718.4 elap:              97.2
 (Enter /sw/contrib/gaussian/g16/B01/g16/l1101.exe)
 Using compressed Sx but separate Hx and Fx, NAtomX=     5.
 Will process      6 centers per pass.
 Leave Link 1101 at Mon Feb 21 20:31:36 2022, MaxMem= 16106127360 cpu:               5.1 elap:               0.2
 (Enter /sw/contrib/gaussian/g16/B01/g16/l1102.exe)
 Leave Link 1102 at Mon Feb 21 20:31:36 2022, MaxMem= 16106127360 cpu:               1.6 elap:               0.1
 (Enter /sw/contrib/gaussian/g16/B01/g16/l1110.exe)
 Forming Gx(P) for the SCF density, NAtomX=     5.
 Integral derivatives from FoFJK, PRISM(SPDF).
 Do as many integral derivatives as possible in FoFJK.
 G2DrvN: MDV=   16106126844.
 G2DrvN: will do     6 centers at a time, making    1 passes.
 Calling FoFCou, ICntrl=  3107 FMM=F I1Cent=   0 AccDes= 0.00D+00.
 FoFJK:  IHMeth= 1 ICntrl=    3107 DoSepK=F KAlg= 0 I1Cent=           0 FoldK=F
 IRaf=         0 NMat=       1 IRICut=       1 DoRegI=T DoRafI=F ISym2E= 1 IDoP0=0 IntGTp=1.
 FoFCou: FMM=F IPFlag=           0 FMFlag=      100000 FMFlg1=           0
         NFxFlg=           0 DoJE=F BraDBF=F KetDBF=F FulRan=T
         wScrn=  0.000000 ICntrl=      3107 IOpCl=  0 I1Cent=           0 NGrid=           0
         NMat0=    1 NMatS0=      1 NMatT0=    0 NMatD0=    1 NMtDS0=    0 NMtDT0=    0
 Petite list used in FoFCou.
 End of G2Drv F.D. properties file   721 does not exist.
 End of G2Drv F.D. properties file   722 does not exist.
 End of G2Drv F.D. properties file   788 does not exist.
 Leave Link 1110 at Mon Feb 21 20:31:39 2022, MaxMem= 16106127360 cpu:              83.1 elap:               3.0
 (Enter /sw/contrib/gaussian/g16/B01/g16/l1002.exe)
 Minotr:  Closed shell wavefunction.
          IDoAtm=11111
          Frozen-core window.
          Direct CPHF calculation.
          Differentiating once with respect to electric field.
                with respect to dipole field.
          Differentiating once with respect to nuclear coordinates.
          Requested convergence is 1.0D-08 RMS, and 1.0D-07 maximum.
          Secondary convergence is 1.0D-12 RMS, and 1.0D-12 maximum.
          NewPWx=T KeepS1=T KeepF1=T KeepIn=T MapXYZ=F SortEE=F KeepMc=T.
 Keep R1 ints in memory in symmetry-blocked form, NReq=348888983.
 FoFCou: FMM=F IPFlag=           0 FMFlag=           0 FMFlg1=           0
         NFxFlg=           0 DoJE=F BraDBF=F KetDBF=F FulRan=T
         wScrn=  0.000000 ICntrl=       600 IOpCl=  0 I1Cent=           0 NGrid=           0
         NMat0=    1 NMatS0=  21528 NMatT0=    0 NMatD0=    1 NMtDS0=    0 NMtDT0=    0
 Petite list used in FoFCou.
          MDV=   16106127360 using IRadAn=       1.
          Solving linear equations simultaneously, MaxMat=       0.
          There are    18 degrees of freedom in the 1st order CPHF.  IDoFFX=6 NUNeed=    18.
     15 vectors produced by pass  0 Test12= 1.70D-14 5.56D-09 XBig12= 8.16D+00 1.09D+00.
 AX will form    15 AO Fock derivatives at one time.
     15 vectors produced by pass  1 Test12= 1.70D-14 5.56D-09 XBig12= 1.28D+00 2.56D-01.
     15 vectors produced by pass  2 Test12= 1.70D-14 5.56D-09 XBig12= 1.34D-01 9.21D-02.
     15 vectors produced by pass  3 Test12= 1.70D-14 5.56D-09 XBig12= 4.63D-03 1.07D-02.
     15 vectors produced by pass  4 Test12= 1.70D-14 5.56D-09 XBig12= 8.83D-05 1.55D-03.
     15 vectors produced by pass  5 Test12= 1.70D-14 5.56D-09 XBig12= 1.28D-06 1.61D-04.
     15 vectors produced by pass  6 Test12= 1.70D-14 5.56D-09 XBig12= 1.01D-08 1.41D-05.
     13 vectors produced by pass  7 Test12= 1.70D-14 5.56D-09 XBig12= 7.35D-11 1.14D-06.
      3 vectors produced by pass  8 Test12= 1.70D-14 5.56D-09 XBig12= 5.20D-13 1.17D-07.
      2 vectors produced by pass  9 Test12= 1.70D-14 5.56D-09 XBig12= 3.53D-15 1.07D-08.
 InvSVY:  IOpt=1 It=  1 EMax= 8.88D-16
 Solved reduced A of dimension   123 with    15 vectors.
 FullF1:  Do perturbations      1 to      18.
 Saving first derivative matrices.
 End of Minotr F.D. properties file   721 does not exist.
 End of Minotr F.D. properties file   722 does not exist.
 End of Minotr F.D. properties file   788 does not exist.
 Leave Link 1002 at Mon Feb 21 20:31:42 2022, MaxMem= 16106127360 cpu:              82.5 elap:               3.0
 (Enter /sw/contrib/gaussian/g16/B01/g16/l811.exe)
 MDV= 16106127360.
 Form MO integral derivatives with frozen-active canonical formalism.
 MOERI=1 MOERIx=1 NAtoms=     5 NAtomX=     5.
 Discarding MO integrals.
 MO basis two electron integral derivatives will not be stored on disk.
 IAlg= 3 DoFC=T DoPWx=T Debug=F.
 Frozen-core window:  NFC=   4 NFV=   0.
 Reordered first order wavefunction length =     18678272
 In DefCFB: NBatch=  1 ICI= 16 ICA=191 LFMax= 96
            Large arrays: LIAPS=   619940160 LIARS=   288257200 words.
 In StABat: MaxSiz= 55 MinSiz= 25 NAtomB=  5
 DoIAMN: NPSUse= 28.
 Leave Link  811 at Mon Feb 21 20:33:01 2022, MaxMem= 16106127360 cpu:            2205.9 elap:              78.9
 (Enter /sw/contrib/gaussian/g16/B01/g16/l804.exe)
 Frozen-core window:  NFC=   4 NFV=   0.
 Closed-shell transformation, MDV= 16106127360 ITran=4 ISComp=1.
 Semi-Direct transformation.
 ModeAB=           2 MOrb=            16 LenV=   16104923023
 LASXX=     67341636 LTotXX=    67341636 LenRXX=    67341636
 LTotAB=    68301760 MaxLAS=    99807120 LenRXY=    99807120
 NonZer=   134683272 LenScr=   202817536 LnRSAI=           0
 LnScr1=           0 LExtra=           0 Total=    369966292
 MaxDsk=          -1 SrtSym=           F ITran=            4
 DoSDTr:  NPSUse= 28
 JobTyp=0 Pass  1:  I=   1 to  16.
 (rs|ai) integrals will be sorted in core.
 Complete sort for first half transformation.
 First half transformation complete.
 Begin second half transformation for I=  10.
 Begin second half transformation for I=  10.
 Complete sort for second half transformation.
 Second half transformation complete.
 Spin components of T(2) and E(2):
     alpha-alpha T2 =       0.3376903856D-01 E2=     -0.1221371839D+00
     alpha-beta  T2 =       0.1854176855D+00 E2=     -0.6986458333D+00
     beta-beta   T2 =       0.3376903856D-01 E2=     -0.1221371839D+00
 ANorm=    0.1583007115D+01
 E2 =    -0.9429202012D+00 EUMP2 =    -0.28044649011543D+03
 Leave Link  804 at Mon Feb 21 20:33:18 2022, MaxMem= 16106127360 cpu:             459.1 elap:              16.5
 (Enter /sw/contrib/gaussian/g16/B01/g16/l1002.exe)
 Minotr:  Closed shell wavefunction.
          Computing MP2/KS-MP2 derivatives.
          Using Z-Vector for PSCF gradient.
          Skipping F1 and S1 gradient terms here.
          IDoAtm=11111
          Frozen-core window.
          Using MO integrals in the linear equations.
          Forming densities via direct SCF.
          Differentiating once with respect to electric field.
                with respect to dipole field.
          Differentiating once with respect to nuclear coordinates.
          Using symmetry in CPHF.
          Requested convergence is 1.0D-10 RMS, and 1.0D-09 maximum.
          NewPWx=F KeepS1=T KeepF1=T KeepIn=T MapXYZ=F SortEE=F KeepMc=T.
          MDV=   16106127360 using IRadAn=       5.
          Solving linear equations separately, MaxMat=       0.
          There are     1 degrees of freedom in the 1st order CPHF.  IDoFFX=0 NUNeed=     1.
 FoFJK:  IHMeth= 1 ICntrl=       0 DoSepK=F KAlg= 0 I1Cent=           0 FoldK=F
 IRaf=         0 NMat=       1 IRICut=       1 DoRegI=T DoRafI=F ISym2E= 0 IDoP0=0 IntGTp=1.
 FoFCou: FMM=F IPFlag=           0 FMFlag=      100000 FMFlg1=           0
         NFxFlg=           0 DoJE=F BraDBF=F KetDBF=F FulRan=T
         wScrn=  0.000000 ICntrl=         0 IOpCl=  0 I1Cent=           0 NGrid=           0
         NMat0=    1 NMatS0=      1 NMatT0=    0 NMatD0=    1 NMtDS0=    0 NMtDT0=    0
 Symmetry not used in FoFCou.
 LinEq1:  Iter=  0 NonCon=     1 RMS=5.89D-03 Max=1.28D-01 NDo=     1
 LinEq1:  Iter=  1 NonCon=     1 RMS=1.86D-03 Max=3.65D-02 NDo=     1
 LinEq1:  Iter=  2 NonCon=     1 RMS=8.44D-04 Max=1.36D-02 NDo=     1
 LinEq1:  Iter=  3 NonCon=     1 RMS=3.71D-04 Max=7.22D-03 NDo=     1
 LinEq1:  Iter=  4 NonCon=     1 RMS=1.15D-04 Max=1.82D-03 NDo=     1
 LinEq1:  Iter=  5 NonCon=     1 RMS=4.16D-05 Max=6.52D-04 NDo=     1
 LinEq1:  Iter=  6 NonCon=     1 RMS=1.86D-05 Max=2.23D-04 NDo=     1
 LinEq1:  Iter=  7 NonCon=     1 RMS=7.44D-06 Max=1.52D-04 NDo=     1
 LinEq1:  Iter=  8 NonCon=     1 RMS=3.18D-06 Max=3.18D-05 NDo=     1
 LinEq1:  Iter=  9 NonCon=     1 RMS=8.72D-07 Max=1.26D-05 NDo=     1
 LinEq1:  Iter= 10 NonCon=     1 RMS=1.72D-07 Max=1.85D-06 NDo=     1
 LinEq1:  Iter= 11 NonCon=     1 RMS=3.23D-08 Max=3.33D-07 NDo=     1
 LinEq1:  Iter= 12 NonCon=     1 RMS=7.72D-09 Max=1.21D-07 NDo=     1
 LinEq1:  Iter= 13 NonCon=     1 RMS=1.38D-09 Max=2.42D-08 NDo=     1
 LinEq1:  Iter= 14 NonCon=     1 RMS=2.52D-10 Max=3.53D-09 NDo=     1
 LinEq1:  Iter= 15 NonCon=     0 RMS=4.68D-11 Max=5.42D-10 NDo=     1
 Linear equations converged to 1.000D-10 1.000D-09 after    15 iterations.
 End of Minotr F.D. properties file   721 does not exist.
 End of Minotr F.D. properties file   722 does not exist.
 End of Minotr F.D. properties file   788 does not exist.
 Leave Link 1002 at Mon Feb 21 20:33:20 2022, MaxMem= 16106127360 cpu:              65.9 elap:               2.4
 (Enter /sw/contrib/gaussian/g16/B01/g16/l1102.exe)
 Use density number 2.
 Symmetrizing basis deriv contribution to polar:
 IMax=3 JMax=2 DiffMx= 0.00D+00
 Leave Link 1102 at Mon Feb 21 20:33:20 2022, MaxMem= 16106127360 cpu:               1.0 elap:               0.1
 (Enter /sw/contrib/gaussian/g16/B01/g16/l1110.exe)
 Forming Gx(P) for generalized density number  2 NAtomX=     5.
 Integral derivatives from FoFJK, PRISM(SPDF).
 Do as many integral derivatives as possible in FoFJK.
 G2DrvN: MDV=   16106126844.
 G2DrvN: will do     6 centers at a time, making    1 passes.
 Calling FoFCou, ICntrl=  3107 FMM=F I1Cent=   0 AccDes= 0.00D+00.
 FoFJK:  IHMeth= 1 ICntrl=    3107 DoSepK=F KAlg= 0 I1Cent=           0 FoldK=F
 IRaf=         0 NMat=       1 IRICut=       1 DoRegI=T DoRafI=F ISym2E= 1 IDoP0=0 IntGTp=1.
 FoFCou: FMM=F IPFlag=           0 FMFlag=      100000 FMFlg1=           0
         NFxFlg=           0 DoJE=F BraDBF=F KetDBF=F FulRan=T
         wScrn=  0.000000 ICntrl=      3107 IOpCl=  0 I1Cent=           0 NGrid=           0
         NMat0=    1 NMatS0=      1 NMatT0=    0 NMatD0=    1 NMtDS0=    0 NMtDT0=    0
 Petite list used in FoFCou.
 End of G2Drv F.D. properties file   721 does not exist.
 End of G2Drv F.D. properties file   722 does not exist.
 End of G2Drv F.D. properties file   788 does not exist.
 Leave Link 1110 at Mon Feb 21 20:33:23 2022, MaxMem= 16106127360 cpu:              83.0 elap:               3.0
 (Enter /sw/contrib/gaussian/g16/B01/g16/l1112.exe)
 MP22nd: MDV=   16106127360
 This link is doing NAtomX=     5 total of    18 degrees of freedom.
 Using ON3 I/O method in MakUI.
 Frozen-core window:  NFC=   4 NFV=   0.
 Using Ix for Sx.
 Use MO integrals over full window.
 Using OV2 memory method for fx*t*t/D, MaxI=    16 DoOO2=F NP=  28.
 R2 and R3 integrals will be kept in memory, NReq=   915591705.
 FoFCou: FMM=F IPFlag=           0 FMFlag=           0 FMFlg1=           0
         NFxFlg=           0 DoJE=F BraDBF=F KetDBF=F FulRan=T
         wScrn=  0.000000 ICntrl=       600 IOpCl=  0 I1Cent=           0 NGrid=           0
         NMat0=    1 NMatS0=      1 NMatT0=    0 NMatD0=    1 NMtDS0=    0 NMtDT0=    0
 Symmetry not used in FoFCou.
 DD1Dir will call FoFMem   1 times, MxPair=       272
 NAB=   136 NAA=     0 NBB=     0.
 Symmetry is being used.
 FoFJK:  IHMeth= 1 ICntrl=       0 DoSepK=F KAlg= 0 I1Cent=           0 FoldK=F
 IRaf=         0 NMat=      18 IRICut=      45 DoRegI=T DoRafI=T ISym2E= 2 IDoP0=3 IntGTp=3.
 Discarding MO integrals.
 Leave Link 1112 at Mon Feb 21 20:33:58 2022, MaxMem= 16106127360 cpu:             949.4 elap:              34.3
 (Enter /sw/contrib/gaussian/g16/B01/g16/l601.exe)
 Copying SCF densities to generalized density rwf, IOpCl= 0 IROHF=0.

 **********************************************************************

            Population analysis using the MP2 Density.

 **********************************************************************

 Orbital symmetries:
       Occupied  (A') (A') (A') (A') (A') (A') (A') (A') (A') (A')
                 (A") (A') (A") (A') (A") (A')
       Virtual   (A') (A") (A') (A') (A") (A') (A') (A') (A") (A')
                 (A") (A') (A') (A') (A") (A') (A') (A") (A') (A')
                 (A') (A') (A') (A') (A") (A') (A') (A") (A') (A')
                 (A") (A') (A") (A') (A') (A") (A') (A') (A") (A')
                 (A") (A') (A") (A') (A') (A") (A') (A') (A") (A')
                 (A") (A') (A') (A') (A") (A') (A") (A') (A") (A')
                 (A') (A') (A") (A') (A') (A") (A') (A") (A') (A')
                 (A") (A') (A') (A") (A") (A') (A') (A") (A') (A')
                 (A') (A") (A') (A") (A") (A') (A') (A") (A') (A')
                 (A") (A') (A') (A") (A') (A") (A') (A") (A') (A')
                 (A") (A') (A") (A') (A') (A") (A') (A') (A") (A')
                 (A") (A') (A') (A') (A") (A') (A') (A') (A") (A')
                 (A") (A') (A") (A') (A') (A") (A") (A') (A") (A')
                 (A') (A') (A') (A") (A") (A") (A') (A') (A') (A')
                 (A") (A') (A") (A') (A') (A") (A') (A') (A') (A')
                 (A") (A') (A') (A") (A') (A") (A') (A") (A') (A")
                 (A') (A") (A') (A") (A') (A") (A") (A') (A") (A')
                 (A") (A') (A") (A') (A") (A') (A") (A") (A') (A')
                 (A') (A') (A') (A') (A') (A') (A') (A') (A') (A')
                 (A')
 The electronic state is 1-A'.
 Alpha  occ. eigenvalues --  -20.68791 -20.68483 -20.65836 -15.81100  -1.63447
 Alpha  occ. eigenvalues --   -1.49577  -1.25313  -0.94637  -0.77437  -0.76253
 Alpha  occ. eigenvalues --   -0.71458  -0.68079  -0.62286  -0.58858  -0.48413
 Alpha  occ. eigenvalues --   -0.47002
 Alpha virt. eigenvalues --    0.02997   0.07555   0.08573   0.10172   0.13372
 Alpha virt. eigenvalues --    0.13412   0.14435   0.15484   0.17849   0.19402
 Alpha virt. eigenvalues --    0.20029   0.20638   0.22122   0.23651   0.23747
 Alpha virt. eigenvalues --    0.26619   0.29472   0.30439   0.31105   0.34329
 Alpha virt. eigenvalues --    0.35017   0.38771   0.42260   0.43183   0.52708
 Alpha virt. eigenvalues --    0.53083   0.55915   0.58192   0.63245   0.63798
 Alpha virt. eigenvalues --    0.67058   0.68550   0.70653   0.71150   0.72455
 Alpha virt. eigenvalues --    0.73017   0.74466   0.79223   0.79285   0.80992
 Alpha virt. eigenvalues --    0.81387   0.83396   0.86929   0.90947   0.92312
 Alpha virt. eigenvalues --    0.92748   0.95730   0.98022   0.98573   1.01709
 Alpha virt. eigenvalues --    1.05283   1.05605   1.08513   1.11943   1.14241
 Alpha virt. eigenvalues --    1.19030   1.22257   1.23456   1.33980   1.35128
 Alpha virt. eigenvalues --    1.38828   1.45417   1.48843   1.51059   1.53835
 Alpha virt. eigenvalues --    1.56688   1.57946   1.61421   1.66697   1.67047
 Alpha virt. eigenvalues --    1.70285   1.79379   1.83016   1.83513   1.88173
 Alpha virt. eigenvalues --    1.90959   1.95285   1.99548   2.00587   2.07848
 Alpha virt. eigenvalues --    2.12138   2.13331   2.15131   2.22511   2.26544
 Alpha virt. eigenvalues --    2.26604   2.29075   2.31587   2.34810   2.38729
 Alpha virt. eigenvalues --    2.42732   2.43187   2.45459   2.46450   2.47876
 Alpha virt. eigenvalues --    2.50367   2.59129   2.59934   2.62333   2.62973
 Alpha virt. eigenvalues --    2.63638   2.67163   2.76245   2.83041   2.86041
 Alpha virt. eigenvalues --    2.89036   2.89781   2.92912   2.96129   3.02802
 Alpha virt. eigenvalues --    3.06616   3.12598   3.20583   3.23013   3.31917
 Alpha virt. eigenvalues --    3.34376   3.52249   3.64448   3.84004   3.84822
 Alpha virt. eigenvalues --    4.15032   4.16495   4.18588   4.28774   4.35327
 Alpha virt. eigenvalues --    4.39528   4.46674   4.52201   4.67758   4.71301
 Alpha virt. eigenvalues --    4.81106   4.82744   4.83264   4.89519   5.02128
 Alpha virt. eigenvalues --    5.07870   5.10841   5.13796   5.18283   5.24716
 Alpha virt. eigenvalues --    5.27325   5.30658   5.33173   5.36864   5.60861
 Alpha virt. eigenvalues --    5.69482   5.78216   5.83479   5.95441   6.17203
 Alpha virt. eigenvalues --    6.31122   6.33968   6.39632   6.49363   6.50564
 Alpha virt. eigenvalues --    6.61565   6.66971   6.70480   6.75987   6.76574
 Alpha virt. eigenvalues --    6.84044   6.90297   7.01783   7.05934   7.06029
 Alpha virt. eigenvalues --    7.09207   7.13090   7.15319   7.18346   7.23439
 Alpha virt. eigenvalues --    7.24450   7.31334   7.34787   7.35709   7.41394
 Alpha virt. eigenvalues --    7.43376   7.48624   7.61081   7.63543   7.64627
 Alpha virt. eigenvalues --    7.67008   7.80010   7.90785   8.09881   8.31999
 Alpha virt. eigenvalues --    8.41082   8.54742  13.41350  14.49347  15.16769
 Alpha virt. eigenvalues --   16.54739
          Condensed to atoms (all electrons):
               1          2          3          4          5
     1  H    0.589864   0.128396   0.020040   0.012523  -0.000652
     2  O    0.128396   8.323016  -0.173881  -0.090461   0.015545
     3  O    0.020040  -0.173881   8.480559  -0.135246  -0.041506
     4  N    0.012523  -0.090461  -0.135246   6.976820  -0.056609
     5  O   -0.000652   0.015545  -0.041506  -0.056609   8.273447
 Mulliken charges:
               1
     1  H    0.249830
     2  O   -0.202614
     3  O   -0.149966
     4  N    0.292974
     5  O   -0.190224
 Sum of Mulliken charges =  -0.00000
 Mulliken charges with hydrogens summed into heavy atoms:
               1
     2  O    0.047216
     3  O   -0.149966
     4  N    0.292974
     5  O   -0.190224
 APT charges:
               1
     1  H    0.298521
     2  O   -0.288076
     3  O   -0.503300
     4  N    0.893709
     5  O   -0.400855
 Sum of APT charges =  -0.00000
 APT charges with hydrogens summed into heavy atoms:
               1
     2  O    0.010446
     3  O   -0.503300
     4  N    0.893709
     5  O   -0.400855
 Electronic spatial extent (au):  <R**2>=            251.7264
 Charge=             -0.0000 electrons
 Dipole moment (field-independent basis, Debye):
    X=              0.4599    Y=              1.3049    Z=              0.0000  Tot=              1.3835
 Quadrupole moment (field-independent basis, Debye-Ang):
   XX=            -22.4016   YY=            -18.6158   ZZ=            -21.9895
   XY=              3.2991   XZ=             -0.0000   YZ=             -0.0000
 Traceless Quadrupole moment (field-independent basis, Debye-Ang):
   XX=             -1.3993   YY=              2.3865   ZZ=             -0.9872
   XY=              3.2991   XZ=             -0.0000   YZ=             -0.0000
 Octapole moment (field-independent basis, Debye-Ang**2):
  XXX=              2.7590  YYY=             10.9886  ZZZ=             -0.0000  XYY=              7.7939
  XXY=              6.5354  XXZ=              0.0000  XZZ=             -1.6205  YZZ=             -0.8964
  YYZ=              0.0000  XYZ=              0.0000
 Hexadecapole moment (field-independent basis, Debye-Ang**3):
 XXXX=           -157.9456 YYYY=            -88.8986 ZZZZ=            -18.2226 XXXY=            -36.2146
 XXXZ=             -0.0000 YYYX=            -30.3533 YYYZ=             -0.0000 ZZZX=             -0.0000
 ZZZY=             -0.0000 XXYY=            -33.7009 XXZZ=            -30.7960 YYZZ=            -20.4864
 XXYZ=             -0.0000 YYXZ=             -0.0000 ZZXY=            -14.9055
 N-N= 1.172555583399D+02 E-N=-8.966554715874D+02  KE= 2.802521082326D+02
 Symmetry A'   KE= 2.662752252649D+02
 Symmetry A"   KE= 1.397688296763D+01
  Exact polarizability:  33.870   9.336  30.087   0.000   0.000  17.905
 Approx polarizability:  28.738   5.008  23.415   0.000   0.000  15.468
 No NMR shielding tensors so no spin-rotation constants.
 Leave Link  601 at Mon Feb 21 20:33:58 2022, MaxMem= 16106127360 cpu:               4.5 elap:               0.2
 (Enter /sw/contrib/gaussian/g16/B01/g16/l701.exe)
 ... and contract with generalized density number  2.
 Compute integral second derivatives.
 Leave Link  701 at Mon Feb 21 20:33:58 2022, MaxMem= 16106127360 cpu:               5.8 elap:               0.2
 (Enter /sw/contrib/gaussian/g16/B01/g16/l702.exe)
 L702 exits ... SP integral derivatives will be done elsewhere.
 Leave Link  702 at Mon Feb 21 20:33:58 2022, MaxMem= 16106127360 cpu:               0.5 elap:               0.0
 (Enter /sw/contrib/gaussian/g16/B01/g16/l703.exe)
 Integral derivatives from FoFJK, PRISM(SPDF).
 Compute integral second derivatives, UseDBF=F ICtDFT=           0.
 Calling FoFJK, ICntrl=  10100127 FMM=F ISym2X=1 I1Cent= 0 IOpClX= 0 NMat=1 NMatS=1 NMatT=0.
 FoFJK:  IHMeth= 1 ICntrl=10100127 DoSepK=F KAlg= 0 I1Cent=           0 FoldK=F
 IRaf=         0 NMat=       1 IRICut=       1 DoRegI=T DoRafI=F ISym2E= 1 IDoP0=0 IntGTp=1.
 FoFCou: FMM=F IPFlag=           0 FMFlag=      100000 FMFlg1=         800
         NFxFlg=           0 DoJE=F BraDBF=F KetDBF=F FulRan=T
         wScrn=  0.000000 ICntrl=  10100127 IOpCl=  0 I1Cent=           0 NGrid=           0
         NMat0=    1 NMatS0=      1 NMatT0=    0 NMatD0=    1 NMtDS0=    0 NMtDT0=    0
 Petite list used in FoFCou.
 Leave Link  703 at Mon Feb 21 20:34:13 2022, MaxMem= 16106127360 cpu:             426.9 elap:              15.3
 (Enter /sw/contrib/gaussian/g16/B01/g16/l716.exe)
 Dipole        = 1.80920793D-01 5.13379584D-01 3.96235788D-33
 Polarizability= 3.38701053D+01 9.33572554D+00 3.00873936D+01
                 4.41669904D-31 1.72066974D-31 1.79048138D+01
 Full mass-weighted force constant matrix:
 Low frequencies --- -268.2445 -121.9785  -63.5728  -44.3968   -0.0009    0.0007
 Low frequencies ---    0.0007  190.9186  330.5751
 ******    1 imaginary frequencies (negative Signs) ****** 
 Diagonal vibrational polarizability:
       13.8245212      24.2457652      48.0045855
 Harmonic frequencies (cm**-1), IR intensities (KM/Mole), Raman scattering
 activities (A**4/AMU), depolarization ratios for plane and unpolarized
 incident light, reduced masses (AMU), force constants (mDyne/A),
 and normal coordinates:
                      1                      2                      3
                     A"                     A"                     A'
 Frequencies --   -267.6807               178.7548               330.1605
 Red. masses --      1.1571                 9.1830                 8.7673
 Frc consts  --      0.0488                 0.1729                 0.5631
 IR Inten    --    123.5940                 1.8826                 2.3968
  Atom  AN      X      Y      Z        X      Y      Z        X      Y      Z
     1   1     0.00  -0.00   0.99     0.00  -0.00  -0.65     0.52  -0.45   0.00
     2   8     0.00  -0.00  -0.07    -0.00  -0.00  -0.28    -0.10  -0.38   0.00
     3   8    -0.00   0.00  -0.04    -0.00   0.00   0.31    -0.15   0.42  -0.00
     4   7     0.00   0.00   0.06     0.00   0.00   0.48     0.06   0.28  -0.00
     5   8     0.00  -0.00  -0.01     0.00  -0.00  -0.41     0.17  -0.25   0.00
                      4                      5                      6
                     A'                     A'                     A'
 Frequencies --    458.9913               784.3040               968.5702
 Red. masses --     12.1516                12.6320                15.4070
 Frc consts  --      1.5083                 4.5782                 8.5159
 IR Inten    --    200.7030               171.4729                20.9112
  Atom  AN      X      Y      Z        X      Y      Z        X      Y      Z
     1   1     0.44   0.17   0.00    -0.36   0.20   0.00    -0.17  -0.04  -0.00
     2   8     0.32   0.18  -0.00     0.42   0.09   0.00    -0.52   0.04   0.00
     3   8     0.17   0.46   0.00    -0.06  -0.28  -0.00     0.75  -0.02  -0.00
     4   7    -0.34  -0.39   0.00    -0.15   0.61  -0.00    -0.13   0.24  -0.00
     5   8    -0.21  -0.31  -0.00    -0.21  -0.36   0.00    -0.11  -0.22   0.00
                      7                      8                      9
                     A'                     A'                     A'
 Frequencies --   1372.0452              1759.6292              3778.5834
 Red. masses --      1.1294                13.9585                 1.0675
 Frc consts  --      1.2527                25.4643                 8.9803
 IR Inten    --    147.4284               170.0585                81.5831
  Atom  AN      X      Y      Z        X      Y      Z        X      Y      Z
     1   1     0.99  -0.06  -0.00    -0.26   0.00   0.00     0.11   0.99   0.00
     2   8    -0.03   0.05  -0.00    -0.01  -0.03   0.00    -0.01  -0.06  -0.00
     3   8    -0.02  -0.05   0.00     0.00   0.14  -0.00     0.00   0.00  -0.00
     4   7     0.01   0.01   0.00     0.73  -0.04  -0.00    -0.00  -0.00   0.00
     5   8    -0.03  -0.01  -0.00    -0.62  -0.07   0.00     0.00   0.00   0.00

 -------------------
 - Thermochemistry -
 -------------------
 Temperature   298.150 Kelvin.  Pressure   1.00000 Atm.
 Atom     1 has atomic number  1 and mass   1.00783
 Atom     2 has atomic number  8 and mass  15.99491
 Atom     3 has atomic number  8 and mass  15.99491
 Atom     4 has atomic number  7 and mass  14.00307
 Atom     5 has atomic number  8 and mass  15.99491
 Molecular mass:    62.99564 amu.
 Principal axes and moments of inertia in atomic units:
                           1         2         3
     Eigenvalues --    32.79003 358.03149 390.82152
           X            0.81179  -0.58395   0.00000
           Y            0.58395   0.81179   0.00000
           Z           -0.00000   0.00000   1.00000
 This molecule is an asymmetric top.
 Rotational symmetry number  1.
 Rotational temperatures (Kelvin)      2.64147     0.24192     0.22162
 Rotational constants (GHZ):          55.03932     5.04073     4.61781
    1 imaginary frequencies ignored.
 Zero-point vibrational energy      57606.4 (Joules/Mol)
                                   13.76826 (Kcal/Mol)
 Warning -- explicit consideration of   3 degrees of freedom as
           vibrations may cause significant error
 Vibrational temperatures:    257.19   475.03   660.39  1128.44  1393.56
          (Kelvin)           1974.07  2531.71  5436.54
 
 Zero-point correction=                           0.021941 (Hartree/Particle)
 Thermal correction to Energy=                    0.026143
 Thermal correction to Enthalpy=                  0.027087
 Thermal correction to Gibbs Free Energy=        -0.004321
 Sum of electronic and zero-point Energies=           -280.424549
 Sum of electronic and thermal Energies=              -280.420347
 Sum of electronic and thermal Enthalpies=            -280.419403
 Sum of electronic and thermal Free Energies=         -280.450811
 
                     E (Thermal)             CV                S
                      KCal/Mol        Cal/Mol-Kelvin    Cal/Mol-Kelvin
 Total                   16.405             12.022             66.105
 Electronic               0.000              0.000              0.000
 Translational            0.889              2.981             38.341
 Rotational               0.889              2.981             23.044
 Vibrational             14.628              6.060              4.720
 Vibration     1          0.629              1.868              2.341
 Vibration     2          0.713              1.615              1.259
 Vibration     3          0.817              1.341              0.769
                       Q            Log10(Q)             Ln(Q)
 Total Bot       0.971852D+02          1.987600          4.576618
 Total V=0       0.120173D+13         12.079806         27.814781
 Vib (Bot)       0.203945D-09         -9.690486        -22.313168
 Vib (Bot)    1  0.112409D+01          0.050801          0.116974
 Vib (Bot)    2  0.565869D+00         -0.247284         -0.569393
 Vib (Bot)    3  0.370878D+00         -0.430769         -0.991883
 Vib (V=0)       0.252185D+01          0.401720          0.924995
 Vib (V=0)    1  0.173028D+01          0.238115          0.548281
 Vib (V=0)    2  0.125512D+01          0.098686          0.227232
 Vib (V=0)    3  0.112254D+01          0.050200          0.115590
 Electronic      0.100000D+01          0.000000          0.000000
 Translational   0.196526D+08          7.293420         16.793719
 Rotational      0.242475D+05          4.384666         10.096067
 
                                                                title
                                                             IR Spectrum
 
     3                                                                   1            1                                              
     7                                                                   7            3             9     7          4   3    1      
     7                                                                   6            7             6     8          5   3    7      
     9                                                                   0            2             9     4          9   0    9      
 
     X                                                                   X            X             X     X          X   X    X      
     X                                                                   X            X             X     X          X               
     X                                                                   X            X                   X          X               
     X                                                                   X            X                   X          X               
     X                                                                   X            X                   X          X               
     X                                                                   X            X                   X          X               
     X                                                                   X            X                   X          X               
     X                                                                   X            X                   X          X               
                                                                         X            X                   X          X               
                                                                         X            X                   X          X               
                                                                         X            X                   X          X               
                                                                         X            X                   X          X               
                                                                         X            X                   X          X               
                                                                         X            X                   X          X               
                                                                         X            X                   X          X               
                                                                         X                                X          X               
                                                                         X                                X          X               
                                                                                                                     X               
                                                                                                                     X               
                                                                                                                     X               
 
 ***** Axes restored to original set *****
 -------------------------------------------------------------------
 Center     Atomic                   Forces (Hartrees/Bohr)
 Number     Number              X              Y              Z
 -------------------------------------------------------------------
      1        1           0.000004811    0.000000000    0.000087450
      2        8           0.000121827   -0.000000000   -0.000238222
      3        8          -0.001303884   -0.000000000   -0.003365296
      4        7          -0.018565426   -0.000000000   -0.002471909
      5        8           0.019742672    0.000000000    0.005987977
 -------------------------------------------------------------------
 Cartesian Forces:  Max     0.019742672 RMS     0.007254970
 -----------------------------------------------------------------------------------------------
                       Internal Coordinate Forces (Hartree/Bohr or radian)
  Cent   Atom   N1       Length/X         N2         Alpha/Y        N3         Beta/Z          J
 -----------------------------------------------------------------------------------------------
      1  H 
      2  O        1  -0.000087(     1)
      3  O        2  -0.000106(     2)      1  -0.000009(     5)
      4  N        3   0.003601(     3)      2   0.000466(     6)      1  -0.000000(     8)     0
      5  O        4   0.020611(     4)      3   0.001974(     7)      2   0.000000(     9)     0
 -----------------------------------------------------------------------------------------------
 Internal  Forces:  Max     0.020611052 RMS     0.007007245
 Force constants in Cartesian coordinates: 
                1             2             3             4             5 
      1  0.645865D-01
      2  0.000000D+00 -0.228726D-02
      3  0.535294D-02  0.000000D+00  0.512330D+00
      4 -0.356334D-01  0.000000D+00 -0.163989D-01  0.273151D+00
      5  0.000000D+00  0.295906D-02  0.000000D+00  0.000000D+00  0.218590D-02
      6  0.480685D-01  0.000000D+00 -0.508492D+00  0.339346D-01  0.000000D+00
      7 -0.184714D-01  0.000000D+00  0.126108D-01 -0.220635D+00  0.000000D+00
      8  0.000000D+00  0.100107D-02  0.000000D+00  0.000000D+00 -0.661960D-02
      9 -0.530977D-01  0.000000D+00 -0.498403D-03 -0.198448D-01  0.000000D+00
     10 -0.924384D-02  0.000000D+00 -0.495149D-02 -0.172880D-01  0.000000D+00
     11  0.000000D+00 -0.271256D-02  0.000000D+00  0.000000D+00 -0.492392D-02
     12  0.557497D-02  0.000000D+00 -0.473683D-02  0.118337D-01  0.000000D+00
     13 -0.123790D-02  0.000000D+00  0.338656D-02  0.405876D-03  0.000000D+00
     14  0.000000D+00  0.103970D-02  0.000000D+00  0.000000D+00  0.639857D-02
     15 -0.589871D-02  0.000000D+00  0.139701D-02 -0.952461D-02  0.000000D+00
                6             7             8             9            10 
      6  0.594257D+00
      7 -0.213271D-01  0.342323D+00
      8  0.000000D+00  0.000000D+00  0.311096D-02
      9 -0.783303D-01  0.375499D-01  0.000000D+00  0.183565D+00
     10 -0.525248D-01 -0.779805D-01  0.000000D+00  0.178643D+00  0.907020D+00
     11  0.000000D+00  0.000000D+00  0.938186D-02  0.000000D+00  0.000000D+00
     12  0.178703D-01  0.641642D-01  0.000000D+00 -0.827201D-01 -0.144217D-02
     13 -0.815120D-02 -0.252357D-01  0.000000D+00 -0.143251D+00 -0.802507D+00
     14  0.000000D+00  0.000000D+00 -0.687428D-02  0.000000D+00  0.000000D+00
     15 -0.253054D-01 -0.929978D-01  0.000000D+00 -0.220167D-01 -0.119725D+00
               11            12            13            14            15 
     11 -0.872201D-03
     12  0.000000D+00  0.185393D+00
     13  0.000000D+00 -0.801306D-01  0.828575D+00
     14 -0.873167D-03  0.000000D+00  0.000000D+00  0.309177D-03
     15  0.000000D+00 -0.115807D+00  0.228146D+00  0.000000D+00  0.161732D+00
 Force constants in internal coordinates: 
                1             2             3             4             5 
      1  0.512330D+00
      2 -0.104417D-01  0.281973D+00
      3  0.345687D-02  0.235617D-02  0.120000D+00
      4 -0.362730D-02  0.598650D-02  0.158537D+00  0.897197D+00
      5  0.980662D-02  0.654796D-01  0.216448D-02  0.487587D-02  0.216394D+00
      6  0.466752D-02  0.589207D-01  0.409113D-01  0.221869D-01  0.309268D-01
      7 -0.112281D-02  0.383239D-01  0.346158D-01  0.861243D-01  0.216711D-01
      8  0.000000D+00  0.000000D+00  0.000000D+00  0.000000D+00  0.000000D+00
      9  0.000000D+00  0.000000D+00  0.000000D+00  0.000000D+00  0.000000D+00
                6             7             8             9 
      6  0.281606D+00
      7  0.977055D-01  0.491129D+00
      8  0.000000D+00  0.000000D+00 -0.769055D-02
      9  0.000000D+00  0.000000D+00 -0.390294D-02  0.410089D-01
 Leave Link  716 at Mon Feb 21 20:34:14 2022, MaxMem= 16106127360 cpu:               2.2 elap:               0.1
 (Enter /sw/contrib/gaussian/g16/B01/g16/l103.exe)

 GradGradGradGradGradGradGradGradGradGradGradGradGradGradGradGradGradGrad
 Berny optimization.
 Search for a local minimum.
 Step number   1 out of a maximum of    2
 All quantities printed in internal units (Hartrees-Bohrs-Radians)
 Second derivative matrix not updated -- analytic derivatives used.
 The second derivative matrix:
                          r1        r2        r3        r4        a1
           r1           0.51233
           r2          -0.01044   0.28197
           r3           0.00346   0.00236   0.12000
           r4          -0.00363   0.00599   0.15854   0.89720
           a1           0.00981   0.06548   0.00216   0.00488   0.21639
           a2           0.00467   0.05892   0.04091   0.02219   0.03093
           a3          -0.00112   0.03832   0.03462   0.08612   0.02167
           d1           0.00000  -0.00000  -0.00000  -0.00000  -0.00000
           d2          -0.00000   0.00000   0.00000   0.00000   0.00000
                          a2        a3        d1        d2
           a2           0.28161
           a3           0.09771   0.49113
           d1          -0.00000  -0.00000  -0.00769
           d2          -0.00000  -0.00000  -0.00390   0.04101
 ITU=  0
     Eigenvalues ---   -0.00800   0.04132   0.08190   0.17509   0.22470
     Eigenvalues ---    0.32572   0.51303   0.52921   0.95097
 Eigenvalue     1 is  -8.00D-03 should be greater than     0.000000 Eigenvector:
                          d1        d2        a3        a2        r3
   1                    0.99684   0.07938   0.00000   0.00000  -0.00000
                          r4        a1        r2        r1
   1                    0.00000  -0.00000  -0.00000  -0.00000
 Angle between quadratic step and forces=  12.44 degrees.
 Linear search not attempted -- first point.
 Variable       Old X    -DE/DX   Delta X   Delta X   Delta X     New X
                                 (Linear)    (Quad)   (Total)
    r1        1.83110  -0.00009   0.00000  -0.00002  -0.00002   1.83108
    r2        2.74940  -0.00011   0.00000  -0.00081  -0.00081   2.74859
    r3        2.75670   0.00360   0.00000  -0.00048  -0.00048   2.75622
    r4        2.18867   0.02061   0.00000   0.02306   0.02306   2.21173
    a1        1.70335  -0.00001   0.00000  -0.00033  -0.00033   1.70302
    a2        1.78543   0.00047   0.00000   0.00009   0.00009   1.78552
    a3        1.90362   0.00197   0.00000   0.00007   0.00007   1.90369
    d1        3.14159  -0.00000   0.00000  -0.00000   0.00000   3.14159
    d2        3.14159   0.00000   0.00000   0.00000   0.00000   3.14159
         Item               Value     Threshold  Converged?
 Maximum Force            0.020611     0.000450     NO 
 RMS     Force            0.007007     0.000300     NO 
 Maximum Displacement     0.023056     0.001800     NO 
 RMS     Displacement     0.007693     0.001200     NO 
 Predicted change in Energy=-2.368723D-04
                       ----------------------------
                       ! Non-Optimized Parameters !
                       ! (Angstroms and Degrees)  !
 ----------------------                            ----------------------
 !      Name          Value   Derivative information (Atomic Units)     !
 ------------------------------------------------------------------------
 !       r1          0.969    -DE/DX =   -0.0001                        !
 !       r2          1.4545   -DE/DX =   -0.0001                        !
 !       r3          1.4585   -DE/DX =    0.0036                        !
 !       r4          1.1704   -DE/DX =    0.0206                        !
 !       a1         97.5761   -DE/DX =    0.0                           !
 !       a2        102.3026   -DE/DX =    0.0005                        !
 !       a3        109.0736   -DE/DX =    0.002                         !
 !       d1        180.0      -DE/DX =    0.0                           !
 !       d2        180.0      -DE/DX =    0.0                           !
 ------------------------------------------------------------------------
 GradGradGradGradGradGradGradGradGradGradGradGradGradGradGradGradGradGrad

 Leave Link  103 at Mon Feb 21 20:34:14 2022, MaxMem= 16106127360 cpu:               0.6 elap:               0.0
 (Enter /sw/contrib/gaussian/g16/B01/g16/l9999.exe)

 ----------------------------------------------------------------------

 Electric dipole moment (input orientation):
 (Debye = 10**-18 statcoulomb cm , SI units = C m)
                  (au)            (Debye)         (10**-30 SI)
   Tot        0.544326D+00      0.138354D+01      0.461499D+01
   x         -0.127254D+00     -0.323447D+00     -0.107890D+01
   y          0.000000D+00      0.000000D+00      0.000000D+00
   z         -0.529242D+00     -0.134520D+01     -0.448710D+01

 Dipole polarizability, Alpha (input orientation).
 (esu units = cm**3 , SI units = C**2 m**2 J**-1)
 Alpha(0;0):
               (au)            (10**-24 esu)      (10**-40 SI)
   iso        0.272874D+02      0.404358D+01      0.449909D+01
   aniso      0.216858D+02      0.321351D+01      0.357551D+01
   xx         0.319233D+02      0.473054D+01      0.526344D+01
   yx         0.000000D+00      0.000000D+00      0.000000D+00
   yy         0.179048D+02      0.265322D+01      0.295211D+01
   zx         0.952523D+01      0.141149D+01      0.157050D+01
   zy         0.000000D+00      0.000000D+00      0.000000D+00
   zz         0.320342D+02      0.474698D+01      0.528173D+01

 ----------------------------------------------------------------------

 Dipole orientation:
     1          0.00000000          0.00000000         -0.00000000
     8         -0.42807881          0.00000000         -1.78035670
     8          2.13672669          0.00000000         -2.77079487
     7          1.71416810          0.00000000         -5.49491896
     8          3.64867451          0.00000000         -6.51861871

 Electric dipole moment (dipole orientation):
 (Debye = 10**-18 statcoulomb cm , SI units = C m)
                  (au)            (Debye)         (10**-30 SI)
   Tot        0.544326D+00      0.138354D+01      0.461499D+01
   x          0.000000D+00      0.000000D+00      0.000000D+00
   y          0.000000D+00      0.000000D+00      0.000000D+00
   z          0.544326D+00      0.138354D+01      0.461499D+01

 Dipole polarizability, Alpha (dipole orientation).
 (esu units = cm**3 , SI units = C**2 m**2 J**-1)
 Alpha(0;0):
               (au)            (10**-24 esu)      (10**-40 SI)
   iso        0.272874D+02      0.404358D+01      0.449909D+01
   aniso      0.216858D+02      0.321351D+01      0.357551D+01
   xx         0.275991D+02      0.408977D+01      0.455048D+01
   yx         0.000000D+00      0.000000D+00      0.000000D+00
   yy         0.179048D+02      0.265322D+01      0.295211D+01
   zx        -0.845882D+01     -0.125347D+01     -0.139467D+01
   zy         0.000000D+00      0.000000D+00      0.000000D+00
   zz         0.363584D+02      0.538776D+01      0.599469D+01

 ----------------------------------------------------------------------
 1\1\GINC-N2129\Freq\RMP2-FC\Aug-CC-pVTZ\H1N1O3\CGAVINH\21-Feb-2022\1\\
 #p freq mp2/aug-cc-pvtz density=current\\title\\0,1\H\O,1,r1\O,2,r2,1,
 a1\N,3,r3,2,a2,1,d1,0\O,4,r4,3,a3,2,d2,0\\r1=0.96897556\r2=1.45491931\
 r3=1.45878406\r4=1.15819427\a1=97.59494903\a2=102.29752444\a3=109.0695
 5123\d1=180.\d2=180.\\Version=ES64L-G16RevB.01\State=1-A'\HF=-279.5035
 699\MP2=-280.4464901\RMSD=3.464e-09\RMSF=7.255e-03\ZeroPoint=0.0219411
 \Thermal=0.0261431\Dipole=-0.1272539,0.,-0.5292423\DipoleDeriv=0.26632
 74,0.,0.0480916,0.,0.355132,0.,0.0813105,0.,0.2741052,-0.3257382,0.,-0
 .2044289,0.,-0.3154211,0.,-0.1097854,0.,-0.2230675,-0.0548364,0.,0.145
 9145,0.,-0.0918925,0.,-0.7550321,0.,-1.363171,0.9287201,0.,0.9397458,0
 .,0.0667195,0.,0.9344129,0.,1.6856875,-0.8144729,0.,-0.929323,0.,-0.01
 4538,0.,-0.1509058,0.,-0.3735542\Polar=31.9232884,0.,17.9048138,9.5252
 256,0.,32.0342105\Quadrupole=-1.5116713,-0.7339615,2.2456328,0.,2.1136
 081,0.\PG=CS [SG(H1N1O3)]\NImag=1\\0.06458650,0.,-0.00228726,0.0053529
 4,0.,0.51233032,-0.03563341,0.,-0.01639886,0.27315077,0.,0.00295906,0.
 ,0.,0.00218590,0.04806847,0.,-0.50849211,0.03393457,0.,0.59425744,-0.0
 1847136,0.,0.01261084,-0.22063523,0.,-0.02132706,0.34232286,0.,0.00100
 107,0.,0.,-0.00661960,0.,0.,0.00311096,-0.05309768,0.,-0.00049840,-0.0
 1984475,0.,-0.07833028,0.03754987,0.,0.18356545,-0.00924384,0.,-0.0049
 5149,-0.01728801,0.,-0.05252478,-0.07798055,0.,0.17864317,0.90701959,0
 .,-0.00271256,0.,0.,-0.00492392,0.,0.,0.00938186,0.,0.,-0.00087220,0.0
 0557497,0.,-0.00473683,0.01183366,0.,0.01787033,0.06416416,0.,-0.08272
 006,-0.00144217,0.,0.18539319,-0.00123790,0.,0.00338656,0.00040588,0.,
 -0.00815120,-0.02523573,0.,-0.14325062,-0.80250720,0.,-0.08013062,0.82
 857495,0.,0.00103970,0.,0.,0.00639857,0.,0.,-0.00687428,0.,0.,-0.00087
 317,0.,0.,0.00030918,-0.00589871,0.,0.00139701,-0.00952461,0.,-0.02530
 538,-0.09299782,0.,-0.02201670,-0.11972473,0.,-0.11580663,0.22814588,0
 .,0.16173170\\-0.00000481,0.,-0.00008745,-0.00012183,0.,0.00023822,0.0
 0130388,0.,0.00336530,0.01856543,0.,0.00247191,-0.01974267,0.,-0.00598
 798\\\@


 IN-LAWS ARE LIKE SEEDS. YOU DON'T NEED THEM
 BUT THEY COME WITH THE TOMATO.
 Job cpu time:       0 days  1 hours 59 minutes 39.7 seconds.
 Elapsed time:       0 days  0 hours  4 minutes 19.5 seconds.
 File lengths (MBytes):  RWF=   7239 Int=      0 D2E=      0 Chk=      8 Scr=      1
 Normal termination of Gaussian 16 at Mon Feb 21 20:34:15 2022.
