title                                                                   
Freq      RMP2-FC                                                     Aug-CC-pVTZ         
Number of atoms                            I                5
Info1-9                                    I   N=           9
          33          24           0           0           0         100
           6           2           1
Full Title                                 C   N=           1
title       
Route                                      C   N=           4
#p freq mp2/aug-cc-pvtz density=current         
Charge                                     I                0
Multiplicity                               I                1
Number of electrons                        I               32
Number of alpha electrons                  I               16
Number of beta electrons                   I               16
Number of basis functions                  I              207
Number of independent functions            I              207
Number of point charges in /Mol/           I                0
Number of translation vectors              I                0
Atomic numbers                             I   N=           5
           1           8           8           7           8
Nuclear charges                            R   N=           5
  1.00000000E+00  8.00000000E+00  8.00000000E+00  7.00000000E+00  8.00000000E+00
Current cartesian coordinates              R   N=          15
  2.91855207E+00  3.20273097E+00 -1.76919250E-31  2.74731845E+00  1.37965650E+00
 -1.34852276E-31  1.21852553E-16  1.27271570E+00 -4.16714810E-32 -4.81936104E-01
 -1.44153289E+00  2.02652857E-32 -2.69044337E+00 -1.79137229E+00  8.48480010E-32
Number of symbols in /Mol/                 I                0
Force Field                                I                0
Atom Types                                 C   N=           5
                                                            
Int Atom Types                             I   N=           5
           0           0           0           0           0
MM charges                                 R   N=           5
  0.00000000E+00  0.00000000E+00  0.00000000E+00  0.00000000E+00  0.00000000E+00
Integer atomic weights                     I   N=           5
           1          16          16          14          16
Real atomic weights                        R   N=           5
  1.00782504E+00  1.59949146E+01  1.59949146E+01  1.40030740E+01  1.59949146E+01
Atom fragment info                         I   N=           5
           0           0           0           0           0
Atom residue num                           I   N=           5
           0           0           0           0           0
Nuclear spins                              I   N=           5
           1           0           0           2           0
Nuclear ZEff                               R   N=           5
 -1.00000000E+00 -5.60000000E+00 -5.60000000E+00 -4.55000000E+00 -5.60000000E+00
Nuclear ZNuc                               R   N=           5
  1.00000000E+00  8.00000000E+00  8.00000000E+00  7.00000000E+00  8.00000000E+00
Nuclear QMom                               R   N=           5
  0.00000000E+00  0.00000000E+00  0.00000000E+00  2.04400000E+00  0.00000000E+00
Nuclear GFac                               R   N=           5
  2.79284600E+00  0.00000000E+00  0.00000000E+00  4.03761000E-01  0.00000000E+00
MicOpt                                     I   N=           5
          -1          -1          -1          -1          -1
Number of residues                         I                0
Number of secondary structures             I                0
SymInf integers                            I   N=          26
           1           2           1           1           1           1
           1          -1           0           0           0           0
           0           0           0           0           0           0
           0           0           0           0           0           0
           0           0
RotTr to input orientation                 R   N=          12
 -9.95617950E-01 -9.82359915E-17 -9.35141542E-02  9.35141542E-02 -7.31251516E-17
 -9.95617950E-01  9.09672798E-17 -1.00000000E+00  8.19911692E-17  2.60626216E+00
  0.00000000E+00  3.46162237E+00
Number of contracted shells                I               65
Number of primitive shells                 I              119
Pure/Cartesian d shells                    I                0
Pure/Cartesian f shells                    I                0
Highest angular momentum                   I                3
Largest degree of contraction              I                7
Shell types                                I   N=          65
           0           0           0           0           1           1
           1          -2          -2           0           0           0
           0           0           1           1           1           1
          -2          -2          -2          -3          -3           0
           0           0           0           0           1           1
           1           1          -2          -2          -2          -3
          -3           0           0           0           0           0
           1           1           1           1          -2          -2
          -2          -3          -3           0           0           0
           0           0           1           1           1           1
          -2          -2          -2          -3          -3
Number of primitives per shell             I   N=          65
           3           1           1           1           1           1
           1           1           1           7           6           1
           1           1           3           1           1           1
           1           1           1           1           1           7
           6           1           1           1           3           1
           1           1           1           1           1           1
           1           7           6           1           1           1
           3           1           1           1           1           1
           1           1           1           7           6           1
           1           1           3           1           1           1
           1           1           1           1           1
Shell to atom map                          I   N=          65
           1           1           1           1           1           1
           1           1           1           2           2           2
           2           2           2           2           2           2
           2           2           2           2           2           3
           3           3           3           3           3           3
           3           3           3           3           3           3
           3           4           4           4           4           4
           4           4           4           4           4           4
           4           4           4           5           5           5
           5           5           5           5           5           5
           5           5           5           5           5
Primitive exponents                        R   N=         119
  3.38700000E+01  5.09500000E+00  1.15900000E+00  3.25800000E-01  1.02700000E-01
  2.52600000E-02  1.40700000E+00  3.88000000E-01  1.02000000E-01  1.05700000E+00
  2.47000000E-01  1.53300000E+04  2.29900000E+03  5.22400000E+02  1.47300000E+02
  4.75500000E+01  1.67600000E+01  6.20700000E+00  5.22400000E+02  1.47300000E+02
  4.75500000E+01  1.67600000E+01  6.20700000E+00  6.88200000E-01  1.75200000E+00
  2.38400000E-01  7.37600000E-02  3.44600000E+01  7.74900000E+00  2.28000000E+00
  7.15600000E-01  2.14000000E-01  5.97400000E-02  2.31400000E+00  6.45000000E-01
  2.14000000E-01  1.42800000E+00  5.00000000E-01  1.53300000E+04  2.29900000E+03
  5.22400000E+02  1.47300000E+02  4.75500000E+01  1.67600000E+01  6.20700000E+00
  5.22400000E+02  1.47300000E+02  4.75500000E+01  1.67600000E+01  6.20700000E+00
  6.88200000E-01  1.75200000E+00  2.38400000E-01  7.37600000E-02  3.44600000E+01
  7.74900000E+00  2.28000000E+00  7.15600000E-01  2.14000000E-01  5.97400000E-02
  2.31400000E+00  6.45000000E-01  2.14000000E-01  1.42800000E+00  5.00000000E-01
  1.14200000E+04  1.71200000E+03  3.89300000E+02  1.10000000E+02  3.55700000E+01
  1.25400000E+01  4.64400000E+00  3.89300000E+02  1.10000000E+02  3.55700000E+01
  1.25400000E+01  4.64400000E+00  5.11800000E-01  1.29300000E+00  1.78700000E-01
  5.76000000E-02  2.66300000E+01  5.94800000E+00  1.74200000E+00  5.55000000E-01
  1.72500000E-01  4.91000000E-02  1.65400000E+00  4.69000000E-01  1.51000000E-01
  1.09300000E+00  3.64000000E-01  1.53300000E+04  2.29900000E+03  5.22400000E+02
  1.47300000E+02  4.75500000E+01  1.67600000E+01  6.20700000E+00  5.22400000E+02
  1.47300000E+02  4.75500000E+01  1.67600000E+01  6.20700000E+00  6.88200000E-01
  1.75200000E+00  2.38400000E-01  7.37600000E-02  3.44600000E+01  7.74900000E+00
  2.28000000E+00  7.15600000E-01  2.14000000E-01  5.97400000E-02  2.31400000E+00
  6.45000000E-01  2.14000000E-01  1.42800000E+00  5.00000000E-01
Contraction coefficients                   R   N=         119
  2.54948632E-02  1.90362766E-01  8.52162022E-01  1.00000000E+00  1.00000000E+00
  1.00000000E+00  1.00000000E+00  1.00000000E+00  1.00000000E+00  1.00000000E+00
  1.00000000E+00  5.19808943E-04  4.02025621E-03  2.07128267E-02  8.10105536E-02
  2.35962985E-01  4.42653446E-01  3.57064423E-01 -4.42115008E-05 -1.22591041E-03
 -1.05517725E-02 -6.74452633E-02 -1.71198607E-01  1.07329856E+00  1.00000000E+00
  1.00000000E+00  1.00000000E+00  4.11634896E-02  2.57762836E-01  8.02419274E-01
  1.00000000E+00  1.00000000E+00  1.00000000E+00  1.00000000E+00  1.00000000E+00
  1.00000000E+00  1.00000000E+00  1.00000000E+00  5.19808943E-04  4.02025621E-03
  2.07128267E-02  8.10105536E-02  2.35962985E-01  4.42653446E-01  3.57064423E-01
 -4.42115008E-05 -1.22591041E-03 -1.05517725E-02 -6.74452633E-02 -1.71198607E-01
  1.07329856E+00  1.00000000E+00  1.00000000E+00  1.00000000E+00  4.11634896E-02
  2.57762836E-01  8.02419274E-01  1.00000000E+00  1.00000000E+00  1.00000000E+00
  1.00000000E+00  1.00000000E+00  1.00000000E+00  1.00000000E+00  1.00000000E+00
  5.34563860E-04  4.13435660E-03  2.12335358E-02  8.25006224E-02  2.38138871E-01
  4.42551547E-01  3.53757422E-01 -4.89867350E-05 -1.19527323E-03 -1.03490714E-02
 -6.48680190E-02 -1.71552477E-01  1.07289568E+00  1.00000000E+00  1.00000000E+00
  1.00000000E+00  3.98072123E-02  2.49002660E-01  8.10479727E-01  1.00000000E+00
  1.00000000E+00  1.00000000E+00  1.00000000E+00  1.00000000E+00  1.00000000E+00
  1.00000000E+00  1.00000000E+00  5.19808943E-04  4.02025621E-03  2.07128267E-02
  8.10105536E-02  2.35962985E-01  4.42653446E-01  3.57064423E-01 -4.42115008E-05
 -1.22591041E-03 -1.05517725E-02 -6.74452633E-02 -1.71198607E-01  1.07329856E+00
  1.00000000E+00  1.00000000E+00  1.00000000E+00  4.11634896E-02  2.57762836E-01
  8.02419274E-01  1.00000000E+00  1.00000000E+00  1.00000000E+00  1.00000000E+00
  1.00000000E+00  1.00000000E+00  1.00000000E+00  1.00000000E+00
Coordinates of each shell                  R   N=         195
  2.91855207E+00  3.20273097E+00 -1.14615653E-31  2.91855207E+00  3.20273097E+00
 -1.14615653E-31  2.91855207E+00  3.20273097E+00 -1.14615653E-31  2.91855207E+00
  3.20273097E+00 -1.14615653E-31  2.91855207E+00  3.20273097E+00 -1.14615653E-31
  2.91855207E+00  3.20273097E+00 -1.14615653E-31  2.91855207E+00  3.20273097E+00
 -1.14615653E-31  2.91855207E+00  3.20273097E+00 -1.14615653E-31  2.91855207E+00
  3.20273097E+00 -1.14615653E-31  2.74731845E+00  1.37965650E+00 -8.78243881E-32
  2.74731845E+00  1.37965650E+00 -8.78243881E-32  2.74731845E+00  1.37965650E+00
 -8.78243881E-32  2.74731845E+00  1.37965650E+00 -8.78243881E-32  2.74731845E+00
  1.37965650E+00 -8.78243881E-32  2.74731845E+00  1.37965650E+00 -8.78243881E-32
  2.74731845E+00  1.37965650E+00 -8.78243881E-32  2.74731845E+00  1.37965650E+00
 -8.78243881E-32  2.74731845E+00  1.37965650E+00 -8.78243881E-32  2.74731845E+00
  1.37965650E+00 -8.78243881E-32  2.74731845E+00  1.37965650E+00 -8.78243881E-32
  2.74731845E+00  1.37965650E+00 -8.78243881E-32  2.74731845E+00  1.37965650E+00
 -8.78243881E-32  2.74731845E+00  1.37965650E+00 -8.78243881E-32 -1.13991322E-17
  1.27271570E+00 -1.56186891E-32 -1.13991322E-17  1.27271570E+00 -1.56186891E-32
 -1.13991322E-17  1.27271570E+00 -1.56186891E-32 -1.13991322E-17  1.27271570E+00
 -1.56186891E-32 -1.13991322E-17  1.27271570E+00 -1.56186891E-32 -1.13991322E-17
  1.27271570E+00 -1.56186891E-32 -1.13991322E-17  1.27271570E+00 -1.56186891E-32
 -1.13991322E-17  1.27271570E+00 -1.56186891E-32 -1.13991322E-17  1.27271570E+00
 -1.56186891E-32 -1.13991322E-17  1.27271570E+00 -1.56186891E-32 -1.13991322E-17
  1.27271570E+00 -1.56186891E-32 -1.13991322E-17  1.27271570E+00 -1.56186891E-32
 -1.13991322E-17  1.27271570E+00 -1.56186891E-32 -1.13991322E-17  1.27271570E+00
 -1.56186891E-32 -4.81936104E-01 -1.44153289E+00  3.01265497E-32 -4.81936104E-01
 -1.44153289E+00  3.01265497E-32 -4.81936104E-01 -1.44153289E+00  3.01265497E-32
 -4.81936104E-01 -1.44153289E+00  3.01265497E-32 -4.81936104E-01 -1.44153289E+00
  3.01265497E-32 -4.81936104E-01 -1.44153289E+00  3.01265497E-32 -4.81936104E-01
 -1.44153289E+00  3.01265497E-32 -4.81936104E-01 -1.44153289E+00  3.01265497E-32
 -4.81936104E-01 -1.44153289E+00  3.01265497E-32 -4.81936104E-01 -1.44153289E+00
  3.01265497E-32 -4.81936104E-01 -1.44153289E+00  3.01265497E-32 -4.81936104E-01
 -1.44153289E+00  3.01265497E-32 -4.81936104E-01 -1.44153289E+00  3.01265497E-32
 -4.81936104E-01 -1.44153289E+00  3.01265497E-32 -2.69044337E+00 -1.79137229E+00
  9.14093028E-32 -2.69044337E+00 -1.79137229E+00  9.14093028E-32 -2.69044337E+00
 -1.79137229E+00  9.14093028E-32 -2.69044337E+00 -1.79137229E+00  9.14093028E-32
 -2.69044337E+00 -1.79137229E+00  9.14093028E-32 -2.69044337E+00 -1.79137229E+00
  9.14093028E-32 -2.69044337E+00 -1.79137229E+00  9.14093028E-32 -2.69044337E+00
 -1.79137229E+00  9.14093028E-32 -2.69044337E+00 -1.79137229E+00  9.14093028E-32
 -2.69044337E+00 -1.79137229E+00  9.14093028E-32 -2.69044337E+00 -1.79137229E+00
  9.14093028E-32 -2.69044337E+00 -1.79137229E+00  9.14093028E-32 -2.69044337E+00
 -1.79137229E+00  9.14093028E-32 -2.69044337E+00 -1.79137229E+00  9.14093028E-32
Num ILSW                                   I              100
ILSW                                       I   N=         100
           0           0           0           0           2           0
           0           0           0           0           0          -1
           5           0           0           0           2           0
           0           0           0           0           1           0
           1           0           0           0           0           0
           0           0      100000           0          -1           0
           0           0           0           0           0           0
           0           0           0           1           1           0
           0 -2000000000           1           0           0           0
           0           0           4          52           0           0
           0           0           0           0           0           0
           0           0           0           5           4           1
           0           0           0           0           0           0
           0           0           0           0           0           0
           0           0           0           0           0           0
           0           0           0           0           0           0
           0           0           0           0
Num RLSW                                   I               52
RLSW                                       R   N=          52
  1.00000000E+00  1.00000000E+00  1.00000000E+00  1.00000000E+00  1.00000000E+00
  0.00000000E+00  0.00000000E+00  1.00000000E+00  0.00000000E+00  0.00000000E+00
  0.00000000E+00  0.00000000E+00  1.00000000E+00  0.00000000E+00  0.00000000E+00
  0.00000000E+00  0.00000000E+00  1.00000000E+00  0.00000000E+00  0.00000000E+00
  0.00000000E+00  0.00000000E+00  1.00000000E+00  0.00000000E+00  0.00000000E+00
  0.00000000E+00  0.00000000E+00  1.00000000E+00  0.00000000E+00  0.00000000E+00
  0.00000000E+00  0.00000000E+00  1.00000000E+00  0.00000000E+00  0.00000000E+00
  0.00000000E+00  0.00000000E+00  0.00000000E+00  1.00000000E+00  1.00000000E+00
  0.00000000E+00  1.00000000E+00  0.00000000E+00  0.00000000E+00  0.00000000E+00
  0.00000000E+00  0.00000000E+00  0.00000000E+00  0.00000000E+00  0.00000000E+00
  0.00000000E+00  0.00000000E+00
MxBond                                     I                2
NBond                                      I   N=           5
           1           2           2           2           1
IBond                                      I   N=          10
           2           0           1           3           2           4
           3           5           4           0
RBond                                      R   N=          10
  1.00000000E+00  0.00000000E+00  1.00000000E+00  1.00000000E+00  1.00000000E+00
  1.00000000E+00  1.00000000E+00  2.00000000E+00  2.00000000E+00  0.00000000E+00
Virial Ratio                               R      2.002559608517802E+00
SCF Energy                                 R     -2.794993153139096E+02
MP2 Energy                                 R     -2.804465234462439E+02
Total Energy                               R     -2.804465234462439E+02
Post-SCF wavefunction norm                 R      1.585491842710062E+00
RMS Force                                  R      6.264416163592198E-03
RMS Density                                R      4.136712837017708E-09
NImag                                      I                1
Job Status                                 I                1
Nuclear derivative order                   I                2
External E-field                           R   N=          35
  0.00000000E+00  0.00000000E+00  0.00000000E+00  0.00000000E+00  0.00000000E+00
  0.00000000E+00  0.00000000E+00  0.00000000E+00  0.00000000E+00  0.00000000E+00
  0.00000000E+00  0.00000000E+00  0.00000000E+00  0.00000000E+00  0.00000000E+00
  0.00000000E+00  0.00000000E+00  0.00000000E+00  0.00000000E+00  0.00000000E+00
  0.00000000E+00  0.00000000E+00  0.00000000E+00  0.00000000E+00  0.00000000E+00
  0.00000000E+00  0.00000000E+00  0.00000000E+00  0.00000000E+00  0.00000000E+00
  0.00000000E+00  0.00000000E+00  0.00000000E+00  0.00000000E+00  0.00000000E+00
IOpCl                                      I                0
IROHF                                      I                0
Alpha Orbital Energies                     R   N=         207
 -2.06937770E+01 -2.06837889E+01 -2.06615628E+01 -1.58146510E+01 -1.61420341E+00
 -1.49536941E+00 -1.25565324E+00 -9.49798737E-01 -7.71457212E-01 -7.55919855E-01
 -7.09493240E-01 -6.77777509E-01 -6.17781966E-01 -5.90202397E-01 -4.86223097E-01
 -4.74913771E-01  2.92905628E-02  6.78189661E-02  8.61395078E-02  1.01721551E-01
  1.33776585E-01  1.34189658E-01  1.43818515E-01  1.54225680E-01  1.78046870E-01
  1.94309857E-01  1.99361869E-01  2.06338277E-01  2.20383302E-01  2.34401433E-01
  2.37297469E-01  2.65907394E-01  2.92170199E-01  3.03393548E-01  3.09879860E-01
  3.43554585E-01  3.49308190E-01  3.86733385E-01  4.21401787E-01  4.31473924E-01
  5.27157458E-01  5.27573414E-01  5.57628582E-01  5.81346144E-01  6.19059101E-01
  6.38901325E-01  6.78314685E-01  6.83676506E-01  7.06287695E-01  7.10855410E-01
  7.23684663E-01  7.28669799E-01  7.44705345E-01  7.90869517E-01  7.91263866E-01
  8.10784762E-01  8.11559670E-01  8.27369866E-01  8.67163250E-01  9.07116219E-01
  9.20789393E-01  9.25144678E-01  9.55932233E-01  9.74809837E-01  9.83560765E-01
  1.01585032E+00  1.05118744E+00  1.05401452E+00  1.08001985E+00  1.11595054E+00
  1.13998933E+00  1.18874760E+00  1.21898397E+00  1.23081963E+00  1.33789864E+00
  1.34962958E+00  1.38422188E+00  1.45277098E+00  1.48714196E+00  1.50743713E+00
  1.53762788E+00  1.56690227E+00  1.58000885E+00  1.61230867E+00  1.66111956E+00
  1.66912496E+00  1.70367490E+00  1.79249564E+00  1.83231435E+00  1.83420386E+00
  1.87494273E+00  1.90988412E+00  1.95938471E+00  1.98892524E+00  2.00650763E+00
  2.07728690E+00  2.12057444E+00  2.13077433E+00  2.14857512E+00  2.22375644E+00
  2.26317140E+00  2.26391989E+00  2.28836604E+00  2.31282127E+00  2.34005346E+00
  2.38497976E+00  2.42158988E+00  2.42579599E+00  2.45392405E+00  2.46114241E+00
  2.47478131E+00  2.49872483E+00  2.58769701E+00  2.59421027E+00  2.61813909E+00
  2.61983832E+00  2.63291450E+00  2.66386476E+00  2.75255556E+00  2.81905601E+00
  2.84952583E+00  2.87835580E+00  2.89138875E+00  2.91969214E+00  2.95493387E+00
  3.02225411E+00  3.07001808E+00  3.11759851E+00  3.20345587E+00  3.22323650E+00
  3.31418858E+00  3.33989127E+00  3.51147853E+00  3.64214707E+00  3.83643120E+00
  3.84024432E+00  4.14711381E+00  4.16098200E+00  4.18168925E+00  4.22792912E+00
  4.35014834E+00  4.39121856E+00  4.45976369E+00  4.51663438E+00  4.64658249E+00
  4.70816563E+00  4.79807275E+00  4.82216835E+00  4.82619702E+00  4.89653477E+00
  5.02507231E+00  5.07635545E+00  5.09838587E+00  5.14954591E+00  5.17463487E+00
  5.23749417E+00  5.27092474E+00  5.30789521E+00  5.32738498E+00  5.34614372E+00
  5.60299739E+00  5.65317397E+00  5.75796725E+00  5.82381056E+00  5.96278254E+00
  6.16524515E+00  6.30628407E+00  6.33703004E+00  6.39255681E+00  6.49360688E+00
  6.50522988E+00  6.61188568E+00  6.66626522E+00  6.69441471E+00  6.75561570E+00
  6.76110172E+00  6.82494670E+00  6.89344936E+00  7.00932506E+00  7.05252233E+00
  7.05470183E+00  7.08815714E+00  7.11829945E+00  7.14629805E+00  7.17971766E+00
  7.21583725E+00  7.23866547E+00  7.29821800E+00  7.29999227E+00  7.33972946E+00
  7.39074197E+00  7.42921020E+00  7.48274016E+00  7.59559894E+00  7.60518969E+00
  7.61399846E+00  7.66243750E+00  7.77809024E+00  7.86639872E+00  8.08764542E+00
  8.30967060E+00  8.40762123E+00  8.54126285E+00  1.33638112E+01  1.42903544E+01
  1.51553010E+01  1.57864411E+01
Alpha MO coefficients                      R   N=       42849
  9.14565295E-05 -6.52699372E-04 -7.25227815E-04 -5.42865764E-06 -2.12743781E-05
 -2.65460759E-05  0.00000000E+00 -4.41039203E-05  6.24667513E-05  0.00000000E+00
  8.51997454E-05  3.49897912E-05  0.00000000E+00  3.17322023E-05  0.00000000E+00
  0.00000000E+00 -4.96144549E-05  2.09036349E-05 -6.37241659E-06  0.00000000E+00
  0.00000000E+00 -1.39226609E-04  1.17593469E-04  4.39765539E-03 -2.80601123E-04
  6.37320036E-06  1.56898673E-03  1.82201557E-03  1.06294796E-04  7.65787917E-06
  0.00000000E+00 -6.16960771E-04 -3.81560660E-05  0.00000000E+00 -1.10458721E-03
  8.02424018E-04  0.00000000E+00 -4.02110814E-04  6.41725165E-05  0.00000000E+00
  2.88275052E-05  0.00000000E+00  0.00000000E+00 -5.39842187E-05  5.14627656E-06
 -3.78567643E-04  0.00000000E+00  0.00000000E+00  7.38980701E-04 -2.44016917E-05
 -4.46881311E-04  0.00000000E+00  0.00000000E+00  2.39922658E-04 -1.77162315E-05
  0.00000000E+00  7.99549414E-05  1.30984838E-05  0.00000000E+00  0.00000000E+00
 -1.09379824E-04 -4.93906126E-06  0.00000000E+00  2.54254756E-04 -2.70940211E-05
  0.00000000E+00  0.00000000E+00 -3.54256656E-04  4.47790818E-05  9.76917937E-01
 -9.21338541E-03  4.33131579E-02  2.00250896E-03 -9.33042491E-04  1.49860196E-03
 -1.36682456E-03  0.00000000E+00 -1.43865515E-03  1.39587739E-03  0.00000000E+00
  8.14375239E-05 -1.16029632E-03  0.00000000E+00 -1.37073753E-04 -1.21516845E-05
  0.00000000E+00  4.65492150E-05  0.00000000E+00  0.00000000E+00 -3.46099433E-05
  2.03562907E-05  7.49880943E-04  0.00000000E+00  0.00000000E+00 -2.22412342E-04
 -3.92365708E-04 -3.59562663E-04  0.00000000E+00  0.00000000E+00 -3.12556094E-04
 -3.79919027E-04  0.00000000E+00  4.74636527E-05 -4.94861550E-05  0.00000000E+00
  0.00000000E+00 -3.89516445E-05 -1.67180373E-05  0.00000000E+00  2.35994920E-05
  2.25652304E-05  0.00000000E+00  0.00000000E+00 -3.02931077E-04 -1.45084778E-04
  4.07723973E-05  5.56052552E-05 -2.64766172E-04 -6.63583950E-04 -1.18240258E-04
 -2.73094970E-05 -9.89447301E-05  0.00000000E+00  2.60173688E-04  7.15709567E-04
  0.00000000E+00 -8.23305272E-04 -4.47989990E-04  0.00000000E+00 -1.23610393E-04
 -2.22284533E-05  0.00000000E+00 -1.82164415E-05  0.00000000E+00  0.00000000E+00
 -2.88062863E-05  1.47099810E-05 -3.32361511E-04  0.00000000E+00  0.00000000E+00
 -8.34577534E-04  1.23217264E-04 -4.02129801E-05  0.00000000E+00  0.00000000E+00
  9.01108037E-05 -1.16170472E-04  0.00000000E+00 -2.05964621E-05 -1.20784727E-04
  0.00000000E+00  0.00000000E+00 -6.15037950E-05 -1.40395185E-04  0.00000000E+00
  2.31315125E-06 -1.55234986E-04  0.00000000E+00  0.00000000E+00  4.61967164E-05
 -4.19025174E-04 -1.66192740E-03  1.12185583E-04 -8.39064280E-05 -2.47986679E-04
  1.16244025E-04 -5.59104340E-06 -2.78280916E-05  0.00000000E+00  6.45184480E-05
  1.63395963E-04  0.00000000E+00  2.13321203E-04  1.88261800E-04  0.00000000E+00
  1.21702941E-04  2.06620923E-05  0.00000000E+00 -3.77255224E-06  0.00000000E+00
  0.00000000E+00 -1.69857373E-05  7.16923440E-07  5.03787835E-07  0.00000000E+00
  0.00000000E+00  7.43292056E-05  9.08984980E-05 -9.59711724E-05  0.00000000E+00
  0.00000000E+00  1.61056199E-04  1.55937707E-04  0.00000000E+00  1.59272362E-05
 -4.16126702E-06  0.00000000E+00  0.00000000E+00 -5.59001011E-06 -1.15500776E-05
  0.00000000E+00 -3.30957926E-05  4.50480231E-05  0.00000000E+00  0.00000000E+00
  8.19873042E-05  9.14367887E-05  3.77031663E-05 -1.00263547E-03 -5.06318630E-04
 -1.35289632E-05 -2.25079542E-05  1.69347795E-05  0.00000000E+00 -3.09001658E-06
  2.80117214E-04  0.00000000E+00 -4.53058230E-05  1.38606364E-04  0.00000000E+00
  2.61142471E-05  0.00000000E+00  0.00000000E+00  1.31200649E-05  1.17428064E-05
 -2.72380405E-05  0.00000000E+00  0.00000000E+00  1.02530384E-05  3.66915854E-05
  1.15295831E-04  8.36292495E-05 -2.75333327E-05  7.51176017E-04  6.67763354E-04
  9.32742182E-06  2.85126705E-06  0.00000000E+00 -6.72668170E-05  1.55046028E-05
  0.00000000E+00  3.48096051E-04  9.01919406E-04  0.00000000E+00  7.50675765E-06
  8.83083318E-05  0.00000000E+00 -2.13454438E-06  0.00000000E+00  0.00000000E+00
  4.07908898E-07 -6.71336649E-06 -3.57112688E-05  0.00000000E+00  0.00000000E+00
 -2.77447195E-05  8.84333464E-05 -2.03603619E-05  0.00000000E+00  0.00000000E+00
 -2.71619566E-04 -1.55804494E-04  0.00000000E+00  9.22764047E-06  6.31760142E-06
  0.00000000E+00  0.00000000E+00  3.80684261E-06 -1.94087919E-05  0.00000000E+00
 -4.24732972E-05 -3.94595054E-05  0.00000000E+00  0.00000000E+00 -7.65875181E-05
  1.68908406E-05  1.70092534E-03  4.95631494E-05  4.88777087E-05 -6.33519385E-05
 -4.80593281E-04  7.03829094E-06  1.69197719E-05  0.00000000E+00 -6.55659340E-05
 -5.96348170E-05  0.00000000E+00  2.25576339E-04 -1.53759592E-04  0.00000000E+00
 -1.96437956E-04 -6.51691276E-05  0.00000000E+00 -8.74545090E-06  0.00000000E+00
  0.00000000E+00  2.07443863E-05  1.73272081E-05  2.08815192E-06  0.00000000E+00
  0.00000000E+00 -1.08277176E-04 -3.08507787E-05 -2.36296709E-06  0.00000000E+00
  0.00000000E+00 -2.10724460E-04 -1.81236914E-04  0.00000000E+00  3.74767435E-06
  8.92806725E-08  0.00000000E+00  0.00000000E+00  2.10257816E-06 -1.63158663E-05
  0.00000000E+00 -4.67757384E-05 -6.83134735E-07  0.00000000E+00  0.00000000E+00
 -6.48050753E-05  1.89051624E-04  2.55316570E-04  1.44152282E-03 -1.31308201E-04
 -1.28933376E-03  4.64211881E-04 -1.13210158E-04  5.20932203E-06  0.00000000E+00
 -2.12273750E-03 -4.28087171E-04  0.00000000E+00  9.13106282E-04  7.59451700E-04
  0.00000000E+00 -1.82431922E-04  5.43436338E-05  0.00000000E+00 -1.26003286E-04
  0.00000000E+00  0.00000000E+00  2.44678968E-04  9.52819423E-05 -4.76159066E-04
  0.00000000E+00  0.00000000E+00  9.62193442E-04 -1.74189208E-05 -5.51027512E-06
  0.00000000E+00  0.00000000E+00 -3.02833704E-04 -1.10818806E-04  0.00000000E+00
  1.83865997E-05  1.92300144E-05  0.00000000E+00  0.00000000E+00 -4.65039178E-06
  1.91463021E-07  0.00000000E+00  1.70394918E-04 -7.17877698E-05  0.00000000E+00
  0.00000000E+00 -2.70024955E-04  4.33389388E-05  9.76672403E-01 -9.86062411E-03
  4.35334534E-02  4.27436717E-03 -5.27021550E-04  2.13361828E-03  4.87632156E-04
  0.00000000E+00 -2.43340487E-03 -6.18944227E-04  0.00000000E+00  1.08880585E-03
 -1.36590671E-05  0.00000000E+00 -3.97075819E-06 -4.57604536E-05  0.00000000E+00
 -2.23812763E-04  0.00000000E+00  0.00000000E+00  8.80036347E-05  2.76687894E-05
  3.98309791E-04  0.00000000E+00  0.00000000E+00 -8.50624463E-04 -4.30592285E-04
 -1.64564399E-04  0.00000000E+00  0.00000000E+00  2.70838465E-04  1.91918970E-05
  0.00000000E+00  5.92030897E-05  1.87182221E-05  0.00000000E+00  0.00000000E+00
 -3.04756304E-05 -1.73128561E-05  0.00000000E+00  1.30447617E-04  8.64071945E-06
  0.00000000E+00  0.00000000E+00 -1.84694255E-04 -1.40262195E-04  4.74745544E-04
  2.05797791E-03  1.12450088E-04  1.55345950E-05 -4.01631227E-05 -2.46924513E-04
  0.00000000E+00  1.17562703E-04 -1.27383898E-03  0.00000000E+00  3.14652482E-04
 -3.35494666E-04  0.00000000E+00 -2.68239794E-06  0.00000000E+00  0.00000000E+00
  7.58277767E-05  1.62757481E-05 -1.60023103E-04  0.00000000E+00  0.00000000E+00
 -5.37309094E-04 -2.89199023E-05  9.76831367E-01 -9.16314582E-03  4.34492640E-02
  1.62037476E-04 -1.14059505E-03 -1.57071817E-03  1.43570221E-03  0.00000000E+00
  1.58173851E-03 -1.27812926E-03  0.00000000E+00 -5.64310770E-04 -8.65056372E-04
  0.00000000E+00  5.47973492E-05 -3.45340430E-05  0.00000000E+00  2.97394701E-05
  0.00000000E+00  0.00000000E+00 -1.18292133E-04 -4.12781410E-06  7.57826659E-04
  0.00000000E+00  0.00000000E+00 -2.01194729E-04 -2.37131979E-04 -2.66659029E-04
  0.00000000E+00  0.00000000E+00  1.67256756E-04  1.28679164E-04  0.00000000E+00
 -6.42301336E-05  1.03420143E-06  0.00000000E+00  0.00000000E+00  1.88149891E-05