 Entering Gaussian System, Link 0=g16
 Input=hoono_r3_1p486388.gjf
 Output=hoono_r3_1p486388.log
 Initial command:
 /sw/contrib/gaussian/g16/B01/g16/l1.exe "/scr/Gau-19624.inp" -scrdir="/scr/"
 Entering Link 1 = /sw/contrib/gaussian/g16/B01/g16/l1.exe PID=     19625.
  
 Copyright (c) 1988-2017, Gaussian, Inc.  All Rights Reserved.
  
 This is part of the Gaussian(R) 16 program.  It is based on
 the Gaussian(R) 09 system (copyright 2009, Gaussian, Inc.),
 the Gaussian(R) 03 system (copyright 2003, Gaussian, Inc.),
 the Gaussian(R) 98 system (copyright 1998, Gaussian, Inc.),
 the Gaussian(R) 94 system (copyright 1995, Gaussian, Inc.),
 the Gaussian 92(TM) system (copyright 1992, Gaussian, Inc.),
 the Gaussian 90(TM) system (copyright 1990, Gaussian, Inc.),
 the Gaussian 88(TM) system (copyright 1988, Gaussian, Inc.),
 the Gaussian 86(TM) system (copyright 1986, Carnegie Mellon
 University), and the Gaussian 82(TM) system (copyright 1983,
 Carnegie Mellon University). Gaussian is a federally registered
 trademark of Gaussian, Inc.
  
 This software contains proprietary and confidential information,
 including trade secrets, belonging to Gaussian, Inc.
  
 This software is provided under written license and may be
 used, copied, transmitted, or stored only in accord with that
 written license.
  
 The following legend is applicable only to US Government
 contracts under FAR:
  
                    RESTRICTED RIGHTS LEGEND
  
 Use, reproduction and disclosure by the US Government is
 subject to restrictions as set forth in subparagraphs (a)
 and (c) of the Commercial Computer Software - Restricted
 Rights clause in FAR 52.227-19.
  
 Gaussian, Inc.
 340 Quinnipiac St., Bldg. 40, Wallingford CT 06492
  
  
 ---------------------------------------------------------------
 Warning -- This program may not be used in any manner that
 competes with the business of Gaussian, Inc. or will provide
 assistance to any competitor of Gaussian, Inc.  The licensee
 of this program is prohibited from giving any competitor of
 Gaussian, Inc. access to this program.  By using this program,
 the user acknowledges that Gaussian, Inc. is engaged in the
 business of creating and licensing software in the field of
 computational chemistry and represents and warrants to the
 licensee that it is not a competitor of Gaussian, Inc. and that
 it will not use this program in any manner prohibited above.
 ---------------------------------------------------------------
  

 Cite this work as:
 Gaussian 16, Revision B.01,
 M. J. Frisch, G. W. Trucks, H. B. Schlegel, G. E. Scuseria, 
 M. A. Robb, J. R. Cheeseman, G. Scalmani, V. Barone, 
 G. A. Petersson, H. Nakatsuji, X. Li, M. Caricato, A. V. Marenich, 
 J. Bloino, B. G. Janesko, R. Gomperts, B. Mennucci, H. P. Hratchian, 
 J. V. Ortiz, A. F. Izmaylov, J. L. Sonnenberg, D. Williams-Young, 
 F. Ding, F. Lipparini, F. Egidi, J. Goings, B. Peng, A. Petrone, 
 T. Henderson, D. Ranasinghe, V. G. Zakrzewski, J. Gao, N. Rega, 
 G. Zheng, W. Liang, M. Hada, M. Ehara, K. Toyota, R. Fukuda, 
 J. Hasegawa, M. Ishida, T. Nakajima, Y. Honda, O. Kitao, H. Nakai, 
 T. Vreven, K. Throssell, J. A. Montgomery, Jr., J. E. Peralta, 
 F. Ogliaro, M. J. Bearpark, J. J. Heyd, E. N. Brothers, K. N. Kudin, 
 V. N. Staroverov, T. A. Keith, R. Kobayashi, J. Normand, 
 K. Raghavachari, A. P. Rendell, J. C. Burant, S. S. Iyengar, 
 J. Tomasi, M. Cossi, J. M. Millam, M. Klene, C. Adamo, R. Cammi, 
 J. W. Ochterski, R. L. Martin, K. Morokuma, O. Farkas, 
 J. B. Foresman, and D. J. Fox, Gaussian, Inc., Wallingford CT, 2016.
 
 ******************************************
 Gaussian 16:  ES64L-G16RevB.01 20-Dec-2017
                21-Feb-2022 
 ******************************************
 %nproc=28
 Will use up to   28 processors via shared memory.
 %mem=120GB
 %chk=hoono_r3_1p486388.chk
 ---------------------------------------
 #p freq mp2/aug-cc-pvtz density=current
 ---------------------------------------
 1/10=4,30=1,38=1/1,3;
 2/12=2,17=6,18=5,40=1/2;
 3/5=16,6=1,7=10,11=9,25=1,30=1,71=2,140=1/1,2,3;
 4//1;
 5/5=2,38=5,98=1/2;
 8/6=3,8=1,10=1,19=11,30=-1/1;
 9/15=3,16=-3/6;
 11/6=1,8=1,15=11,17=12,24=-1,27=1,28=-2,29=300,32=6,42=3/1,2,10;
 10/6=2,21=1/2;
 8/6=4,8=1,10=1,19=11,30=-1/11,4;
 10/5=1,20=4/2;
 11/12=2,14=11,16=1,17=2,28=-2,42=3,76=2/2,10,12;
 6/7=2,8=2,9=2,10=2,22=-1/1;
 7/8=1,10=1,12=2,25=1,44=2/1,2,3,16;
 1/10=4,30=1/3;
 99//99;
 Leave Link    1 at Mon Feb 21 20:16:04 2022, MaxMem= 16106127360 cpu:              23.5 elap:               0.9
 (Enter /sw/contrib/gaussian/g16/B01/g16/l101.exe)
 -----
 title
 -----
 Symbolic Z-matrix:
 Charge =  0 Multiplicity = 1
 H
 O                    1    r1
 O                    2    r2       1    a1
 N                    3    r3       2    a2       1    d1       0
 O                    4    r4       3    a3       2    d2       0
       Variables:
  r1                    0.96898                  
  r2                    1.45492                  
  r3                    1.48639                  
  r4                    1.17073                  
  a1                   97.59495                  
  a2                  102.29752                  
  a3                  109.06955                  
  d1                  180.                       
  d2                  180.                       
 
 ITRead=  0  0  0  0  0
 MicOpt= -1 -1 -1 -1 -1
 NAtoms=      5 NQM=        5 NQMF=       0 NMMI=      0 NMMIF=      0
                NMic=       0 NMicF=      0.
                    Isotopes and Nuclear Properties:
 (Nuclear quadrupole moments (NQMom) in fm**2, nuclear magnetic moments (NMagM)
  in nuclear magnetons)

  Atom         1           2           3           4           5
 IAtWgt=           1          16          16          14          16
 AtmWgt=   1.0078250  15.9949146  15.9949146  14.0030740  15.9949146
 NucSpn=           1           0           0           2           0
 AtZEff=  -0.0000000  -0.0000000  -0.0000000  -0.0000000  -0.0000000
 NQMom=    0.0000000   0.0000000   0.0000000   2.0440000   0.0000000
 NMagM=    2.7928460   0.0000000   0.0000000   0.4037610   0.0000000
 AtZNuc=   1.0000000   8.0000000   8.0000000   7.0000000   8.0000000
 Leave Link  101 at Mon Feb 21 20:16:05 2022, MaxMem= 16106127360 cpu:               2.2 elap:               0.1
 (Enter /sw/contrib/gaussian/g16/B01/g16/l103.exe)

 GradGradGradGradGradGradGradGradGradGradGradGradGradGradGradGradGradGrad
 Berny optimization.
 Initialization pass.
                       ----------------------------
                       !    Initial Parameters    !
                       ! (Angstroms and Degrees)  !
 ----------------------                            ----------------------
 !      Name          Value   Derivative information (Atomic Units)     !
 ------------------------------------------------------------------------
 !       r1          0.969    calculate D2E/DX2 analytically            !
 !       r2          1.4549   calculate D2E/DX2 analytically            !
 !       r3          1.4864   calculate D2E/DX2 analytically            !
 !       r4          1.1707   calculate D2E/DX2 analytically            !
 !       a1         97.5949   calculate D2E/DX2 analytically            !
 !       a2        102.2975   calculate D2E/DX2 analytically            !
 !       a3        109.0696   calculate D2E/DX2 analytically            !
 !       d1        180.0      calculate D2E/DX2 analytically            !
 !       d2        180.0      calculate D2E/DX2 analytically            !
 ------------------------------------------------------------------------
 Trust Radius=3.00D-01 FncErr=1.00D-07 GrdErr=1.00D-07 EigMax=2.50D+02 EigMin=1.00D-04
 Number of steps in this run=      2 maximum allowed number of steps=      2.
 GradGradGradGradGradGradGradGradGradGradGradGradGradGradGradGradGradGrad

 Leave Link  103 at Mon Feb 21 20:16:05 2022, MaxMem= 16106127360 cpu:               0.5 elap:               0.0
 (Enter /sw/contrib/gaussian/g16/B01/g16/l202.exe)
                          Input orientation:                          
 ---------------------------------------------------------------------
 Center     Atomic      Atomic             Coordinates (Angstroms)
 Number     Number       Type             X           Y           Z
 ---------------------------------------------------------------------
      1          1           0        0.000000    0.000000    0.000000
      2          8           0        0.000000    0.000000    0.968976
      3          8           0        1.442156    0.000000    1.161271
      4          7           0        1.564015    0.000000    2.642656
      5          8           0        2.698130    0.000000    2.933150
 ---------------------------------------------------------------------
                    Distance matrix (angstroms):
                    1          2          3          4          5
     1  H    0.000000
     2  O    0.968976   0.000000
     3  O    1.851584   1.454919   0.000000
     4  N    3.070793   2.290709   1.486388   0.000000
     5  O    3.985383   3.337348   2.171873   1.170729   0.000000
 Stoichiometry    HNO3
 Framework group  CS[SG(HNO3)]
 Deg. of freedom     7
 Full point group                 CS      NOp   2
 Largest Abelian subgroup         CS      NOp   2
 Largest concise Abelian subgroup C1      NOp   1
                         Standard orientation:                         
 ---------------------------------------------------------------------
 Center     Atomic      Atomic             Coordinates (Angstroms)
 Number     Number       Type             X           Y           Z
 ---------------------------------------------------------------------
      1          1           0        1.545671    1.705186    0.000000
      2          8           0        1.453886    0.740567    0.000000
      3          8           0        0.000000    0.685743    0.000000
      4          7           0       -0.261633   -0.777438   -0.000000
      5          8           0       -1.418166   -0.959200   -0.000000
 ---------------------------------------------------------------------
 Rotational constants (GHZ):          53.8075727           4.9414359           4.5258069
 Leave Link  202 at Mon Feb 21 20:16:05 2022, MaxMem= 16106127360 cpu:               0.3 elap:               0.0
 (Enter /sw/contrib/gaussian/g16/B01/g16/l301.exe)
 Standard basis: Aug-CC-pVTZ (5D, 7F)
 Ernie: Thresh=  0.10000D-02 Tol=  0.10000D-05 Strict=F.
 Ernie:  12 primitive shells out of 131 were deleted.
 There are   166 symmetry adapted cartesian basis functions of A'  symmetry.
 There are    79 symmetry adapted cartesian basis functions of A"  symmetry.
 There are   136 symmetry adapted basis functions of A'  symmetry.
 There are    71 symmetry adapted basis functions of A"  symmetry.
   207 basis functions,   315 primitive gaussians,   245 cartesian basis functions
    16 alpha electrons       16 beta electrons
       nuclear repulsion energy       116.1290751090 Hartrees.
 IExCor=    0 DFT=F Ex=HF Corr=None ExCW=0 ScaHFX=  1.000000
 ScaDFX=  1.000000  1.000000  1.000000  1.000000 ScalE2=  1.000000  1.000000
 IRadAn=      5 IRanWt=     -1 IRanGd=            0 ICorTp=0 IEmpDi=  4
 NAtoms=    5 NActive=    5 NUniq=    5 SFac= 1.00D+00 NAtFMM=   60 NAOKFM=F Big=F
 Integral buffers will be    131072 words long.
 Raffenetti 1 integral format.
 Two-electron integral symmetry is turned on.
 Leave Link  301 at Mon Feb 21 20:16:05 2022, MaxMem= 16106127360 cpu:               2.2 elap:               0.1
 (Enter /sw/contrib/gaussian/g16/B01/g16/l302.exe)
 NPDir=0 NMtPBC=     1 NCelOv=     1 NCel=       1 NClECP=     1 NCelD=      1
         NCelK=      1 NCelE2=     1 NClLst=     1 CellRange=     0.0.
 One-electron integrals computed using PRISM.
 One-electron integral symmetry used in STVInt
 NBasis=   207 RedAO= T EigKep=  1.85D-04  NBF=   136    71
 NBsUse=   207 1.00D-06 EigRej= -1.00D+00 NBFU=   136    71
 Leave Link  302 at Mon Feb 21 20:16:05 2022, MaxMem= 16106127360 cpu:               4.3 elap:               0.2
 (Enter /sw/contrib/gaussian/g16/B01/g16/l303.exe)
 DipDrv:  MaxL=1.
 Leave Link  303 at Mon Feb 21 20:16:05 2022, MaxMem= 16106127360 cpu:               0.7 elap:               0.0
 (Enter /sw/contrib/gaussian/g16/B01/g16/l401.exe)
 ExpMin= 2.53D-02 ExpMax= 1.53D+04 ExpMxC= 5.22D+02 IAcc=3 IRadAn=         5 AccDes= 0.00D+00
 Harris functional with IExCor=  205 and IRadAn=       5 diagonalized for initial guess.
 HarFok:  IExCor=  205 AccDes= 0.00D+00 IRadAn=         5 IDoV= 1 UseB2=F ITyADJ=14
 ICtDFT=  3500011 ScaDFX=  1.000000  1.000000  1.000000  1.000000
 FoFCou: FMM=F IPFlag=           0 FMFlag=      100000 FMFlg1=           0
         NFxFlg=           0 DoJE=T BraDBF=F KetDBF=T FulRan=T
         wScrn=  0.000000 ICntrl=       500 IOpCl=  0 I1Cent=   200000004 NGrid=           0
         NMat0=    1 NMatS0=      1 NMatT0=    0 NMatD0=    1 NMtDS0=    0 NMtDT0=    0
 Petite list used in FoFCou.
 Harris En= -279.627564677941    
 JPrj=0 DoOrth=F DoCkMO=F.
 Initial guess orbital symmetries:
       Occupied  (A') (A') (A') (A') (A') (A') (A') (A') (A') (A')
                 (A") (A') (A') (A") (A") (A')
       Virtual   (A") (A') (A') (A') (A') (A') (A") (A') (A') (A')
                 (A") (A') (A") (A') (A') (A") (A') (A") (A') (A')
                 (A') (A') (A') (A') (A') (A") (A') (A") (A') (A')
                 (A") (A') (A") (A') (A') (A") (A') (A") (A') (A')
                 (A") (A') (A") (A') (A") (A') (A') (A') (A") (A")
                 (A') (A') (A') (A') (A") (A') (A") (A') (A") (A')
                 (A') (A') (A") (A') (A') (A") (A') (A") (A') (A')
                 (A") (A') (A') (A") (A") (A') (A') (A") (A') (A')
                 (A') (A") (A') (A") (A') (A") (A') (A") (A') (A')
                 (A') (A") (A') (A") (A') (A") (A") (A') (A') (A')
                 (A") (A') (A") (A') (A') (A') (A") (A') (A") (A')
                 (A") (A') (A') (A') (A") (A') (A') (A') (A") (A')
                 (A") (A') (A') (A") (A") (A') (A') (A") (A") (A')
                 (A') (A') (A') (A") (A") (A') (A") (A') (A') (A')
                 (A') (A") (A") (A') (A') (A") (A') (A') (A') (A')
                 (A') (A") (A') (A") (A') (A") (A') (A") (A") (A')
                 (A') (A") (A') (A") (A') (A") (A") (A") (A') (A')
                 (A") (A') (A") (A') (A') (A") (A") (A") (A') (A')
                 (A') (A') (A') (A') (A') (A') (A') (A') (A') (A')
                 (A')
 The electronic state of the initial guess is 1-A'.
 Leave Link  401 at Mon Feb 21 20:16:05 2022, MaxMem= 16106127360 cpu:               6.0 elap:               0.3
 (Enter /sw/contrib/gaussian/g16/B01/g16/l502.exe)
 Keep R1 ints in memory in symmetry-blocked form, NReq=348887737.
 FoFCou: FMM=F IPFlag=           0 FMFlag=           0 FMFlg1=           0
         NFxFlg=           0 DoJE=F BraDBF=F KetDBF=F FulRan=T
         wScrn=  0.000000 ICntrl=       600 IOpCl=  0 I1Cent=           0 NGrid=           0
         NMat0=    1 NMatS0=  21528 NMatT0=    0 NMatD0=    1 NMtDS0=    0 NMtDT0=    0
 Petite list used in FoFCou.
 Closed shell SCF:
 Using DIIS extrapolation, IDIIS=  1040.
 NGot= 16106127360 LenX= 15988850015 LenY= 15988789549
 Requested convergence on RMS density matrix=1.00D-08 within 128 cycles.
 Requested convergence on MAX density matrix=1.00D-06.
 Requested convergence on             energy=1.00D-06.
 No special actions if energy rises.

 Cycle   1  Pass 1  IDiag  1:
 E= -279.370398672374    
 DIIS: error= 2.74D-02 at cycle   1 NSaved=   1.
 NSaved= 1 IEnMin= 1 EnMin= -279.370398672374     IErMin= 1 ErrMin= 2.74D-02
 ErrMax= 2.74D-02  0.00D+00 EMaxC= 1.00D-01 BMatC= 4.34D-01 BMatP= 4.34D-01
 IDIUse=3 WtCom= 7.26D-01 WtEn= 2.74D-01
 Coeff-Com:  0.100D+01
 Coeff-En:   0.100D+01
 Coeff:      0.100D+01
 Gap=     0.499 Goal=   None    Shift=    0.000
 GapD=    0.499 DampG=2.000 DampE=0.500 DampFc=1.0000 IDamp=-1.
 RMSDP=1.60D-03 MaxDP=1.01D-01              OVMax= 1.06D-01

 Cycle   2  Pass 1  IDiag  1:
 E= -279.452883648503     Delta-E=       -0.082484976129 Rises=F Damp=F
 DIIS: error= 1.75D-02 at cycle   2 NSaved=   2.
 NSaved= 2 IEnMin= 2 EnMin= -279.452883648503     IErMin= 2 ErrMin= 1.75D-02
 ErrMax= 1.75D-02  0.00D+00 EMaxC= 1.00D-01 BMatC= 6.63D-02 BMatP= 4.34D-01
 IDIUse=3 WtCom= 8.25D-01 WtEn= 1.75D-01
 Coeff-Com:  0.185D+00 0.815D+00
 Coeff-En:   0.000D+00 0.100D+01
 Coeff:      0.152D+00 0.848D+00
 Gap=     0.524 Goal=   None    Shift=    0.000
 RMSDP=8.72D-04 MaxDP=3.63D-02 DE=-8.25D-02 OVMax= 7.11D-02

 Cycle   3  Pass 1  IDiag  1:
 E= -279.479538805387     Delta-E=       -0.026655156884 Rises=F Damp=F
 DIIS: error= 1.07D-02 at cycle   3 NSaved=   3.
 NSaved= 3 IEnMin= 3 EnMin= -279.479538805387     IErMin= 3 ErrMin= 1.07D-02
 ErrMax= 1.07D-02  0.00D+00 EMaxC= 1.00D-01 BMatC= 2.74D-02 BMatP= 6.63D-02
 IDIUse=3 WtCom= 8.93D-01 WtEn= 1.07D-01
 Coeff-Com: -0.322D-01 0.382D+00 0.650D+00
 Coeff-En:   0.000D+00 0.244D+00 0.756D+00
 Coeff:     -0.288D-01 0.367D+00 0.661D+00
 Gap=     0.509 Goal=   None    Shift=    0.000
 RMSDP=3.69D-04 MaxDP=1.60D-02 DE=-2.67D-02 OVMax= 3.54D-02

 Cycle   4  Pass 1  IDiag  1:
 E= -279.497698545264     Delta-E=       -0.018159739878 Rises=F Damp=F
 DIIS: error= 1.33D-03 at cycle   4 NSaved=   4.
 NSaved= 4 IEnMin= 4 EnMin= -279.497698545264     IErMin= 4 ErrMin= 1.33D-03
 ErrMax= 1.33D-03  0.00D+00 EMaxC= 1.00D-01 BMatC= 5.24D-04 BMatP= 2.74D-02
 IDIUse=3 WtCom= 9.87D-01 WtEn= 1.33D-02
 Coeff-Com: -0.122D-01 0.663D-01 0.172D+00 0.774D+00
 Coeff-En:   0.000D+00 0.000D+00 0.000D+00 0.100D+01
 Coeff:     -0.121D-01 0.654D-01 0.170D+00 0.777D+00
 Gap=     0.502 Goal=   None    Shift=    0.000
 RMSDP=9.05D-05 MaxDP=2.85D-03 DE=-1.82D-02 OVMax= 1.17D-02

 Cycle   5  Pass 1  IDiag  1:
 E= -279.498404240239     Delta-E=       -0.000705694975 Rises=F Damp=F
 DIIS: error= 7.83D-04 at cycle   5 NSaved=   5.
 NSaved= 5 IEnMin= 5 EnMin= -279.498404240239     IErMin= 5 ErrMin= 7.83D-04
 ErrMax= 7.83D-04  0.00D+00 EMaxC= 1.00D-01 BMatC= 9.23D-05 BMatP= 5.24D-04
 IDIUse=3 WtCom= 9.92D-01 WtEn= 7.83D-03
 Coeff-Com:  0.633D-02-0.759D-01-0.124D+00 0.924D-02 0.118D+01
 Coeff-En:   0.000D+00 0.000D+00 0.000D+00 0.000D+00 0.100D+01
 Coeff:      0.628D-02-0.753D-01-0.123D+00 0.917D-02 0.118D+01
 Gap=     0.502 Goal=   None    Shift=    0.000
 RMSDP=7.99D-05 MaxDP=2.17D-03 DE=-7.06D-04 OVMax= 1.15D-02

 Cycle   6  Pass 1  IDiag  1:
 E= -279.498748196270     Delta-E=       -0.000343956031 Rises=F Damp=F
 DIIS: error= 2.85D-04 at cycle   6 NSaved=   6.
 NSaved= 6 IEnMin= 6 EnMin= -279.498748196270     IErMin= 6 ErrMin= 2.85D-04
 ErrMax= 2.85D-04  0.00D+00 EMaxC= 1.00D-01 BMatC= 1.76D-05 BMatP= 9.23D-05
 IDIUse=3 WtCom= 9.97D-01 WtEn= 2.85D-03
 Coeff-Com:  0.682D-03 0.768D-03 0.360D-02-0.123D+00-0.243D+00 0.136D+01
 Coeff-En:   0.000D+00 0.000D+00 0.000D+00 0.000D+00 0.000D+00 0.100D+01
 Coeff:      0.680D-03 0.766D-03 0.359D-02-0.123D+00-0.243D+00 0.136D+01
 Gap=     0.502 Goal=   None    Shift=    0.000
 RMSDP=4.77D-05 MaxDP=1.33D-03 DE=-3.44D-04 OVMax= 5.80D-03

 Cycle   7  Pass 1  IDiag  1:
 E= -279.498828362399     Delta-E=       -0.000080166129 Rises=F Damp=F
 DIIS: error= 1.42D-04 at cycle   7 NSaved=   7.
 NSaved= 7 IEnMin= 7 EnMin= -279.498828362399     IErMin= 7 ErrMin= 1.42D-04
 ErrMax= 1.42D-04  0.00D+00 EMaxC= 1.00D-01 BMatC= 5.22D-06 BMatP= 1.76D-05
 IDIUse=3 WtCom= 9.99D-01 WtEn= 1.42D-03
 Coeff-Com: -0.974D-03 0.145D-01 0.286D-01-0.242D-01-0.309D+00 0.435D+00
 Coeff-Com:  0.856D+00
 Coeff-En:   0.000D+00 0.000D+00 0.000D+00 0.000D+00 0.000D+00 0.000D+00
 Coeff-En:   0.100D+01
 Coeff:     -0.973D-03 0.145D-01 0.285D-01-0.242D-01-0.308D+00 0.435D+00
 Coeff:      0.856D+00
 Gap=     0.502 Goal=   None    Shift=    0.000
 RMSDP=1.41D-05 MaxDP=4.03D-04 DE=-8.02D-05 OVMax= 1.62D-03

 Cycle   8  Pass 1  IDiag  1:
 E= -279.498838495268     Delta-E=       -0.000010132868 Rises=F Damp=F
 DIIS: error= 5.88D-05 at cycle   8 NSaved=   8.
 NSaved= 8 IEnMin= 8 EnMin= -279.498838495268     IErMin= 8 ErrMin= 5.88D-05
 ErrMax= 5.88D-05  0.00D+00 EMaxC= 1.00D-01 BMatC= 6.69D-07 BMatP= 5.22D-06
 IDIUse=1 WtCom= 1.00D+00 WtEn= 0.00D+00
 Coeff-Com: -0.489D-03 0.384D-02 0.847D-02 0.278D-01-0.404D-01-0.203D+00
 Coeff-Com:  0.144D+00 0.106D+01
 Coeff:     -0.489D-03 0.384D-02 0.847D-02 0.278D-01-0.404D-01-0.203D+00
 Coeff:      0.144D+00 0.106D+01
 Gap=     0.501 Goal=   None    Shift=    0.000
 RMSDP=7.68D-06 MaxDP=2.17D-04 DE=-1.01D-05 OVMax= 8.71D-04

 Cycle   9  Pass 1  IDiag  1:
 E= -279.498840561910     Delta-E=       -0.000002066642 Rises=F Damp=F
 DIIS: error= 1.61D-05 at cycle   9 NSaved=   9.
 NSaved= 9 IEnMin= 9 EnMin= -279.498840561910     IErMin= 9 ErrMin= 1.61D-05
 ErrMax= 1.61D-05  0.00D+00 EMaxC= 1.00D-01 BMatC= 7.15D-08 BMatP= 6.69D-07
 IDIUse=1 WtCom= 1.00D+00 WtEn= 0.00D+00
 Coeff-Com:  0.139D-03-0.190D-02-0.344D-02-0.321D-02 0.356D-01 0.556D-02
 Coeff-Com: -0.159D+00-0.143D+00 0.127D+01
 Coeff:      0.139D-03-0.190D-02-0.344D-02-0.321D-02 0.356D-01 0.556D-02
 Coeff:     -0.159D+00-0.143D+00 0.127D+01
 Gap=     0.502 Goal=   None    Shift=    0.000
 RMSDP=2.04D-06 MaxDP=6.93D-05 DE=-2.07D-06 OVMax= 1.77D-04

 Cycle  10  Pass 1  IDiag  1:
 E= -279.498840731322     Delta-E=       -0.000000169412 Rises=F Damp=F
 DIIS: error= 4.19D-06 at cycle  10 NSaved=  10.
 NSaved=10 IEnMin=10 EnMin= -279.498840731322     IErMin=10 ErrMin= 4.19D-06
 ErrMax= 4.19D-06  0.00D+00 EMaxC= 1.00D-01 BMatC= 5.41D-09 BMatP= 7.15D-08
 IDIUse=1 WtCom= 1.00D+00 WtEn= 0.00D+00
 Coeff-Com:  0.276D-04-0.206D-03-0.249D-03-0.245D-02 0.694D-03 0.183D-01
 Coeff-Com: -0.636D-02-0.689D-01-0.978D-01 0.116D+01
 Coeff:      0.276D-04-0.206D-03-0.249D-03-0.245D-02 0.694D-03 0.183D-01
 Coeff:     -0.636D-02-0.689D-01-0.978D-01 0.116D+01
 Gap=     0.501 Goal=   None    Shift=    0.000
 RMSDP=4.96D-07 MaxDP=2.07D-05 DE=-1.69D-07 OVMax= 3.97D-05

 Cycle  11  Pass 1  IDiag  1:
 E= -279.498840743297     Delta-E=       -0.000000011975 Rises=F Damp=F
 DIIS: error= 2.02D-06 at cycle  11 NSaved=  11.
 NSaved=11 IEnMin=11 EnMin= -279.498840743297     IErMin=11 ErrMin= 2.02D-06
 ErrMax= 2.02D-06  0.00D+00 EMaxC= 1.00D-01 BMatC= 6.35D-10 BMatP= 5.41D-09
 IDIUse=1 WtCom= 1.00D+00 WtEn= 0.00D+00
 Coeff-Com: -0.215D-04 0.248D-03 0.500D-03 0.534D-03-0.408D-02-0.364D-02
 Coeff-Com:  0.187D-01 0.317D-01-0.136D+00-0.152D+00 0.124D+01
 Coeff:     -0.215D-04 0.248D-03 0.500D-03 0.534D-03-0.408D-02-0.364D-02
 Coeff:      0.187D-01 0.317D-01-0.136D+00-0.152D+00 0.124D+01
 Gap=     0.501 Goal=   None    Shift=    0.000
 RMSDP=1.68D-07 MaxDP=5.93D-06 DE=-1.20D-08 OVMax= 1.72D-05

 Cycle  12  Pass 1  IDiag  1:
 E= -279.498840744993     Delta-E=       -0.000000001696 Rises=F Damp=F
 DIIS: error= 6.13D-07 at cycle  12 NSaved=  12.
 NSaved=12 IEnMin=12 EnMin= -279.498840744993     IErMin=12 ErrMin= 6.13D-07
 ErrMax= 6.13D-07  0.00D+00 EMaxC= 1.00D-01 BMatC= 7.63D-11 BMatP= 6.35D-10
 IDIUse=1 WtCom= 1.00D+00 WtEn= 0.00D+00
 Coeff-Com:  0.150D-05-0.324D-04-0.706D-04 0.141D-03 0.115D-02-0.222D-02
 Coeff-Com: -0.416D-02 0.478D-02 0.421D-01-0.124D+00-0.266D+00 0.135D+01
 Coeff:      0.150D-05-0.324D-04-0.706D-04 0.141D-03 0.115D-02-0.222D-02
 Coeff:     -0.416D-02 0.478D-02 0.421D-01-0.124D+00-0.266D+00 0.135D+01
 Gap=     0.501 Goal=   None    Shift=    0.000
 RMSDP=7.16D-08 MaxDP=2.79D-06 DE=-1.70D-09 OVMax= 7.12D-06

 Cycle  13  Pass 1  IDiag  1:
 E= -279.498840745236     Delta-E=       -0.000000000243 Rises=F Damp=F
 DIIS: error= 1.86D-07 at cycle  13 NSaved=  13.
 NSaved=13 IEnMin=13 EnMin= -279.498840745236     IErMin=13 ErrMin= 1.86D-07
 ErrMax= 1.86D-07  0.00D+00 EMaxC= 1.00D-01 BMatC= 4.78D-12 BMatP= 7.63D-11
 IDIUse=1 WtCom= 1.00D+00 WtEn= 0.00D+00
 Coeff-Com:  0.135D-05-0.148D-04-0.236D-04-0.897D-04 0.104D-03 0.816D-03
 Coeff-Com: -0.691D-03-0.352D-02 0.429D-03 0.454D-01-0.416D-01-0.353D+00
 Coeff-Com:  0.135D+01
 Coeff:      0.135D-05-0.148D-04-0.236D-04-0.897D-04 0.104D-03 0.816D-03
 Coeff:     -0.691D-03-0.352D-02 0.429D-03 0.454D-01-0.416D-01-0.353D+00
 Coeff:      0.135D+01
 Gap=     0.501 Goal=   None    Shift=    0.000
 RMSDP=2.08D-08 MaxDP=6.47D-07 DE=-2.43D-10 OVMax= 1.89D-06

 Cycle  14  Pass 1  IDiag  1:
 E= -279.498840745253     Delta-E=       -0.000000000016 Rises=F Damp=F
 DIIS: error= 2.86D-08 at cycle  14 NSaved=  14.
 NSaved=14 IEnMin=14 EnMin= -279.498840745253     IErMin=14 ErrMin= 2.86D-08
 ErrMax= 2.86D-08  0.00D+00 EMaxC= 1.00D-01 BMatC= 2.43D-13 BMatP= 4.78D-12
 IDIUse=1 WtCom= 1.00D+00 WtEn= 0.00D+00
 Coeff-Com: -0.230D-06 0.369D-05 0.673D-05 0.663D-05-0.908D-04 0.411D-04
 Coeff-Com:  0.278D-03 0.309D-03-0.266D-02 0.180D-02 0.182D-01-0.245D-01
 Coeff-Com: -0.215D+00 0.122D+01
 Coeff:     -0.230D-06 0.369D-05 0.673D-05 0.663D-05-0.908D-04 0.411D-04
 Coeff:      0.278D-03 0.309D-03-0.266D-02 0.180D-02 0.182D-01-0.245D-01
 Coeff:     -0.215D+00 0.122D+01
 Gap=     0.501 Goal=   None    Shift=    0.000
 RMSDP=4.21D-09 MaxDP=1.07D-07 DE=-1.64D-11 OVMax= 3.88D-07

 SCF Done:  E(RHF) =  -279.498840745     A.U. after   14 cycles
            NFock= 14  Conv=0.42D-08     -V/T= 2.0025
 KE= 2.788023781624D+02 PE=-8.935776942322D+02 EE= 2.191474002155D+02
 Leave Link  502 at Mon Feb 21 20:16:09 2022, MaxMem= 16106127360 cpu:              53.2 elap:               3.4
 (Enter /sw/contrib/gaussian/g16/B01/g16/l801.exe)
 ExpMin= 2.53D-02 ExpMax= 1.53D+04 ExpMxC= 5.22D+02 IAcc=3 IRadAn=         5 AccDes= 0.00D+00
 HarFok:  IExCor=  205 AccDes= 0.00D+00 IRadAn=         5 IDoV=-2 UseB2=F ITyADJ=14
 ICtDFT= 12500011 ScaDFX=  1.000000  1.000000  1.000000  1.000000
 Largest valence mixing into a core orbital is  2.09D-04
 Largest core mixing into a valence orbital is  3.71D-05
 Range of M.O.s used for correlation:     5   207
 NBasis=   207 NAE=    16 NBE=    16 NFC=     4 NFV=     0
 NROrb=    203 NOA=    12 NOB=    12 NVA=   191 NVB=   191

 **** Warning!!: The largest alpha MO coefficient is  0.17187172D+02

 Leave Link  801 at Mon Feb 21 20:16:09 2022, MaxMem= 16106127360 cpu:               2.1 elap:               0.1
 (Enter /sw/contrib/gaussian/g16/B01/g16/l906.exe)
 Frozen-core derivative calculation, NFC=   4 NFV=   0.
 FulOut=F Deriv=T AODrv=T NAtomX=     5
   MMem=           0  MDisk=          12 MDiskD=          12
  W3Min=      811440 MinDsk=     2425030 NBas6D=         245
 NBas2D=       30762    NTT=       30135    LW2=     7400000
    MDV= 16105574353 MDiskM=      328644 NBas2p=       30702
 Disk-based method using ON**2 memory for 12 occupieds at a time.
 Permanent disk used for amplitudes=    11516536 words.
 Estimated scratch disk usage=   321251614 words.
 IMap=   1   2   3   4   5   6   7   8   9  10  11  12  13  14  15  16
 Actual    scratch disk usage=   310331678 words.
 JobTyp=1 Pass  1:  I=   5 to  16 NPSUse= 28 ParTrn=T ParDer=T DoDerP=T.
 (rs|ai) integrals will be sorted in core.
 Spin components of T(2) and E(2):
     alpha-alpha T2 =       0.3435867237D-01 E2=     -0.1227250663D+00
     alpha-beta  T2 =       0.1888203950D+00 E2=     -0.7022903815D+00
     beta-beta   T2 =       0.3435867237D-01 E2=     -0.1227250663D+00
 The integrals were generated   1 times.
 ANorm=    0.1121399902D+01
 E2 =    -0.9477405140D+00 EUMP2 =    -0.28044658125930D+03
 Leave Link  906 at Mon Feb 21 20:17:45 2022, MaxMem= 16106127360 cpu:            2687.8 elap:              96.1
 (Enter /sw/contrib/gaussian/g16/B01/g16/l1101.exe)
 Using compressed Sx but separate Hx and Fx, NAtomX=     5.
 Will process      6 centers per pass.
 Leave Link 1101 at Mon Feb 21 20:17:45 2022, MaxMem= 16106127360 cpu:               5.2 elap:               0.2
 (Enter /sw/contrib/gaussian/g16/B01/g16/l1102.exe)
 Leave Link 1102 at Mon Feb 21 20:17:45 2022, MaxMem= 16106127360 cpu:               1.3 elap:               0.1
 (Enter /sw/contrib/gaussian/g16/B01/g16/l1110.exe)
 Forming Gx(P) for the SCF density, NAtomX=     5.
 Integral derivatives from FoFJK, PRISM(SPDF).
 Do as many integral derivatives as possible in FoFJK.
 G2DrvN: MDV=   16106126844.
 G2DrvN: will do     6 centers at a time, making    1 passes.
 Calling FoFCou, ICntrl=  3107 FMM=F I1Cent=   0 AccDes= 0.00D+00.
 FoFJK:  IHMeth= 1 ICntrl=    3107 DoSepK=F KAlg= 0 I1Cent=           0 FoldK=F
 IRaf=         0 NMat=       1 IRICut=       1 DoRegI=T DoRafI=F ISym2E= 1 IDoP0=0 IntGTp=1.
 FoFCou: FMM=F IPFlag=           0 FMFlag=      100000 FMFlg1=           0
         NFxFlg=           0 DoJE=F BraDBF=F KetDBF=F FulRan=T
         wScrn=  0.000000 ICntrl=      3107 IOpCl=  0 I1Cent=           0 NGrid=           0
         NMat0=    1 NMatS0=      1 NMatT0=    0 NMatD0=    1 NMtDS0=    0 NMtDT0=    0
 Petite list used in FoFCou.
 End of G2Drv F.D. properties file   721 does not exist.
 End of G2Drv F.D. properties file   722 does not exist.
 End of G2Drv F.D. properties file   788 does not exist.
 Leave Link 1110 at Mon Feb 21 20:17:48 2022, MaxMem= 16106127360 cpu:              82.9 elap:               3.0
 (Enter /sw/contrib/gaussian/g16/B01/g16/l1002.exe)
 Minotr:  Closed shell wavefunction.
          IDoAtm=11111
          Frozen-core window.
          Direct CPHF calculation.
          Differentiating once with respect to electric field.
                with respect to dipole field.
          Differentiating once with respect to nuclear coordinates.
          Requested convergence is 1.0D-08 RMS, and 1.0D-07 maximum.
          Secondary convergence is 1.0D-12 RMS, and 1.0D-12 maximum.
          NewPWx=T KeepS1=T KeepF1=T KeepIn=T MapXYZ=F SortEE=F KeepMc=T.
 Keep R1 ints in memory in symmetry-blocked form, NReq=348888983.
 FoFCou: FMM=F IPFlag=           0 FMFlag=           0 FMFlg1=           0
         NFxFlg=           0 DoJE=F BraDBF=F KetDBF=F FulRan=T
         wScrn=  0.000000 ICntrl=       600 IOpCl=  0 I1Cent=           0 NGrid=           0
         NMat0=    1 NMatS0=  21528 NMatT0=    0 NMatD0=    1 NMtDS0=    0 NMtDT0=    0
 Petite list used in FoFCou.
          MDV=   16106127360 using IRadAn=       1.
          Solving linear equations simultaneously, MaxMat=       0.
          There are    18 degrees of freedom in the 1st order CPHF.  IDoFFX=6 NUNeed=    18.
     15 vectors produced by pass  0 Test12= 1.70D-14 5.56D-09 XBig12= 8.34D+00 1.10D+00.
 AX will form    15 AO Fock derivatives at one time.
     15 vectors produced by pass  1 Test12= 1.70D-14 5.56D-09 XBig12= 1.38D+00 2.53D-01.
     15 vectors produced by pass  2 Test12= 1.70D-14 5.56D-09 XBig12= 1.49D-01 1.02D-01.
     15 vectors produced by pass  3 Test12= 1.70D-14 5.56D-09 XBig12= 5.26D-03 1.19D-02.
     15 vectors produced by pass  4 Test12= 1.70D-14 5.56D-09 XBig12= 1.03D-04 1.98D-03.
     15 vectors produced by pass  5 Test12= 1.70D-14 5.56D-09 XBig12= 1.50D-06 1.89D-04.
     15 vectors produced by pass  6 Test12= 1.70D-14 5.56D-09 XBig12= 1.18D-08 1.49D-05.
     13 vectors produced by pass  7 Test12= 1.70D-14 5.56D-09 XBig12= 8.77D-11 1.31D-06.
      3 vectors produced by pass  8 Test12= 1.70D-14 5.56D-09 XBig12= 6.03D-13 1.16D-07.
      2 vectors produced by pass  9 Test12= 1.70D-14 5.56D-09 XBig12= 3.80D-15 9.79D-09.
 InvSVY:  IOpt=1 It=  1 EMax= 7.77D-16
 Solved reduced A of dimension   123 with    15 vectors.
 FullF1:  Do perturbations      1 to      18.
 Saving first derivative matrices.
 End of Minotr F.D. properties file   721 does not exist.
 End of Minotr F.D. properties file   722 does not exist.
 End of Minotr F.D. properties file   788 does not exist.
 Leave Link 1002 at Mon Feb 21 20:17:51 2022, MaxMem= 16106127360 cpu:              80.0 elap:               2.9
 (Enter /sw/contrib/gaussian/g16/B01/g16/l811.exe)
 MDV= 16106127360.
 Form MO integral derivatives with frozen-active canonical formalism.
 MOERI=1 MOERIx=1 NAtoms=     5 NAtomX=     5.
 Discarding MO integrals.
 MO basis two electron integral derivatives will not be stored on disk.
 IAlg= 3 DoFC=T DoPWx=T Debug=F.
 Frozen-core window:  NFC=   4 NFV=   0.
 Reordered first order wavefunction length =     18678272
 In DefCFB: NBatch=  1 ICI= 16 ICA=191 LFMax= 96
            Large arrays: LIAPS=   619940160 LIARS=   288257200 words.
 In StABat: MaxSiz= 55 MinSiz= 25 NAtomB=  5
 DoIAMN: NPSUse= 28.
 Leave Link  811 at Mon Feb 21 20:19:13 2022, MaxMem= 16106127360 cpu:            2291.0 elap:              82.0
 (Enter /sw/contrib/gaussian/g16/B01/g16/l804.exe)
 Frozen-core window:  NFC=   4 NFV=   0.
 Closed-shell transformation, MDV= 16106127360 ITran=4 ISComp=1.
 Semi-Direct transformation.
 ModeAB=           2 MOrb=            16 LenV=   16104923149
 LASXX=     67341636 LTotXX=    67341636 LenRXX=    67341636
 LTotAB=    68301760 MaxLAS=    99807120 LenRXY=    99807120
 NonZer=   134683272 LenScr=   202817536 LnRSAI=           0
 LnScr1=           0 LExtra=           0 Total=    369966292
 MaxDsk=          -1 SrtSym=           F ITran=            4
 DoSDTr:  NPSUse= 28
 JobTyp=0 Pass  1:  I=   1 to  16.
 (rs|ai) integrals will be sorted in core.
 Complete sort for first half transformation.
 First half transformation complete.
 Begin second half transformation for I=  10.
 Begin second half transformation for I=  10.
 Complete sort for second half transformation.
 Second half transformation complete.
 Spin components of T(2) and E(2):
     alpha-alpha T2 =       0.3435867237D-01 E2=     -0.1227250663D+00
     alpha-beta  T2 =       0.1888203950D+00 E2=     -0.7022903815D+00
     beta-beta   T2 =       0.3435867237D-01 E2=     -0.1227250663D+00
 ANorm=    0.1585898950D+01
 E2 =    -0.9477405140D+00 EUMP2 =    -0.28044658125930D+03
 Leave Link  804 at Mon Feb 21 20:19:29 2022, MaxMem= 16106127360 cpu:             437.2 elap:              15.7
 (Enter /sw/contrib/gaussian/g16/B01/g16/l1002.exe)
 Minotr:  Closed shell wavefunction.
          Computing MP2/KS-MP2 derivatives.
          Using Z-Vector for PSCF gradient.
          Skipping F1 and S1 gradient terms here.
          IDoAtm=11111
          Frozen-core window.
          Using MO integrals in the linear equations.
          Forming densities via direct SCF.
          Differentiating once with respect to electric field.
                with respect to dipole field.
          Differentiating once with respect to nuclear coordinates.
          Using symmetry in CPHF.
          Requested convergence is 1.0D-10 RMS, and 1.0D-09 maximum.
          NewPWx=F KeepS1=T KeepF1=T KeepIn=T MapXYZ=F SortEE=F KeepMc=T.
          MDV=   16106127360 using IRadAn=       5.
          Solving linear equations separately, MaxMat=       0.
          There are     1 degrees of freedom in the 1st order CPHF.  IDoFFX=0 NUNeed=     1.
 FoFJK:  IHMeth= 1 ICntrl=       0 DoSepK=F KAlg= 0 I1Cent=           0 FoldK=F
 IRaf=         0 NMat=       1 IRICut=       1 DoRegI=T DoRafI=F ISym2E= 0 IDoP0=0 IntGTp=1.
 FoFCou: FMM=F IPFlag=           0 FMFlag=      100000 FMFlg1=           0
         NFxFlg=           0 DoJE=F BraDBF=F KetDBF=F FulRan=T
         wScrn=  0.000000 ICntrl=         0 IOpCl=  0 I1Cent=           0 NGrid=           0
         NMat0=    1 NMatS0=      1 NMatT0=    0 NMatD0=    1 NMtDS0=    0 NMtDT0=    0
 Symmetry not used in FoFCou.
 LinEq1:  Iter=  0 NonCon=     1 RMS=6.06D-03 Max=1.32D-01 NDo=     1
 LinEq1:  Iter=  1 NonCon=     1 RMS=1.99D-03 Max=4.01D-02 NDo=     1
 LinEq1:  Iter=  2 NonCon=     1 RMS=9.09D-04 Max=1.45D-02 NDo=     1
 LinEq1:  Iter=  3 NonCon=     1 RMS=4.06D-04 Max=7.83D-03 NDo=     1
 LinEq1:  Iter=  4 NonCon=     1 RMS=1.26D-04 Max=1.88D-03 NDo=     1
 LinEq1:  Iter=  5 NonCon=     1 RMS=4.74D-05 Max=7.49D-04 NDo=     1
 LinEq1:  Iter=  6 NonCon=     1 RMS=2.11D-05 Max=2.44D-04 NDo=     1
 LinEq1:  Iter=  7 NonCon=     1 RMS=8.62D-06 Max=1.76D-04 NDo=     1
 LinEq1:  Iter=  8 NonCon=     1 RMS=3.64D-06 Max=3.79D-05 NDo=     1
 LinEq1:  Iter=  9 NonCon=     1 RMS=9.95D-07 Max=1.51D-05 NDo=     1
 LinEq1:  Iter= 10 NonCon=     1 RMS=2.02D-07 Max=2.26D-06 NDo=     1
 LinEq1:  Iter= 11 NonCon=     1 RMS=3.85D-08 Max=4.52D-07 NDo=     1
 LinEq1:  Iter= 12 NonCon=     1 RMS=9.28D-09 Max=1.43D-07 NDo=     1
 LinEq1:  Iter= 13 NonCon=     1 RMS=1.64D-09 Max=2.94D-08 NDo=     1
 LinEq1:  Iter= 14 NonCon=     1 RMS=3.02D-10 Max=4.53D-09 NDo=     1
 LinEq1:  Iter= 15 NonCon=     0 RMS=5.44D-11 Max=6.46D-10 NDo=     1
 Linear equations converged to 1.000D-10 1.000D-09 after    15 iterations.
 End of Minotr F.D. properties file   721 does not exist.
 End of Minotr F.D. properties file   722 does not exist.
 End of Minotr F.D. properties file   788 does not exist.
 Leave Link 1002 at Mon Feb 21 20:19:31 2022, MaxMem= 16106127360 cpu:              63.5 elap:               2.3
 (Enter /sw/contrib/gaussian/g16/B01/g16/l1102.exe)
 Use density number 2.
 Symmetrizing basis deriv contribution to polar:
 IMax=3 JMax=2 DiffMx= 0.00D+00
 Leave Link 1102 at Mon Feb 21 20:19:31 2022, MaxMem= 16106127360 cpu:               1.5 elap:               0.1
 (Enter /sw/contrib/gaussian/g16/B01/g16/l1110.exe)
 Forming Gx(P) for generalized density number  2 NAtomX=     5.
 Integral derivatives from FoFJK, PRISM(SPDF).
 Do as many integral derivatives as possible in FoFJK.
 G2DrvN: MDV=   16106126844.
 G2DrvN: will do     6 centers at a time, making    1 passes.
 Calling FoFCou, ICntrl=  3107 FMM=F I1Cent=   0 AccDes= 0.00D+00.
 FoFJK:  IHMeth= 1 ICntrl=    3107 DoSepK=F KAlg= 0 I1Cent=           0 FoldK=F
 IRaf=         0 NMat=       1 IRICut=       1 DoRegI=T DoRafI=F ISym2E= 1 IDoP0=0 IntGTp=1.
 FoFCou: FMM=F IPFlag=           0 FMFlag=      100000 FMFlg1=           0
         NFxFlg=           0 DoJE=F BraDBF=F KetDBF=F FulRan=T
         wScrn=  0.000000 ICntrl=      3107 IOpCl=  0 I1Cent=           0 NGrid=           0
         NMat0=    1 NMatS0=      1 NMatT0=    0 NMatD0=    1 NMtDS0=    0 NMtDT0=    0
 Petite list used in FoFCou.
 End of G2Drv F.D. properties file   721 does not exist.
 End of G2Drv F.D. properties file   722 does not exist.
 End of G2Drv F.D. properties file   788 does not exist.
 Leave Link 1110 at Mon Feb 21 20:19:34 2022, MaxMem= 16106127360 cpu:              83.4 elap:               3.0
 (Enter /sw/contrib/gaussian/g16/B01/g16/l1112.exe)
 MP22nd: MDV=   16106127360
 This link is doing NAtomX=     5 total of    18 degrees of freedom.
 Using ON3 I/O method in MakUI.
 Frozen-core window:  NFC=   4 NFV=   0.
 Using Ix for Sx.
 Use MO integrals over full window.
 Using OV2 memory method for fx*t*t/D, MaxI=    16 DoOO2=F NP=  28.
 R2 and R3 integrals will be kept in memory, NReq=   915591705.
 FoFCou: FMM=F IPFlag=           0 FMFlag=           0 FMFlg1=           0
         NFxFlg=           0 DoJE=F BraDBF=F KetDBF=F FulRan=T
         wScrn=  0.000000 ICntrl=       600 IOpCl=  0 I1Cent=           0 NGrid=           0
         NMat0=    1 NMatS0=      1 NMatT0=    0 NMatD0=    1 NMtDS0=    0 NMtDT0=    0
 Symmetry not used in FoFCou.
 DD1Dir will call FoFMem   1 times, MxPair=       272
 NAB=   136 NAA=     0 NBB=     0.
 Symmetry is being used.
 FoFJK:  IHMeth= 1 ICntrl=       0 DoSepK=F KAlg= 0 I1Cent=           0 FoldK=F
 IRaf=         0 NMat=      18 IRICut=      45 DoRegI=T DoRafI=T ISym2E= 2 IDoP0=3 IntGTp=3.
 Discarding MO integrals.
 Leave Link 1112 at Mon Feb 21 20:20:09 2022, MaxMem= 16106127360 cpu:             950.2 elap:              34.3
 (Enter /sw/contrib/gaussian/g16/B01/g16/l601.exe)
 Copying SCF densities to generalized density rwf, IOpCl= 0 IROHF=0.

 **********************************************************************

            Population analysis using the MP2 Density.

 **********************************************************************

 Orbital symmetries:
       Occupied  (A') (A') (A') (A') (A') (A') (A') (A') (A') (A')
                 (A") (A') (A") (A') (A") (A')
       Virtual   (A') (A") (A') (A') (A") (A') (A') (A') (A") (A')
                 (A") (A') (A') (A') (A") (A') (A') (A") (A') (A')
                 (A') (A') (A') (A') (A") (A') (A') (A") (A') (A')
                 (A") (A') (A") (A') (A') (A") (A') (A') (A") (A')
                 (A") (A') (A") (A') (A') (A") (A') (A') (A") (A')
                 (A") (A') (A') (A') (A") (A') (A") (A') (A") (A')
                 (A') (A') (A") (A') (A') (A") (A') (A") (A') (A')
                 (A") (A') (A') (A") (A") (A') (A') (A") (A') (A')
                 (A') (A") (A') (A") (A') (A") (A') (A") (A') (A')
                 (A") (A') (A') (A") (A') (A") (A') (A") (A') (A')
                 (A") (A') (A") (A') (A') (A") (A') (A') (A") (A')
                 (A") (A') (A') (A') (A") (A') (A') (A') (A") (A')
                 (A") (A') (A") (A') (A') (A") (A") (A') (A") (A')
                 (A') (A') (A') (A") (A") (A") (A') (A') (A') (A')
                 (A") (A') (A") (A') (A') (A") (A') (A') (A') (A')
                 (A") (A') (A') (A") (A') (A") (A') (A") (A') (A")
                 (A') (A") (A') (A') (A") (A") (A") (A') (A") (A')
                 (A") (A') (A") (A') (A") (A') (A") (A') (A") (A')
                 (A') (A') (A') (A') (A') (A') (A') (A') (A') (A')
                 (A')
 The electronic state is 1-A'.
 Alpha  occ. eigenvalues --  -20.69081 -20.68622 -20.65660 -15.81730  -1.62317
 Alpha  occ. eigenvalues --   -1.49167  -1.24619  -0.95031  -0.77063  -0.75615
 Alpha  occ. eigenvalues --   -0.70742  -0.68076  -0.62176  -0.58791  -0.48226
 Alpha  occ. eigenvalues --   -0.47111
 Alpha virt. eigenvalues --    0.03039   0.06812   0.08541   0.10139   0.13379
 Alpha virt. eigenvalues --    0.13413   0.14466   0.15508   0.17886   0.19401
 Alpha virt. eigenvalues --    0.19967   0.20219   0.22152   0.23659   0.23707
 Alpha virt. eigenvalues --    0.26518   0.28304   0.30449   0.30973   0.34139
 Alpha virt. eigenvalues --    0.34881   0.38692   0.42299   0.43261   0.52596
 Alpha virt. eigenvalues --    0.52802   0.55554   0.58012   0.62392   0.63671
 Alpha virt. eigenvalues --    0.67343   0.68450   0.70728   0.71171   0.72444
 Alpha virt. eigenvalues --    0.73135   0.74572   0.78984   0.79305   0.80923
 Alpha virt. eigenvalues --    0.81470   0.82937   0.86612   0.90818   0.92299
 Alpha virt. eigenvalues --    0.92430   0.95920   0.97367   0.98577   1.01882
 Alpha virt. eigenvalues --    1.05088   1.05336   1.07991   1.11553   1.13854
 Alpha virt. eigenvalues --    1.18807   1.21991   1.23200   1.33578   1.34525
 Alpha virt. eigenvalues --    1.38908   1.44916   1.48759   1.50992   1.53618
 Alpha virt. eigenvalues --    1.56355   1.57471   1.61186   1.66182   1.66966
 Alpha virt. eigenvalues --    1.70058   1.79290   1.82980   1.83003   1.87908
 Alpha virt. eigenvalues --    1.90672   1.95574   1.98668   2.00218   2.06929
 Alpha virt. eigenvalues --    2.11769   2.12821   2.15329   2.21907   2.26170
 Alpha virt. eigenvalues --    2.26688   2.28701   2.31359   2.33731   2.38604
 Alpha virt. eigenvalues --    2.42020   2.42237   2.45154   2.46000   2.47192
 Alpha virt. eigenvalues --    2.49719   2.59201   2.59458   2.61430   2.62227
 Alpha virt. eigenvalues --    2.63681   2.66493   2.75294   2.81119   2.84333
 Alpha virt. eigenvalues --    2.87415   2.89576   2.90115   2.95655   3.01531
 Alpha virt. eigenvalues --    3.05664   3.11429   3.20589   3.22412   3.31194
 Alpha virt. eigenvalues --    3.33434   3.51242   3.63331   3.82527   3.83857
 Alpha virt. eigenvalues --    4.14832   4.17033   4.18062   4.24595   4.35192
 Alpha virt. eigenvalues --    4.39281   4.46528   4.51559   4.65200   4.70600
 Alpha virt. eigenvalues --    4.79704   4.80836   4.83246   4.89270   5.01394
 Alpha virt. eigenvalues --    5.06944   5.09126   5.14580   5.17087   5.23592
 Alpha virt. eigenvalues --    5.26209   5.30267   5.32818   5.34376   5.59728
 Alpha virt. eigenvalues --    5.66856   5.75230   5.83098   5.94382   6.15659
 Alpha virt. eigenvalues --    6.30848   6.32734   6.39076   6.48695   6.49963
 Alpha virt. eigenvalues --    6.61270   6.66910   6.69164   6.76187   6.76350
 Alpha virt. eigenvalues --    6.82414   6.88991   7.00720   7.05268   7.05959
 Alpha virt. eigenvalues --    7.09047   7.11615   7.14231   7.18056   7.21111
 Alpha virt. eigenvalues --    7.24331   7.31250   7.32075   7.33892   7.39094
 Alpha virt. eigenvalues --    7.41760   7.47729   7.59828   7.60347   7.61255
 Alpha virt. eigenvalues --    7.65323   7.77823   7.88062   8.06170   8.30180
 Alpha virt. eigenvalues --    8.40860   8.53155  13.33831  14.25087  15.14008
 Alpha virt. eigenvalues --   16.10167
          Condensed to atoms (all electrons):
               1          2          3          4          5
     1  H    0.590068   0.128563   0.019855   0.012202  -0.000671
     2  O    0.128563   8.321899  -0.175859  -0.085938   0.014818
     3  O    0.019855  -0.175859   8.476634  -0.121730  -0.033982
     4  N    0.012202  -0.085938  -0.121730   6.947454  -0.051624
     5  O   -0.000671   0.014818  -0.033982  -0.051624   8.252676
 Mulliken charges:
               1
     1  H    0.249983
     2  O   -0.203483
     3  O   -0.164919
     4  N    0.299636
     5  O   -0.181217
 Sum of Mulliken charges =  -0.00000
 Mulliken charges with hydrogens summed into heavy atoms:
               1
     2  O    0.046500
     3  O   -0.164919
     4  N    0.299636
     5  O   -0.181217
 APT charges:
               1
     1  H    0.298113
     2  O   -0.294343
     3  O   -0.508254
     4  N    0.889721
     5  O   -0.385237
 Sum of APT charges =  -0.00000
 APT charges with hydrogens summed into heavy atoms:
               1
     2  O    0.003770
     3  O   -0.508254
     4  N    0.889721
     5  O   -0.385237
 Electronic spatial extent (au):  <R**2>=            255.7825
 Charge=             -0.0000 electrons
 Dipole moment (field-independent basis, Debye):
    X=              0.3839    Y=              1.2000    Z=              0.0000  Tot=              1.2599
 Quadrupole moment (field-independent basis, Debye-Ang):
   XX=            -22.4221   YY=            -18.4973   ZZ=            -22.0497
   XY=              3.3079   XZ=              0.0000   YZ=             -0.0000
 Traceless Quadrupole moment (field-independent basis, Debye-Ang):
   XX=             -1.4324   YY=              2.4924   ZZ=             -1.0600
   XY=              3.3079   XZ=              0.0000   YZ=             -0.0000
 Octapole moment (field-independent basis, Debye-Ang**2):
  XXX=              2.3243  YYY=             11.2365  ZZZ=             -0.0000  XYY=              7.8607
  XXY=              6.3497  XXZ=              0.0000  XZZ=             -1.6236  YZZ=             -0.9609
  YYZ=              0.0000  XYZ=              0.0000
 Hexadecapole moment (field-independent basis, Debye-Ang**3):
 XXXX=           -158.3221 YYYY=            -92.4548 ZZZZ=            -18.3256 XXXY=            -37.5739
 XXXZ=              0.0000 YYYX=            -31.1716 YYYZ=             -0.0000 ZZZX=             -0.0000
 ZZZY=             -0.0000 XXYY=            -34.3038 XXZZ=            -30.8583 YYZZ=            -21.2600
 XXYZ=             -0.0000 YYXZ=             -0.0000 ZZXY=            -15.3554
 N-N= 1.161290751090D+02 E-N=-8.943838143823D+02  KE= 2.801650195125D+02
 Symmetry A'   KE= 2.662026231908D+02
 Symmetry A"   KE= 1.396239632175D+01
  Exact polarizability:  33.988   9.627  30.830  -0.000   0.000  18.023
 Approx polarizability:  29.142   5.298  24.164  -0.000   0.000  15.564
 No NMR shielding tensors so no spin-rotation constants.
 Leave Link  601 at Mon Feb 21 20:20:09 2022, MaxMem= 16106127360 cpu:               4.4 elap:               0.2
 (Enter /sw/contrib/gaussian/g16/B01/g16/l701.exe)
 ... and contract with generalized density number  2.
 Compute integral second derivatives.
 Leave Link  701 at Mon Feb 21 20:20:09 2022, MaxMem= 16106127360 cpu:               6.6 elap:               0.3
 (Enter /sw/contrib/gaussian/g16/B01/g16/l702.exe)
 L702 exits ... SP integral derivatives will be done elsewhere.
 Leave Link  702 at Mon Feb 21 20:20:09 2022, MaxMem= 16106127360 cpu:               0.5 elap:               0.0
 (Enter /sw/contrib/gaussian/g16/B01/g16/l703.exe)
 Integral derivatives from FoFJK, PRISM(SPDF).
 Compute integral second derivatives, UseDBF=F ICtDFT=           0.
 Calling FoFJK, ICntrl=  10100127 FMM=F ISym2X=1 I1Cent= 0 IOpClX= 0 NMat=1 NMatS=1 NMatT=0.
 FoFJK:  IHMeth= 1 ICntrl=10100127 DoSepK=F KAlg= 0 I1Cent=           0 FoldK=F
 IRaf=         0 NMat=       1 IRICut=       1 DoRegI=T DoRafI=F ISym2E= 1 IDoP0=0 IntGTp=1.
 FoFCou: FMM=F IPFlag=           0 FMFlag=      100000 FMFlg1=         800
         NFxFlg=           0 DoJE=F BraDBF=F KetDBF=F FulRan=T
         wScrn=  0.000000 ICntrl=  10100127 IOpCl=  0 I1Cent=           0 NGrid=           0
         NMat0=    1 NMatS0=      1 NMatT0=    0 NMatD0=    1 NMtDS0=    0 NMtDT0=    0
 Petite list used in FoFCou.
 Leave Link  703 at Mon Feb 21 20:20:24 2022, MaxMem= 16106127360 cpu:             421.1 elap:              15.1
 (Enter /sw/contrib/gaussian/g16/B01/g16/l716.exe)
 Dipole        = 1.51047319D-01 4.72110813D-01 9.23148601D-32
 Polarizability= 3.39884878D+01 9.62698382D+00 3.08298426D+01
                -1.76796884D-30 3.71943468D-30 1.80229376D+01
 Full mass-weighted force constant matrix:
 Low frequencies --- -276.7716   -0.0015   -0.0012   -0.0012   41.0450   46.5119
 Low frequencies ---   75.8853  241.3428  331.7093
 ******    1 imaginary frequencies (negative Signs) ****** 
 Diagonal vibrational polarizability:
       17.2183854      32.8701781      44.3729757
 Harmonic frequencies (cm**-1), IR intensities (KM/Mole), Raman scattering
 activities (A**4/AMU), depolarization ratios for plane and unpolarized
 incident light, reduced masses (AMU), force constants (mDyne/A),
 and normal coordinates:
                      1                      2                      3
                     A"                     A"                     A'
 Frequencies --   -276.7034               240.1225               331.6460
 Red. masses --      1.1330                10.8683                 8.5093
 Frc consts  --      0.0511                 0.3692                 0.5514
 IR Inten    --    125.3636                 0.6639                11.6651
  Atom  AN      X      Y      Z        X      Y      Z        X      Y      Z
     1   1    -0.00   0.00   1.00    -0.00   0.00  -0.55     0.56  -0.42  -0.00
     2   8     0.00   0.00  -0.06     0.00   0.00  -0.32    -0.07  -0.36  -0.00
     3   8     0.00  -0.00  -0.04     0.00  -0.00   0.33    -0.13   0.46   0.00
     4   7    -0.00  -0.00   0.05    -0.00  -0.00   0.53     0.02   0.22   0.00
     5   8    -0.00   0.00  -0.01    -0.00   0.00  -0.45     0.15  -0.26  -0.00
                      4                      5                      6
                     A'                     A'                     A'
 Frequencies --    400.0879               769.7937               962.8436
 Red. masses --     12.5245                13.1563                15.5249
 Frc consts  --      1.1812                 4.5934                 8.4799
 IR Inten    --    213.9156               151.9775                19.9576
  Atom  AN      X      Y      Z        X      Y      Z        X      Y      Z
     1   1    -0.36  -0.23   0.00    -0.32   0.19  -0.00    -0.14  -0.05  -0.00
     2   8    -0.31  -0.24  -0.00     0.43   0.09  -0.00    -0.54   0.03  -0.00
     3   8    -0.20  -0.41   0.00    -0.04  -0.24   0.00     0.75  -0.02   0.00
     4   7     0.35   0.46   0.00    -0.16   0.61   0.00    -0.11   0.23   0.00
     5   8     0.22   0.26  -0.00    -0.22  -0.40  -0.00    -0.11  -0.21  -0.00
                      7                      8                      9
                     A'                     A'                     A'
 Frequencies --   1366.1295              1665.3814              3778.0635
 Red. masses --      1.1298                13.3289                 1.0676
 Frc consts  --      1.2424                21.7808                 8.9780
 IR Inten    --    148.0835               154.3736                82.9384
  Atom  AN      X      Y      Z        X      Y      Z        X      Y      Z
     1   1     0.99  -0.05   0.00    -0.33   0.00  -0.00     0.10   0.99  -0.00
     2   8    -0.03   0.05   0.00    -0.00  -0.04   0.00    -0.01  -0.06   0.00
     3   8    -0.02  -0.05  -0.00     0.00   0.15   0.00     0.00   0.00   0.00
     4   7     0.02   0.01  -0.00     0.71  -0.05  -0.00    -0.00  -0.00  -0.00
     5   8    -0.03  -0.01   0.00    -0.60  -0.07  -0.00     0.00   0.00  -0.00

 -------------------
 - Thermochemistry -
 -------------------
 Temperature   298.150 Kelvin.  Pressure   1.00000 Atm.
 Atom     1 has atomic number  1 and mass   1.00783
 Atom     2 has atomic number  8 and mass  15.99491
 Atom     3 has atomic number  8 and mass  15.99491
 Atom     4 has atomic number  7 and mass  14.00307
 Atom     5 has atomic number  8 and mass  15.99491
 Molecular mass:    62.99564 amu.
 Principal axes and moments of inertia in atomic units:
                           1         2         3
     Eigenvalues --    33.54065 365.22607 398.76672
           X            0.80316  -0.59576   0.00000
           Y            0.59576   0.80316   0.00000
           Z            0.00000  -0.00000   1.00000
 This molecule is an asymmetric top.
 Rotational symmetry number  1.
 Rotational temperatures (Kelvin)      2.58236     0.23715     0.21720
 Rotational constants (GHZ):          53.80757     4.94144     4.52581
    1 imaginary frequencies ignored.
 Zero-point vibrational energy      56906.8 (Joules/Mol)
                                   13.60104 (Kcal/Mol)
 Warning -- explicit consideration of   3 degrees of freedom as
           vibrations may cause significant error
 Vibrational temperatures:    345.48   477.16   575.64  1107.56  1385.32
          (Kelvin)           1965.56  2396.11  5435.79
 
 Zero-point correction=                           0.021675 (Hartree/Particle)
 Thermal correction to Energy=                    0.025840
 Thermal correction to Enthalpy=                  0.026784
 Thermal correction to Gibbs Free Energy=        -0.004494
 Sum of electronic and zero-point Energies=           -280.424907
 Sum of electronic and thermal Energies=              -280.420741
 Sum of electronic and thermal Enthalpies=            -280.419797
 Sum of electronic and thermal Free Energies=         -280.451076
 
                     E (Thermal)             CV                S
                      KCal/Mol        Cal/Mol-Kelvin    Cal/Mol-Kelvin
 Total                   16.215             12.105             65.831
 Electronic               0.000              0.000              0.000
 Translational            0.889              2.981             38.341
 Rotational               0.889              2.981             23.106
 Vibrational             14.437              6.143              4.385
 Vibration     1          0.657              1.779              1.802
 Vibration     2          0.714              1.612              1.252
 Vibration     3          0.766              1.470              0.962
                       Q            Log10(Q)             Ln(Q)
 Total Bot       0.116746D+03          2.067242          4.760001
 Total V=0       0.108862D+13         12.036877         27.715933
 Vib (Bot)       0.237438D-09         -9.624449        -22.161113
 Vib (Bot)    1  0.816540D+00         -0.088022         -0.202679
 Vib (Bot)    2  0.562819D+00         -0.249631         -0.574798
 Vib (Bot)    3  0.445464D+00         -0.351188         -0.808639
 Vib (V=0)       0.221404D+01          0.345185          0.794818
 Vib (V=0)    1  0.145746D+01          0.163598          0.376698
 Vib (V=0)    2  0.125284D+01          0.097895          0.225411
 Vib (V=0)    3  0.116966D+01          0.068058          0.156709
 Electronic      0.100000D+01          0.000000          0.000000
 Translational   0.196526D+08          7.293420         16.793719
 Rotational      0.250191D+05          4.398272         10.127395
 
                                                                title
                                                             IR Spectrum
 
     3                                                                       1         1                                             
     7                                                                       6         3            9      7           4 3  2        
     7                                                                       6         6            6      7           0 3  4        
     8                                                                       5         6            3      0           0 2  0        
 
     X                                                                       X         X            X      X           X X  X        
     X                                                                       X         X            X      X           X             
     X                                                                       X         X                   X           X             
     X                                                                       X         X                   X           X             
     X                                                                       X         X                   X           X             
     X                                                                       X         X                   X           X             
     X                                                                       X         X                   X           X             
     X                                                                       X         X                   X           X             
                                                                             X         X                   X           X             
                                                                             X         X                   X           X             
                                                                             X         X                   X           X             
                                                                             X         X                   X           X             
                                                                             X         X                   X           X             
                                                                             X         X                   X           X             
                                                                                                                       X             
                                                                                                                       X             
                                                                                                                       X             
                                                                                                                       X             
                                                                                                                       X             
                                                                                                                       X             
 
 ***** Axes restored to original set *****
 -------------------------------------------------------------------
 Center     Atomic                   Forces (Hartrees/Bohr)
 Number     Number              X              Y              Z
 -------------------------------------------------------------------
      1        1           0.000120223   -0.000000000    0.000172396
      2        8           0.000094711   -0.000000000    0.000690592
      3        8           0.001526795   -0.000000000    0.004616031
      4        7           0.005293572    0.000000000   -0.002948876
      5        8          -0.007035301   -0.000000000   -0.002530143
 -------------------------------------------------------------------
 Cartesian Forces:  Max     0.007035301 RMS     0.002790266
 -----------------------------------------------------------------------------------------------
                       Internal Coordinate Forces (Hartree/Bohr or radian)
  Cent   Atom   N1       Length/X         N2         Alpha/Y        N3         Beta/Z          J
 -----------------------------------------------------------------------------------------------
      1  H 
      2  O        1  -0.000172(     1)
      3  O        2  -0.000327(     2)      1  -0.000220(     5)
      4  N        3  -0.005603(     3)      2  -0.002054(     6)      1  -0.000000(     8)     0
      5  O        4  -0.007443(     4)      3  -0.001560(     7)      2  -0.000000(     9)     0
 -----------------------------------------------------------------------------------------------
 Internal  Forces:  Max     0.007443089 RMS     0.003225506
 Force constants in Cartesian coordinates: 
                1             2             3             4             5 
      1  0.641972D-01
      2  0.000000D+00 -0.251518D-02
      3  0.518136D-02  0.000000D+00  0.512173D+00
      4 -0.351152D-01  0.000000D+00 -0.159616D-01  0.271332D+00
      5  0.000000D+00  0.321726D-02  0.000000D+00  0.000000D+00  0.159399D-02
      6  0.477148D-01  0.000000D+00 -0.508606D+00  0.327083D-01  0.000000D+00
      7 -0.191433D-01  0.000000D+00  0.121672D-01 -0.221072D+00  0.000000D+00
      8  0.000000D+00  0.111591D-02  0.000000D+00  0.000000D+00 -0.613034D-02
      9 -0.529216D-01  0.000000D+00 -0.601190D-03 -0.199048D-01  0.000000D+00
     10 -0.857486D-02  0.000000D+00 -0.474760D-02 -0.152160D-01  0.000000D+00
     11  0.000000D+00 -0.285016D-02  0.000000D+00  0.000000D+00 -0.461305D-02
     12  0.579604D-02  0.000000D+00 -0.421492D-02  0.116935D-01  0.000000D+00
     13 -0.136387D-02  0.000000D+00  0.336063D-02  0.712073D-04  0.000000D+00
     14  0.000000D+00  0.103216D-02  0.000000D+00  0.000000D+00  0.593213D-02
     15 -0.577059D-02  0.000000D+00  0.124884D-02 -0.853541D-02  0.000000D+00
                6             7             8             9            10 
      6  0.591620D+00
      7 -0.235788D-01  0.337416D+00
      8  0.000000D+00  0.000000D+00  0.519834D-02
      9 -0.772350D-01  0.338317D-01  0.000000D+00  0.160846D+00
     10 -0.485999D-01 -0.744824D-01  0.000000D+00  0.171868D+00  0.814609D+00
     11  0.000000D+00  0.000000D+00  0.688511D-02  0.000000D+00  0.000000D+00
     12  0.188484D-01  0.632268D-01  0.000000D+00 -0.667037D-01 -0.182839D-01
     13 -0.824456D-02 -0.227191D-01  0.000000D+00 -0.132874D+00 -0.716336D+00
     14  0.000000D+00  0.000000D+00 -0.706903D-02  0.000000D+00  0.000000D+00
     15 -0.246272D-01 -0.856469D-01  0.000000D+00 -0.163064D-01 -0.100237D+00
               11            12            13            14            15 
     11  0.126004D-01
     12  0.000000D+00  0.170868D+00
     13  0.000000D+00 -0.624324D-01  0.740348D+00
     14 -0.120223D-01  0.000000D+00  0.000000D+00  0.121270D-01
     15  0.000000D+00 -0.118798D+00  0.200190D+00  0.000000D+00  0.158483D+00
 Force constants in internal coordinates: 
                1             2             3             4             5 
      1  0.512173D+00
      2 -0.102142D-01  0.280424D+00
      3  0.306980D-02  0.676339D-03  0.951037D-01
      4 -0.356541D-02  0.615190D-02  0.146754D+00  0.800763D+00
      5  0.960786D-02  0.655865D-01  0.144569D-02  0.504110D-02  0.214933D+00
      6  0.403133D-02  0.556534D-01  0.357224D-01  0.219168D-01  0.296808D-01
      7 -0.831642D-03  0.359556D-01  0.258780D-01  0.796311D-01  0.212762D-01
      8  0.000000D+00  0.000000D+00  0.000000D+00  0.000000D+00  0.000000D+00
      9  0.000000D+00  0.000000D+00  0.000000D+00  0.000000D+00  0.000000D+00
                6             7             8             9 
      6  0.264949D+00
      7  0.970801D-01  0.463527D+00
      8  0.000000D+00  0.000000D+00 -0.856650D-02
      9  0.000000D+00  0.000000D+00 -0.391640D-02  0.387930D-01
 Leave Link  716 at Mon Feb 21 20:20:25 2022, MaxMem= 16106127360 cpu:               3.6 elap:               0.2
 (Enter /sw/contrib/gaussian/g16/B01/g16/l103.exe)

 GradGradGradGradGradGradGradGradGradGradGradGradGradGradGradGradGradGrad
 Berny optimization.
 Search for a local minimum.
 Step number   1 out of a maximum of    2
 All quantities printed in internal units (Hartrees-Bohrs-Radians)
 Second derivative matrix not updated -- analytic derivatives used.
 The second derivative matrix:
                          r1        r2        r3        r4        a1
           r1           0.51217
           r2          -0.01021   0.28042
           r3           0.00307   0.00068   0.09510
           r4          -0.00357   0.00615   0.14675   0.80076
           a1           0.00961   0.06559   0.00145   0.00504   0.21493
           a2           0.00403   0.05565   0.03572   0.02192   0.02968
           a3          -0.00083   0.03596   0.02588   0.07963   0.02128
           d1           0.00000  -0.00000   0.00000   0.00000  -0.00000
           d2          -0.00000  -0.00000   0.00000   0.00000  -0.00000
                          a2        a3        d1        d2
           a2           0.26495
           a3           0.09708   0.46353
           d1          -0.00000  -0.00000  -0.00857
           d2          -0.00000  -0.00000  -0.00392   0.03879
 ITU=  0
     Eigenvalues ---   -0.00889   0.03911   0.06068   0.17352   0.21165
     Eigenvalues ---    0.31819   0.50176   0.51286   0.85321
 Eigenvalue     1 is  -8.89D-03 should be greater than     0.000000 Eigenvector:
                          d1        d2        r3        a3        a2
   1                    0.99664   0.08186  -0.00000   0.00000   0.00000
                          a1        r4        r2        r1
   1                   -0.00000   0.00000   0.00000   0.00000
 Angle between quadratic step and forces=  56.61 degrees.
 Linear search not attempted -- first point.
 Variable       Old X    -DE/DX   Delta X   Delta X   Delta X     New X
                                 (Linear)    (Quad)   (Total)
    r1        1.83110  -0.00017   0.00000   0.00003   0.00003   1.83113
    r2        2.74940  -0.00033   0.00000  -0.00110  -0.00110   2.74830
    r3        2.80887  -0.00560   0.00000  -0.06252  -0.06252   2.74635
    r4        2.21236  -0.00744   0.00000   0.00218   0.00218   2.21454
    a1        1.70335  -0.00022   0.00000  -0.00041  -0.00041   1.70294
    a2        1.78543  -0.00205   0.00000   0.00090   0.00090   1.78633
    a3        1.90362  -0.00156   0.00000  -0.00033  -0.00033   1.90329
    d1        3.14159  -0.00000   0.00000  -0.00000   0.00000   3.14159
    d2        3.14159  -0.00000   0.00000  -0.00000   0.00000   3.14159
         Item               Value     Threshold  Converged?
 Maximum Force            0.007443     0.000450     NO 
 RMS     Force            0.003226     0.000300     NO 
 Maximum Displacement     0.062520     0.001800     NO 
 RMS     Displacement     0.020859     0.001200     NO 
 Predicted change in Energy=-1.665994D-04
                       ----------------------------
                       ! Non-Optimized Parameters !
                       ! (Angstroms and Degrees)  !
 ----------------------                            ----------------------
 !      Name          Value   Derivative information (Atomic Units)     !
 ------------------------------------------------------------------------
 !       r1          0.969    -DE/DX =   -0.0002                        !
 !       r2          1.4543   -DE/DX =   -0.0003                        !
 !       r3          1.4533   -DE/DX =   -0.0056                        !
 !       r4          1.1719   -DE/DX =   -0.0074                        !
 !       a1         97.5714   -DE/DX =   -0.0002                        !
 !       a2        102.3489   -DE/DX =   -0.0021                        !
 !       a3        109.0504   -DE/DX =   -0.0016                        !
 !       d1        180.0      -DE/DX =    0.0                           !
 !       d2        180.0      -DE/DX =    0.0                           !
 ------------------------------------------------------------------------
 GradGradGradGradGradGradGradGradGradGradGradGradGradGradGradGradGradGrad

 Leave Link  103 at Mon Feb 21 20:20:25 2022, MaxMem= 16106127360 cpu:               2.3 elap:               0.1
 (Enter /sw/contrib/gaussian/g16/B01/g16/l9999.exe)

 ----------------------------------------------------------------------

 Electric dipole moment (input orientation):
 (Debye = 10**-18 statcoulomb cm , SI units = C m)
                  (au)            (Debye)         (10**-30 SI)
   Tot        0.495685D+00      0.125991D+01      0.420260D+01
   x         -0.105648D+00     -0.268531D+00     -0.895723D+00
   y          0.000000D+00      0.000000D+00      0.000000D+00
   z         -0.484296D+00     -0.123096D+01     -0.410603D+01

 Dipole polarizability, Alpha (input orientation).
 (esu units = cm**3 , SI units = C**2 m**2 J**-1)
 Alpha(0;0):
               (au)            (10**-24 esu)      (10**-40 SI)
   iso        0.276138D+02      0.409194D+01      0.455289D+01
   aniso      0.221920D+02      0.328851D+01      0.365896D+01
   xx         0.321445D+02      0.476333D+01      0.529992D+01
   yx         0.000000D+00      0.000000D+00      0.000000D+00
   yy         0.180229D+02      0.267072D+01      0.297158D+01
   zx         0.975208D+01      0.144511D+01      0.160790D+01
   zy         0.000000D+00      0.000000D+00      0.000000D+00
   zz         0.326738D+02      0.484176D+01      0.538718D+01

 ----------------------------------------------------------------------

 Dipole orientation:
     1         -0.00000000          0.00000000          0.00000000
     8         -0.39027239          0.00000000         -1.78902457
     8          2.19493652         -0.00000000         -2.72491446
     7          1.82327103         -0.00000000         -5.50908375
     8          3.80019300         -0.00000000         -6.50221141

 Electric dipole moment (dipole orientation):
 (Debye = 10**-18 statcoulomb cm , SI units = C m)
                  (au)            (Debye)         (10**-30 SI)
   Tot        0.495685D+00      0.125991D+01      0.420260D+01
   x          0.000000D+00      0.000000D+00      0.000000D+00
   y          0.000000D+00      0.000000D+00      0.000000D+00
   z          0.495685D+00      0.125991D+01      0.420260D+01

 Dipole polarizability, Alpha (dipole orientation).
 (esu units = cm**3 , SI units = C**2 m**2 J**-1)
 Alpha(0;0):
               (au)            (10**-24 esu)      (10**-40 SI)
   iso        0.276138D+02      0.409194D+01      0.455289D+01
   aniso      0.221920D+02      0.328851D+01      0.365896D+01
   xx         0.281071D+02      0.416504D+01      0.463423D+01
   yx         0.000000D+00      0.000000D+00      0.000000D+00
   yy         0.180229D+02      0.267072D+01      0.297158D+01
   zx        -0.875586D+01     -0.129748D+01     -0.144365D+01
   zy         0.000000D+00      0.000000D+00      0.000000D+00
   zz         0.367113D+02      0.544005D+01      0.605287D+01

 ----------------------------------------------------------------------
 1\1\GINC-N2127\Freq\RMP2-FC\Aug-CC-pVTZ\H1N1O3\CGAVINH\21-Feb-2022\1\\
 #p freq mp2/aug-cc-pvtz density=current\\title\\0,1\H\O,1,r1\O,2,r2,1,
 a1\N,3,r3,2,a2,1,d1,0\O,4,r4,3,a3,2,d2,0\\r1=0.96897556\r2=1.45491931\
 r3=1.48638841\r4=1.17072885\a1=97.59494903\a2=102.29752444\a3=109.0695
 5123\d1=180.\d2=180.\\Version=ES64L-G16RevB.01\State=1-A'\HF=-279.4988
 407\MP2=-280.4465813\RMSD=4.206e-09\RMSF=2.790e-03\ZeroPoint=0.0216746
 \Thermal=0.0258401\Dipole=-0.1056482,0.,-0.4842957\DipoleDeriv=0.26395
 86,0.,0.0456711,0.,0.3547335,0.,0.0821093,0.,0.2756456,-0.3333477,0.,-
 0.2055107,0.,-0.3171977,0.,-0.1131983,0.,-0.2324829,-0.0634696,0.,0.13
 62711,0.,-0.1031294,0.,-0.7381136,0.,-1.3581637,0.9255916,0.,0.9508972
 ,0.,0.0742059,0.,0.9086833,0.,1.6693668,-0.7927329,0.,-0.9273287,0.,-0
 .0086122,0.,-0.1394806,0.,-0.3543659\Polar=32.1445462,0.,18.0229376,9.
 7520795,0.,32.6737842\Quadrupole=-1.5025815,-0.7880695,2.2906509,0.,2.
 140052,0.\PG=CS [SG(H1N1O3)]\NImag=1\\0.06419720,0.,-0.00251518,0.0051
 8136,0.,0.51217305,-0.03511516,0.,-0.01596160,0.27133157,0.,0.00321726
 ,0.,0.,0.00159399,0.04771482,0.,-0.50860578,0.03270834,0.,0.59161955,-
 0.01914331,0.,0.01216722,-0.22107158,0.,-0.02357875,0.33741640,0.,0.00
 111591,0.,0.,-0.00613034,0.,0.,0.00519834,-0.05292163,0.,-0.00060119,-
 0.01990478,0.,-0.07723499,0.03383168,0.,0.16084627,-0.00857486,0.,-0.0
 0474760,-0.01521604,0.,-0.04859985,-0.07448239,0.,0.17186838,0.8146093
 1,0.,-0.00285016,0.,0.,-0.00461305,0.,0.,0.00688511,0.,0.,0.01260039,0
 .00579604,0.,-0.00421492,0.01169346,0.,0.01884837,0.06322677,0.,-0.066
 70370,-0.01828389,0.,0.17086804,-0.00136387,0.,0.00336063,0.00007121,0
 .,-0.00824456,-0.02271912,0.,-0.13287366,-0.71633602,0.,-0.06243238,0.
 74034780,0.,0.00103216,0.,0.,0.00593213,0.,0.,-0.00706903,0.,0.,-0.012
 02230,0.,0.,0.01212703,-0.00577059,0.,0.00124884,-0.00853541,0.,-0.024
 62715,-0.08564692,0.,-0.01630640,-0.10023704,0.,-0.11879780,0.20018996
 ,0.,0.15848250\\-0.00012022,0.,-0.00017240,-0.00009471,0.,-0.00069059,
 -0.00152679,0.,-0.00461603,-0.00529357,0.,0.00294888,0.00703530,0.,0.0
 0253014\\\@


 THE CHYMISTS ARE A STRANGE CLASS OF MORTALS IMPELLED
 BY AN ALMOST INSANE IMPULSE TO SEEK THEIR PLEASURE
 AMONG SMOKE AND VAPOR, SOOT AND FLAME, POISONS AND
 POVERTY; YET AMONG ALL THESE EVILS I SEEM TO LIVE
 SO SWEETLY, THAT I MAY DIE IF I WOULD CHANGE PLACES
 WITH THE PERSIAN KING.
   --  JOHANN JOACHIM BECHER, 1635-1682
 ACTA LABORATORII CHYMICA MONACENSIS, 1669
 Job cpu time:       0 days  2 hours  0 minutes 18.6 seconds.
 Elapsed time:       0 days  0 hours  4 minutes 20.8 seconds.
 File lengths (MBytes):  RWF=   7239 Int=      0 D2E=      0 Chk=      8 Scr=      1
 Normal termination of Gaussian 16 at Mon Feb 21 20:20:26 2022.
