 Entering Gaussian System, Link 0=g16
 Input=hoono_r1_0p953195.gjf
 Output=hoono_r1_0p953195.log
 Initial command:
 /sw/contrib/gaussian/g16/B01/g16/l1.exe "/scr/Gau-16658.inp" -scrdir="/scr/"
 Entering Link 1 = /sw/contrib/gaussian/g16/B01/g16/l1.exe PID=     16659.
  
 Copyright (c) 1988-2017, Gaussian, Inc.  All Rights Reserved.
  
 This is part of the Gaussian(R) 16 program.  It is based on
 the Gaussian(R) 09 system (copyright 2009, Gaussian, Inc.),
 the Gaussian(R) 03 system (copyright 2003, Gaussian, Inc.),
 the Gaussian(R) 98 system (copyright 1998, Gaussian, Inc.),
 the Gaussian(R) 94 system (copyright 1995, Gaussian, Inc.),
 the Gaussian 92(TM) system (copyright 1992, Gaussian, Inc.),
 the Gaussian 90(TM) system (copyright 1990, Gaussian, Inc.),
 the Gaussian 88(TM) system (copyright 1988, Gaussian, Inc.),
 the Gaussian 86(TM) system (copyright 1986, Carnegie Mellon
 University), and the Gaussian 82(TM) system (copyright 1983,
 Carnegie Mellon University). Gaussian is a federally registered
 trademark of Gaussian, Inc.
  
 This software contains proprietary and confidential information,
 including trade secrets, belonging to Gaussian, Inc.
  
 This software is provided under written license and may be
 used, copied, transmitted, or stored only in accord with that
 written license.
  
 The following legend is applicable only to US Government
 contracts under FAR:
  
                    RESTRICTED RIGHTS LEGEND
  
 Use, reproduction and disclosure by the US Government is
 subject to restrictions as set forth in subparagraphs (a)
 and (c) of the Commercial Computer Software - Restricted
 Rights clause in FAR 52.227-19.
  
 Gaussian, Inc.
 340 Quinnipiac St., Bldg. 40, Wallingford CT 06492
  
  
 ---------------------------------------------------------------
 Warning -- This program may not be used in any manner that
 competes with the business of Gaussian, Inc. or will provide
 assistance to any competitor of Gaussian, Inc.  The licensee
 of this program is prohibited from giving any competitor of
 Gaussian, Inc. access to this program.  By using this program,
 the user acknowledges that Gaussian, Inc. is engaged in the
 business of creating and licensing software in the field of
 computational chemistry and represents and warrants to the
 licensee that it is not a competitor of Gaussian, Inc. and that
 it will not use this program in any manner prohibited above.
 ---------------------------------------------------------------
  

 Cite this work as:
 Gaussian 16, Revision B.01,
 M. J. Frisch, G. W. Trucks, H. B. Schlegel, G. E. Scuseria, 
 M. A. Robb, J. R. Cheeseman, G. Scalmani, V. Barone, 
 G. A. Petersson, H. Nakatsuji, X. Li, M. Caricato, A. V. Marenich, 
 J. Bloino, B. G. Janesko, R. Gomperts, B. Mennucci, H. P. Hratchian, 
 J. V. Ortiz, A. F. Izmaylov, J. L. Sonnenberg, D. Williams-Young, 
 F. Ding, F. Lipparini, F. Egidi, J. Goings, B. Peng, A. Petrone, 
 T. Henderson, D. Ranasinghe, V. G. Zakrzewski, J. Gao, N. Rega, 
 G. Zheng, W. Liang, M. Hada, M. Ehara, K. Toyota, R. Fukuda, 
 J. Hasegawa, M. Ishida, T. Nakajima, Y. Honda, O. Kitao, H. Nakai, 
 T. Vreven, K. Throssell, J. A. Montgomery, Jr., J. E. Peralta, 
 F. Ogliaro, M. J. Bearpark, J. J. Heyd, E. N. Brothers, K. N. Kudin, 
 V. N. Staroverov, T. A. Keith, R. Kobayashi, J. Normand, 
 K. Raghavachari, A. P. Rendell, J. C. Burant, S. S. Iyengar, 
 J. Tomasi, M. Cossi, J. M. Millam, M. Klene, C. Adamo, R. Cammi, 
 J. W. Ochterski, R. L. Martin, K. Morokuma, O. Farkas, 
 J. B. Foresman, and D. J. Fox, Gaussian, Inc., Wallingford CT, 2016.
 
 ******************************************
 Gaussian 16:  ES64L-G16RevB.01 20-Dec-2017
                21-Feb-2022 
 ******************************************
 %nproc=28
 Will use up to   28 processors via shared memory.
 %mem=120GB
 %chk=hoono_r1_0p953195.chk
 ---------------------------------------
 #p freq mp2/aug-cc-pvtz density=current
 ---------------------------------------
 1/10=4,30=1,38=1/1,3;
 2/12=2,17=6,18=5,40=1/2;
 3/5=16,6=1,7=10,11=9,25=1,30=1,71=2,140=1/1,2,3;
 4//1;
 5/5=2,38=5,98=1/2;
 8/6=3,8=1,10=1,19=11,30=-1/1;
 9/15=3,16=-3/6;
 11/6=1,8=1,15=11,17=12,24=-1,27=1,28=-2,29=300,32=6,42=3/1,2,10;
 10/6=2,21=1/2;
 8/6=4,8=1,10=1,19=11,30=-1/11,4;
 10/5=1,20=4/2;
 11/12=2,14=11,16=1,17=2,28=-2,42=3,76=2/2,10,12;
 6/7=2,8=2,9=2,10=2,22=-1/1;
 7/8=1,10=1,12=2,25=1,44=2/1,2,3,16;
 1/10=4,30=1/3;
 99//99;
 Leave Link    1 at Mon Feb 21 20:03:14 2022, MaxMem= 16106127360 cpu:               2.9 elap:               0.1
 (Enter /sw/contrib/gaussian/g16/B01/g16/l101.exe)
 -----
 title
 -----
 Symbolic Z-matrix:
 Charge =  0 Multiplicity = 1
 H
 O                    1    r1
 O                    2    r2       1    a1
 N                    3    r3       2    a2       1    d1       0
 O                    4    r4       3    a3       2    d2       0
       Variables:
  r1                    0.9532                   
  r2                    1.45492                  
  r3                    1.45878                  
  r4                    1.17073                  
  a1                   97.59495                  
  a2                  102.29752                  
  a3                  109.06955                  
  d1                  180.                       
  d2                  180.                       
 
 ITRead=  0  0  0  0  0
 MicOpt= -1 -1 -1 -1 -1
 NAtoms=      5 NQM=        5 NQMF=       0 NMMI=      0 NMMIF=      0
                NMic=       0 NMicF=      0.
                    Isotopes and Nuclear Properties:
 (Nuclear quadrupole moments (NQMom) in fm**2, nuclear magnetic moments (NMagM)
  in nuclear magnetons)

  Atom         1           2           3           4           5
 IAtWgt=           1          16          16          14          16
 AtmWgt=   1.0078250  15.9949146  15.9949146  14.0030740  15.9949146
 NucSpn=           1           0           0           2           0
 AtZEff=  -0.0000000  -0.0000000  -0.0000000  -0.0000000  -0.0000000
 NQMom=    0.0000000   0.0000000   0.0000000   2.0440000   0.0000000
 NMagM=    2.7928460   0.0000000   0.0000000   0.4037610   0.0000000
 AtZNuc=   1.0000000   8.0000000   8.0000000   7.0000000   8.0000000
 Leave Link  101 at Mon Feb 21 20:03:14 2022, MaxMem= 16106127360 cpu:               3.1 elap:               0.1
 (Enter /sw/contrib/gaussian/g16/B01/g16/l103.exe)

 GradGradGradGradGradGradGradGradGradGradGradGradGradGradGradGradGradGrad
 Berny optimization.
 Initialization pass.
                       ----------------------------
                       !    Initial Parameters    !
                       ! (Angstroms and Degrees)  !
 ----------------------                            ----------------------
 !      Name          Value   Derivative information (Atomic Units)     !
 ------------------------------------------------------------------------
 !       r1          0.9532   calculate D2E/DX2 analytically            !
 !       r2          1.4549   calculate D2E/DX2 analytically            !
 !       r3          1.4588   calculate D2E/DX2 analytically            !
 !       r4          1.1707   calculate D2E/DX2 analytically            !
 !       a1         97.5949   calculate D2E/DX2 analytically            !
 !       a2        102.2975   calculate D2E/DX2 analytically            !
 !       a3        109.0696   calculate D2E/DX2 analytically            !
 !       d1        180.0      calculate D2E/DX2 analytically            !
 !       d2        180.0      calculate D2E/DX2 analytically            !
 ------------------------------------------------------------------------
 Trust Radius=3.00D-01 FncErr=1.00D-07 GrdErr=1.00D-07 EigMax=2.50D+02 EigMin=1.00D-04
 Number of steps in this run=      2 maximum allowed number of steps=      2.
 GradGradGradGradGradGradGradGradGradGradGradGradGradGradGradGradGradGrad

 Leave Link  103 at Mon Feb 21 20:03:14 2022, MaxMem= 16106127360 cpu:               0.8 elap:               0.1
 (Enter /sw/contrib/gaussian/g16/B01/g16/l202.exe)
                          Input orientation:                          
 ---------------------------------------------------------------------
 Center     Atomic      Atomic             Coordinates (Angstroms)
 Number     Number       Type             X           Y           Z
 ---------------------------------------------------------------------
      1          1           0        0.000000    0.000000    0.000000
      2          8           0        0.000000    0.000000    0.953195
      3          8           0        1.442156    0.000000    1.145490
      4          7           0        1.561752    0.000000    2.599364
      5          8           0        2.695867    0.000000    2.889858
 ---------------------------------------------------------------------
                    Distance matrix (angstroms):
                    1          2          3          4          5
     1  H    0.000000
     2  O    0.953195   0.000000
     3  O    1.841728   1.454919   0.000000
     4  N    3.032451   2.269127   1.458784   0.000000
     5  O    3.952086   3.319392   2.148165   1.170729   0.000000
 Stoichiometry    HNO3
 Framework group  CS[SG(HNO3)]
 Deg. of freedom     7
 Full point group                 CS      NOp   2
 Largest Abelian subgroup         CS      NOp   2
 Largest concise Abelian subgroup C1      NOp   1
                         Standard orientation:                         
 ---------------------------------------------------------------------
 Center     Atomic      Atomic             Coordinates (Angstroms)
 Number     Number       Type             X           Y           Z
 ---------------------------------------------------------------------
      1          1           0        1.547492    1.672113    0.000000
      2          8           0        1.454060    0.723508   -0.000000
      3          8           0       -0.000000    0.673500    0.000000
      4          7           0       -0.261529   -0.761650   -0.000000
      5          8           0       -1.418658   -0.939579   -0.000000
 ---------------------------------------------------------------------
 Rotational constants (GHZ):          55.0206699           5.0135126           4.5948293
 Leave Link  202 at Mon Feb 21 20:03:14 2022, MaxMem= 16106127360 cpu:               1.7 elap:               0.1
 (Enter /sw/contrib/gaussian/g16/B01/g16/l301.exe)
 Standard basis: Aug-CC-pVTZ (5D, 7F)
 Ernie: Thresh=  0.10000D-02 Tol=  0.10000D-05 Strict=F.
 Ernie:  12 primitive shells out of 131 were deleted.
 There are   166 symmetry adapted cartesian basis functions of A'  symmetry.
 There are    79 symmetry adapted cartesian basis functions of A"  symmetry.
 There are   136 symmetry adapted basis functions of A'  symmetry.
 There are    71 symmetry adapted basis functions of A"  symmetry.
   207 basis functions,   315 primitive gaussians,   245 cartesian basis functions
    16 alpha electrons       16 beta electrons
       nuclear repulsion energy       116.9651284202 Hartrees.
 IExCor=    0 DFT=F Ex=HF Corr=None ExCW=0 ScaHFX=  1.000000
 ScaDFX=  1.000000  1.000000  1.000000  1.000000 ScalE2=  1.000000  1.000000
 IRadAn=      5 IRanWt=     -1 IRanGd=            0 ICorTp=0 IEmpDi=  4
 NAtoms=    5 NActive=    5 NUniq=    5 SFac= 1.00D+00 NAtFMM=   60 NAOKFM=F Big=F
 Integral buffers will be    131072 words long.
 Raffenetti 1 integral format.
 Two-electron integral symmetry is turned on.
 Leave Link  301 at Mon Feb 21 20:03:14 2022, MaxMem= 16106127360 cpu:               1.4 elap:               0.1
 (Enter /sw/contrib/gaussian/g16/B01/g16/l302.exe)
 NPDir=0 NMtPBC=     1 NCelOv=     1 NCel=       1 NClECP=     1 NCelD=      1
         NCelK=      1 NCelE2=     1 NClLst=     1 CellRange=     0.0.
 One-electron integrals computed using PRISM.
 One-electron integral symmetry used in STVInt
 NBasis=   207 RedAO= T EigKep=  1.80D-04  NBF=   136    71
 NBsUse=   207 1.00D-06 EigRej= -1.00D+00 NBFU=   136    71
 Leave Link  302 at Mon Feb 21 20:03:15 2022, MaxMem= 16106127360 cpu:               5.1 elap:               0.2
 (Enter /sw/contrib/gaussian/g16/B01/g16/l303.exe)
 DipDrv:  MaxL=1.
 Leave Link  303 at Mon Feb 21 20:03:15 2022, MaxMem= 16106127360 cpu:               0.9 elap:               0.1
 (Enter /sw/contrib/gaussian/g16/B01/g16/l401.exe)
 ExpMin= 2.53D-02 ExpMax= 1.53D+04 ExpMxC= 5.22D+02 IAcc=3 IRadAn=         5 AccDes= 0.00D+00
 Harris functional with IExCor=  205 and IRadAn=       5 diagonalized for initial guess.
 HarFok:  IExCor=  205 AccDes= 0.00D+00 IRadAn=         5 IDoV= 1 UseB2=F ITyADJ=14
 ICtDFT=  3500011 ScaDFX=  1.000000  1.000000  1.000000  1.000000
 FoFCou: FMM=F IPFlag=           0 FMFlag=      100000 FMFlg1=           0
         NFxFlg=           0 DoJE=T BraDBF=F KetDBF=T FulRan=T
         wScrn=  0.000000 ICntrl=       500 IOpCl=  0 I1Cent=   200000004 NGrid=           0
         NMat0=    1 NMatS0=      1 NMatT0=    0 NMatD0=    1 NMtDS0=    0 NMtDT0=    0
 Petite list used in FoFCou.
 Harris En= -279.628692648606    
 JPrj=0 DoOrth=F DoCkMO=F.
 Initial guess orbital symmetries:
       Occupied  (A') (A') (A') (A') (A') (A') (A') (A') (A') (A')
                 (A") (A') (A') (A") (A") (A')
       Virtual   (A") (A') (A') (A') (A') (A') (A") (A') (A') (A')
                 (A") (A') (A") (A') (A') (A") (A') (A") (A') (A')
                 (A') (A') (A') (A') (A') (A") (A') (A") (A') (A')
                 (A") (A') (A") (A') (A') (A") (A') (A") (A') (A')
                 (A") (A') (A") (A') (A") (A') (A') (A') (A") (A")
                 (A') (A') (A') (A') (A") (A') (A") (A') (A") (A')
                 (A') (A') (A") (A') (A') (A") (A') (A") (A') (A')
                 (A") (A') (A') (A") (A") (A') (A') (A") (A') (A')
                 (A') (A") (A') (A") (A') (A") (A') (A") (A') (A')
                 (A') (A") (A') (A") (A') (A") (A") (A') (A') (A")
                 (A') (A') (A") (A') (A') (A') (A') (A") (A") (A')
                 (A") (A') (A') (A') (A") (A') (A') (A') (A") (A')
                 (A") (A') (A') (A") (A") (A') (A") (A') (A") (A')
                 (A') (A') (A') (A") (A") (A') (A") (A') (A') (A')
                 (A') (A") (A') (A") (A') (A") (A') (A') (A') (A')
                 (A") (A') (A') (A") (A') (A") (A') (A") (A') (A")
                 (A') (A") (A') (A") (A') (A") (A") (A") (A') (A')
                 (A") (A') (A") (A') (A") (A') (A") (A") (A') (A')
                 (A') (A') (A') (A') (A') (A') (A') (A') (A') (A')
                 (A')
 The electronic state of the initial guess is 1-A'.
 Leave Link  401 at Mon Feb 21 20:03:15 2022, MaxMem= 16106127360 cpu:               7.4 elap:               0.3
 (Enter /sw/contrib/gaussian/g16/B01/g16/l502.exe)
 Keep R1 ints in memory in symmetry-blocked form, NReq=348887737.
 FoFCou: FMM=F IPFlag=           0 FMFlag=           0 FMFlg1=           0
         NFxFlg=           0 DoJE=F BraDBF=F KetDBF=F FulRan=T
         wScrn=  0.000000 ICntrl=       600 IOpCl=  0 I1Cent=           0 NGrid=           0
         NMat0=    1 NMatS0=  21528 NMatT0=    0 NMatD0=    1 NMtDS0=    0 NMtDT0=    0
 Petite list used in FoFCou.
 Closed shell SCF:
 Using DIIS extrapolation, IDIIS=  1040.
 NGot= 16106127360 LenX= 15988850015 LenY= 15988789549
 Requested convergence on RMS density matrix=1.00D-08 within 128 cycles.
 Requested convergence on MAX density matrix=1.00D-06.
 Requested convergence on             energy=1.00D-06.
 No special actions if energy rises.

 Cycle   1  Pass 1  IDiag  1:
 E= -279.369933412802    
 DIIS: error= 2.52D-02 at cycle   1 NSaved=   1.
 NSaved= 1 IEnMin= 1 EnMin= -279.369933412802     IErMin= 1 ErrMin= 2.52D-02
 ErrMax= 2.52D-02  0.00D+00 EMaxC= 1.00D-01 BMatC= 4.40D-01 BMatP= 4.40D-01
 IDIUse=3 WtCom= 7.48D-01 WtEn= 2.52D-01
 Coeff-Com:  0.100D+01
 Coeff-En:   0.100D+01
 Coeff:      0.100D+01
 Gap=     0.514 Goal=   None    Shift=    0.000
 GapD=    0.514 DampG=2.000 DampE=0.500 DampFc=1.0000 IDamp=-1.
 RMSDP=1.63D-03 MaxDP=9.91D-02              OVMax= 1.14D-01

 Cycle   2  Pass 1  IDiag  1:
 E= -279.452140105690     Delta-E=       -0.082206692888 Rises=F Damp=F
 DIIS: error= 1.82D-02 at cycle   2 NSaved=   2.
 NSaved= 2 IEnMin= 2 EnMin= -279.452140105690     IErMin= 2 ErrMin= 1.82D-02
 ErrMax= 1.82D-02  0.00D+00 EMaxC= 1.00D-01 BMatC= 7.31D-02 BMatP= 4.40D-01
 IDIUse=3 WtCom= 8.18D-01 WtEn= 1.82D-01
 Coeff-Com:  0.197D+00 0.803D+00
 Coeff-En:   0.000D+00 0.100D+01
 Coeff:      0.161D+00 0.839D+00
 Gap=     0.530 Goal=   None    Shift=    0.000
 RMSDP=9.08D-04 MaxDP=3.73D-02 DE=-8.22D-02 OVMax= 6.92D-02

 Cycle   3  Pass 1  IDiag  1:
 E= -279.481880524872     Delta-E=       -0.029740419182 Rises=F Damp=F
 DIIS: error= 1.05D-02 at cycle   3 NSaved=   3.
 NSaved= 3 IEnMin= 3 EnMin= -279.481880524872     IErMin= 3 ErrMin= 1.05D-02
 ErrMax= 1.05D-02  0.00D+00 EMaxC= 1.00D-01 BMatC= 2.90D-02 BMatP= 7.31D-02
 IDIUse=3 WtCom= 8.95D-01 WtEn= 1.05D-01
 Coeff-Com: -0.328D-01 0.377D+00 0.656D+00
 Coeff-En:   0.000D+00 0.239D+00 0.761D+00
 Coeff:     -0.294D-01 0.363D+00 0.667D+00
 Gap=     0.511 Goal=   None    Shift=    0.000
 RMSDP=3.79D-04 MaxDP=1.54D-02 DE=-2.97D-02 OVMax= 3.84D-02

 Cycle   4  Pass 1  IDiag  1:
 E= -279.501121549645     Delta-E=       -0.019241024774 Rises=F Damp=F
 DIIS: error= 1.33D-03 at cycle   4 NSaved=   4.
 NSaved= 4 IEnMin= 4 EnMin= -279.501121549645     IErMin= 4 ErrMin= 1.33D-03
 ErrMax= 1.33D-03  0.00D+00 EMaxC= 1.00D-01 BMatC= 5.06D-04 BMatP= 2.90D-02
 IDIUse=3 WtCom= 9.87D-01 WtEn= 1.33D-02
 Coeff-Com: -0.119D-01 0.588D-01 0.162D+00 0.791D+00
 Coeff-En:   0.000D+00 0.000D+00 0.000D+00 0.100D+01
 Coeff:     -0.117D-01 0.580D-01 0.160D+00 0.794D+00
 Gap=     0.503 Goal=   None    Shift=    0.000
 RMSDP=9.03D-05 MaxDP=2.78D-03 DE=-1.92D-02 OVMax= 1.12D-02

 Cycle   5  Pass 1  IDiag  1:
 E= -279.501803490325     Delta-E=       -0.000681940679 Rises=F Damp=F
 DIIS: error= 7.33D-04 at cycle   5 NSaved=   5.
 NSaved= 5 IEnMin= 5 EnMin= -279.501803490325     IErMin= 5 ErrMin= 7.33D-04
 ErrMax= 7.33D-04  0.00D+00 EMaxC= 1.00D-01 BMatC= 8.69D-05 BMatP= 5.06D-04
 IDIUse=3 WtCom= 9.93D-01 WtEn= 7.33D-03
 Coeff-Com:  0.613D-02-0.719D-01-0.118D+00 0.121D-01 0.117D+01
 Coeff-En:   0.000D+00 0.000D+00 0.000D+00 0.000D+00 0.100D+01
 Coeff:      0.609D-02-0.714D-01-0.117D+00 0.120D-01 0.117D+01
 Gap=     0.503 Goal=   None    Shift=    0.000
 RMSDP=7.67D-05 MaxDP=2.11D-03 DE=-6.82D-04 OVMax= 1.11D-02

 Cycle   6  Pass 1  IDiag  1:
 E= -279.502120259936     Delta-E=       -0.000316769611 Rises=F Damp=F
 DIIS: error= 2.88D-04 at cycle   6 NSaved=   6.
 NSaved= 6 IEnMin= 6 EnMin= -279.502120259936     IErMin= 6 ErrMin= 2.88D-04
 ErrMax= 2.88D-04  0.00D+00 EMaxC= 1.00D-01 BMatC= 1.66D-05 BMatP= 8.69D-05
 IDIUse=3 WtCom= 9.97D-01 WtEn= 2.88D-03
 Coeff-Com:  0.556D-03 0.205D-02 0.529D-02-0.126D+00-0.244D+00 0.136D+01
 Coeff-En:   0.000D+00 0.000D+00 0.000D+00 0.000D+00 0.000D+00 0.100D+01
 Coeff:      0.555D-03 0.204D-02 0.528D-02-0.126D+00-0.243D+00 0.136D+01
 Gap=     0.503 Goal=   None    Shift=    0.000
 RMSDP=4.54D-05 MaxDP=1.25D-03 DE=-3.17D-04 OVMax= 5.55D-03

 Cycle   7  Pass 1  IDiag  1:
 E= -279.502192997668     Delta-E=       -0.000072737732 Rises=F Damp=F
 DIIS: error= 1.20D-04 at cycle   7 NSaved=   7.
 NSaved= 7 IEnMin= 7 EnMin= -279.502192997668     IErMin= 7 ErrMin= 1.20D-04
 ErrMax= 1.20D-04  0.00D+00 EMaxC= 1.00D-01 BMatC= 4.41D-06 BMatP= 1.66D-05
 IDIUse=3 WtCom= 9.99D-01 WtEn= 1.20D-03
 Coeff-Com: -0.944D-03 0.135D-01 0.265D-01-0.213D-01-0.288D+00 0.384D+00
 Coeff-Com:  0.886D+00
 Coeff-En:   0.000D+00 0.000D+00 0.000D+00 0.000D+00 0.000D+00 0.000D+00
 Coeff-En:   0.100D+01
 Coeff:     -0.943D-03 0.134D-01 0.265D-01-0.212D-01-0.288D+00 0.383D+00
 Coeff:      0.887D+00
 Gap=     0.503 Goal=   None    Shift=    0.000
 RMSDP=1.32D-05 MaxDP=3.79D-04 DE=-7.27D-05 OVMax= 1.54D-03

 Cycle   8  Pass 1  IDiag  1:
 E= -279.502201742461     Delta-E=       -0.000008744793 Rises=F Damp=F
 DIIS: error= 5.84D-05 at cycle   8 NSaved=   8.
 NSaved= 8 IEnMin= 8 EnMin= -279.502201742461     IErMin= 8 ErrMin= 5.84D-05
 ErrMax= 5.84D-05  0.00D+00 EMaxC= 1.00D-01 BMatC= 6.00D-07 BMatP= 4.41D-06
 IDIUse=1 WtCom= 1.00D+00 WtEn= 0.00D+00
 Coeff-Com: -0.445D-03 0.339D-02 0.753D-02 0.269D-01-0.396D-01-0.198D+00
 Coeff-Com:  0.180D+00 0.102D+01
 Coeff:     -0.445D-03 0.339D-02 0.753D-02 0.269D-01-0.396D-01-0.198D+00
 Coeff:      0.180D+00 0.102D+01
 Gap=     0.503 Goal=   None    Shift=    0.000
 RMSDP=6.82D-06 MaxDP=2.01D-04 DE=-8.74D-06 OVMax= 7.39D-04

 Cycle   9  Pass 1  IDiag  1:
 E= -279.502203483377     Delta-E=       -0.000001740916 Rises=F Damp=F
 DIIS: error= 1.59D-05 at cycle   9 NSaved=   9.
 NSaved= 9 IEnMin= 9 EnMin= -279.502203483377     IErMin= 9 ErrMin= 1.59D-05
 ErrMax= 1.59D-05  0.00D+00 EMaxC= 1.00D-01 BMatC= 6.96D-08 BMatP= 6.00D-07
 IDIUse=1 WtCom= 1.00D+00 WtEn= 0.00D+00
 Coeff-Com:  0.124D-03-0.172D-02-0.310D-02-0.223D-02 0.345D-01 0.185D-03
 Coeff-Com: -0.171D+00-0.989D-01 0.124D+01
 Coeff:      0.124D-03-0.172D-02-0.310D-02-0.223D-02 0.345D-01 0.185D-03
 Coeff:     -0.171D+00-0.989D-01 0.124D+01
 Gap=     0.503 Goal=   None    Shift=    0.000
 RMSDP=1.94D-06 MaxDP=6.65D-05 DE=-1.74D-06 OVMax= 1.74D-04

 Cycle  10  Pass 1  IDiag  1:
 E= -279.502203642884     Delta-E=       -0.000000159507 Rises=F Damp=F
 DIIS: error= 4.11D-06 at cycle  10 NSaved=  10.
 NSaved=10 IEnMin=10 EnMin= -279.502203642884     IErMin=10 ErrMin= 4.11D-06
 ErrMax= 4.11D-06  0.00D+00 EMaxC= 1.00D-01 BMatC= 5.47D-09 BMatP= 6.96D-08
 IDIUse=1 WtCom= 1.00D+00 WtEn= 0.00D+00
 Coeff-Com:  0.298D-04-0.228D-03-0.301D-03-0.262D-02 0.130D-02 0.196D-01
 Coeff-Com: -0.128D-01-0.721D-01-0.864D-01 0.115D+01
 Coeff:      0.298D-04-0.228D-03-0.301D-03-0.262D-02 0.130D-02 0.196D-01
 Coeff:     -0.128D-01-0.721D-01-0.864D-01 0.115D+01
 Gap=     0.503 Goal=   None    Shift=    0.000
 RMSDP=5.03D-07 MaxDP=2.10D-05 DE=-1.60D-07 OVMax= 4.18D-05

 Cycle  11  Pass 1  IDiag  1:
 E= -279.502203655298     Delta-E=       -0.000000012414 Rises=F Damp=F
 DIIS: error= 2.03D-06 at cycle  11 NSaved=  11.
 NSaved=11 IEnMin=11 EnMin= -279.502203655298     IErMin=11 ErrMin= 2.03D-06
 ErrMax= 2.03D-06  0.00D+00 EMaxC= 1.00D-01 BMatC= 6.54D-10 BMatP= 5.47D-09
 IDIUse=1 WtCom= 1.00D+00 WtEn= 0.00D+00
 Coeff-Com: -0.212D-04 0.242D-03 0.485D-03 0.535D-03-0.426D-02-0.354D-02
 Coeff-Com:  0.215D-01 0.302D-01-0.138D+00-0.176D+00 0.127D+01
 Coeff:     -0.212D-04 0.242D-03 0.485D-03 0.535D-03-0.426D-02-0.354D-02
 Coeff:      0.215D-01 0.302D-01-0.138D+00-0.176D+00 0.127D+01
 Gap=     0.503 Goal=   None    Shift=    0.000
 RMSDP=1.77D-07 MaxDP=6.50D-06 DE=-1.24D-08 OVMax= 1.72D-05

 Cycle  12  Pass 1  IDiag  1:
 E= -279.502203657089     Delta-E=       -0.000000001791 Rises=F Damp=F
 DIIS: error= 5.85D-07 at cycle  12 NSaved=  12.
 NSaved=12 IEnMin=12 EnMin= -279.502203657089     IErMin=12 ErrMin= 5.85D-07
 ErrMax= 5.85D-07  0.00D+00 EMaxC= 1.00D-01 BMatC= 7.15D-11 BMatP= 6.54D-10
 IDIUse=1 WtCom= 1.00D+00 WtEn= 0.00D+00
 Coeff-Com:  0.128D-05-0.293D-04-0.640D-04 0.173D-03 0.111D-02-0.232D-02
 Coeff-Com: -0.416D-02 0.556D-02 0.420D-01-0.116D+00-0.276D+00 0.135D+01
 Coeff:      0.128D-05-0.293D-04-0.640D-04 0.173D-03 0.111D-02-0.232D-02
 Coeff:     -0.416D-02 0.556D-02 0.420D-01-0.116D+00-0.276D+00 0.135D+01
 Gap=     0.503 Goal=   None    Shift=    0.000
 RMSDP=7.19D-08 MaxDP=2.84D-06 DE=-1.79D-09 OVMax= 6.65D-06

 Cycle  13  Pass 1  IDiag  1:
 E= -279.502203657318     Delta-E=       -0.000000000229 Rises=F Damp=F
 DIIS: error= 1.68D-07 at cycle  13 NSaved=  13.
 NSaved=13 IEnMin=13 EnMin= -279.502203657318     IErMin=13 ErrMin= 1.68D-07
 ErrMax= 1.68D-07  0.00D+00 EMaxC= 1.00D-01 BMatC= 4.00D-12 BMatP= 7.15D-11
 IDIUse=1 WtCom= 1.00D+00 WtEn= 0.00D+00
 Coeff-Com:  0.127D-05-0.138D-04-0.223D-04-0.880D-04 0.116D-03 0.764D-03
 Coeff-Com: -0.872D-03-0.322D-02 0.517D-03 0.416D-01-0.370D-01-0.325D+00
 Coeff-Com:  0.132D+01
 Coeff:      0.127D-05-0.138D-04-0.223D-04-0.880D-04 0.116D-03 0.764D-03
 Coeff:     -0.872D-03-0.322D-02 0.517D-03 0.416D-01-0.370D-01-0.325D+00
 Coeff:      0.132D+01
 Gap=     0.503 Goal=   None    Shift=    0.000
 RMSDP=1.92D-08 MaxDP=5.58D-07 DE=-2.29D-10 OVMax= 1.57D-06

 Cycle  14  Pass 1  IDiag  1:
 E= -279.502203657332     Delta-E=       -0.000000000014 Rises=F Damp=F
 DIIS: error= 2.43D-08 at cycle  14 NSaved=  14.
 NSaved=14 IEnMin=14 EnMin= -279.502203657332     IErMin=14 ErrMin= 2.43D-08
 ErrMax= 2.43D-08  0.00D+00 EMaxC= 1.00D-01 BMatC= 1.95D-13 BMatP= 4.00D-12
 IDIUse=1 WtCom= 1.00D+00 WtEn= 0.00D+00
 Coeff-Com: -0.189D-06 0.309D-05 0.556D-05 0.473D-05-0.825D-04 0.459D-04
 Coeff-Com:  0.285D-03 0.216D-03-0.244D-02 0.151D-02 0.169D-01-0.254D-01
 Coeff-Com: -0.200D+00 0.121D+01
 Coeff:     -0.189D-06 0.309D-05 0.556D-05 0.473D-05-0.825D-04 0.459D-04
 Coeff:      0.285D-03 0.216D-03-0.244D-02 0.151D-02 0.169D-01-0.254D-01
 Coeff:     -0.200D+00 0.121D+01
 Gap=     0.503 Goal=   None    Shift=    0.000
 RMSDP=3.79D-09 MaxDP=9.15D-08 DE=-1.35D-11 OVMax= 3.40D-07

 SCF Done:  E(RHF) =  -279.502203657     A.U. after   14 cycles
            NFock= 14  Conv=0.38D-08     -V/T= 2.0022
 KE= 2.788758043304D+02 PE=-8.952619237851D+02 EE= 2.199187873772D+02
 Leave Link  502 at Mon Feb 21 20:03:19 2022, MaxMem= 16106127360 cpu:              56.7 elap:               3.7
 (Enter /sw/contrib/gaussian/g16/B01/g16/l801.exe)
 ExpMin= 2.53D-02 ExpMax= 1.53D+04 ExpMxC= 5.22D+02 IAcc=3 IRadAn=         5 AccDes= 0.00D+00
 HarFok:  IExCor=  205 AccDes= 0.00D+00 IRadAn=         5 IDoV=-2 UseB2=F ITyADJ=14
 ICtDFT= 12500011 ScaDFX=  1.000000  1.000000  1.000000  1.000000
 Largest valence mixing into a core orbital is  2.08D-04
 Largest core mixing into a valence orbital is  3.63D-05
 Range of M.O.s used for correlation:     5   207
 NBasis=   207 NAE=    16 NBE=    16 NFC=     4 NFV=     0
 NROrb=    203 NOA=    12 NOB=    12 NVA=   191 NVB=   191

 **** Warning!!: The largest alpha MO coefficient is  0.17967279D+02

 Leave Link  801 at Mon Feb 21 20:03:19 2022, MaxMem= 16106127360 cpu:               2.2 elap:               0.1
 (Enter /sw/contrib/gaussian/g16/B01/g16/l906.exe)
 Frozen-core derivative calculation, NFC=   4 NFV=   0.
 FulOut=F Deriv=T AODrv=T NAtomX=     5
   MMem=           0  MDisk=          12 MDiskD=          12
  W3Min=      811440 MinDsk=     2425030 NBas6D=         245
 NBas2D=       30762    NTT=       30135    LW2=     7400000
    MDV= 16105574283 MDiskM=      328644 NBas2p=       30702
 Disk-based method using ON**2 memory for 12 occupieds at a time.
 Permanent disk used for amplitudes=    11516536 words.
 Estimated scratch disk usage=   321251614 words.
 IMap=   1   2   3   4   5   6   7   8   9  10  11  12  13  14  15  16
 Actual    scratch disk usage=   310331678 words.
 JobTyp=1 Pass  1:  I=   5 to  16 NPSUse= 28 ParTrn=T ParDer=T DoDerP=T.
 (rs|ai) integrals will be sorted in core.
 Spin components of T(2) and E(2):
     alpha-alpha T2 =       0.3394893971D-01 E2=     -0.1223056041D+00
     alpha-beta  T2 =       0.1863938541D+00 E2=     -0.6996837168D+00
     beta-beta   T2 =       0.3394893971D-01 E2=     -0.1223056041D+00
 The integrals were generated   1 times.
 ANorm=    0.1119951666D+01
 E2 =    -0.9442949250D+00 EUMP2 =    -0.28044649858234D+03
 Leave Link  906 at Mon Feb 21 20:04:56 2022, MaxMem= 16106127360 cpu:            2701.0 elap:              96.6
 (Enter /sw/contrib/gaussian/g16/B01/g16/l1101.exe)
 Using compressed Sx but separate Hx and Fx, NAtomX=     5.
 Will process      6 centers per pass.
 Leave Link 1101 at Mon Feb 21 20:04:56 2022, MaxMem= 16106127360 cpu:               5.0 elap:               0.2
 (Enter /sw/contrib/gaussian/g16/B01/g16/l1102.exe)
 Leave Link 1102 at Mon Feb 21 20:04:56 2022, MaxMem= 16106127360 cpu:               1.0 elap:               0.1
 (Enter /sw/contrib/gaussian/g16/B01/g16/l1110.exe)
 Forming Gx(P) for the SCF density, NAtomX=     5.
 Integral derivatives from FoFJK, PRISM(SPDF).
 Do as many integral derivatives as possible in FoFJK.
 G2DrvN: MDV=   16106126844.
 G2DrvN: will do     6 centers at a time, making    1 passes.
 Calling FoFCou, ICntrl=  3107 FMM=F I1Cent=   0 AccDes= 0.00D+00.
 FoFJK:  IHMeth= 1 ICntrl=    3107 DoSepK=F KAlg= 0 I1Cent=           0 FoldK=F
 IRaf=         0 NMat=       1 IRICut=       1 DoRegI=T DoRafI=F ISym2E= 1 IDoP0=0 IntGTp=1.
 FoFCou: FMM=F IPFlag=           0 FMFlag=      100000 FMFlg1=           0
         NFxFlg=           0 DoJE=F BraDBF=F KetDBF=F FulRan=T
         wScrn=  0.000000 ICntrl=      3107 IOpCl=  0 I1Cent=           0 NGrid=           0
         NMat0=    1 NMatS0=      1 NMatT0=    0 NMatD0=    1 NMtDS0=    0 NMtDT0=    0
 Petite list used in FoFCou.
 End of G2Drv F.D. properties file   721 does not exist.
 End of G2Drv F.D. properties file   722 does not exist.
 End of G2Drv F.D. properties file   788 does not exist.
 Leave Link 1110 at Mon Feb 21 20:04:59 2022, MaxMem= 16106127360 cpu:              83.8 elap:               3.0
 (Enter /sw/contrib/gaussian/g16/B01/g16/l1002.exe)
 Minotr:  Closed shell wavefunction.
          IDoAtm=11111
          Frozen-core window.
          Direct CPHF calculation.
          Differentiating once with respect to electric field.
                with respect to dipole field.
          Differentiating once with respect to nuclear coordinates.
          Requested convergence is 1.0D-08 RMS, and 1.0D-07 maximum.
          Secondary convergence is 1.0D-12 RMS, and 1.0D-12 maximum.
          NewPWx=T KeepS1=T KeepF1=T KeepIn=T MapXYZ=F SortEE=F KeepMc=T.
 Keep R1 ints in memory in symmetry-blocked form, NReq=348888983.
 FoFCou: FMM=F IPFlag=           0 FMFlag=           0 FMFlg1=           0
         NFxFlg=           0 DoJE=F BraDBF=F KetDBF=F FulRan=T
         wScrn=  0.000000 ICntrl=       600 IOpCl=  0 I1Cent=           0 NGrid=           0
         NMat0=    1 NMatS0=  21528 NMatT0=    0 NMatD0=    1 NMtDS0=    0 NMtDT0=    0
 Petite list used in FoFCou.
          MDV=   16106127360 using IRadAn=       1.
          Solving linear equations simultaneously, MaxMat=       0.
          There are    18 degrees of freedom in the 1st order CPHF.  IDoFFX=6 NUNeed=    18.
     15 vectors produced by pass  0 Test12= 1.70D-14 5.56D-09 XBig12= 8.27D+00 1.06D+00.
 AX will form    15 AO Fock derivatives at one time.
     15 vectors produced by pass  1 Test12= 1.70D-14 5.56D-09 XBig12= 1.34D+00 2.64D-01.
     15 vectors produced by pass  2 Test12= 1.70D-14 5.56D-09 XBig12= 1.42D-01 9.83D-02.
     15 vectors produced by pass  3 Test12= 1.70D-14 5.56D-09 XBig12= 5.03D-03 1.13D-02.
     15 vectors produced by pass  4 Test12= 1.70D-14 5.56D-09 XBig12= 1.02D-04 1.97D-03.
     15 vectors produced by pass  5 Test12= 1.70D-14 5.56D-09 XBig12= 1.44D-06 1.82D-04.
     15 vectors produced by pass  6 Test12= 1.70D-14 5.56D-09 XBig12= 1.13D-08 1.39D-05.
     13 vectors produced by pass  7 Test12= 1.70D-14 5.56D-09 XBig12= 8.35D-11 1.31D-06.
      3 vectors produced by pass  8 Test12= 1.70D-14 5.56D-09 XBig12= 5.75D-13 1.24D-07.
      2 vectors produced by pass  9 Test12= 1.70D-14 5.56D-09 XBig12= 3.72D-15 9.85D-09.
 InvSVY:  IOpt=1 It=  1 EMax= 1.11D-15
 Solved reduced A of dimension   123 with    15 vectors.
 FullF1:  Do perturbations      1 to      18.
 Saving first derivative matrices.
 End of Minotr F.D. properties file   721 does not exist.
 End of Minotr F.D. properties file   722 does not exist.
 End of Minotr F.D. properties file   788 does not exist.
 Leave Link 1002 at Mon Feb 21 20:05:03 2022, MaxMem= 16106127360 cpu:             101.4 elap:               3.7
 (Enter /sw/contrib/gaussian/g16/B01/g16/l811.exe)
 MDV= 16106127360.
 Form MO integral derivatives with frozen-active canonical formalism.
 MOERI=1 MOERIx=1 NAtoms=     5 NAtomX=     5.
 Discarding MO integrals.
 MO basis two electron integral derivatives will not be stored on disk.
 IAlg= 3 DoFC=T DoPWx=T Debug=F.
 Frozen-core window:  NFC=   4 NFV=   0.
 Reordered first order wavefunction length =     18678272
 In DefCFB: NBatch=  1 ICI= 16 ICA=191 LFMax= 96
            Large arrays: LIAPS=   619940160 LIARS=   288257200 words.
 In StABat: MaxSiz= 55 MinSiz= 25 NAtomB=  5
 DoIAMN: NPSUse= 28.
 Leave Link  811 at Mon Feb 21 20:06:25 2022, MaxMem= 16106127360 cpu:            2288.5 elap:              81.9
 (Enter /sw/contrib/gaussian/g16/B01/g16/l804.exe)
 Frozen-core window:  NFC=   4 NFV=   0.
 Closed-shell transformation, MDV= 16106127360 ITran=4 ISComp=1.
 Semi-Direct transformation.
 ModeAB=           2 MOrb=            16 LenV=   16104923037
 LASXX=     67341636 LTotXX=    67341636 LenRXX=    67341636
 LTotAB=    68301760 MaxLAS=    99807120 LenRXY=    99807120
 NonZer=   134683272 LenScr=   202817536 LnRSAI=           0
 LnScr1=           0 LExtra=           0 Total=    369966292
 MaxDsk=          -1 SrtSym=           F ITran=            4
 DoSDTr:  NPSUse= 28
 JobTyp=0 Pass  1:  I=   1 to  16.
 (rs|ai) integrals will be sorted in core.
 Complete sort for first half transformation.
 First half transformation complete.
 Begin second half transformation for I=  10.
 Begin second half transformation for I=  10.
 Complete sort for second half transformation.
 Second half transformation complete.
 Spin components of T(2) and E(2):
     alpha-alpha T2 =       0.3394893971D-01 E2=     -0.1223056041D+00
     alpha-beta  T2 =       0.1863938541D+00 E2=     -0.6996837168D+00
     beta-beta   T2 =       0.3394893971D-01 E2=     -0.1223056041D+00
 ANorm=    0.1583850835D+01
 E2 =    -0.9442949250D+00 EUMP2 =    -0.28044649858234D+03
 Leave Link  804 at Mon Feb 21 20:06:40 2022, MaxMem= 16106127360 cpu:             428.4 elap:              15.3
 (Enter /sw/contrib/gaussian/g16/B01/g16/l1002.exe)
 Minotr:  Closed shell wavefunction.
          Computing MP2/KS-MP2 derivatives.
          Using Z-Vector for PSCF gradient.
          Skipping F1 and S1 gradient terms here.
          IDoAtm=11111
          Frozen-core window.
          Using MO integrals in the linear equations.
          Forming densities via direct SCF.
          Differentiating once with respect to electric field.
                with respect to dipole field.
          Differentiating once with respect to nuclear coordinates.
          Using symmetry in CPHF.
          Requested convergence is 1.0D-10 RMS, and 1.0D-09 maximum.
          NewPWx=F KeepS1=T KeepF1=T KeepIn=T MapXYZ=F SortEE=F KeepMc=T.
          MDV=   16106127360 using IRadAn=       5.
          Solving linear equations separately, MaxMat=       0.
          There are     1 degrees of freedom in the 1st order CPHF.  IDoFFX=0 NUNeed=     1.
 FoFJK:  IHMeth= 1 ICntrl=       0 DoSepK=F KAlg= 0 I1Cent=           0 FoldK=F
 IRaf=         0 NMat=       1 IRICut=       1 DoRegI=T DoRafI=F ISym2E= 0 IDoP0=0 IntGTp=1.
 FoFCou: FMM=F IPFlag=           0 FMFlag=      100000 FMFlg1=           0
         NFxFlg=           0 DoJE=F BraDBF=F KetDBF=F FulRan=T
         wScrn=  0.000000 ICntrl=         0 IOpCl=  0 I1Cent=           0 NGrid=           0
         NMat0=    1 NMatS0=      1 NMatT0=    0 NMatD0=    1 NMtDS0=    0 NMtDT0=    0
 Symmetry not used in FoFCou.
 LinEq1:  Iter=  0 NonCon=     1 RMS=5.95D-03 Max=1.32D-01 NDo=     1
 LinEq1:  Iter=  1 NonCon=     1 RMS=1.90D-03 Max=3.83D-02 NDo=     1
 LinEq1:  Iter=  2 NonCon=     1 RMS=8.66D-04 Max=1.43D-02 NDo=     1
 LinEq1:  Iter=  3 NonCon=     1 RMS=3.87D-04 Max=7.82D-03 NDo=     1
 LinEq1:  Iter=  4 NonCon=     1 RMS=1.19D-04 Max=1.90D-03 NDo=     1
 LinEq1:  Iter=  5 NonCon=     1 RMS=4.58D-05 Max=7.28D-04 NDo=     1
 LinEq1:  Iter=  6 NonCon=     1 RMS=2.04D-05 Max=2.29D-04 NDo=     1
 LinEq1:  Iter=  7 NonCon=     1 RMS=8.17D-06 Max=1.60D-04 NDo=     1
 LinEq1:  Iter=  8 NonCon=     1 RMS=3.45D-06 Max=3.42D-05 NDo=     1
 LinEq1:  Iter=  9 NonCon=     1 RMS=9.34D-07 Max=1.30D-05 NDo=     1
 LinEq1:  Iter= 10 NonCon=     1 RMS=1.83D-07 Max=2.00D-06 NDo=     1
 LinEq1:  Iter= 11 NonCon=     1 RMS=3.40D-08 Max=3.53D-07 NDo=     1
 LinEq1:  Iter= 12 NonCon=     1 RMS=8.21D-09 Max=1.27D-07 NDo=     1
 LinEq1:  Iter= 13 NonCon=     1 RMS=1.49D-09 Max=2.53D-08 NDo=     1
 LinEq1:  Iter= 14 NonCon=     1 RMS=2.69D-10 Max=3.79D-09 NDo=     1
 LinEq1:  Iter= 15 NonCon=     0 RMS=4.85D-11 Max=5.46D-10 NDo=     1
 Linear equations converged to 1.000D-10 1.000D-09 after    15 iterations.
 End of Minotr F.D. properties file   721 does not exist.
 End of Minotr F.D. properties file   722 does not exist.
 End of Minotr F.D. properties file   788 does not exist.
 Leave Link 1002 at Mon Feb 21 20:06:43 2022, MaxMem= 16106127360 cpu:              67.2 elap:               2.5
 (Enter /sw/contrib/gaussian/g16/B01/g16/l1102.exe)
 Use density number 2.
 Symmetrizing basis deriv contribution to polar:
 IMax=3 JMax=2 DiffMx= 0.00D+00
 Leave Link 1102 at Mon Feb 21 20:06:43 2022, MaxMem= 16106127360 cpu:               1.2 elap:               0.1
 (Enter /sw/contrib/gaussian/g16/B01/g16/l1110.exe)
 Forming Gx(P) for generalized density number  2 NAtomX=     5.
 Integral derivatives from FoFJK, PRISM(SPDF).
 Do as many integral derivatives as possible in FoFJK.
 G2DrvN: MDV=   16106126844.
 G2DrvN: will do     6 centers at a time, making    1 passes.
 Calling FoFCou, ICntrl=  3107 FMM=F I1Cent=   0 AccDes= 0.00D+00.
 FoFJK:  IHMeth= 1 ICntrl=    3107 DoSepK=F KAlg= 0 I1Cent=           0 FoldK=F
 IRaf=         0 NMat=       1 IRICut=       1 DoRegI=T DoRafI=F ISym2E= 1 IDoP0=0 IntGTp=1.
 FoFCou: FMM=F IPFlag=           0 FMFlag=      100000 FMFlg1=           0
         NFxFlg=           0 DoJE=F BraDBF=F KetDBF=F FulRan=T
         wScrn=  0.000000 ICntrl=      3107 IOpCl=  0 I1Cent=           0 NGrid=           0
         NMat0=    1 NMatS0=      1 NMatT0=    0 NMatD0=    1 NMtDS0=    0 NMtDT0=    0
 Petite list used in FoFCou.
 End of G2Drv F.D. properties file   721 does not exist.
 End of G2Drv F.D. properties file   722 does not exist.
 End of G2Drv F.D. properties file   788 does not exist.
 Leave Link 1110 at Mon Feb 21 20:06:46 2022, MaxMem= 16106127360 cpu:              83.1 elap:               3.0
 (Enter /sw/contrib/gaussian/g16/B01/g16/l1112.exe)
 MP22nd: MDV=   16106127360
 This link is doing NAtomX=     5 total of    18 degrees of freedom.
 Using ON3 I/O method in MakUI.
 Frozen-core window:  NFC=   4 NFV=   0.
 Using Ix for Sx.
 Use MO integrals over full window.
 Using OV2 memory method for fx*t*t/D, MaxI=    16 DoOO2=F NP=  28.
 R2 and R3 integrals will be kept in memory, NReq=   915591705.
 FoFCou: FMM=F IPFlag=           0 FMFlag=           0 FMFlg1=           0
         NFxFlg=           0 DoJE=F BraDBF=F KetDBF=F FulRan=T
         wScrn=  0.000000 ICntrl=       600 IOpCl=  0 I1Cent=           0 NGrid=           0
         NMat0=    1 NMatS0=      1 NMatT0=    0 NMatD0=    1 NMtDS0=    0 NMtDT0=    0
 Symmetry not used in FoFCou.
 DD1Dir will call FoFMem   1 times, MxPair=       272
 NAB=   136 NAA=     0 NBB=     0.
 Symmetry is being used.
 FoFJK:  IHMeth= 1 ICntrl=       0 DoSepK=F KAlg= 0 I1Cent=           0 FoldK=F
 IRaf=         0 NMat=      18 IRICut=      45 DoRegI=T DoRafI=T ISym2E= 2 IDoP0=3 IntGTp=3.
 Discarding MO integrals.
 Leave Link 1112 at Mon Feb 21 20:07:22 2022, MaxMem= 16106127360 cpu:            1004.9 elap:              36.3
 (Enter /sw/contrib/gaussian/g16/B01/g16/l601.exe)
 Copying SCF densities to generalized density rwf, IOpCl= 0 IROHF=0.

 **********************************************************************

            Population analysis using the MP2 Density.

 **********************************************************************

 Orbital symmetries:
       Occupied  (A') (A') (A') (A') (A') (A') (A') (A') (A') (A')
                 (A") (A') (A") (A') (A") (A')
       Virtual   (A') (A") (A') (A') (A") (A') (A') (A') (A") (A')
                 (A") (A') (A') (A') (A") (A') (A') (A") (A') (A')
                 (A') (A') (A') (A') (A") (A') (A') (A") (A') (A')
                 (A") (A') (A") (A') (A') (A") (A') (A') (A") (A')
                 (A") (A') (A") (A') (A') (A") (A') (A') (A") (A')
                 (A") (A') (A') (A') (A") (A') (A") (A') (A") (A')
                 (A') (A') (A") (A') (A') (A") (A') (A") (A') (A')
                 (A") (A') (A') (A") (A") (A') (A') (A") (A') (A')
                 (A') (A") (A') (A") (A') (A") (A') (A") (A') (A')
                 (A") (A') (A') (A") (A') (A") (A') (A") (A') (A')
                 (A") (A') (A") (A') (A') (A") (A') (A') (A") (A')
                 (A") (A') (A') (A') (A") (A') (A') (A') (A") (A')
                 (A") (A') (A") (A') (A') (A") (A") (A') (A") (A')
                 (A') (A') (A') (A") (A") (A") (A') (A') (A') (A')
                 (A") (A') (A') (A") (A') (A") (A') (A') (A') (A')
                 (A") (A') (A') (A") (A') (A") (A') (A") (A') (A")
                 (A') (A") (A') (A") (A') (A") (A") (A') (A") (A')
                 (A") (A') (A") (A') (A") (A') (A") (A") (A') (A')
                 (A') (A') (A') (A') (A') (A') (A') (A') (A') (A')
                 (A')
 The electronic state is 1-A'.
 Alpha  occ. eigenvalues --  -20.69131 -20.68460 -20.65873 -15.81316  -1.62440
 Alpha  occ. eigenvalues --   -1.49775  -1.25755  -0.94844  -0.77416  -0.76042
 Alpha  occ. eigenvalues --   -0.71217  -0.68175  -0.62093  -0.59019  -0.48577
 Alpha  occ. eigenvalues --   -0.47293
 Alpha virt. eigenvalues --    0.02992   0.07143   0.08587   0.10167   0.13384
 Alpha virt. eigenvalues --    0.13392   0.14470   0.15514   0.17802   0.19413
 Alpha virt. eigenvalues --    0.19976   0.20637   0.22076   0.23498   0.23723
 Alpha virt. eigenvalues --    0.26642   0.29371   0.30461   0.31107   0.34330
 Alpha virt. eigenvalues --    0.34887   0.38741   0.42373   0.43400   0.52721
 Alpha virt. eigenvalues --    0.52904   0.55845   0.58139   0.62576   0.63826
 Alpha virt. eigenvalues --    0.67426   0.68591   0.70633   0.71173   0.72544
 Alpha virt. eigenvalues --    0.72950   0.74499   0.79112   0.79228   0.81056
 Alpha virt. eigenvalues --    0.81254   0.83080   0.86800   0.90791   0.92278
 Alpha virt. eigenvalues --    0.92655   0.95788   0.97561   0.98675   1.01983
 Alpha virt. eigenvalues --    1.05125   1.05490   1.08378   1.12013   1.14306
 Alpha virt. eigenvalues --    1.18895   1.22174   1.23571   1.33837   1.34963
 Alpha virt. eigenvalues --    1.38598   1.45792   1.49214   1.51169   1.53759
 Alpha virt. eigenvalues --    1.56699   1.57876   1.61517   1.66267   1.66892
 Alpha virt. eigenvalues --    1.70341   1.79354   1.83181   1.83436   1.87777
 Alpha virt. eigenvalues --    1.91159   1.96416   1.99273   2.00904   2.07788
 Alpha virt. eigenvalues --    2.12277   2.13181   2.14992   2.22527   2.26287
 Alpha virt. eigenvalues --    2.26568   2.28961   2.31598   2.34485   2.38937
 Alpha virt. eigenvalues --    2.42455   2.43013   2.45407   2.46309   2.47751
 Alpha virt. eigenvalues --    2.50241   2.58345   2.59721   2.62024   2.62670
 Alpha virt. eigenvalues --    2.63408   2.66538   2.75745   2.81986   2.85635
 Alpha virt. eigenvalues --    2.88501   2.89359   2.92568   2.95759   3.02771
 Alpha virt. eigenvalues --    3.06920   3.11959   3.20419   3.22795   3.31888
 Alpha virt. eigenvalues --    3.34328   3.51638   3.64939   3.83865   3.86190
 Alpha virt. eigenvalues --    4.16299   4.16841   4.18751   4.25918   4.36538
 Alpha virt. eigenvalues --    4.39655   4.46861   4.52501   4.66348   4.71665
 Alpha virt. eigenvalues --    4.80671   4.82401   4.85534   4.89605   5.02318
 Alpha virt. eigenvalues --    5.07755   5.11642   5.15382   5.18794   5.26666
 Alpha virt. eigenvalues --    5.27603   5.31223   5.35965   5.36897   5.61485
 Alpha virt. eigenvalues --    5.67362   5.77396   5.83789   5.95922   6.16530
 Alpha virt. eigenvalues --    6.30912   6.33601   6.39854   6.49358   6.50542
 Alpha virt. eigenvalues --    6.61632   6.66651   6.69980   6.75691   6.76303
 Alpha virt. eigenvalues --    6.83308   6.89819   7.02248   7.05757   7.05967
 Alpha virt. eigenvalues --    7.09161   7.12739   7.15316   7.18132   7.22906
 Alpha virt. eigenvalues --    7.27064   7.32272   7.32614   7.35344   7.39868
 Alpha virt. eigenvalues --    7.43431   7.48442   7.60911   7.62132   7.63013
 Alpha virt. eigenvalues --    7.67112   7.80854   7.88757   8.09952   8.31905
 Alpha virt. eigenvalues --    8.42952   8.55007  13.39521  14.40763  15.40011
 Alpha virt. eigenvalues --   16.15241
          Condensed to atoms (all electrons):
               1          2          3          4          5
     1  H    0.607276   0.122197   0.021865   0.012820  -0.000701
     2  O    0.122197   8.317223  -0.175522  -0.091663   0.015679
     3  O    0.021865  -0.175522   8.470766  -0.130311  -0.038633
     4  N    0.012820  -0.091663  -0.130311   6.972084  -0.055741
     5  O   -0.000701   0.015679  -0.038633  -0.055741   8.272667
 Mulliken charges:
               1
     1  H    0.236543
     2  O   -0.187915
     3  O   -0.148166
     4  N    0.292810
     5  O   -0.193272
 Sum of Mulliken charges =  -0.00000
 Mulliken charges with hydrogens summed into heavy atoms:
               1
     2  O    0.048628
     3  O   -0.148166
     4  N    0.292810
     5  O   -0.193272
 APT charges:
               1
     1  H    0.299951
     2  O   -0.290716
     3  O   -0.494739
     4  N    0.876740
     5  O   -0.391235
 Sum of APT charges =  -0.00000
 APT charges with hydrogens summed into heavy atoms:
               1
     2  O    0.009235
     3  O   -0.494739
     4  N    0.876740
     5  O   -0.391235
 Electronic spatial extent (au):  <R**2>=            252.7149
 Charge=             -0.0000 electrons
 Dipole moment (field-independent basis, Debye):
    X=              0.4998    Y=              1.3406    Z=              0.0000  Tot=              1.4307
 Quadrupole moment (field-independent basis, Debye-Ang):
   XX=            -22.4620   YY=            -18.6766   ZZ=            -21.9904
   XY=              3.2247   XZ=              0.0000   YZ=             -0.0000
 Traceless Quadrupole moment (field-independent basis, Debye-Ang):
   XX=             -1.4190   YY=              2.3664   ZZ=             -0.9473
   XY=              3.2247   XZ=              0.0000   YZ=             -0.0000
 Octapole moment (field-independent basis, Debye-Ang**2):
  XXX=              2.8911  YYY=             11.1144  ZZZ=              0.0000  XYY=              7.7988
  XXY=              6.5393  XXZ=              0.0000  XZZ=             -1.5516  YZZ=             -0.8330
  YYZ=              0.0000  XYZ=              0.0000
 Hexadecapole moment (field-independent basis, Debye-Ang**3):
 XXXX=           -158.2450 YYYY=            -89.9500 ZZZZ=            -18.2079 XXXY=            -36.6378
 XXXZ=              0.0000 YYYX=            -30.9697 YYYZ=             -0.0000 ZZZX=              0.0000
 ZZZY=             -0.0000 XXYY=            -34.0684 XXZZ=            -30.8121 YYZZ=            -20.6008
 XXYZ=             -0.0000 YYXZ=             -0.0000 ZZXY=            -15.0071
 N-N= 1.169651284202D+02 E-N=-8.960448823977D+02  KE= 2.802254046255D+02
 Symmetry A'   KE= 2.662527571648D+02
 Symmetry A"   KE= 1.397264746073D+01
  Exact polarizability:  33.928   9.399  30.036   0.000   0.000  17.889
 Approx polarizability:  28.965   5.085  23.359  -0.000   0.000  15.496
 No NMR shielding tensors so no spin-rotation constants.
 Leave Link  601 at Mon Feb 21 20:07:23 2022, MaxMem= 16106127360 cpu:               4.4 elap:               0.2
 (Enter /sw/contrib/gaussian/g16/B01/g16/l701.exe)
 ... and contract with generalized density number  2.
 Compute integral second derivatives.
 Leave Link  701 at Mon Feb 21 20:07:23 2022, MaxMem= 16106127360 cpu:               6.1 elap:               0.2
 (Enter /sw/contrib/gaussian/g16/B01/g16/l702.exe)
 L702 exits ... SP integral derivatives will be done elsewhere.
 Leave Link  702 at Mon Feb 21 20:07:23 2022, MaxMem= 16106127360 cpu:               1.0 elap:               0.1
 (Enter /sw/contrib/gaussian/g16/B01/g16/l703.exe)
 Integral derivatives from FoFJK, PRISM(SPDF).
 Compute integral second derivatives, UseDBF=F ICtDFT=           0.
 Calling FoFJK, ICntrl=  10100127 FMM=F ISym2X=1 I1Cent= 0 IOpClX= 0 NMat=1 NMatS=1 NMatT=0.
 FoFJK:  IHMeth= 1 ICntrl=10100127 DoSepK=F KAlg= 0 I1Cent=           0 FoldK=F
 IRaf=         0 NMat=       1 IRICut=       1 DoRegI=T DoRafI=F ISym2E= 1 IDoP0=0 IntGTp=1.
 FoFCou: FMM=F IPFlag=           0 FMFlag=      100000 FMFlg1=         800
         NFxFlg=           0 DoJE=F BraDBF=F KetDBF=F FulRan=T
         wScrn=  0.000000 ICntrl=  10100127 IOpCl=  0 I1Cent=           0 NGrid=           0
         NMat0=    1 NMatS0=      1 NMatT0=    0 NMatD0=    1 NMtDS0=    0 NMtDT0=    0
 Petite list used in FoFCou.
 Leave Link  703 at Mon Feb 21 20:07:38 2022, MaxMem= 16106127360 cpu:             423.1 elap:              15.2
 (Enter /sw/contrib/gaussian/g16/B01/g16/l716.exe)
 Dipole        = 1.96637304D-01 5.27414610D-01 1.54609590D-32
 Polarizability= 3.39284263D+01 9.39868038D+00 3.00360110D+01
                 6.78318752D-32 8.65322111D-31 1.78888999D+01
 Full mass-weighted force constant matrix:
 Low frequencies --- -565.8297  -56.0825  -49.3068    0.0009    0.0012    0.0015
 Low frequencies ---   11.0413  228.3950  323.9423
 ******    1 imaginary frequencies (negative Signs) ****** 
 Diagonal vibrational polarizability:
       13.9932661      25.4358620      11.0976529
 Harmonic frequencies (cm**-1), IR intensities (KM/Mole), Raman scattering
 activities (A**4/AMU), depolarization ratios for plane and unpolarized
 incident light, reduced masses (AMU), force constants (mDyne/A),
 and normal coordinates:
                      1                      2                      3
                     A"                     A"                     A'
 Frequencies --   -556.3003               228.2199               323.5726
 Red. masses --      1.1189                12.3773                 7.8569
 Frc consts  --      0.2040                 0.3798                 0.4847
 IR Inten    --    127.1762                 0.0746                 5.9510
  Atom  AN      X      Y      Z        X      Y      Z        X      Y      Z
     1   1     0.00  -0.00   1.00     0.00  -0.00  -0.44     0.60  -0.42   0.00
     2   8     0.00  -0.00  -0.06    -0.00  -0.00  -0.35    -0.10  -0.35   0.00
     3   8    -0.00   0.00  -0.05    -0.00   0.00   0.35    -0.13   0.42  -0.00
     4   7    -0.00   0.00   0.05    -0.00   0.00   0.58     0.04   0.23  -0.00
     5   8     0.00  -0.00   0.00     0.00  -0.00  -0.48     0.16  -0.24   0.00
                      4                      5                      6
                     A'                     A'                     A'
 Frequencies --    451.9189               778.5844               966.0497
 Red. masses --     12.2972                12.0421                15.6949
 Frc consts  --      1.4797                 4.3009                 8.6299
 IR Inten    --    198.6636               157.8033                26.8797
  Atom  AN      X      Y      Z        X      Y      Z        X      Y      Z
     1   1     0.41   0.20   0.00    -0.43   0.17   0.00    -0.09  -0.03  -0.00
     2   8     0.32   0.21   0.00     0.42   0.06   0.00    -0.52   0.04   0.00
     3   8     0.18   0.43  -0.00    -0.07  -0.24  -0.00     0.76  -0.03  -0.00
     4   7    -0.35  -0.41  -0.00    -0.14   0.60  -0.00    -0.12   0.26  -0.00
     5   8    -0.22  -0.29   0.00    -0.20  -0.36   0.00    -0.12  -0.23   0.00
                      7                      8                      9
                     A'                     A'                     A'
 Frequencies --   1315.9594              1677.0088              3987.8012
 Red. masses --      1.1509                13.5377                 1.0675
 Frc consts  --      1.1743                22.4318                10.0021
 IR Inten    --    156.1468               143.3686                84.4522
  Atom  AN      X      Y      Z        X      Y      Z        X      Y      Z
     1   1     0.99  -0.05  -0.00    -0.31   0.00   0.00     0.10   0.99  -0.00
     2   8    -0.02   0.06   0.00    -0.01  -0.04  -0.00    -0.01  -0.06   0.00
     3   8    -0.02  -0.06   0.00     0.00   0.15  -0.00     0.00   0.00   0.00
     4   7     0.02   0.02  -0.00     0.71  -0.05   0.00    -0.00  -0.00  -0.00
     5   8    -0.03  -0.01  -0.00    -0.60  -0.07   0.00     0.00   0.00  -0.00

 -------------------
 - Thermochemistry -
 -------------------
 Temperature   298.150 Kelvin.  Pressure   1.00000 Atm.
 Atom     1 has atomic number  1 and mass   1.00783
 Atom     2 has atomic number  8 and mass  15.99491
 Atom     3 has atomic number  8 and mass  15.99491
 Atom     4 has atomic number  7 and mass  14.00307
 Atom     5 has atomic number  8 and mass  15.99491
 Molecular mass:    62.99564 amu.
 Principal axes and moments of inertia in atomic units:
                           1         2         3
     Eigenvalues --    32.80115 359.97540 392.77655
           X            0.81032  -0.58599   0.00000
           Y            0.58599   0.81032   0.00000
           Z            0.00000  -0.00000   1.00000
 This molecule is an asymmetric top.
 Rotational symmetry number  1.
 Rotational temperatures (Kelvin)      2.64058     0.24061     0.22052
 Rotational constants (GHZ):          55.02067     5.01351     4.59483
    1 imaginary frequencies ignored.
 Zero-point vibrational energy      58193.0 (Joules/Mol)
                                   13.90847 (Kcal/Mol)
 Warning -- explicit consideration of   3 degrees of freedom as
           vibrations may cause significant error
 Vibrational temperatures:    328.36   465.55   650.21  1120.21  1389.93
          (Kelvin)           1893.37  2412.84  5737.56
 
 Zero-point correction=                           0.022165 (Hartree/Particle)
 Thermal correction to Energy=                    0.026308
 Thermal correction to Enthalpy=                  0.027252
 Thermal correction to Gibbs Free Energy=        -0.003980
 Sum of electronic and zero-point Energies=           -280.424334
 Sum of electronic and thermal Energies=              -280.420190
 Sum of electronic and thermal Enthalpies=            -280.419246
 Sum of electronic and thermal Free Energies=         -280.450478
 
                     E (Thermal)             CV                S
                      KCal/Mol        Cal/Mol-Kelvin    Cal/Mol-Kelvin
 Total                   16.509             12.027             65.734
 Electronic               0.000              0.000              0.000
 Translational            0.889              2.981             38.341
 Rotational               0.889              2.981             23.054
 Vibrational             14.731              6.066              4.339
 Vibration     1          0.651              1.798              1.893
 Vibration     2          0.708              1.628              1.292
 Vibration     3          0.811              1.357              0.790
                       Q            Log10(Q)             Ln(Q)
 Total Bot       0.676943D+02          1.830552          4.215002
 Total V=0       0.106055D+13         12.025531         27.689808
 Vib (Bot)       0.141297D-09         -9.849867        -22.680156
 Vib (Bot)    1  0.863689D+00         -0.063643         -0.146543
 Vib (Bot)    2  0.579713D+00         -0.236787         -0.545222
 Vib (Bot)    3  0.378873D+00         -0.421507         -0.970555
 Vib (V=0)       0.221366D+01          0.345112          0.794649
 Vib (V=0)    1  0.149798D+01          0.175505          0.404116
 Vib (V=0)    2  0.126555D+01          0.102279          0.235507
 Vib (V=0)    3  0.112733D+01          0.052052          0.119853
 Electronic      0.100000D+01          0.000000          0.000000
 Translational   0.196526D+08          7.293420         16.793719
 Rotational      0.243781D+05          4.386999         10.101439
 
                                                                title
                                                             IR Spectrum
 
     3                                                                         1           1                                         
     9                                                                         6           3          9     7         4   3  2       
     8                                                                         7           1          6     7         5   2  2       
     8                                                                         7           6          6     9         2   4  8       
 
     X                                                                         X           X          X     X         X   X  X       
     X                                                                         X           X          X     X         X              
     X                                                                         X           X          X     X         X              
     X                                                                         X           X                X         X              
     X                                                                         X           X                X         X              
     X                                                                         X           X                X         X              
     X                                                                         X           X                X         X              
     X                                                                         X           X                X         X              
     X                                                                         X           X                X         X              
                                                                               X           X                X         X              
                                                                               X           X                X         X              
                                                                               X           X                X         X              
                                                                               X           X                X         X              
                                                                               X           X                X         X              
                                                                                           X                X         X              
                                                                                           X                X         X              
                                                                                                                      X              
                                                                                                                      X              
                                                                                                                      X              
                                                                                                                      X              
 
 ***** Axes restored to original set *****
 -------------------------------------------------------------------
 Center     Atomic                   Forces (Hartrees/Bohr)
 Number     Number              X              Y              Z
 -------------------------------------------------------------------
      1        1          -0.000092983   -0.000000000   -0.016131299
      2        8           0.000662391    0.000000000    0.016115233
      3        8          -0.000569699   -0.000000000    0.000001019
      4        7          -0.000274761   -0.000000000   -0.000015371
      5        8           0.000275052    0.000000000    0.000030419
 -------------------------------------------------------------------
 Cartesian Forces:  Max     0.016131299 RMS     0.005892616
 -----------------------------------------------------------------------------------------------
                       Internal Coordinate Forces (Hartree/Bohr or radian)
  Cent   Atom   N1       Length/X         N2         Alpha/Y        N3         Beta/Z          J
 -----------------------------------------------------------------------------------------------
      1  H 
      2  O        1   0.016131(     1)
      3  O        2  -0.000562(     2)      1   0.000168(     5)
      4  N        3   0.000015(     3)      2   0.000083(     6)      1  -0.000000(     8)     0
      5  O        4   0.000274(     4)      3  -0.000086(     7)      2   0.000000(     9)     0
 -----------------------------------------------------------------------------------------------
 Internal  Forces:  Max     0.016131299 RMS     0.005381580
 Force constants in Cartesian coordinates: 
                1             2             3             4             5 
      1  0.583030D-01
      2  0.000000D+00 -0.113886D-01
      3  0.545259D-02  0.000000D+00  0.570623D+00
      4 -0.285995D-01  0.000000D+00 -0.168328D-01  0.265028D+00
      5  0.000000D+00  0.120315D-01  0.000000D+00  0.000000D+00 -0.668984D-02
      6  0.494173D-01  0.000000D+00 -0.566857D+00  0.330839D-01  0.000000D+00
      7 -0.189554D-01  0.000000D+00  0.129039D-01 -0.219859D+00  0.000000D+00
      8  0.000000D+00  0.107558D-02  0.000000D+00  0.000000D+00 -0.680616D-02
      9 -0.544313D-01  0.000000D+00 -0.316661D-03 -0.186723D-01  0.000000D+00
     10 -0.947057D-02  0.000000D+00 -0.488430D-02 -0.170487D-01  0.000000D+00
     11  0.000000D+00 -0.276058D-02  0.000000D+00  0.000000D+00 -0.486443D-02
     12  0.541325D-02  0.000000D+00 -0.489885D-02  0.116612D-01  0.000000D+00
     13 -0.127757D-02  0.000000D+00  0.336065D-02  0.479081D-03  0.000000D+00
     14  0.000000D+00  0.104218D-02  0.000000D+00  0.000000D+00  0.632898D-02
     15 -0.585179D-02  0.000000D+00  0.144987D-02 -0.924007D-02  0.000000D+00
                6             7             8             9            10 
      6  0.653624D+00
      7 -0.217214D-01  0.341813D+00
      8  0.000000D+00  0.000000D+00  0.435199D-02
      9 -0.792155D-01  0.363324D-01  0.000000D+00  0.181677D+00
     10 -0.526340D-01 -0.780380D-01  0.000000D+00  0.175033D+00  0.828466D+00
     11  0.000000D+00  0.000000D+00  0.854529D-02  0.000000D+00  0.000000D+00
     12  0.171528D-01  0.628029D-01  0.000000D+00 -0.819151D-01 -0.178286D-01
     13 -0.814580D-02 -0.249600D-01  0.000000D+00 -0.138262D+00 -0.723908D+00
     14  0.000000D+00  0.000000D+00 -0.716669D-02  0.000000D+00  0.000000D+00
     15 -0.247041D-01 -0.903178D-01  0.000000D+00 -0.202296D-01 -0.996862D-01
               11            12            13            14            15 
     11  0.855041D-02
     12  0.000000D+00  0.187033D+00
     13  0.000000D+00 -0.620489D-01  0.749667D+00
     14 -0.947069D-02  0.000000D+00  0.000000D+00  0.926622D-02
     15  0.000000D+00 -0.117372D+00  0.205096D+00  0.000000D+00  0.160856D+00
 Force constants in internal coordinates: 
                1             2             3             4             5 
      1  0.570623D+00
      2 -0.107827D-01  0.281700D+00
      3  0.356228D-02  0.238545D-02  0.117433D+00
      4 -0.361531D-02  0.585394D-02  0.153050D+00  0.812013D+00
      5  0.972868D-02  0.660980D-01  0.237463D-02  0.484475D-02  0.218228D+00
      6  0.466913D-02  0.592684D-01  0.413279D-01  0.218716D-01  0.316845D-01
      7 -0.126248D-02  0.378660D-01  0.319791D-01  0.847882D-01  0.213285D-01
      8  0.000000D+00  0.000000D+00  0.000000D+00  0.000000D+00  0.000000D+00
      9  0.000000D+00  0.000000D+00  0.000000D+00  0.000000D+00  0.000000D+00
                6             7             8             9 
      6  0.283531D+00
      7  0.957404D-01  0.482767D+00
      8  0.000000D+00  0.000000D+00 -0.777794D-02
      9  0.000000D+00  0.000000D+00 -0.389008D-02  0.410805D-01
 Leave Link  716 at Mon Feb 21 20:07:38 2022, MaxMem= 16106127360 cpu:               5.8 elap:               0.3
 (Enter /sw/contrib/gaussian/g16/B01/g16/l103.exe)

 GradGradGradGradGradGradGradGradGradGradGradGradGradGradGradGradGradGrad
 Berny optimization.
 Search for a local minimum.
 Step number   1 out of a maximum of    2
 All quantities printed in internal units (Hartrees-Bohrs-Radians)
 Second derivative matrix not updated -- analytic derivatives used.
 The second derivative matrix:
                          r1        r2        r3        r4        a1
           r1           0.57062
           r2          -0.01078   0.28170
           r3           0.00356   0.00239   0.11743
           r4          -0.00362   0.00585   0.15305   0.81201
           a1           0.00973   0.06610   0.00237   0.00484   0.21823
           a2           0.00467   0.05927   0.04133   0.02187   0.03168
           a3          -0.00126   0.03787   0.03198   0.08479   0.02133
           d1           0.00000  -0.00000  -0.00000  -0.00000  -0.00000
           d2          -0.00000   0.00000   0.00000   0.00000   0.00000
                          a2        a3        d1        d2
           a2           0.28353
           a3           0.09574   0.48277
           d1          -0.00000  -0.00000  -0.00778
           d2          -0.00000  -0.00000  -0.00389   0.04108
 ITU=  0
     Eigenvalues ---   -0.00809   0.04139   0.07837   0.17586   0.22609
     Eigenvalues ---    0.32621   0.51753   0.57125   0.87099
 Eigenvalue     1 is  -8.09D-03 should be greater than     0.000000 Eigenvector:
                          d1        d2        a3        a2        r3
   1                    0.99688   0.07887   0.00000   0.00000  -0.00000
                          r4        a1        r2        r1
   1                    0.00000  -0.00000   0.00000  -0.00000
 Angle between quadratic step and forces=   4.03 degrees.
 Linear search not attempted -- first point.
 Variable       Old X    -DE/DX   Delta X   Delta X   Delta X     New X
                                 (Linear)    (Quad)   (Total)
    r1        1.80128   0.01613   0.00000   0.02827   0.02827   1.82955
    r2        2.74940  -0.00056   0.00000  -0.00090  -0.00090   2.74850
    r3        2.75670   0.00002   0.00000  -0.00185  -0.00185   2.75485
    r4        2.21236   0.00027   0.00000   0.00082   0.00082   2.21318
    a1        1.70335   0.00017   0.00000  -0.00025  -0.00025   1.70310
    a2        1.78543   0.00008   0.00000   0.00028   0.00028   1.78571
    a3        1.90362  -0.00009   0.00000  -0.00010  -0.00010   1.90352
    d1        3.14159  -0.00000   0.00000  -0.00000   0.00000   3.14159
    d2        3.14159   0.00000   0.00000  -0.00000   0.00000   3.14159
         Item               Value     Threshold  Converged?
 Maximum Force            0.016131     0.000450     NO 
 RMS     Force            0.005382     0.000300     NO 
 Maximum Displacement     0.028271     0.001800     NO 
 RMS     Displacement     0.009454     0.001200     NO 
 Predicted change in Energy=-2.283723D-04
                       ----------------------------
                       ! Non-Optimized Parameters !
                       ! (Angstroms and Degrees)  !
 ----------------------                            ----------------------
 !      Name          Value   Derivative information (Atomic Units)     !
 ------------------------------------------------------------------------
 !       r1          0.9682   -DE/DX =    0.0161                        !
 !       r2          1.4544   -DE/DX =   -0.0006                        !
 !       r3          1.4578   -DE/DX =    0.0                           !
 !       r4          1.1712   -DE/DX =    0.0003                        !
 !       a1         97.5807   -DE/DX =    0.0002                        !
 !       a2        102.3138   -DE/DX =    0.0001                        !
 !       a3        109.0638   -DE/DX =   -0.0001                        !
 !       d1        180.0      -DE/DX =    0.0                           !
 !       d2        180.0      -DE/DX =    0.0                           !
 ------------------------------------------------------------------------
 GradGradGradGradGradGradGradGradGradGradGradGradGradGradGradGradGradGrad

 Leave Link  103 at Mon Feb 21 20:07:38 2022, MaxMem= 16106127360 cpu:               0.6 elap:               0.0
 (Enter /sw/contrib/gaussian/g16/B01/g16/l9999.exe)

 ----------------------------------------------------------------------

 Electric dipole moment (input orientation):
 (Debye = 10**-18 statcoulomb cm , SI units = C m)
                  (au)            (Debye)         (10**-30 SI)
   Tot        0.562879D+00      0.143069D+01      0.477228D+01
   x         -0.143993D+00     -0.365994D+00     -0.122082D+01
   y          0.000000D+00      0.000000D+00      0.000000D+00
   z         -0.544149D+00     -0.138309D+01     -0.461349D+01

 Dipole polarizability, Alpha (input orientation).
 (esu units = cm**3 , SI units = C**2 m**2 J**-1)
 Alpha(0;0):
               (au)            (10**-24 esu)      (10**-40 SI)
   iso        0.272844D+02      0.404314D+01      0.449860D+01
   aniso      0.217943D+02      0.322958D+01      0.359339D+01
   xx         0.320574D+02      0.475041D+01      0.528555D+01
   yx         0.000000D+00      0.000000D+00      0.000000D+00
   yy         0.178889D+02      0.265086D+01      0.294948D+01
   zx         0.959777D+01      0.142224D+01      0.158246D+01
   zy         0.000000D+00      0.000000D+00      0.000000D+00
   zz         0.319071D+02      0.472814D+01      0.526076D+01

 ----------------------------------------------------------------------

 Dipole orientation:
     1         -0.00000000          0.00000000         -0.00000000
     8         -0.46079447          0.00000000         -1.74134130
     8          2.08084321          0.00000000         -2.78980347
     7          1.59649382          0.00000000         -5.50362246
     8          3.52791844          0.00000000         -6.58256730

 Electric dipole moment (dipole orientation):
 (Debye = 10**-18 statcoulomb cm , SI units = C m)
                  (au)            (Debye)         (10**-30 SI)
   Tot        0.562879D+00      0.143069D+01      0.477228D+01
   x          0.000000D+00      0.000000D+00      0.000000D+00
   y          0.000000D+00      0.000000D+00      0.000000D+00
   z          0.562879D+00      0.143069D+01      0.477228D+01

 Dipole polarizability, Alpha (dipole orientation).
 (esu units = cm**3 , SI units = C**2 m**2 J**-1)
 Alpha(0;0):
               (au)            (10**-24 esu)      (10**-40 SI)
   iso        0.272844D+02      0.404314D+01      0.449860D+01
   aniso      0.217943D+02      0.322958D+01      0.359339D+01
   xx         0.273004D+02      0.404550D+01      0.450123D+01
   yx         0.000000D+00      0.000000D+00      0.000000D+00
   yy         0.178889D+02      0.265086D+01      0.294948D+01
   zx        -0.837876D+01     -0.124160D+01     -0.138147D+01
   zy         0.000000D+00      0.000000D+00      0.000000D+00
   zz         0.366640D+02      0.543305D+01      0.604508D+01

 ----------------------------------------------------------------------
 1\1\GINC-N2129\Freq\RMP2-FC\Aug-CC-pVTZ\H1N1O3\CGAVINH\21-Feb-2022\1\\
 #p freq mp2/aug-cc-pvtz density=current\\title\\0,1\H\O,1,r1\O,2,r2,1,
 a1\N,3,r3,2,a2,1,d1,0\O,4,r4,3,a3,2,d2,0\\r1=0.95319507\r2=1.45491931\
 r3=1.45878406\r4=1.17072885\a1=97.59494903\a2=102.29752444\a3=109.0695
 5123\d1=180.\d2=180.\\Version=ES64L-G16RevB.01\State=1-A'\HF=-279.5022
 037\MP2=-280.4464986\RMSD=3.787e-09\RMSF=5.893e-03\ZeroPoint=0.0221646
 \Thermal=0.0263082\Dipole=-0.143993,0.,-0.5441493\DipoleDeriv=0.264386
 2,0.,0.0487129,0.,0.3577761,0.,0.0852455,0.,0.2776899,-0.3280872,0.,-0
 .2049876,0.,-0.3172037,0.,-0.1172401,0.,-0.2268575,-0.0464464,0.,0.143
 3168,0.,-0.0865316,0.,-0.7492385,0.,-1.3512398,0.8960646,0.,0.910252,0
 .,0.0664002,0.,0.9219138,0.,1.6677553,-0.7859173,0.,-0.897294,0.,-0.02
 04411,0.,-0.1406808,0.,-0.3673479\Polar=32.0573766,0.,17.8888999,9.597
 7741,0.,31.9070606\Quadrupole=-1.4956995,-0.7043298,2.2000292,0.,2.076
 8793,0.\PG=CS [SG(H1N1O3)]\NImag=1\\0.05830304,0.,-0.01138863,0.005452
 59,0.,0.57062308,-0.02859949,0.,-0.01683278,0.26502846,0.,0.01203145,0
 .,0.,-0.00668984,0.04941726,0.,-0.56685744,0.03308391,0.,0.65362427,-0
 .01895542,0.,0.01290385,-0.21985936,0.,-0.02172142,0.34181278,0.,0.001
 07558,0.,0.,-0.00680616,0.,0.,0.00435199,-0.05443131,0.,-0.00031666,-0
 .01867229,0.,-0.07921546,0.03633239,0.,0.18167682,-0.00947057,0.,-0.00
 488430,-0.01704869,0.,-0.05263395,-0.07803797,0.,0.17503304,0.82846553
 ,0.,-0.00276058,0.,0.,-0.00486443,0.,0.,0.00854529,0.,0.,0.00855041,0.
 00541325,0.,-0.00489885,0.01166123,0.,0.01715277,0.06280295,0.,-0.0819
 1507,-0.01782855,0.,0.18703338,-0.00127757,0.,0.00336065,0.00047908,0.
 ,-0.00814580,-0.02496003,0.,-0.13826184,-0.72390830,0.,-0.06204888,0.7
 4966681,0.,0.00104218,0.,0.,0.00632898,0.,0.,-0.00716669,0.,0.,-0.0094
 7069,0.,0.,0.00926622,-0.00585179,0.,0.00144987,-0.00924007,0.,-0.0247
 0414,-0.09031777,0.,-0.02022964,-0.09968624,0.,-0.11737224,0.20509587,
 0.,0.16085614\\0.00009298,0.,0.01613130,-0.00066239,0.,-0.01611523,0.0
 0056970,0.,-0.00000102,0.00027476,0.,0.00001537,-0.00027505,0.,-0.0000
 3042\\\@


 SLITHERY-DITHERY
 FRIEDRICH A. KEKULE
 DREAMT ON A BUS OF THINGS
 FREUD WOULD THINK KEEN.
 MOST OF THE TIME THEY WERE
 HERPETOLOGICAL
 BITING THEIR TAILS IN THE
 SHAPE OF BENZENE.
 Job cpu time:       0 days  2 hours  1 minutes 31.0 seconds.
 Elapsed time:       0 days  0 hours  4 minutes 23.7 seconds.
 File lengths (MBytes):  RWF=   7239 Int=      0 D2E=      0 Chk=      8 Scr=      1
 Normal termination of Gaussian 16 at Mon Feb 21 20:07:39 2022.
