 Entering Gaussian System, Link 0=g16
 Input=hoono_d2_182p6979.gjf
 Output=hoono_d2_182p6979.log
 Initial command:
 /sw/contrib/gaussian/g16/B01/g16/l1.exe "/scr/Gau-5554.inp" -scrdir="/scr/"
 Entering Link 1 = /sw/contrib/gaussian/g16/B01/g16/l1.exe PID=      5555.
  
 Copyright (c) 1988-2017, Gaussian, Inc.  All Rights Reserved.
  
 This is part of the Gaussian(R) 16 program.  It is based on
 the Gaussian(R) 09 system (copyright 2009, Gaussian, Inc.),
 the Gaussian(R) 03 system (copyright 2003, Gaussian, Inc.),
 the Gaussian(R) 98 system (copyright 1998, Gaussian, Inc.),
 the Gaussian(R) 94 system (copyright 1995, Gaussian, Inc.),
 the Gaussian 92(TM) system (copyright 1992, Gaussian, Inc.),
 the Gaussian 90(TM) system (copyright 1990, Gaussian, Inc.),
 the Gaussian 88(TM) system (copyright 1988, Gaussian, Inc.),
 the Gaussian 86(TM) system (copyright 1986, Carnegie Mellon
 University), and the Gaussian 82(TM) system (copyright 1983,
 Carnegie Mellon University). Gaussian is a federally registered
 trademark of Gaussian, Inc.
  
 This software contains proprietary and confidential information,
 including trade secrets, belonging to Gaussian, Inc.
  
 This software is provided under written license and may be
 used, copied, transmitted, or stored only in accord with that
 written license.
  
 The following legend is applicable only to US Government
 contracts under FAR:
  
                    RESTRICTED RIGHTS LEGEND
  
 Use, reproduction and disclosure by the US Government is
 subject to restrictions as set forth in subparagraphs (a)
 and (c) of the Commercial Computer Software - Restricted
 Rights clause in FAR 52.227-19.
  
 Gaussian, Inc.
 340 Quinnipiac St., Bldg. 40, Wallingford CT 06492
  
  
 ---------------------------------------------------------------
 Warning -- This program may not be used in any manner that
 competes with the business of Gaussian, Inc. or will provide
 assistance to any competitor of Gaussian, Inc.  The licensee
 of this program is prohibited from giving any competitor of
 Gaussian, Inc. access to this program.  By using this program,
 the user acknowledges that Gaussian, Inc. is engaged in the
 business of creating and licensing software in the field of
 computational chemistry and represents and warrants to the
 licensee that it is not a competitor of Gaussian, Inc. and that
 it will not use this program in any manner prohibited above.
 ---------------------------------------------------------------
  

 Cite this work as:
 Gaussian 16, Revision B.01,
 M. J. Frisch, G. W. Trucks, H. B. Schlegel, G. E. Scuseria, 
 M. A. Robb, J. R. Cheeseman, G. Scalmani, V. Barone, 
 G. A. Petersson, H. Nakatsuji, X. Li, M. Caricato, A. V. Marenich, 
 J. Bloino, B. G. Janesko, R. Gomperts, B. Mennucci, H. P. Hratchian, 
 J. V. Ortiz, A. F. Izmaylov, J. L. Sonnenberg, D. Williams-Young, 
 F. Ding, F. Lipparini, F. Egidi, J. Goings, B. Peng, A. Petrone, 
 T. Henderson, D. Ranasinghe, V. G. Zakrzewski, J. Gao, N. Rega, 
 G. Zheng, W. Liang, M. Hada, M. Ehara, K. Toyota, R. Fukuda, 
 J. Hasegawa, M. Ishida, T. Nakajima, Y. Honda, O. Kitao, H. Nakai, 
 T. Vreven, K. Throssell, J. A. Montgomery, Jr., J. E. Peralta, 
 F. Ogliaro, M. J. Bearpark, J. J. Heyd, E. N. Brothers, K. N. Kudin, 
 V. N. Staroverov, T. A. Keith, R. Kobayashi, J. Normand, 
 K. Raghavachari, A. P. Rendell, J. C. Burant, S. S. Iyengar, 
 J. Tomasi, M. Cossi, J. M. Millam, M. Klene, C. Adamo, R. Cammi, 
 J. W. Ochterski, R. L. Martin, K. Morokuma, O. Farkas, 
 J. B. Foresman, and D. J. Fox, Gaussian, Inc., Wallingford CT, 2016.
 
 ******************************************
 Gaussian 16:  ES64L-G16RevB.01 20-Dec-2017
                21-Feb-2022 
 ******************************************
 %nproc=28
 Will use up to   28 processors via shared memory.
 %mem=120GB
 %chk=hoono_d2_182p6979.chk
 ---------------------------------------
 #p freq mp2/aug-cc-pvtz density=current
 ---------------------------------------
 1/10=4,30=1,38=1/1,3;
 2/12=2,17=6,18=5,40=1/2;
 3/5=16,6=1,7=10,11=9,25=1,30=1,71=2,140=1/1,2,3;
 4//1;
 5/5=2,38=5,98=1/2;
 8/6=3,8=1,10=1,19=11,30=-1/1;
 9/15=3,16=-3/6;
 11/6=1,8=1,15=11,17=12,24=-1,27=1,28=-2,29=300,32=6,42=3/1,2,10;
 10/6=2,21=1/2;
 8/6=4,8=1,10=1,19=11,30=-1/11,4;
 10/5=1,20=4/2;
 11/12=2,14=11,16=1,17=2,28=-2,42=3,76=2/2,10,12;
 6/7=2,8=2,9=2,10=2,22=-1/1;
 7/8=1,10=1,12=2,25=1,44=2/1,2,3,16;
 1/10=4,30=1/3;
 99//99;
 Leave Link    1 at Mon Feb 21 21:04:44 2022, MaxMem= 16106127360 cpu:               2.8 elap:               0.1
 (Enter /sw/contrib/gaussian/g16/B01/g16/l101.exe)
 -----
 title
 -----
 Symbolic Z-matrix:
 Charge =  0 Multiplicity = 1
 H
 O                    1    r1
 O                    2    r2       1    a1
 N                    3    r3       2    a2       1    d1       0
 O                    4    r4       3    a3       2    d2       0
       Variables:
  r1                    0.96898                  
  r2                    1.45492                  
  r3                    1.45878                  
  r4                    1.17073                  
  a1                   97.59495                  
  a2                  102.29752                  
  a3                  109.06955                  
  d1                  180.                       
  d2                  182.69791                  
 
 ITRead=  0  0  0  0  0
 MicOpt= -1 -1 -1 -1 -1
 NAtoms=      5 NQM=        5 NQMF=       0 NMMI=      0 NMMIF=      0
                NMic=       0 NMicF=      0.
                    Isotopes and Nuclear Properties:
 (Nuclear quadrupole moments (NQMom) in fm**2, nuclear magnetic moments (NMagM)
  in nuclear magnetons)

  Atom         1           2           3           4           5
 IAtWgt=           1          16          16          14          16
 AtmWgt=   1.0078250  15.9949146  15.9949146  14.0030740  15.9949146
 NucSpn=           1           0           0           2           0
 AtZEff=  -0.0000000  -0.0000000  -0.0000000  -0.0000000  -0.0000000
 NQMom=    0.0000000   0.0000000   0.0000000   2.0440000   0.0000000
 NMagM=    2.7928460   0.0000000   0.0000000   0.4037610   0.0000000
 AtZNuc=   1.0000000   8.0000000   8.0000000   7.0000000   8.0000000
 Leave Link  101 at Mon Feb 21 21:04:45 2022, MaxMem= 16106127360 cpu:               3.4 elap:               0.2
 (Enter /sw/contrib/gaussian/g16/B01/g16/l103.exe)

 GradGradGradGradGradGradGradGradGradGradGradGradGradGradGradGradGradGrad
 Berny optimization.
 Initialization pass.
                       ----------------------------
                       !    Initial Parameters    !
                       ! (Angstroms and Degrees)  !
 ----------------------                            ----------------------
 !      Name          Value   Derivative information (Atomic Units)     !
 ------------------------------------------------------------------------
 !       r1          0.969    calculate D2E/DX2 analytically            !
 !       r2          1.4549   calculate D2E/DX2 analytically            !
 !       r3          1.4588   calculate D2E/DX2 analytically            !
 !       r4          1.1707   calculate D2E/DX2 analytically            !
 !       a1         97.5949   calculate D2E/DX2 analytically            !
 !       a2        102.2975   calculate D2E/DX2 analytically            !
 !       a3        109.0696   calculate D2E/DX2 analytically            !
 !       d1        180.0      calculate D2E/DX2 analytically            !
 !       d2        182.6979   calculate D2E/DX2 analytically            !
 ------------------------------------------------------------------------
 Trust Radius=3.00D-01 FncErr=1.00D-07 GrdErr=1.00D-07 EigMax=2.50D+02 EigMin=1.00D-04
 Number of steps in this run=      2 maximum allowed number of steps=      2.
 GradGradGradGradGradGradGradGradGradGradGradGradGradGradGradGradGradGrad

 Leave Link  103 at Mon Feb 21 21:04:45 2022, MaxMem= 16106127360 cpu:               0.5 elap:               0.0
 (Enter /sw/contrib/gaussian/g16/B01/g16/l202.exe)
                          Input orientation:                          
 ---------------------------------------------------------------------
 Center     Atomic      Atomic             Coordinates (Angstroms)
 Number     Number       Type             X           Y           Z
 ---------------------------------------------------------------------
      1          1           0        0.000000    0.000000    0.000000
      2          8           0        0.000000    0.000000    0.968976
      3          8           0        1.442156    0.000000    1.161271
      4          7           0        1.561752    0.000000    2.615144
      5          8           0        2.694645    0.052082    2.905739
 ---------------------------------------------------------------------
                    Distance matrix (angstroms):
                    1          2          3          4          5
     1  H    0.000000
     2  O    0.968976   0.000000
     3  O    1.851584   1.454919   0.000000
     4  N    3.045989   2.269127   1.458784   0.000000
     5  O    3.963224   3.318867   2.148165   1.170729   0.000000
 Stoichiometry    HNO3
 Framework group  C1[X(HNO3)]
 Deg. of freedom     9
 Full point group                 C1      NOp   1
 Largest Abelian subgroup         C1      NOp   1
 Largest concise Abelian subgroup C1      NOp   1
                         Standard orientation:                         
 ---------------------------------------------------------------------
 Center     Atomic      Atomic             Coordinates (Angstroms)
 Number     Number       Type             X           Y           Z
 ---------------------------------------------------------------------
      1          1           0        2.248757    0.434479   -0.013638
      2          8           0        1.598597   -0.283989   -0.010573
      3          8           0        0.400417    0.541026    0.011906
      4          7           0       -0.663760   -0.456740    0.018319
      5          8           0       -1.699319    0.088301   -0.015657
 ---------------------------------------------------------------------
 Rotational constants (GHZ):          54.8887353           5.0117884           4.5935319
 Leave Link  202 at Mon Feb 21 21:04:45 2022, MaxMem= 16106127360 cpu:               1.9 elap:               0.1
 (Enter /sw/contrib/gaussian/g16/B01/g16/l301.exe)
 Standard basis: Aug-CC-pVTZ (5D, 7F)
 Ernie: Thresh=  0.10000D-02 Tol=  0.10000D-05 Strict=F.
 Ernie:  12 primitive shells out of 131 were deleted.
 There are   245 symmetry adapted cartesian basis functions of A   symmetry.
 There are   207 symmetry adapted basis functions of A   symmetry.
   207 basis functions,   315 primitive gaussians,   245 cartesian basis functions
    16 alpha electrons       16 beta electrons
       nuclear repulsion energy       116.8737382199 Hartrees.
 IExCor=    0 DFT=F Ex=HF Corr=None ExCW=0 ScaHFX=  1.000000
 ScaDFX=  1.000000  1.000000  1.000000  1.000000 ScalE2=  1.000000  1.000000
 IRadAn=      5 IRanWt=     -1 IRanGd=            0 ICorTp=0 IEmpDi=  4
 NAtoms=    5 NActive=    5 NUniq=    5 SFac= 1.00D+00 NAtFMM=   60 NAOKFM=F Big=F
 Integral buffers will be    131072 words long.
 Raffenetti 1 integral format.
 Two-electron integral symmetry is turned on.
 Leave Link  301 at Mon Feb 21 21:04:45 2022, MaxMem= 16106127360 cpu:               2.3 elap:               0.1
 (Enter /sw/contrib/gaussian/g16/B01/g16/l302.exe)
 NPDir=0 NMtPBC=     1 NCelOv=     1 NCel=       1 NClECP=     1 NCelD=      1
         NCelK=      1 NCelE2=     1 NClLst=     1 CellRange=     0.0.
 One-electron integrals computed using PRISM.
 One-electron integral symmetry used in STVInt
 NBasis=   207 RedAO= T EigKep=  1.82D-04  NBF=   207
 NBsUse=   207 1.00D-06 EigRej= -1.00D+00 NBFU=   207
 Leave Link  302 at Mon Feb 21 21:04:45 2022, MaxMem= 16106127360 cpu:               5.0 elap:               0.2
 (Enter /sw/contrib/gaussian/g16/B01/g16/l303.exe)
 DipDrv:  MaxL=1.
 Leave Link  303 at Mon Feb 21 21:04:45 2022, MaxMem= 16106127360 cpu:               0.7 elap:               0.0
 (Enter /sw/contrib/gaussian/g16/B01/g16/l401.exe)
 ExpMin= 2.53D-02 ExpMax= 1.53D+04 ExpMxC= 5.22D+02 IAcc=3 IRadAn=         5 AccDes= 0.00D+00
 Harris functional with IExCor=  205 and IRadAn=       5 diagonalized for initial guess.
 HarFok:  IExCor=  205 AccDes= 0.00D+00 IRadAn=         5 IDoV= 1 UseB2=F ITyADJ=14
 ICtDFT=  3500011 ScaDFX=  1.000000  1.000000  1.000000  1.000000
 FoFCou: FMM=F IPFlag=           0 FMFlag=      100000 FMFlg1=           0
         NFxFlg=           0 DoJE=T BraDBF=F KetDBF=T FulRan=T
         wScrn=  0.000000 ICntrl=       500 IOpCl=  0 I1Cent=   200000004 NGrid=           0
         NMat0=    1 NMatS0=      1 NMatT0=    0 NMatD0=    1 NMtDS0=    0 NMtDT0=    0
 Petite list used in FoFCou.
 Harris En= -279.628657669743    
 JPrj=0 DoOrth=F DoCkMO=F.
 Leave Link  401 at Mon Feb 21 21:04:45 2022, MaxMem= 16106127360 cpu:               7.0 elap:               0.3
 (Enter /sw/contrib/gaussian/g16/B01/g16/l502.exe)
 Keep R1 ints in memory in canonical form, NReq=245616893.
 FoFCou: FMM=F IPFlag=           0 FMFlag=           0 FMFlg1=           0
         NFxFlg=           0 DoJE=F BraDBF=F KetDBF=F FulRan=T
         wScrn=  0.000000 ICntrl=       600 IOpCl=  0 I1Cent=           0 NGrid=           0
         NMat0=    1 NMatS0=  21528 NMatT0=    0 NMatD0=    1 NMtDS0=    0 NMtDT0=    0
 Symmetry not used in FoFCou.
 Two-electron integral symmetry not used.
 Closed shell SCF:
 Using DIIS extrapolation, IDIIS=  1040.
 NGot= 16106127360 LenX= 15874260251 LenY= 15874199785
 Requested convergence on RMS density matrix=1.00D-08 within 128 cycles.
 Requested convergence on MAX density matrix=1.00D-06.
 Requested convergence on             energy=1.00D-06.
 No special actions if energy rises.

 Cycle   1  Pass 1  IDiag  1:
 E= -279.370467475295    
 DIIS: error= 2.61D-02 at cycle   1 NSaved=   1.
 NSaved= 1 IEnMin= 1 EnMin= -279.370467475295     IErMin= 1 ErrMin= 2.61D-02
 ErrMax= 2.61D-02  0.00D+00 EMaxC= 1.00D-01 BMatC= 4.38D-01 BMatP= 4.38D-01
 IDIUse=3 WtCom= 7.39D-01 WtEn= 2.61D-01
 Coeff-Com:  0.100D+01
 Coeff-En:   0.100D+01
 Coeff:      0.100D+01
 Gap=     0.519 Goal=   None    Shift=    0.000
 GapD=    0.519 DampG=2.000 DampE=0.500 DampFc=1.0000 IDamp=-1.
 RMSDP=1.62D-03 MaxDP=9.92D-02              OVMax= 1.13D-01

 Cycle   2  Pass 1  IDiag  1:
 E= -279.452412272585     Delta-E=       -0.081944797291 Rises=F Damp=F
 DIIS: error= 1.78D-02 at cycle   2 NSaved=   2.
 NSaved= 2 IEnMin= 2 EnMin= -279.452412272585     IErMin= 2 ErrMin= 1.78D-02
 ErrMax= 1.78D-02  0.00D+00 EMaxC= 1.00D-01 BMatC= 7.18D-02 BMatP= 4.38D-01
 IDIUse=3 WtCom= 8.22D-01 WtEn= 1.78D-01
 Coeff-Com:  0.195D+00 0.805D+00
 Coeff-En:   0.000D+00 0.100D+01
 Coeff:      0.160D+00 0.840D+00
 Gap=     0.534 Goal=   None    Shift=    0.000
 RMSDP=9.00D-04 MaxDP=3.73D-02 DE=-8.19D-02 OVMax= 6.92D-02

 Cycle   3  Pass 1  IDiag  1:
 E= -279.481516391128     Delta-E=       -0.029104118542 Rises=F Damp=F
 DIIS: error= 1.04D-02 at cycle   3 NSaved=   3.
 NSaved= 3 IEnMin= 3 EnMin= -279.481516391128     IErMin= 3 ErrMin= 1.04D-02
 ErrMax= 1.04D-02  0.00D+00 EMaxC= 1.00D-01 BMatC= 2.87D-02 BMatP= 7.18D-02
 IDIUse=3 WtCom= 8.96D-01 WtEn= 1.04D-01
 Coeff-Com: -0.330D-01 0.378D+00 0.655D+00
 Coeff-En:   0.000D+00 0.241D+00 0.759D+00
 Coeff:     -0.296D-01 0.364D+00 0.666D+00
 Gap=     0.510 Goal=   None    Shift=    0.000
 RMSDP=3.76D-04 MaxDP=1.54D-02 DE=-2.91D-02 OVMax= 3.81D-02

 Cycle   4  Pass 1  IDiag  1:
 E= -279.500582591491     Delta-E=       -0.019066200363 Rises=F Damp=F
 DIIS: error= 1.29D-03 at cycle   4 NSaved=   4.
 NSaved= 4 IEnMin= 4 EnMin= -279.500582591491     IErMin= 4 ErrMin= 1.29D-03
 ErrMax= 1.29D-03  0.00D+00 EMaxC= 1.00D-01 BMatC= 4.93D-04 BMatP= 2.87D-02
 IDIUse=3 WtCom= 9.87D-01 WtEn= 1.29D-02
 Coeff-Com: -0.117D-01 0.575D-01 0.158D+00 0.796D+00
 Coeff-En:   0.000D+00 0.000D+00 0.000D+00 0.100D+01
 Coeff:     -0.115D-01 0.567D-01 0.156D+00 0.798D+00
 Gap=     0.502 Goal=   None    Shift=    0.000
 RMSDP=9.02D-05 MaxDP=2.17D-03 DE=-1.91D-02 OVMax= 1.12D-02

 Cycle   5  Pass 1  IDiag  1:
 E= -279.501258699106     Delta-E=       -0.000676107615 Rises=F Damp=F
 DIIS: error= 7.37D-04 at cycle   5 NSaved=   5.
 NSaved= 5 IEnMin= 5 EnMin= -279.501258699106     IErMin= 5 ErrMin= 7.37D-04
 ErrMax= 7.37D-04  0.00D+00 EMaxC= 1.00D-01 BMatC= 8.72D-05 BMatP= 4.93D-04
 IDIUse=3 WtCom= 9.93D-01 WtEn= 7.37D-03
 Coeff-Com:  0.613D-02-0.724D-01-0.118D+00 0.202D-01 0.116D+01
 Coeff-En:   0.000D+00 0.000D+00 0.000D+00 0.000D+00 0.100D+01
 Coeff:      0.609D-02-0.719D-01-0.117D+00 0.201D-01 0.116D+01
 Gap=     0.502 Goal=   None    Shift=    0.000
 RMSDP=7.63D-05 MaxDP=2.10D-03 DE=-6.76D-04 OVMax= 1.11D-02

 Cycle   6  Pass 1  IDiag  1:
 E= -279.501574095421     Delta-E=       -0.000315396316 Rises=F Damp=F
 DIIS: error= 2.85D-04 at cycle   6 NSaved=   6.
 NSaved= 6 IEnMin= 6 EnMin= -279.501574095421     IErMin= 6 ErrMin= 2.85D-04
 ErrMax= 2.85D-04  0.00D+00 EMaxC= 1.00D-01 BMatC= 1.67D-05 BMatP= 8.72D-05
 IDIUse=3 WtCom= 9.97D-01 WtEn= 2.85D-03
 Coeff-Com:  0.594D-03 0.163D-02 0.453D-02-0.130D+00-0.231D+00 0.135D+01
 Coeff-En:   0.000D+00 0.000D+00 0.000D+00 0.000D+00 0.000D+00 0.100D+01
 Coeff:      0.592D-03 0.162D-02 0.452D-02-0.129D+00-0.231D+00 0.135D+01
 Gap=     0.502 Goal=   None    Shift=    0.000
 RMSDP=4.53D-05 MaxDP=1.06D-03 DE=-3.15D-04 OVMax= 5.55D-03

 Cycle   7  Pass 1  IDiag  1:
 E= -279.501646906826     Delta-E=       -0.000072811405 Rises=F Damp=F
 DIIS: error= 1.23D-04 at cycle   7 NSaved=   7.
 NSaved= 7 IEnMin= 7 EnMin= -279.501646906826     IErMin= 7 ErrMin= 1.23D-04
 ErrMax= 1.23D-04  0.00D+00 EMaxC= 1.00D-01 BMatC= 4.52D-06 BMatP= 1.67D-05
 IDIUse=3 WtCom= 9.99D-01 WtEn= 1.23D-03
 Coeff-Com: -0.939D-03 0.136D-01 0.265D-01-0.243D-01-0.287D+00 0.391D+00
 Coeff-Com:  0.881D+00
 Coeff-En:   0.000D+00 0.000D+00 0.000D+00 0.000D+00 0.000D+00 0.000D+00
 Coeff-En:   0.100D+01
 Coeff:     -0.938D-03 0.135D-01 0.264D-01-0.242D-01-0.287D+00 0.391D+00
 Coeff:      0.882D+00
 Gap=     0.502 Goal=   None    Shift=    0.000
 RMSDP=1.33D-05 MaxDP=3.78D-04 DE=-7.28D-05 OVMax= 1.55D-03

 Cycle   8  Pass 1  IDiag  1:
 E= -279.501655811982     Delta-E=       -0.000008905156 Rises=F Damp=F
 DIIS: error= 5.70D-05 at cycle   8 NSaved=   8.
 NSaved= 8 IEnMin= 8 EnMin= -279.501655811982     IErMin= 8 ErrMin= 5.70D-05
 ErrMax= 5.70D-05  0.00D+00 EMaxC= 1.00D-01 BMatC= 6.07D-07 BMatP= 4.52D-06
 IDIUse=1 WtCom= 1.00D+00 WtEn= 0.00D+00
 Coeff-Com: -0.449D-03 0.345D-02 0.761D-02 0.274D-01-0.409D-01-0.198D+00
 Coeff-Com:  0.171D+00 0.103D+01
 Coeff:     -0.449D-03 0.345D-02 0.761D-02 0.274D-01-0.409D-01-0.198D+00
 Coeff:      0.171D+00 0.103D+01
 Gap=     0.502 Goal=   None    Shift=    0.000
 RMSDP=6.91D-06 MaxDP=2.02D-04 DE=-8.91D-06 OVMax= 7.47D-04

 Cycle   9  Pass 1  IDiag  1:
 E= -279.501657590687     Delta-E=       -0.000001778705 Rises=F Damp=F
 DIIS: error= 1.58D-05 at cycle   9 NSaved=   9.
 NSaved= 9 IEnMin= 9 EnMin= -279.501657590687     IErMin= 9 ErrMin= 1.58D-05
 ErrMax= 1.58D-05  0.00D+00 EMaxC= 1.00D-01 BMatC= 6.94D-08 BMatP= 6.07D-07
 IDIUse=1 WtCom= 1.00D+00 WtEn= 0.00D+00
 Coeff-Com:  0.123D-03-0.172D-02-0.308D-02-0.207D-02 0.342D-01 0.158D-04
 Coeff-Com: -0.167D+00-0.103D+00 0.124D+01
 Coeff:      0.123D-03-0.172D-02-0.308D-02-0.207D-02 0.342D-01 0.158D-04
 Coeff:     -0.167D+00-0.103D+00 0.124D+01
 Gap=     0.502 Goal=   None    Shift=    0.000
 RMSDP=1.94D-06 MaxDP=5.16D-05 DE=-1.78D-06 OVMax= 1.75D-04

 Cycle  10  Pass 1  IDiag  1:
 E= -279.501657751516     Delta-E=       -0.000000160829 Rises=F Damp=F
 DIIS: error= 4.09D-06 at cycle  10 NSaved=  10.
 NSaved=10 IEnMin=10 EnMin= -279.501657751516     IErMin=10 ErrMin= 4.09D-06
 ErrMax= 4.09D-06  0.00D+00 EMaxC= 1.00D-01 BMatC= 5.57D-09 BMatP= 6.94D-08
 IDIUse=1 WtCom= 1.00D+00 WtEn= 0.00D+00
 Coeff-Com:  0.310D-04-0.242D-03-0.323D-03-0.270D-02 0.161D-02 0.197D-01
 Coeff-Com: -0.129D-01-0.743D-01-0.808D-01 0.115D+01
 Coeff:      0.310D-04-0.242D-03-0.323D-03-0.270D-02 0.161D-02 0.197D-01
 Coeff:     -0.129D-01-0.743D-01-0.808D-01 0.115D+01
 Gap=     0.502 Goal=   None    Shift=    0.000
 RMSDP=5.07D-07 MaxDP=2.11D-05 DE=-1.61D-07 OVMax= 4.18D-05

 Cycle  11  Pass 1  IDiag  1:
 E= -279.501657764188     Delta-E=       -0.000000012672 Rises=F Damp=F
 DIIS: error= 2.02D-06 at cycle  11 NSaved=  11.
 NSaved=11 IEnMin=11 EnMin= -279.501657764188     IErMin=11 ErrMin= 2.02D-06
 ErrMax= 2.02D-06  0.00D+00 EMaxC= 1.00D-01 BMatC= 6.69D-10 BMatP= 5.57D-09
 IDIUse=1 WtCom= 1.00D+00 WtEn= 0.00D+00
 Coeff-Com: -0.214D-04 0.246D-03 0.490D-03 0.538D-03-0.431D-02-0.360D-02
 Coeff-Com:  0.212D-01 0.312D-01-0.139D+00-0.180D+00 0.127D+01
 Coeff:     -0.214D-04 0.246D-03 0.490D-03 0.538D-03-0.431D-02-0.360D-02
 Coeff:      0.212D-01 0.312D-01-0.139D+00-0.180D+00 0.127D+01
 Gap=     0.502 Goal=   None    Shift=    0.000
 RMSDP=1.81D-07 MaxDP=6.52D-06 DE=-1.27D-08 OVMax= 1.75D-05

 Cycle  12  Pass 1  IDiag  1:
 E= -279.501657766049     Delta-E=       -0.000000001861 Rises=F Damp=F
 DIIS: error= 5.79D-07 at cycle  12 NSaved=  12.
 NSaved=12 IEnMin=12 EnMin= -279.501657766049     IErMin=12 ErrMin= 5.79D-07
 ErrMax= 5.79D-07  0.00D+00 EMaxC= 1.00D-01 BMatC= 7.42D-11 BMatP= 6.69D-10
 IDIUse=1 WtCom= 1.00D+00 WtEn= 0.00D+00
 Coeff-Com:  0.132D-05-0.301D-04-0.653D-04 0.183D-03 0.110D-02-0.232D-02
 Coeff-Com: -0.421D-02 0.542D-02 0.426D-01-0.115D+00-0.285D+00 0.136D+01
 Coeff:      0.132D-05-0.301D-04-0.653D-04 0.183D-03 0.110D-02-0.232D-02
 Coeff:     -0.421D-02 0.542D-02 0.426D-01-0.115D+00-0.285D+00 0.136D+01
 Gap=     0.502 Goal=   None    Shift=    0.000
 RMSDP=7.50D-08 MaxDP=2.82D-06 DE=-1.86D-09 OVMax= 6.75D-06

 Cycle  13  Pass 1  IDiag  1:
 E= -279.501657766295     Delta-E=       -0.000000000246 Rises=F Damp=F
 DIIS: error= 1.66D-07 at cycle  13 NSaved=  13.
 NSaved=13 IEnMin=13 EnMin= -279.501657766295     IErMin=13 ErrMin= 1.66D-07
 ErrMax= 1.66D-07  0.00D+00 EMaxC= 1.00D-01 BMatC= 4.70D-12 BMatP= 7.42D-11
 IDIUse=1 WtCom= 1.00D+00 WtEn= 0.00D+00
 Coeff-Com:  0.133D-05-0.143D-04-0.231D-04-0.937D-04 0.119D-03 0.808D-03
 Coeff-Com: -0.845D-03-0.345D-02 0.357D-03 0.434D-01-0.353D-01-0.343D+00
 Coeff-Com:  0.134D+01
 Coeff:      0.133D-05-0.143D-04-0.231D-04-0.937D-04 0.119D-03 0.808D-03
 Coeff:     -0.845D-03-0.345D-02 0.357D-03 0.434D-01-0.353D-01-0.343D+00
 Coeff:      0.134D+01
 Gap=     0.502 Goal=   None    Shift=    0.000
 RMSDP=2.18D-08 MaxDP=5.66D-07 DE=-2.46D-10 OVMax= 2.03D-06

 Cycle  14  Pass 1  IDiag  1:
 E= -279.501657766313     Delta-E=       -0.000000000018 Rises=F Damp=F
 DIIS: error= 5.49D-08 at cycle  14 NSaved=  14.
 NSaved=14 IEnMin=14 EnMin= -279.501657766313     IErMin=14 ErrMin= 5.49D-08
 ErrMax= 5.49D-08  0.00D+00 EMaxC= 1.00D-01 BMatC= 4.37D-13 BMatP= 4.70D-12
 IDIUse=1 WtCom= 1.00D+00 WtEn= 0.00D+00
 Coeff-Com: -0.289D-06 0.439D-05 0.763D-05 0.978D-05-0.102D-03 0.135D-04
 Coeff-Com:  0.378D-03 0.410D-03-0.284D-02-0.513D-03 0.219D-01-0.130D-01
 Coeff-Com: -0.294D+00 0.129D+01
 Coeff:     -0.289D-06 0.439D-05 0.763D-05 0.978D-05-0.102D-03 0.135D-04
 Coeff:      0.378D-03 0.410D-03-0.284D-02-0.513D-03 0.219D-01-0.130D-01
 Coeff:     -0.294D+00 0.129D+01
 Gap=     0.502 Goal=   None    Shift=    0.000
 RMSDP=6.57D-09 MaxDP=1.27D-07 DE=-1.84D-11 OVMax= 8.44D-07

 SCF Done:  E(RHF) =  -279.501657766     A.U. after   14 cycles
            NFock= 14  Conv=0.66D-08     -V/T= 2.0024
 KE= 2.788454670847D+02 PE=-8.950743773552D+02 EE= 2.198535142842D+02
 Leave Link  502 at Mon Feb 21 21:04:52 2022, MaxMem= 16106127360 cpu:              41.0 elap:               6.8
 (Enter /sw/contrib/gaussian/g16/B01/g16/l801.exe)
 ExpMin= 2.53D-02 ExpMax= 1.53D+04 ExpMxC= 5.22D+02 IAcc=3 IRadAn=         5 AccDes= 0.00D+00
 HarFok:  IExCor=  205 AccDes= 0.00D+00 IRadAn=         5 IDoV=-2 UseB2=F ITyADJ=14
 ICtDFT= 12500011 ScaDFX=  1.000000  1.000000  1.000000  1.000000
 Largest valence mixing into a core orbital is  2.08D-04
 Largest core mixing into a valence orbital is  3.63D-05
 Range of M.O.s used for correlation:     5   207
 NBasis=   207 NAE=    16 NBE=    16 NFC=     4 NFV=     0
 NROrb=    203 NOA=    12 NOB=    12 NVA=   191 NVB=   191

 **** Warning!!: The largest alpha MO coefficient is  0.17662766D+02

 Leave Link  801 at Mon Feb 21 21:04:52 2022, MaxMem= 16106127360 cpu:               1.6 elap:               0.1
 (Enter /sw/contrib/gaussian/g16/B01/g16/l906.exe)
 Frozen-core derivative calculation, NFC=   4 NFV=   0.
 FulOut=F Deriv=T AODrv=T NAtomX=     5
   MMem=           0  MDisk=          12 MDiskD=          12
  W3Min=      811440 MinDsk=     2425030 NBas6D=         245
 NBas2D=       30762    NTT=       30135    LW2=     7400000
    MDV= 16105638402 MDiskM=      328645 NBas2p=       30702
 Disk-based method using ON**2 memory for 12 occupieds at a time.
 Permanent disk used for amplitudes=    11516536 words.
 Estimated scratch disk usage=   321251614 words.
 IMap=   1   2   3   4   5   6   7   8   9  10  11  12  13  14  15  16
 Actual    scratch disk usage=   310331678 words.
 JobTyp=1 Pass  1:  I=   5 to  16 NPSUse= 28 ParTrn=T ParDer=T DoDerP=T.
 (rs|ai) integrals will be sorted in core.
 Spin components of T(2) and E(2):
     alpha-alpha T2 =       0.3402322438D-01 E2=     -0.1224020790D+00
     alpha-beta  T2 =       0.1868437390D+00 E2=     -0.7002272948D+00
     beta-beta   T2 =       0.3402322438D-01 E2=     -0.1224020790D+00
 The integrals were generated   1 times.
 ANorm=    0.1120218812D+01
 E2 =    -0.9450314528D+00 EUMP2 =    -0.28044668921915D+03
 Leave Link  906 at Mon Feb 21 21:06:30 2022, MaxMem= 16106127360 cpu:            2720.5 elap:              97.3
 (Enter /sw/contrib/gaussian/g16/B01/g16/l1101.exe)
 Using compressed Sx but separate Hx and Fx, NAtomX=     5.
 Will process      6 centers per pass.
 Leave Link 1101 at Mon Feb 21 21:06:30 2022, MaxMem= 16106127360 cpu:               5.0 elap:               0.2
 (Enter /sw/contrib/gaussian/g16/B01/g16/l1102.exe)
 Leave Link 1102 at Mon Feb 21 21:06:30 2022, MaxMem= 16106127360 cpu:               2.5 elap:               0.1
 (Enter /sw/contrib/gaussian/g16/B01/g16/l1110.exe)
 Forming Gx(P) for the SCF density, NAtomX=     5.
 Integral derivatives from FoFJK, PRISM(SPDF).
 Do as many integral derivatives as possible in FoFJK.
 G2DrvN: MDV=   16106126844.
 G2DrvN: will do     6 centers at a time, making    1 passes.
 Calling FoFCou, ICntrl=  3107 FMM=F I1Cent=   0 AccDes= 0.00D+00.
 FoFJK:  IHMeth= 1 ICntrl=    3107 DoSepK=F KAlg= 0 I1Cent=           0 FoldK=F
 IRaf=         0 NMat=       1 IRICut=       1 DoRegI=T DoRafI=F ISym2E= 0 IDoP0=0 IntGTp=1.
 FoFCou: FMM=F IPFlag=           0 FMFlag=      100000 FMFlg1=           0
         NFxFlg=           0 DoJE=F BraDBF=F KetDBF=F FulRan=T
         wScrn=  0.000000 ICntrl=      3107 IOpCl=  0 I1Cent=           0 NGrid=           0
         NMat0=    1 NMatS0=      1 NMatT0=    0 NMatD0=    1 NMtDS0=    0 NMtDT0=    0
 Symmetry not used in FoFCou.
 End of G2Drv F.D. properties file   721 does not exist.
 End of G2Drv F.D. properties file   722 does not exist.
 End of G2Drv F.D. properties file   788 does not exist.
 Leave Link 1110 at Mon Feb 21 21:06:33 2022, MaxMem= 16106127360 cpu:              83.5 elap:               3.0
 (Enter /sw/contrib/gaussian/g16/B01/g16/l1002.exe)
 Minotr:  Closed shell wavefunction.
          IDoAtm=11111
          Frozen-core window.
          Direct CPHF calculation.
          Differentiating once with respect to electric field.
                with respect to dipole field.
          Differentiating once with respect to nuclear coordinates.
          Requested convergence is 1.0D-08 RMS, and 1.0D-07 maximum.
          Secondary convergence is 1.0D-12 RMS, and 1.0D-12 maximum.
          NewPWx=T KeepS1=T KeepF1=T KeepIn=T MapXYZ=F SortEE=F KeepMc=T.
 Keep R1 ints in memory in canonical form, NReq=245618134.
 FoFCou: FMM=F IPFlag=           0 FMFlag=           0 FMFlg1=           0
         NFxFlg=           0 DoJE=F BraDBF=F KetDBF=F FulRan=T
         wScrn=  0.000000 ICntrl=       600 IOpCl=  0 I1Cent=           0 NGrid=           0
         NMat0=    1 NMatS0=  21528 NMatT0=    0 NMatD0=    1 NMtDS0=    0 NMtDT0=    0
 Symmetry not used in FoFCou.
 Two-electron integral symmetry not used.
          MDV=   16106127360 using IRadAn=       1.
          Solving linear equations simultaneously, MaxMat=       0.
          There are    18 degrees of freedom in the 1st order CPHF.  IDoFFX=6 NUNeed=    18.
     15 vectors produced by pass  0 Test12= 1.70D-14 5.56D-09 XBig12= 9.51D+00 1.10D+00.
 AX will form    15 AO Fock derivatives at one time.
     15 vectors produced by pass  1 Test12= 1.70D-14 5.56D-09 XBig12= 1.16D+00 2.28D-01.
     15 vectors produced by pass  2 Test12= 1.70D-14 5.56D-09 XBig12= 1.24D-01 9.43D-02.
     15 vectors produced by pass  3 Test12= 1.70D-14 5.56D-09 XBig12= 4.09D-03 1.04D-02.
     15 vectors produced by pass  4 Test12= 1.70D-14 5.56D-09 XBig12= 7.50D-05 1.58D-03.
     15 vectors produced by pass  5 Test12= 1.70D-14 5.56D-09 XBig12= 9.78D-07 1.28D-04.
     15 vectors produced by pass  6 Test12= 1.70D-14 5.56D-09 XBig12= 7.84D-09 1.12D-05.
     12 vectors produced by pass  7 Test12= 1.70D-14 5.56D-09 XBig12= 5.82D-11 9.35D-07.
      3 vectors produced by pass  8 Test12= 1.70D-14 5.56D-09 XBig12= 4.38D-13 9.94D-08.
      2 vectors produced by pass  9 Test12= 1.70D-14 5.56D-09 XBig12= 3.11D-15 9.02D-09.
 InvSVY:  IOpt=1 It=  1 EMax= 7.77D-16
 Solved reduced A of dimension   122 with    15 vectors.
 FullF1:  Do perturbations      1 to      18.
 Saving first derivative matrices.
 End of Minotr F.D. properties file   721 does not exist.
 End of Minotr F.D. properties file   722 does not exist.
 End of Minotr F.D. properties file   788 does not exist.
 Leave Link 1002 at Mon Feb 21 21:06:37 2022, MaxMem= 16106127360 cpu:             115.9 elap:               4.2
 (Enter /sw/contrib/gaussian/g16/B01/g16/l811.exe)
 MDV= 16106127360.
 Form MO integral derivatives with frozen-active canonical formalism.
 MOERI=1 MOERIx=1 NAtoms=     5 NAtomX=     5.
 Discarding MO integrals.
 MO basis two electron integral derivatives will not be stored on disk.
 IAlg= 3 DoFC=T DoPWx=T Debug=F.
 Frozen-core window:  NFC=   4 NFV=   0.
 Reordered first order wavefunction length =     18678272
 In DefCFB: NBatch=  1 ICI= 16 ICA=191 LFMax= 96
            Large arrays: LIAPS=   619940160 LIARS=   288257200 words.
 In StABat: MaxSiz= 55 MinSiz= 25 NAtomB=  5
 DoIAMN: NPSUse= 28.
 Leave Link  811 at Mon Feb 21 21:08:11 2022, MaxMem= 16106127360 cpu:            2607.9 elap:              93.3
 (Enter /sw/contrib/gaussian/g16/B01/g16/l804.exe)
 Frozen-core window:  NFC=   4 NFV=   0.
 Closed-shell transformation, MDV= 16106127360 ITran=4 ISComp=1.
 Semi-Direct transformation.
 ModeAB=           2 MOrb=            16 LenV=   16104925835
 LASXX=     67341636 LTotXX=    67341636 LenRXX=    67341636
 LTotAB=    68301760 MaxLAS=    99807120 LenRXY=    99807120
 NonZer=   134683272 LenScr=   202817536 LnRSAI=           0
 LnScr1=           0 LExtra=           0 Total=    369966292
 MaxDsk=          -1 SrtSym=           F ITran=            4
 DoSDTr:  NPSUse= 28
 JobTyp=0 Pass  1:  I=   1 to  16.
 (rs|ai) integrals will be sorted in core.
 Complete sort for first half transformation.
 First half transformation complete.
 Begin second half transformation for I=  10.
 Begin second half transformation for I=  10.
 Complete sort for second half transformation.
 Second half transformation complete.
 SymMOI:  orbitals are not symmetric.
 Spin components of T(2) and E(2):
     alpha-alpha T2 =       0.3402322438D-01 E2=     -0.1224020790D+00
     alpha-beta  T2 =       0.1868437390D+00 E2=     -0.7002272948D+00
     beta-beta   T2 =       0.3402322438D-01 E2=     -0.1224020790D+00
 ANorm=    0.1584228637D+01
 E2 =    -0.9450314528D+00 EUMP2 =    -0.28044668921915D+03
 Leave Link  804 at Mon Feb 21 21:08:24 2022, MaxMem= 16106127360 cpu:             367.5 elap:              13.2
 (Enter /sw/contrib/gaussian/g16/B01/g16/l1002.exe)
 Minotr:  Closed shell wavefunction.
          Computing MP2/KS-MP2 derivatives.
          Using Z-Vector for PSCF gradient.
          Skipping F1 and S1 gradient terms here.
          IDoAtm=11111
          Frozen-core window.
          Using MO integrals in the linear equations.
          Forming densities via direct SCF.
          Differentiating once with respect to electric field.
                with respect to dipole field.
          Differentiating once with respect to nuclear coordinates.
          Requested convergence is 1.0D-10 RMS, and 1.0D-09 maximum.
          NewPWx=F KeepS1=T KeepF1=T KeepIn=T MapXYZ=F SortEE=F KeepMc=T.
          MDV=   16106127360 using IRadAn=       5.
          Solving linear equations separately, MaxMat=       0.
          There are     1 degrees of freedom in the 1st order CPHF.  IDoFFX=0 NUNeed=     1.
 FoFJK:  IHMeth= 1 ICntrl=       0 DoSepK=F KAlg= 0 I1Cent=           0 FoldK=F
 IRaf=         0 NMat=       1 IRICut=       1 DoRegI=T DoRafI=F ISym2E= 0 IDoP0=0 IntGTp=1.
 FoFCou: FMM=F IPFlag=           0 FMFlag=      100000 FMFlg1=           0
         NFxFlg=           0 DoJE=F BraDBF=F KetDBF=F FulRan=T
         wScrn=  0.000000 ICntrl=         0 IOpCl=  0 I1Cent=           0 NGrid=           0
         NMat0=    1 NMatS0=      1 NMatT0=    0 NMatD0=    1 NMtDS0=    0 NMtDT0=    0
 Symmetry not used in FoFCou.
 LinEq1:  Iter=  0 NonCon=     1 RMS=5.96D-03 Max=1.32D-01 NDo=     1
 LinEq1:  Iter=  1 NonCon=     1 RMS=1.90D-03 Max=3.82D-02 NDo=     1
 LinEq1:  Iter=  2 NonCon=     1 RMS=8.68D-04 Max=1.40D-02 NDo=     1
 LinEq1:  Iter=  3 NonCon=     1 RMS=3.86D-04 Max=7.81D-03 NDo=     1
 LinEq1:  Iter=  4 NonCon=     1 RMS=1.19D-04 Max=1.89D-03 NDo=     1
 LinEq1:  Iter=  5 NonCon=     1 RMS=4.55D-05 Max=7.23D-04 NDo=     1
 LinEq1:  Iter=  6 NonCon=     1 RMS=2.03D-05 Max=2.21D-04 NDo=     1
 LinEq1:  Iter=  7 NonCon=     1 RMS=8.16D-06 Max=1.49D-04 NDo=     1
 LinEq1:  Iter=  8 NonCon=     1 RMS=3.49D-06 Max=3.40D-05 NDo=     1
 LinEq1:  Iter=  9 NonCon=     1 RMS=9.53D-07 Max=1.29D-05 NDo=     1
 LinEq1:  Iter= 10 NonCon=     1 RMS=1.92D-07 Max=1.93D-06 NDo=     1
 LinEq1:  Iter= 11 NonCon=     1 RMS=4.10D-08 Max=8.75D-07 NDo=     1
 LinEq1:  Iter= 12 NonCon=     1 RMS=1.34D-08 Max=3.77D-07 NDo=     1
 LinEq1:  Iter= 13 NonCon=     1 RMS=3.31D-09 Max=7.53D-08 NDo=     1
 LinEq1:  Iter= 14 NonCon=     1 RMS=6.29D-10 Max=9.96D-09 NDo=     1
 LinEq1:  Iter= 15 NonCon=     1 RMS=1.42D-10 Max=2.28D-09 NDo=     1
 LinEq1:  Iter= 16 NonCon=     0 RMS=3.74D-11 Max=6.83D-10 NDo=     1
 Linear equations converged to 1.000D-10 1.000D-09 after    16 iterations.
 End of Minotr F.D. properties file   721 does not exist.
 End of Minotr F.D. properties file   722 does not exist.
 End of Minotr F.D. properties file   788 does not exist.
 Leave Link 1002 at Mon Feb 21 21:08:26 2022, MaxMem= 16106127360 cpu:              67.5 elap:               2.5
 (Enter /sw/contrib/gaussian/g16/B01/g16/l1102.exe)
 Use density number 2.
 Symmetrizing basis deriv contribution to polar:
 IMax=3 JMax=2 DiffMx= 0.00D+00
 Leave Link 1102 at Mon Feb 21 21:08:26 2022, MaxMem= 16106127360 cpu:               0.6 elap:               0.0
 (Enter /sw/contrib/gaussian/g16/B01/g16/l1110.exe)
 Forming Gx(P) for generalized density number  2 NAtomX=     5.
 Integral derivatives from FoFJK, PRISM(SPDF).
 Do as many integral derivatives as possible in FoFJK.
 G2DrvN: MDV=   16106126844.
 G2DrvN: will do     6 centers at a time, making    1 passes.
 Calling FoFCou, ICntrl=  3107 FMM=F I1Cent=   0 AccDes= 0.00D+00.
 FoFJK:  IHMeth= 1 ICntrl=    3107 DoSepK=F KAlg= 0 I1Cent=           0 FoldK=F
 IRaf=         0 NMat=       1 IRICut=       1 DoRegI=T DoRafI=F ISym2E= 0 IDoP0=0 IntGTp=1.
 FoFCou: FMM=F IPFlag=           0 FMFlag=      100000 FMFlg1=           0
         NFxFlg=           0 DoJE=F BraDBF=F KetDBF=F FulRan=T
         wScrn=  0.000000 ICntrl=      3107 IOpCl=  0 I1Cent=           0 NGrid=           0
         NMat0=    1 NMatS0=      1 NMatT0=    0 NMatD0=    1 NMtDS0=    0 NMtDT0=    0
 Symmetry not used in FoFCou.
 End of G2Drv F.D. properties file   721 does not exist.
 End of G2Drv F.D. properties file   722 does not exist.
 End of G2Drv F.D. properties file   788 does not exist.
 Leave Link 1110 at Mon Feb 21 21:08:29 2022, MaxMem= 16106127360 cpu:              83.8 elap:               3.0
 (Enter /sw/contrib/gaussian/g16/B01/g16/l1112.exe)
 MP22nd: MDV=   16106127360
 This link is doing NAtomX=     5 total of    18 degrees of freedom.
 Using ON3 I/O method in MakUI.
 Frozen-core window:  NFC=   4 NFV=   0.
 Using Ix for Sx.
 Use MO integrals over full window.
 Using OV2 memory method for fx*t*t/D, MaxI=    16 DoOO2=F NP=  28.
 R2 and R3 integrals will be kept in memory, NReq=   915591705.
 FoFCou: FMM=F IPFlag=           0 FMFlag=           0 FMFlg1=           0
         NFxFlg=           0 DoJE=F BraDBF=F KetDBF=F FulRan=T
         wScrn=  0.000000 ICntrl=       600 IOpCl=  0 I1Cent=           0 NGrid=           0
         NMat0=    1 NMatS0=      1 NMatT0=    0 NMatD0=    1 NMtDS0=    0 NMtDT0=    0
 Symmetry not used in FoFCou.
 DD1Dir will call FoFMem   1 times, MxPair=       272
 NAB=   136 NAA=     0 NBB=     0.
 Symmetry is being used.
 FoFJK:  IHMeth= 1 ICntrl=       0 DoSepK=F KAlg= 0 I1Cent=           0 FoldK=F
 IRaf=         0 NMat=      18 IRICut=      45 DoRegI=T DoRafI=T ISym2E= 2 IDoP0=3 IntGTp=3.
 Discarding MO integrals.
 Leave Link 1112 at Mon Feb 21 21:08:59 2022, MaxMem= 16106127360 cpu:             823.6 elap:              29.6
 (Enter /sw/contrib/gaussian/g16/B01/g16/l601.exe)
 Copying SCF densities to generalized density rwf, IOpCl= 0 IROHF=0.

 **********************************************************************

            Population analysis using the MP2 Density.

 **********************************************************************

 Orbital symmetries:
       Occupied  (A) (A) (A) (A) (A) (A) (A) (A) (A) (A) (A) (A)
                 (A) (A) (A) (A)
       Virtual   (A) (A) (A) (A) (A) (A) (A) (A) (A) (A) (A) (A)
                 (A) (A) (A) (A) (A) (A) (A) (A) (A) (A) (A) (A)
                 (A) (A) (A) (A) (A) (A) (A) (A) (A) (A) (A) (A)
                 (A) (A) (A) (A) (A) (A) (A) (A) (A) (A) (A) (A)
                 (A) (A) (A) (A) (A) (A) (A) (A) (A) (A) (A) (A)
                 (A) (A) (A) (A) (A) (A) (A) (A) (A) (A) (A) (A)
                 (A) (A) (A) (A) (A) (A) (A) (A) (A) (A) (A) (A)
                 (A) (A) (A) (A) (A) (A) (A) (A) (A) (A) (A) (A)
                 (A) (A) (A) (A) (A) (A) (A) (A) (A) (A) (A) (A)
                 (A) (A) (A) (A) (A) (A) (A) (A) (A) (A) (A) (A)
                 (A) (A) (A) (A) (A) (A) (A) (A) (A) (A) (A) (A)
                 (A) (A) (A) (A) (A) (A) (A) (A) (A) (A) (A) (A)
                 (A) (A) (A) (A) (A) (A) (A) (A) (A) (A) (A) (A)
                 (A) (A) (A) (A) (A) (A) (A) (A) (A) (A) (A) (A)
                 (A) (A) (A) (A) (A) (A) (A) (A) (A) (A) (A) (A)
                 (A) (A) (A) (A) (A) (A) (A) (A) (A) (A) (A)
 The electronic state is 1-A.
 Alpha  occ. eigenvalues --  -20.69085 -20.68432 -20.65999 -15.81282  -1.62404
 Alpha  occ. eigenvalues --   -1.49574  -1.25441  -0.94807  -0.77278  -0.75917
 Alpha  occ. eigenvalues --   -0.71187  -0.67929  -0.62048  -0.58941  -0.48522
 Alpha  occ. eigenvalues --   -0.47250
 Alpha virt. eigenvalues --    0.02963   0.07164   0.08596   0.10172   0.13314
 Alpha virt. eigenvalues --    0.13474   0.14408   0.15454   0.17821   0.19416
 Alpha virt. eigenvalues --    0.19973   0.20643   0.22084   0.23509   0.23777
 Alpha virt. eigenvalues --    0.26591   0.29343   0.30369   0.31076   0.34343
 Alpha virt. eigenvalues --    0.34977   0.38722   0.42183   0.43140   0.52664
 Alpha virt. eigenvalues --    0.52997   0.55846   0.58155   0.62597   0.63834
 Alpha virt. eigenvalues --    0.67376   0.68523   0.70641   0.71119   0.72436
 Alpha virt. eigenvalues --    0.72949   0.74469   0.79074   0.79298   0.80933
 Alpha virt. eigenvalues --    0.81374   0.83048   0.86819   0.90819   0.92194
 Alpha virt. eigenvalues --    0.92632   0.95649   0.97714   0.98485   1.01638
 Alpha virt. eigenvalues --    1.05131   1.05500   1.08310   1.11748   1.14086
 Alpha virt. eigenvalues --    1.18975   1.22101   1.23253   1.33871   1.35064
 Alpha virt. eigenvalues --    1.38666   1.45305   1.48772   1.50887   1.53805
 Alpha virt. eigenvalues --    1.56650   1.58024   1.61325   1.66398   1.66945
 Alpha virt. eigenvalues --    1.70345   1.79274   1.83035   1.83569   1.87871
 Alpha virt. eigenvalues --    1.91033   1.95615   1.99183   2.00625   2.07765
 Alpha virt. eigenvalues --    2.12072   2.13168   2.15026   2.22470   2.26428
 Alpha virt. eigenvalues --    2.26508   2.28968   2.31425   2.34430   2.38622
 Alpha virt. eigenvalues --    2.42245   2.43041   2.45410   2.46281   2.47689
 Alpha virt. eigenvalues --    2.50162   2.58972   2.59658   2.62034   2.62466
 Alpha virt. eigenvalues --    2.63484   2.66735   2.75693   2.82396   2.85495
 Alpha virt. eigenvalues --    2.88472   2.89587   2.92355   2.95900   3.02554
 Alpha virt. eigenvalues --    3.06836   3.12170   3.20478   3.22642   3.31633
 Alpha virt. eigenvalues --    3.34176   3.51661   3.64270   3.83798   3.84515
 Alpha virt. eigenvalues --    4.14875   4.16279   4.18385   4.25739   4.35168
 Alpha virt. eigenvalues --    4.39331   4.46355   4.51919   4.66105   4.71042
 Alpha virt. eigenvalues --    4.80531   4.82466   4.82848   4.89649   5.02313
 Alpha virt. eigenvalues --    5.07688   5.10375   5.14483   5.17907   5.24277
 Alpha virt. eigenvalues --    5.27233   5.30767   5.32955   5.35517   5.60634
 Alpha virt. eigenvalues --    5.67377   5.76932   5.82895   5.95754   6.16869
 Alpha virt. eigenvalues --    6.30897   6.33806   6.39434   6.49358   6.50540
 Alpha virt. eigenvalues --    6.61392   6.66784   6.69934   6.75752   6.76353
 Alpha virt. eigenvalues --    6.83261   6.89826   7.01372   7.05552   7.05765
 Alpha virt. eigenvalues --    7.09013   7.12455   7.15028   7.18155   7.22513
 Alpha virt. eigenvalues --    7.24180   7.30739   7.32540   7.34759   7.39939
 Alpha virt. eigenvalues --    7.43160   7.48430   7.60212   7.62268   7.62708
 Alpha virt. eigenvalues --    7.66645   7.78941   7.88672   8.09269   8.31432
 Alpha virt. eigenvalues --    8.40908   8.54411  13.39157  14.39268  15.16214
 Alpha virt. eigenvalues --   16.15180
          Condensed to atoms (all electrons):
               1          2          3          4          5
     1  H    0.589533   0.128397   0.020018   0.012413  -0.000647
     2  O    0.128397   8.321655  -0.173508  -0.090447   0.015482
     3  O    0.020018  -0.173508   8.469683  -0.130136  -0.038790
     4  N    0.012413  -0.090447  -0.130136   6.972198  -0.055743
     5  O   -0.000647   0.015482  -0.038790  -0.055743   8.272855
 Mulliken charges:
               1
     1  H    0.250287
     2  O   -0.201578
     3  O   -0.147267
     4  N    0.291715
     5  O   -0.193157
 Sum of Mulliken charges =  -0.00000
 Mulliken charges with hydrogens summed into heavy atoms:
               1
     2  O    0.048709
     3  O   -0.147267
     4  N    0.291715
     5  O   -0.193157
 APT charges:
               1
     1  H    0.299179
     2  O   -0.288205
     3  O   -0.495676
     4  N    0.876572
     5  O   -0.391870
 Sum of APT charges =  -0.00000
 APT charges with hydrogens summed into heavy atoms:
               1
     2  O    0.010974
     3  O   -0.495676
     4  N    0.876572
     5  O   -0.391870
 Electronic spatial extent (au):  <R**2>=            252.8670
 Charge=             -0.0000 electrons
 Dipole moment (field-independent basis, Debye):
    X=              1.2174    Y=              0.7912    Z=             -0.0049  Tot=              1.4519
 Quadrupole moment (field-independent basis, Debye-Ang):
   XX=            -17.9898   YY=            -23.0931   ZZ=            -22.0116
   XY=              2.7922   XZ=             -0.0735   YZ=              0.0287
 Traceless Quadrupole moment (field-independent basis, Debye-Ang):
   XX=              3.0417   YY=             -2.0616   ZZ=             -0.9801
   XY=              2.7922   XZ=             -0.0735   YZ=              0.0287
 Octapole moment (field-independent basis, Debye-Ang**2):
  XXX=             18.1980  YYY=              1.7578  ZZZ=             -0.0404  XYY=              1.0900
  XXY=              6.2031  XXZ=             -0.0906  XZZ=             -1.7752  YZZ=              0.2530
  YYZ=             -0.0538  XYZ=             -0.0647
 Hexadecapole moment (field-independent basis, Debye-Ang**3):
 XXXX=           -190.0671 YYYY=            -41.0808 ZZZZ=            -18.2711 XXXY=             12.1407
 XXXZ=             -0.4001 YYYX=              1.0066 YYYZ=              0.0923 ZZZX=              0.0619
 ZZZY=              0.0196 XXYY=            -42.4480 XXZZ=            -41.6552 YYZZ=             -9.8844
 XXYZ=              0.0007 YYXZ=             -0.0226 ZZXY=              0.4763
 N-N= 1.168737382199D+02 E-N=-8.958581259556D+02  KE= 2.801974968620D+02
  Exact polarizability:  41.723   0.975  22.520   0.044  -0.030  17.933
 Approx polarizability:  31.942  -1.131  20.578   0.088  -0.006  15.529
 No NMR shielding tensors so no spin-rotation constants.
 Leave Link  601 at Mon Feb 21 21:08:59 2022, MaxMem= 16106127360 cpu:               5.1 elap:               0.2
 (Enter /sw/contrib/gaussian/g16/B01/g16/l701.exe)
 ... and contract with generalized density number  2.
 Compute integral second derivatives.
 Leave Link  701 at Mon Feb 21 21:08:59 2022, MaxMem= 16106127360 cpu:               6.3 elap:               0.3
 (Enter /sw/contrib/gaussian/g16/B01/g16/l702.exe)
 L702 exits ... SP integral derivatives will be done elsewhere.
 Leave Link  702 at Mon Feb 21 21:08:59 2022, MaxMem= 16106127360 cpu:               0.4 elap:               0.0
 (Enter /sw/contrib/gaussian/g16/B01/g16/l703.exe)
 Integral derivatives from FoFJK, PRISM(SPDF).
 Compute integral second derivatives, UseDBF=F ICtDFT=           0.
 Calling FoFJK, ICntrl=  10100127 FMM=F ISym2X=0 I1Cent= 0 IOpClX= 0 NMat=1 NMatS=1 NMatT=0.
 FoFJK:  IHMeth= 1 ICntrl=10100127 DoSepK=F KAlg= 0 I1Cent=           0 FoldK=F
 IRaf=         0 NMat=       1 IRICut=       1 DoRegI=T DoRafI=F ISym2E= 0 IDoP0=0 IntGTp=1.
 FoFCou: FMM=F IPFlag=           0 FMFlag=      100000 FMFlg1=         800
         NFxFlg=           0 DoJE=F BraDBF=F KetDBF=F FulRan=T
         wScrn=  0.000000 ICntrl=  10100127 IOpCl=  0 I1Cent=           0 NGrid=           0
         NMat0=    1 NMatS0=      1 NMatT0=    0 NMatD0=    1 NMtDS0=    0 NMtDT0=    0
 Symmetry not used in FoFCou.
 Leave Link  703 at Mon Feb 21 21:09:15 2022, MaxMem= 16106127360 cpu:             424.0 elap:              15.2
 (Enter /sw/contrib/gaussian/g16/B01/g16/l716.exe)
 Dipole        = 4.78964364D-01 3.11287550D-01-1.94514816D-03
 Polarizability= 4.17232163D+01 9.75093164D-01 2.25196173D+01
                 4.38725887D-02-3.02107404D-02 1.79331499D+01
 Full mass-weighted force constant matrix:
 Low frequencies --- -269.3736  -11.2056   -3.2646   -0.0017   -0.0014    0.0007
 Low frequencies ---    4.8950  228.3453  341.5087
 ******    1 imaginary frequencies (negative Signs) ****** 
 Diagonal vibrational polarizability:
       34.7507472       4.5182694      46.6457252
 Harmonic frequencies (cm**-1), IR intensities (KM/Mole), Raman scattering
 activities (A**4/AMU), depolarization ratios for plane and unpolarized
 incident light, reduced masses (AMU), force constants (mDyne/A),
 and normal coordinates:
                      1                      2                      3
                      A                      A                      A
 Frequencies --   -269.3731               228.3398               341.4774
 Red. masses --      1.1388                10.5215                 8.6211
 Frc consts  --      0.0487                 0.3232                 0.5923
 IR Inten    --    124.7283                 0.9894                 4.4975
  Atom  AN      X      Y      Z        X      Y      Z        X      Y      Z
     1   1     0.02  -0.01   1.00     0.00  -0.03  -0.57     0.17  -0.67   0.02
     2   8    -0.00   0.00  -0.06    -0.02  -0.01  -0.31    -0.30  -0.25   0.01
     3   8     0.00   0.00  -0.04     0.01   0.02   0.33     0.14   0.43   0.00
     4   7    -0.00   0.00   0.06    -0.01   0.01   0.52     0.19   0.18  -0.04
     5   8     0.00  -0.00  -0.01     0.01  -0.02  -0.44    -0.02  -0.30   0.02
                      4                      5                      6
                      A                      A                      A
 Frequencies --    451.7150               785.4805               967.2561
 Red. masses --     12.3128                12.9167                15.3946
 Frc consts  --      1.4803                 4.6954                 8.4860
 IR Inten    --    199.6079               170.6689                22.5902
  Atom  AN      X      Y      Z        X      Y      Z        X      Y      Z
     1   1    -0.45   0.09  -0.00    -0.16   0.35   0.01    -0.16   0.07  -0.00
     2   8    -0.38   0.03  -0.00     0.39  -0.18  -0.01    -0.40   0.33   0.01
     3   8    -0.40  -0.25  -0.00    -0.21  -0.18   0.02     0.59  -0.46  -0.00
     4   7     0.52   0.12   0.01     0.26   0.58  -0.00     0.05   0.27  -0.00
     5   8     0.35   0.11  -0.00    -0.39  -0.17  -0.01    -0.22  -0.11  -0.00
                      7                      8                      9
                      A                      A                      A
 Frequencies --   1371.2169              1677.2583              3778.6988
 Red. masses --      1.1334                13.2087                 1.0675
 Frc consts  --      1.2556                21.8932                 8.9809
 IR Inten    --    152.9517               140.4227                82.5574
  Atom  AN      X      Y      Z        X      Y      Z        X      Y      Z
     1   1     0.77  -0.63  -0.02     0.27  -0.21  -0.01     0.67   0.74  -0.00
     2   8     0.01   0.06   0.00     0.03   0.03  -0.00    -0.04  -0.05   0.00
     3   8    -0.05  -0.03   0.00    -0.09  -0.12   0.00     0.00  -0.00  -0.00
     4   7     0.02  -0.00   0.00    -0.54   0.46  -0.02    -0.00  -0.00  -0.00
     5   8    -0.03   0.01  -0.00     0.52  -0.30   0.02     0.00  -0.00   0.00

 -------------------
 - Thermochemistry -
 -------------------
 Temperature   298.150 Kelvin.  Pressure   1.00000 Atm.
 Atom     1 has atomic number  1 and mass   1.00783
 Atom     2 has atomic number  8 and mass  15.99491
 Atom     3 has atomic number  8 and mass  15.99491
 Atom     4 has atomic number  7 and mass  14.00307
 Atom     5 has atomic number  8 and mass  15.99491
 Molecular mass:    62.99564 amu.
 Principal axes and moments of inertia in atomic units:
                           1         2         3
     Eigenvalues --    32.87999 360.09924 392.88748
           X            0.99994   0.01072  -0.00031
           Y           -0.01072   0.99994  -0.00068
           Z            0.00030   0.00068   1.00000
 This molecule is an asymmetric top.
 Rotational symmetry number  1.
 Rotational temperatures (Kelvin)      2.63424     0.24053     0.22045
 Rotational constants (GHZ):          54.88874     5.01179     4.59353
    1 imaginary frequencies ignored.
 Zero-point vibrational energy      57429.4 (Joules/Mol)
                                   13.72595 (Kcal/Mol)
 Warning -- explicit consideration of   3 degrees of freedom as
           vibrations may cause significant error
 Vibrational temperatures:    328.53   491.31   649.92  1130.13  1391.67
          (Kelvin)           1972.88  2413.20  5436.70
 
 Zero-point correction=                           0.021874 (Hartree/Particle)
 Thermal correction to Energy=                    0.025992
 Thermal correction to Enthalpy=                  0.026936
 Thermal correction to Gibbs Free Energy=        -0.004250
 Sum of electronic and zero-point Energies=           -280.424816
 Sum of electronic and thermal Energies=              -280.420697
 Sum of electronic and thermal Enthalpies=            -280.419753
 Sum of electronic and thermal Free Energies=         -280.450939
 
                     E (Thermal)             CV                S
                      KCal/Mol        Cal/Mol-Kelvin    Cal/Mol-Kelvin
 Total                   16.310             11.955             65.638
 Electronic               0.000              0.000              0.000
 Translational            0.889              2.981             38.341
 Rotational               0.889              2.981             23.057
 Vibrational             14.533              5.993              4.240
 Vibration     1          0.651              1.798              1.892
 Vibration     2          0.721              1.593              1.205
 Vibration     3          0.810              1.357              0.791
                       Q            Log10(Q)             Ln(Q)
 Total Bot       0.901446D+02          1.954940          4.501415
 Total V=0       0.103785D+13         12.016133         27.668168
 Vib (Bot)       0.187873D-09         -9.726136        -22.395257
 Vib (Bot)    1  0.863190D+00         -0.063893         -0.147120
 Vib (Bot)    2  0.543260D+00         -0.264992         -0.610166
 Vib (Bot)    3  0.379107D+00         -0.421239         -0.969938
 Vib (V=0)       0.216300D+01          0.335057          0.771496
 Vib (V=0)    1  0.149755D+01          0.175380          0.403828
 Vib (V=0)    2  0.123833D+01          0.092837          0.213764
 Vib (V=0)    3  0.112747D+01          0.052106          0.119978
 Electronic      0.100000D+01          0.000000          0.000000
 Translational   0.196526D+08          7.293420         16.793719
 Rotational      0.244150D+05          4.387657         10.102953
 
                                                                title
                                                             IR Spectrum
 
     3                                                                      1         1                                              
     7                                                                      6         3             9     7          4   3   2       
     7                                                                      7         7             6     8          5   4   2       
     9                                                                      7         1             7     5          2   1   8       
 
     X                                                                      X         X             X     X          X   X   X       
     X                                                                      X         X             X     X          X               
     X                                                                      X         X                   X          X               
     X                                                                      X         X                   X          X               
     X                                                                      X         X                   X          X               
     X                                                                      X         X                   X          X               
     X                                                                      X         X                   X          X               
     X                                                                      X         X                   X          X               
                                                                            X         X                   X          X               
                                                                            X         X                   X          X               
                                                                            X         X                   X          X               
                                                                            X         X                   X          X               
                                                                            X         X                   X          X               
                                                                            X         X                   X          X               
                                                                                      X                   X          X               
                                                                                                          X          X               
                                                                                                          X          X               
                                                                                                                     X               
                                                                                                                     X               
                                                                                                                     X               
 
 ***** Axes restored to original set *****
 -------------------------------------------------------------------
 Center     Atomic                   Forces (Hartrees/Bohr)
 Number     Number              X              Y              Z
 -------------------------------------------------------------------
      1        1           0.000069282   -0.000101417    0.000002808
      2        8           0.000157366   -0.000623867    0.000103252
      3        8          -0.000168367    0.000704905   -0.000071280
      4        7          -0.000471695    0.000926960   -0.000106992
      5        8           0.000413414   -0.000906581    0.000072213
 -------------------------------------------------------------------
 Cartesian Forces:  Max     0.000926960 RMS     0.000451757
 -----------------------------------------------------------------------------------------------
                       Internal Coordinate Forces (Hartree/Bohr or radian)
  Cent   Atom   N1       Length/X         N2         Alpha/Y        N3         Beta/Z          J
 -----------------------------------------------------------------------------------------------
      1  H 
      2  O        1  -0.000003(     1)
      3  O        2  -0.000239(     2)      1  -0.000127(     5)
      4  N        3  -0.000039(     3)      2  -0.000080(     6)      1   0.000184(     8)     0
      5  O        4   0.000378(     4)      3  -0.000041(     7)      2  -0.001933(     9)     0
 -----------------------------------------------------------------------------------------------
 Internal  Forces:  Max     0.001933482 RMS     0.000666450
 Force constants in Cartesian coordinates: 
                1             2             3             4             5 
      1  0.646437D-01
      2 -0.153026D-03 -0.236454D-02
      3  0.530437D-02  0.348326D-04  0.512361D+00
      4 -0.357960D-01  0.323728D-03 -0.163049D-01  0.272821D+00
      5  0.153648D-03  0.305806D-02 -0.470603D-04  0.976221D-04  0.208961D-02
      6  0.482491D-01 -0.117157D-03 -0.508533D+00  0.335100D-01 -0.369792D-04
      7 -0.183588D-01 -0.163662D-03  0.125398D-01 -0.220295D+00 -0.454179D-03
      8  0.292780D-03  0.997789D-03  0.463320D-05 -0.305652D-03 -0.656634D-02
      9 -0.531685D-01  0.801225D-04 -0.482248D-03 -0.194499D-01  0.899779D-03
     10 -0.925217D-02  0.237820D-04 -0.487073D-02 -0.170894D-01  0.445587D-03
     11 -0.220962D-03 -0.271907D-02 -0.129225D-03 -0.389254D-03 -0.489984D-02
     12  0.536535D-02  0.222784D-04 -0.474814D-02  0.115263D-01 -0.818892D-03
     13 -0.123678D-02 -0.308228D-04  0.333152D-02  0.358724D-03 -0.242678D-03
     14 -0.724396D-04  0.102775D-02  0.136820D-03  0.273556D-03  0.631851D-02
     15 -0.575030D-02 -0.200760D-04  0.140283D-02 -0.928150D-02  0.315212D-05
                6             7             8             9            10 
      6  0.594593D+00
      7 -0.212091D-01  0.341491D+00
      8  0.127293D-02  0.379159D-02  0.431268D-02
      9 -0.785462D-01  0.359746D-01 -0.172624D-02  0.181156D+00
     10 -0.524695D-01 -0.780520D-01 -0.347543D-02  0.174826D+00  0.826858D+00
     11 -0.669201D-03 -0.191218D-02  0.841255D-02  0.593027D-02  0.355066D-01
     12  0.171389D-01  0.630027D-01  0.404489D-02 -0.817686D-01 -0.178835D-01
     13 -0.808052D-02 -0.247857D-01 -0.303281D-03 -0.138182D+00 -0.722465D+00
     14 -0.449592D-03 -0.126157D-02 -0.715668D-02 -0.518393D-02 -0.325005D-01
     15 -0.246521D-01 -0.903080D-01 -0.359622D-02 -0.203589D-01 -0.996019D-01
               11            12            13            14            15 
     11  0.101171D-01
     12  0.273988D-03  0.186602D+00
     13 -0.329842D-01 -0.620110D-01  0.748128D+00
     14 -0.109107D-01 -0.352227D-02  0.335610D-01  0.107211D-01
     15 -0.540583D-02 -0.117224D+00  0.204942D+00  0.901897D-02  0.160832D+00
 Force constants in internal coordinates: 
                1             2             3             4             5 
      1  0.512361D+00
      2 -0.103982D-01  0.281339D+00
      3  0.346024D-02  0.247771D-02  0.117259D+00
      4 -0.357815D-02  0.590373D-02  0.153061D+00  0.812025D+00
      5  0.978203D-02  0.653204D-01  0.227740D-02  0.481082D-02  0.216742D+00
      6  0.464657D-02  0.591118D-01  0.409505D-01  0.218171D-01  0.313086D-01
      7 -0.117556D-02  0.377017D-01  0.322228D-01  0.847114D-01  0.213217D-01
      8 -0.373032D-04  0.287390D-03 -0.313433D-05 -0.195278D-04 -0.483294D-03
      9  0.297018D-04 -0.331951D-03 -0.213531D-02  0.154211D-03  0.140102D-03
                6             7             8             9 
      6  0.282548D+00
      7  0.958095D-01  0.482749D+00
      8 -0.116773D-04  0.111290D-03 -0.777735D-02
      9  0.102183D-02 -0.355848D-03 -0.390097D-02  0.409654D-01
 Leave Link  716 at Mon Feb 21 21:09:15 2022, MaxMem= 16106127360 cpu:               0.9 elap:               0.1
 (Enter /sw/contrib/gaussian/g16/B01/g16/l103.exe)

 GradGradGradGradGradGradGradGradGradGradGradGradGradGradGradGradGradGrad
 Berny optimization.
 Search for a local minimum.
 Step number   1 out of a maximum of    2
 All quantities printed in internal units (Hartrees-Bohrs-Radians)
 Second derivative matrix not updated -- analytic derivatives used.
 The second derivative matrix:
                          r1        r2        r3        r4        a1
           r1           0.51236
           r2          -0.01040   0.28134
           r3           0.00346   0.00248   0.11726
           r4          -0.00358   0.00590   0.15306   0.81203
           a1           0.00978   0.06532   0.00228   0.00481   0.21674
           a2           0.00465   0.05911   0.04095   0.02182   0.03131
           a3          -0.00118   0.03770   0.03222   0.08471   0.02132
           d1          -0.00004   0.00029  -0.00000  -0.00002  -0.00048
           d2           0.00003  -0.00033  -0.00214   0.00015   0.00014
                          a2        a3        d1        d2
           a2           0.28255
           a3           0.09581   0.48275
           d1          -0.00001   0.00011  -0.00778
           d2           0.00102  -0.00036  -0.00390   0.04097
 ITU=  0
     Eigenvalues ---   -0.00809   0.04113   0.07845   0.17532   0.22514
     Eigenvalues ---    0.32506   0.51299   0.51727   0.87094
 Eigenvalue     1 is  -8.09D-03 should be greater than     0.000000 Eigenvector:
                          d1        d2        a1        r3        r2
   1                    0.99684   0.07935   0.00256   0.00194  -0.00138
                          a2        r4        a3        r1
   1                   -0.00043  -0.00033  -0.00016  -0.00002
 Angle between quadratic step and forces=  12.84 degrees.
 Linear search not attempted -- first point.
 Variable       Old X    -DE/DX   Delta X   Delta X   Delta X     New X
                                 (Linear)    (Quad)   (Total)
    r1        1.83110  -0.00000   0.00000   0.00000   0.00000   1.83110
    r2        2.74940  -0.00024   0.00000  -0.00091  -0.00091   2.74849
    r3        2.75670  -0.00004   0.00000  -0.00254  -0.00254   2.75416
    r4        2.21236   0.00038   0.00000   0.00096   0.00096   2.21332
    a1        1.70335  -0.00013   0.00000  -0.00031  -0.00031   1.70304
    a2        1.78543  -0.00008   0.00000   0.00045   0.00045   1.78588
    a3        1.90362  -0.00004   0.00000  -0.00012  -0.00012   1.90350
    d1        3.14159   0.00018   0.00000   0.00740   0.00740   3.14899
    d2        3.18868  -0.00193   0.00000  -0.04676  -0.04676   3.14192
         Item               Value     Threshold  Converged?
 Maximum Force            0.001933     0.000450     NO 
 RMS     Force            0.000666     0.000300     NO 
 Maximum Displacement     0.046763     0.001800     NO 
 RMS     Displacement     0.015811     0.001200     NO 
 Predicted change in Energy=-4.634076D-05
                       ----------------------------
                       ! Non-Optimized Parameters !
                       ! (Angstroms and Degrees)  !
 ----------------------                            ----------------------
 !      Name          Value   Derivative information (Atomic Units)     !
 ------------------------------------------------------------------------
 !       r1          0.969    -DE/DX =    0.0                           !
 !       r2          1.4544   -DE/DX =   -0.0002                        !
 !       r3          1.4574   -DE/DX =    0.0                           !
 !       r4          1.1712   -DE/DX =    0.0004                        !
 !       a1         97.5771   -DE/DX =   -0.0001                        !
 !       a2        102.3232   -DE/DX =   -0.0001                        !
 !       a3        109.0624   -DE/DX =    0.0                           !
 !       d1        180.4237   -DE/DX =    0.0002                        !
 !       d2        180.0186   -DE/DX =   -0.0019                        !
 ------------------------------------------------------------------------
 GradGradGradGradGradGradGradGradGradGradGradGradGradGradGradGradGradGrad

 Leave Link  103 at Mon Feb 21 21:09:15 2022, MaxMem= 16106127360 cpu:               0.6 elap:               0.0
 (Enter /sw/contrib/gaussian/g16/B01/g16/l9999.exe)

 ----------------------------------------------------------------------

 Electric dipole moment (input orientation):
 (Debye = 10**-18 statcoulomb cm , SI units = C m)
                  (au)            (Debye)         (10**-30 SI)
   Tot        0.571236D+00      0.145194D+01      0.484314D+01
   x         -0.146259D+00     -0.371754D+00     -0.124004D+01
   y         -0.201973D-02     -0.513364D-02     -0.171240D-01
   z         -0.552191D+00     -0.140353D+01     -0.468167D+01

 Dipole polarizability, Alpha (input orientation).
 (esu units = cm**3 , SI units = C**2 m**2 J**-1)
 Alpha(0;0):
               (au)            (10**-24 esu)      (10**-40 SI)
   iso        0.273920D+02      0.405907D+01      0.451633D+01
   aniso      0.219260D+02      0.324910D+01      0.361512D+01
   xx         0.321015D+02      0.475695D+01      0.529282D+01
   yx         0.298219D+00      0.441914D-01      0.491696D-01
   yy         0.179391D+02      0.265830D+01      0.295776D+01
   zx         0.964906D+01      0.142984D+01      0.159092D+01
   zy         0.198314D+00      0.293871D-01      0.326975D-01
   zz         0.321354D+02      0.476197D+01      0.529841D+01

 ----------------------------------------------------------------------

 Dipole orientation:
     1          0.00000000         -0.00000000         -0.00000000
     8         -0.46883444          0.00647425         -1.77004910
     8          2.07255923          0.00901357         -2.81909952
     7          1.58757918          0.01883172         -5.53278812
     8          3.51642601         -0.07666148         -6.61211847

 Electric dipole moment (dipole orientation):
 (Debye = 10**-18 statcoulomb cm , SI units = C m)
                  (au)            (Debye)         (10**-30 SI)
   Tot        0.571236D+00      0.145194D+01      0.484314D+01
   x          0.000000D+00      0.000000D+00      0.000000D+00
   y          0.000000D+00      0.000000D+00      0.000000D+00
   z          0.571236D+00      0.145194D+01      0.484314D+01

 Dipole polarizability, Alpha (dipole orientation).
 (esu units = cm**3 , SI units = C**2 m**2 J**-1)
 Alpha(0;0):
               (au)            (10**-24 esu)      (10**-40 SI)
   iso        0.273920D+02      0.405907D+01      0.451633D+01
   aniso      0.219260D+02      0.324910D+01      0.361512D+01
   xx         0.273271D+02      0.404946D+01      0.450563D+01
   yx        -0.212208D+00     -0.314460D-01     -0.349884D-01
   yy         0.179377D+02      0.265809D+01      0.295752D+01
   zx        -0.837622D+01     -0.124123D+01     -0.138105D+01
   zy         0.204835D+00      0.303534D-01      0.337727D-01
   zz         0.369112D+02      0.546968D+01      0.608584D+01

 ----------------------------------------------------------------------
 1\1\GINC-N2228\Freq\RMP2-FC\Aug-CC-pVTZ\H1N1O3\CGAVINH\21-Feb-2022\1\\
 #p freq mp2/aug-cc-pvtz density=current\\title\\0,1\H\O,1,r1\O,2,r2,1,
 a1\N,3,r3,2,a2,1,d1,0\O,4,r4,3,a3,2,d2,0\\r1=0.96897556\r2=1.45491931\
 r3=1.45878406\r4=1.17072885\a1=97.59494903\a2=102.29752444\a3=109.0695
 5123\d1=180.\d2=182.69790838\\Version=ES64L-G16RevB.01\State=1-A\HF=-2
 79.5016578\MP2=-280.4466892\RMSD=6.574e-09\RMSF=4.518e-04\ZeroPoint=0.
 0218737\Thermal=0.0259923\Dipole=-0.1462593,-0.0020197,-0.5521908\Dipo
 leDeriv=0.2663692,-0.0004027,0.048261,0.0009412,0.3555588,0.0011869,0.
 0821342,0.000476,0.2756085,-0.327924,-0.0022561,-0.2068202,0.0019863,-
 0.3141248,0.0022351,-0.1110371,-0.002571,-0.2225662,-0.0464935,-0.0040
 232,0.1476683,-0.0052057,-0.0871339,0.0005132,-0.7518355,-0.020315,-1.
 3534012,0.8933685,0.0312413,0.9087384,0.0339514,0.0672264,0.0325694,0.
 9221802,0.0243715,1.6691222,-0.7853202,-0.0245592,-0.8978475,-0.031673
 2,-0.0215266,-0.0365046,-0.1414418,-0.0019614,-0.3687633\Polar=32.1014
 666,0.2982185,17.9391235,9.6490609,0.1983138,32.1353934\Quadrupole=-1.
 5107557,-0.7304261,2.2411818,-0.0600334,2.0944841,0.020305\PG=C01 [X(H
 1N1O3)]\NImag=1\\0.06464369,-0.00015303,-0.00236454,0.00530437,0.00003
 483,0.51236080,-0.03579596,0.00032373,-0.01630494,0.27282129,0.0001536
 5,0.00305806,-0.00004706,0.00009762,0.00208961,0.04824911,-0.00011716,
 -0.50853324,0.03351005,-0.00003698,0.59459259,-0.01835879,-0.00016366,
 0.01253978,-0.22029460,-0.00045418,-0.02120912,0.34149114,0.00029278,0
 .00099779,0.00000463,-0.00030565,-0.00656634,0.00127293,0.00379159,0.0
 0431268,-0.05316853,0.00008012,-0.00048225,-0.01944995,0.00089978,-0.0
 7854619,0.03597457,-0.00172624,0.18115588,-0.00925217,0.00002378,-0.00
 487073,-0.01708945,0.00044559,-0.05246952,-0.07805201,-0.00347543,0.17
 482561,0.82685823,-0.00022096,-0.00271907,-0.00012923,-0.00038925,-0.0
 0489984,-0.00066920,-0.00191218,0.00841255,0.00593027,0.03550656,0.010
 11708,0.00536535,0.00002228,-0.00474814,0.01152633,-0.00081889,0.01713
 892,0.06300273,0.00404489,-0.08176857,-0.01788346,0.00027399,0.1866016
 1,-0.00123678,-0.00003082,0.00333152,0.00035872,-0.00024268,-0.0080805
 2,-0.02478575,-0.00030328,-0.13818170,-0.72246461,-0.03298417,-0.06201
 096,0.74812841,-0.00007244,0.00102775,0.00013682,0.00027356,0.00631851
 ,-0.00044959,-0.00126157,-0.00715668,-0.00518393,-0.03250050,-0.010910
 71,-0.00352227,0.03356095,0.01072113,-0.00575030,-0.00002008,0.0014028
 3,-0.00928150,0.00000315,-0.02465208,-0.09030796,-0.00359622,-0.020358
 88,-0.09960190,-0.00540583,-0.11722382,0.20494166,0.00901897,0.1608319
 6\\-0.00006928,0.00010142,-0.00000281,-0.00015737,0.00062387,-0.000103
 25,0.00016837,-0.00070490,0.00007128,0.00047169,-0.00092696,0.00010699
 ,-0.00041341,0.00090658,-0.00007221\\\@


 MODELS ARE TO BE USED, NOT BELIEVED.

    -- PARAPHRASED BY H. THIEL IN "PRINCIPLES OF ECONOMETRICS"
 Job cpu time:       0 days  2 hours  3 minutes  3.5 seconds.
 Elapsed time:       0 days  0 hours  4 minutes 30.3 seconds.
 File lengths (MBytes):  RWF=   7239 Int=      0 D2E=      0 Chk=      8 Scr=      1
 Normal termination of Gaussian 16 at Mon Feb 21 21:09:16 2022.
