title                                                                   
Freq      RMP2-FC                                                     Aug-CC-pVTZ         
Number of atoms                            I                5
Info1-9                                    I   N=           9
          33          24           0           0           0         100
           6           2           1
Full Title                                 C   N=           1
title       
Route                                      C   N=           4
#p freq mp2/aug-cc-pvtz density=current         
Charge                                     I                0
Multiplicity                               I                1
Number of electrons                        I               32
Number of alpha electrons                  I               16
Number of beta electrons                   I               16
Number of basis functions                  I              207
Number of independent functions            I              207
Number of point charges in /Mol/           I                0
Number of translation vectors              I                0
Atomic numbers                             I   N=           5
           1           8           8           7           8
Nuclear charges                            R   N=           5
  1.00000000E+00  8.00000000E+00  8.00000000E+00  7.00000000E+00  8.00000000E+00
Current cartesian coordinates              R   N=          15
  2.92536671E+00  3.18226287E+00  1.53512542E-31  2.74767984E+00  1.35980605E+00
  1.39376502E-31 -5.55116038E-17  1.26259238E+00  6.21912922E-32 -4.91542464E-01
 -1.44993298E+00 -4.41368773E-32 -2.68325103E+00 -1.75148994E+00 -1.44727863E-31
Number of symbols in /Mol/                 I                0
Force Field                                I                0
Atom Types                                 C   N=           5
                                                            
Int Atom Types                             I   N=           5
           0           0           0           0           0
MM charges                                 R   N=           5
  0.00000000E+00  0.00000000E+00  0.00000000E+00  0.00000000E+00  0.00000000E+00
Integer atomic weights                     I   N=           5
           1          16          16          14          16
Real atomic weights                        R   N=           5
  1.00782504E+00  1.59949146E+01  1.59949146E+01  1.40030740E+01  1.59949146E+01
Atom fragment info                         I   N=           5
           0           0           0           0           0
Atom residue num                           I   N=           5
           0           0           0           0           0
Nuclear spins                              I   N=           5
           1           0           0           2           0
Nuclear ZEff                               R   N=           5
 -1.00000000E+00 -5.60000000E+00 -5.60000000E+00 -4.55000000E+00 -5.60000000E+00
Nuclear ZNuc                               R   N=           5
  1.00000000E+00  8.00000000E+00  8.00000000E+00  7.00000000E+00  8.00000000E+00
Nuclear QMom                               R   N=           5
  0.00000000E+00  0.00000000E+00  0.00000000E+00  2.04400000E+00  0.00000000E+00
Nuclear GFac                               R   N=           5
  2.79284600E+00  0.00000000E+00  0.00000000E+00  4.03761000E-01  0.00000000E+00
MicOpt                                     I   N=           5
          -1          -1          -1          -1          -1
Number of residues                         I                0
Number of secondary structures             I                0
SymInf integers                            I   N=          26
           1           2           1           1           1           1
           1          -1           0           0           0           0
           0           0           0           0           0           0
           0           0           0           0           0           0
           0           0
RotTr to input orientation                 R   N=          12
 -9.95280638E-01 -9.87088176E-17 -9.70384007E-02  9.70384007E-02 -7.24856342E-17
 -9.95280638E-01  9.12090849E-17 -1.00000000E+00  8.17220940E-17  2.60275914E+00
  0.00000000E+00  3.45111753E+00
Number of contracted shells                I               65
Number of primitive shells                 I              119
Pure/Cartesian d shells                    I                0
Pure/Cartesian f shells                    I                0
Highest angular momentum                   I                3
Largest degree of contraction              I                7
Shell types                                I   N=          65
           0           0           0           0           1           1
           1          -2          -2           0           0           0
           0           0           1           1           1           1
          -2          -2          -2          -3          -3           0
           0           0           0           0           1           1
           1           1          -2          -2          -2          -3
          -3           0           0           0           0           0
           1           1           1           1          -2          -2
          -2          -3          -3           0           0           0
           0           0           1           1           1           1
          -2          -2          -2          -3          -3
Number of primitives per shell             I   N=          65
           3           1           1           1           1           1
           1           1           1           7           6           1
           1           1           3           1           1           1
           1           1           1           1           1           7
           6           1           1           1           3           1
           1           1           1           1           1           1
           1           7           6           1           1           1
           3           1           1           1           1           1
           1           1           1           7           6           1
           1           1           3           1           1           1
           1           1           1           1           1
Shell to atom map                          I   N=          65
           1           1           1           1           1           1
           1           1           1           2           2           2
           2           2           2           2           2           2
           2           2           2           2           2           3
           3           3           3           3           3           3
           3           3           3           3           3           3
           3           4           4           4           4           4
           4           4           4           4           4           4
           4           4           4           5           5           5
           5           5           5           5           5           5
           5           5           5           5           5
Primitive exponents                        R   N=         119
  3.38700000E+01  5.09500000E+00  1.15900000E+00  3.25800000E-01  1.02700000E-01
  2.52600000E-02  1.40700000E+00  3.88000000E-01  1.02000000E-01  1.05700000E+00
  2.47000000E-01  1.53300000E+04  2.29900000E+03  5.22400000E+02  1.47300000E+02
  4.75500000E+01  1.67600000E+01  6.20700000E+00  5.22400000E+02  1.47300000E+02
  4.75500000E+01  1.67600000E+01  6.20700000E+00  6.88200000E-01  1.75200000E+00
  2.38400000E-01  7.37600000E-02  3.44600000E+01  7.74900000E+00  2.28000000E+00
  7.15600000E-01  2.14000000E-01  5.97400000E-02  2.31400000E+00  6.45000000E-01
  2.14000000E-01  1.42800000E+00  5.00000000E-01  1.53300000E+04  2.29900000E+03
  5.22400000E+02  1.47300000E+02  4.75500000E+01  1.67600000E+01  6.20700000E+00
  5.22400000E+02  1.47300000E+02  4.75500000E+01  1.67600000E+01  6.20700000E+00
  6.88200000E-01  1.75200000E+00  2.38400000E-01  7.37600000E-02  3.44600000E+01
  7.74900000E+00  2.28000000E+00  7.15600000E-01  2.14000000E-01  5.97400000E-02
  2.31400000E+00  6.45000000E-01  2.14000000E-01  1.42800000E+00  5.00000000E-01
  1.14200000E+04  1.71200000E+03  3.89300000E+02  1.10000000E+02  3.55700000E+01
  1.25400000E+01  4.64400000E+00  3.89300000E+02  1.10000000E+02  3.55700000E+01
  1.25400000E+01  4.64400000E+00  5.11800000E-01  1.29300000E+00  1.78700000E-01
  5.76000000E-02  2.66300000E+01  5.94800000E+00  1.74200000E+00  5.55000000E-01
  1.72500000E-01  4.91000000E-02  1.65400000E+00  4.69000000E-01  1.51000000E-01
  1.09300000E+00  3.64000000E-01  1.53300000E+04  2.29900000E+03  5.22400000E+02
  1.47300000E+02  4.75500000E+01  1.67600000E+01  6.20700000E+00  5.22400000E+02
  1.47300000E+02  4.75500000E+01  1.67600000E+01  6.20700000E+00  6.88200000E-01
  1.75200000E+00  2.38400000E-01  7.37600000E-02  3.44600000E+01  7.74900000E+00
  2.28000000E+00  7.15600000E-01  2.14000000E-01  5.97400000E-02  2.31400000E+00
  6.45000000E-01  2.14000000E-01  1.42800000E+00  5.00000000E-01
Contraction coefficients                   R   N=         119
  2.54948632E-02  1.90362766E-01  8.52162022E-01  1.00000000E+00  1.00000000E+00
  1.00000000E+00  1.00000000E+00  1.00000000E+00  1.00000000E+00  1.00000000E+00
  1.00000000E+00  5.19808943E-04  4.02025621E-03  2.07128267E-02  8.10105536E-02
  2.35962985E-01  4.42653446E-01  3.57064423E-01 -4.42115008E-05 -1.22591041E-03
 -1.05517725E-02 -6.74452633E-02 -1.71198607E-01  1.07329856E+00  1.00000000E+00
  1.00000000E+00  1.00000000E+00  4.11634896E-02  2.57762836E-01  8.02419274E-01
  1.00000000E+00  1.00000000E+00  1.00000000E+00  1.00000000E+00  1.00000000E+00
  1.00000000E+00  1.00000000E+00  1.00000000E+00  5.19808943E-04  4.02025621E-03
  2.07128267E-02  8.10105536E-02  2.35962985E-01  4.42653446E-01  3.57064423E-01
 -4.42115008E-05 -1.22591041E-03 -1.05517725E-02 -6.74452633E-02 -1.71198607E-01
  1.07329856E+00  1.00000000E+00  1.00000000E+00  1.00000000E+00  4.11634896E-02
  2.57762836E-01  8.02419274E-01  1.00000000E+00  1.00000000E+00  1.00000000E+00
  1.00000000E+00  1.00000000E+00  1.00000000E+00  1.00000000E+00  1.00000000E+00
  5.34563860E-04  4.13435660E-03  2.12335358E-02  8.25006224E-02  2.38138871E-01
  4.42551547E-01  3.53757422E-01 -4.89867350E-05 -1.19527323E-03 -1.03490714E-02
 -6.48680190E-02 -1.71552477E-01  1.07289568E+00  1.00000000E+00  1.00000000E+00
  1.00000000E+00  3.98072123E-02  2.49002660E-01  8.10479727E-01  1.00000000E+00
  1.00000000E+00  1.00000000E+00  1.00000000E+00  1.00000000E+00  1.00000000E+00
  1.00000000E+00  1.00000000E+00  5.19808943E-04  4.02025621E-03  2.07128267E-02
  8.10105536E-02  2.35962985E-01  4.42653446E-01  3.57064423E-01 -4.42115008E-05
 -1.22591041E-03 -1.05517725E-02 -6.74452633E-02 -1.71198607E-01  1.07329856E+00
  1.00000000E+00  1.00000000E+00  1.00000000E+00  4.11634896E-02  2.57762836E-01
  8.02419274E-01  1.00000000E+00  1.00000000E+00  1.00000000E+00  1.00000000E+00
  1.00000000E+00  1.00000000E+00  1.00000000E+00  1.00000000E+00
Coordinates of each shell                  R   N=         195
  2.92536671E+00  3.18226287E+00  1.42403698E-31  2.92536671E+00  3.18226287E+00
  1.42403698E-31  2.92536671E+00  3.18226287E+00  1.42403698E-31  2.92536671E+00
  3.18226287E+00  1.42403698E-31  2.92536671E+00  3.18226287E+00  1.42403698E-31
  2.92536671E+00  3.18226287E+00  1.42403698E-31  2.92536671E+00  3.18226287E+00
  1.42403698E-31  2.92536671E+00  3.18226287E+00  1.42403698E-31  2.92536671E+00
  3.18226287E+00  1.42403698E-31  2.74767984E+00  1.35980605E+00  8.37884615E-32
  2.74767984E+00  1.35980605E+00  8.37884615E-32  2.74767984E+00  1.35980605E+00
  8.37884615E-32  2.74767984E+00  1.35980605E+00  8.37884615E-32  2.74767984E+00
  1.35980605E+00  8.37884615E-32  2.74767984E+00  1.35980605E+00  8.37884615E-32
  2.74767984E+00  1.35980605E+00  8.37884615E-32  2.74767984E+00  1.35980605E+00
  8.37884615E-32  2.74767984E+00  1.35980605E+00  8.37884615E-32  2.74767984E+00
  1.35980605E+00  8.37884615E-32  2.74767984E+00  1.35980605E+00  8.37884615E-32
  2.74767984E+00  1.35980605E+00  8.37884615E-32  2.74767984E+00  1.35980605E+00
  8.37884615E-32  2.74767984E+00  1.35980605E+00  8.37884615E-32  1.13524895E-17
  1.26259238E+00  3.87230172E-32  1.13524895E-17  1.26259238E+00  3.87230172E-32
  1.13524895E-17  1.26259238E+00  3.87230172E-32  1.13524895E-17  1.26259238E+00
  3.87230172E-32  1.13524895E-17  1.26259238E+00  3.87230172E-32  1.13524895E-17
  1.26259238E+00  3.87230172E-32  1.13524895E-17  1.26259238E+00  3.87230172E-32
  1.13524895E-17  1.26259238E+00  3.87230172E-32  1.13524895E-17  1.26259238E+00
  3.87230172E-32  1.13524895E-17  1.26259238E+00  3.87230172E-32  1.13524895E-17
  1.26259238E+00  3.87230172E-32  1.13524895E-17  1.26259238E+00  3.87230172E-32
  1.13524895E-17  1.26259238E+00  3.87230172E-32  1.13524895E-17  1.26259238E+00
  3.87230172E-32 -4.91542464E-01 -1.44993298E+00 -5.19972027E-32 -4.91542464E-01
 -1.44993298E+00 -5.19972027E-32 -4.91542464E-01 -1.44993298E+00 -5.19972027E-32
 -4.91542464E-01 -1.44993298E+00 -5.19972027E-32 -4.91542464E-01 -1.44993298E+00
 -5.19972027E-32 -4.91542464E-01 -1.44993298E+00 -5.19972027E-32 -4.91542464E-01
 -1.44993298E+00 -5.19972027E-32 -4.91542464E-01 -1.44993298E+00 -5.19972027E-32
 -4.91542464E-01 -1.44993298E+00 -5.19972027E-32 -4.91542464E-01 -1.44993298E+00
 -5.19972027E-32 -4.91542464E-01 -1.44993298E+00 -5.19972027E-32 -4.91542464E-01
 -1.44993298E+00 -5.19972027E-32 -4.91542464E-01 -1.44993298E+00 -5.19972027E-32
 -4.91542464E-01 -1.44993298E+00 -5.19972027E-32 -2.68325103E+00 -1.75148994E+00
 -9.48143885E-32 -2.68325103E+00 -1.75148994E+00 -9.48143885E-32 -2.68325103E+00
 -1.75148994E+00 -9.48143885E-32 -2.68325103E+00 -1.75148994E+00 -9.48143885E-32
 -2.68325103E+00 -1.75148994E+00 -9.48143885E-32 -2.68325103E+00 -1.75148994E+00
 -9.48143885E-32 -2.68325103E+00 -1.75148994E+00 -9.48143885E-32 -2.68325103E+00
 -1.75148994E+00 -9.48143885E-32 -2.68325103E+00 -1.75148994E+00 -9.48143885E-32
 -2.68325103E+00 -1.75148994E+00 -9.48143885E-32 -2.68325103E+00 -1.75148994E+00
 -9.48143885E-32 -2.68325103E+00 -1.75148994E+00 -9.48143885E-32 -2.68325103E+00
 -1.75148994E+00 -9.48143885E-32 -2.68325103E+00 -1.75148994E+00 -9.48143885E-32
Num ILSW                                   I              100
ILSW                                       I   N=         100
           0           0           0           0           2           0
           0           0           0           0           0          -1
           5           0           0           0           2           0
           0           0           0           0           1           0
           1           0           0           0           0           0
           0           0      100000           0          -1           0
           0           0           0           0           0           0
           0           0           0           1           1           0
           0 -2000000000           1           0           0           0
           0           0           4          52           0           0
           0           0           0           0           0           0
           0           0           0           5           4           1
           0           0           0           0           0           0
           0           0           0           0           0           0
           0           0           0           0           0           0
           0           0           0           0           0           0
           0           0           0           0
Num RLSW                                   I               52
RLSW                                       R   N=          52
  1.00000000E+00  1.00000000E+00  1.00000000E+00  1.00000000E+00  1.00000000E+00
  0.00000000E+00  0.00000000E+00  1.00000000E+00  0.00000000E+00  0.00000000E+00
  0.00000000E+00  0.00000000E+00  1.00000000E+00  0.00000000E+00  0.00000000E+00
  0.00000000E+00  0.00000000E+00  1.00000000E+00  0.00000000E+00  0.00000000E+00
  0.00000000E+00  0.00000000E+00  1.00000000E+00  0.00000000E+00  0.00000000E+00
  0.00000000E+00  0.00000000E+00  1.00000000E+00  0.00000000E+00  0.00000000E+00
  0.00000000E+00  0.00000000E+00  1.00000000E+00  0.00000000E+00  0.00000000E+00
  0.00000000E+00  0.00000000E+00  0.00000000E+00  1.00000000E+00  1.00000000E+00
  0.00000000E+00  1.00000000E+00  0.00000000E+00  0.00000000E+00  0.00000000E+00
  0.00000000E+00  0.00000000E+00  0.00000000E+00  0.00000000E+00  0.00000000E+00
  0.00000000E+00  0.00000000E+00
MxBond                                     I                2
NBond                                      I   N=           5
           1           2           2           2           1
IBond                                      I   N=          10
           2           0           1           3           2           4
           3           5           4           0
RBond                                      R   N=          10
  1.00000000E+00  0.00000000E+00  1.00000000E+00  1.00000000E+00  1.00000000E+00
  1.00000000E+00  1.00000000E+00  2.00000000E+00  2.00000000E+00  0.00000000E+00
Virial Ratio                               R      2.002329398572999E+00
SCF Energy                                 R     -2.795016770741875E+02
MP2 Energy                                 R     -2.804466666128520E+02
Total Energy                               R     -2.804466666128520E+02
Post-SCF wavefunction norm                 R      1.584176813838634E+00
RMS Force                                  R      1.825792698240762E-03
RMS Density                                R      3.749161989710500E-09
NImag                                      I                1
Job Status                                 I                1
Nuclear derivative order                   I                2
External E-field                           R   N=          35
  0.00000000E+00  0.00000000E+00  0.00000000E+00  0.00000000E+00  0.00000000E+00
  0.00000000E+00  0.00000000E+00  0.00000000E+00  0.00000000E+00  0.00000000E+00
  0.00000000E+00  0.00000000E+00  0.00000000E+00  0.00000000E+00  0.00000000E+00
  0.00000000E+00  0.00000000E+00  0.00000000E+00  0.00000000E+00  0.00000000E+00
  0.00000000E+00  0.00000000E+00  0.00000000E+00  0.00000000E+00  0.00000000E+00
  0.00000000E+00  0.00000000E+00  0.00000000E+00  0.00000000E+00  0.00000000E+00
  0.00000000E+00  0.00000000E+00  0.00000000E+00  0.00000000E+00  0.00000000E+00
IOpCl                                      I                0
IROHF                                      I                0
Alpha Orbital Energies                     R   N=         207
 -2.06904805E+01 -2.06839549E+01 -2.06593548E+01 -1.58131646E+01 -1.62484450E+00
 -1.49502471E+00 -1.25361916E+00 -9.48324473E-01 -7.72250356E-01 -7.59515002E-01
 -7.11982648E-01 -6.79118377E-01 -6.20071884E-01 -5.88577119E-01 -4.84764753E-01
 -4.73646770E-01  2.97032726E-02  7.12627683E-02  8.61305769E-02  1.01699554E-01
  1.33896818E-01  1.33900689E-01  1.44127005E-01  1.54463945E-01  1.78361612E-01
  1.94130128E-01  1.99845717E-01  2.06539669E-01  2.20797561E-01  2.36381497E-01
  2.37511281E-01  2.66733872E-01  2.92648241E-01  3.03597474E-01  3.10296088E-01
  3.43730789E-01  3.49613094E-01  3.87539735E-01  4.22402636E-01  4.31984443E-01
  5.28216747E-01  5.28510114E-01  5.58120259E-01  5.80695677E-01  6.25407422E-01
  6.40277962E-01  6.74715781E-01  6.84613712E-01  7.05006785E-01  7.11524149E-01
  7.23691757E-01  7.29221986E-01  7.43728322E-01  7.92523780E-01  7.93231492E-01
  8.10866971E-01  8.13083966E-01  8.31029327E-01  8.68185380E-01  9.08930220E-01
  9.22257691E-01  9.28355986E-01  9.56456079E-01  9.75672842E-01  9.84863533E-01
  1.01683830E+00  1.05194307E+00  1.05494784E+00  1.08288856E+00  1.11736149E+00
  1.14177446E+00  1.19010776E+00  1.21891530E+00  1.23316036E+00  1.33932571E+00
  1.35192717E+00  1.38766709E+00  1.45499610E+00  1.48763285E+00  1.50792183E+00
  1.53771802E+00  1.56788222E+00  1.57953200E+00  1.61269917E+00  1.66455545E+00
  1.67100023E+00  1.70228888E+00  1.79251088E+00  1.83016934E+00  1.83507363E+00
  1.88019658E+00  1.90849530E+00  1.95660327E+00  1.99321828E+00  2.00352679E+00
  2.08005650E+00  2.12248499E+00  2.13090100E+00  2.15109070E+00  2.22585275E+00
  2.26540068E+00  2.26702431E+00  2.28947863E+00  2.31454450E+00  2.34649424E+00
  2.38628306E+00  2.42629479E+00  2.42853948E+00  2.45193696E+00  2.45992062E+00
  2.47808662E+00  2.50082295E+00  2.58891472E+00  2.59835333E+00  2.62246284E+00
  2.62404827E+00  2.63428991E+00  2.67049119E+00  2.75424851E+00  2.81820390E+00
  2.85089263E+00  2.89069940E+00  2.89355228E+00  2.93583547E+00  2.95388454E+00
  3.02664901E+00  3.06507261E+00  3.12553924E+00  3.20496109E+00  3.22451115E+00
  3.31865142E+00  3.33858631E+00  3.52405423E+00  3.63949661E+00  3.83844074E+00
  3.84422553E+00  4.14938107E+00  4.16670325E+00  4.18457081E+00  4.25795873E+00
  4.34922622E+00  4.39348387E+00  4.46336803E+00  4.52016272E+00  4.65775373E+00
  4.71177338E+00  4.80272487E+00  4.82822069E+00  4.83061535E+00  4.89632169E+00
  5.02439699E+00  5.07664825E+00  5.10624607E+00  5.14572600E+00  5.17494036E+00
  5.24393990E+00  5.27386822E+00  5.30535336E+00  5.33057958E+00  5.35270549E+00
  5.60368971E+00  5.67354239E+00  5.78075031E+00  5.82912384E+00  5.95684063E+00
  6.16936520E+00  6.31040300E+00  6.33665581E+00  6.39478221E+00  6.49563299E+00
  6.50811779E+00  6.61487404E+00  6.66813144E+00  6.70396929E+00  6.75801138E+00
  6.76470666E+00  6.83574894E+00  6.89436857E+00  7.01615545E+00  7.05699610E+00
  7.05830534E+00  7.09153432E+00  7.12338044E+00  7.15129686E+00  7.18226428E+00
  7.22593319E+00  7.24244729E+00  7.30764757E+00  7.32543099E+00  7.34739300E+00
  7.39891858E+00  7.43112123E+00  7.48329957E+00  7.60913935E+00  7.61384945E+00
  7.63019572E+00  7.66874685E+00  7.79657077E+00  7.88170161E+00  8.09393538E+00
  8.31529778E+00  8.40919421E+00  8.54358448E+00  1.33988986E+01  1.43821803E+01
  1.51674987E+01  1.61565391E+01
Alpha MO coefficients                      R   N=       42849
  9.21933798E-05 -6.26963498E-04 -7.27711814E-04 -4.00316981E-06 -2.15144513E-05
 -2.73602009E-05  0.00000000E+00 -4.33988949E-05  5.66537988E-05  0.00000000E+00
  8.72580230E-05  3.67816706E-05  0.00000000E+00  3.17904522E-05  0.00000000E+00
  0.00000000E+00 -5.02748693E-05  2.07183099E-05 -4.14091088E-06  0.00000000E+00
  0.00000000E+00 -1.40618395E-04  1.18082726E-04  4.55170736E-03 -2.81180710E-04
  1.27570110E-05  1.53965428E-03  1.82514382E-03  1.06673710E-04  7.67040168E-06
  0.00000000E+00 -6.18487576E-04 -3.76191431E-05  0.00000000E+00 -1.10251950E-03
  7.76486540E-04  0.00000000E+00 -4.03830080E-04  6.17444069E-05  0.00000000E+00
  2.89420491E-05  0.00000000E+00  0.00000000E+00 -5.43997171E-05  5.80723057E-06
 -3.78781962E-04  0.00000000E+00  0.00000000E+00  7.42922411E-04 -3.15048836E-05
 -4.46496449E-04  0.00000000E+00  0.00000000E+00  2.47001348E-04 -9.53721343E-06
  0.00000000E+00  8.02569727E-05  1.28348639E-05  0.00000000E+00  0.00000000E+00
 -1.09629491E-04 -3.51301729E-06  0.00000000E+00  2.55857565E-04 -2.72186417E-05
  0.00000000E+00  0.00000000E+00 -3.54543575E-04  4.92934750E-05  9.76911130E-01
 -9.21650074E-03  4.33185768E-02  2.02873054E-03 -9.06775442E-04  1.49956658E-03
 -1.34500868E-03  0.00000000E+00 -1.44207903E-03  1.37320272E-03  0.00000000E+00
  8.26535253E-05 -1.14751172E-03  0.00000000E+00 -1.35607505E-04 -1.39853756E-05
  0.00000000E+00  4.66772822E-05  0.00000000E+00  0.00000000E+00 -3.42267504E-05
  2.19789567E-05  7.48491670E-04  0.00000000E+00  0.00000000E+00 -2.36055806E-04
 -3.90405290E-04 -3.64968506E-04  0.00000000E+00  0.00000000E+00 -3.03824058E-04
 -3.61753217E-04  0.00000000E+00  4.72699621E-05 -4.86036503E-05  0.00000000E+00
  0.00000000E+00 -3.93473984E-05 -1.49983023E-05  0.00000000E+00  2.48445891E-05
  2.23006127E-05  0.00000000E+00  0.00000000E+00 -3.03688654E-04 -1.41132161E-04
  3.88713270E-05  4.51673412E-05 -2.62982699E-04 -7.18965907E-04 -1.61917174E-04
 -2.63733507E-05 -9.66693047E-05  0.00000000E+00  2.71295866E-04  7.02648151E-04
  0.00000000E+00 -8.15029687E-04 -4.62249513E-04  0.00000000E+00 -1.24507770E-04
 -3.07565400E-05  0.00000000E+00 -1.82415796E-05  0.00000000E+00  0.00000000E+00
 -2.99603166E-05  1.61146867E-05 -3.27027112E-04  0.00000000E+00  0.00000000E+00
 -8.24510671E-04  1.24639285E-04 -3.61251158E-05  0.00000000E+00  0.00000000E+00
  9.16864934E-05 -1.21555029E-04  0.00000000E+00 -2.03759135E-05 -1.19669671E-04
  0.00000000E+00  0.00000000E+00 -6.22535197E-05 -1.37311414E-04  0.00000000E+00
  4.13576708E-06 -1.53297631E-04  0.00000000E+00  0.00000000E+00  4.34236757E-05
 -4.13330168E-04 -2.63262413E-03  1.28299490E-04 -1.23326067E-04 -2.28155402E-04
  1.51063058E-04 -7.71655346E-06 -2.58825889E-05  0.00000000E+00  7.25443738E-05
  1.54306433E-04  0.00000000E+00  2.43673659E-04  1.90734825E-04  0.00000000E+00
  1.30388238E-04  2.51732176E-05  0.00000000E+00 -3.78544466E-06  0.00000000E+00
  0.00000000E+00 -1.81699914E-05  1.77456859E-06  4.78328441E-06  0.00000000E+00
  0.00000000E+00  8.78051221E-05  7.99801948E-05 -9.68805613E-05  0.00000000E+00
  0.00000000E+00  1.75428096E-04  1.58508084E-04  0.00000000E+00  1.64301253E-05
 -2.68158301E-06  0.00000000E+00  0.00000000E+00 -2.91799107E-06 -1.22743153E-05
  0.00000000E+00 -3.15328039E-05  4.39806309E-05  0.00000000E+00  0.00000000E+00
  8.84377376E-05  8.89784712E-05  3.92573243E-05 -9.80332135E-04 -4.79203631E-04
 -1.07568158E-05 -2.05183506E-05  1.51699350E-05  0.00000000E+00 -3.23312666E-06
  2.67078499E-04  0.00000000E+00 -4.48237040E-05  1.31315944E-04  0.00000000E+00
  2.55395251E-05  0.00000000E+00  0.00000000E+00  1.14069465E-05  1.09484419E-05
 -2.97958534E-05  0.00000000E+00  0.00000000E+00  1.20864998E-05  3.55143934E-05
  1.13005199E-04  8.38217224E-05 -2.75211592E-05  7.32131710E-04  6.57333208E-04
  1.03095764E-05  2.51746451E-06  0.00000000E+00 -7.41753528E-05  1.32970435E-05
  0.00000000E+00  3.38953222E-04  9.13884695E-04  0.00000000E+00  1.86402373E-06
  8.45302022E-05  0.00000000E+00 -2.31231345E-06  0.00000000E+00  0.00000000E+00
 -1.53634328E-07 -5.11419293E-06 -3.48187791E-05  0.00000000E+00  0.00000000E+00
 -1.75294699E-05  7.77541153E-05 -2.34678870E-05  0.00000000E+00  0.00000000E+00
 -2.71727912E-04 -1.70937466E-04  0.00000000E+00  8.91847943E-06  6.15716640E-06
  0.00000000E+00  0.00000000E+00  2.42898434E-06 -1.83661431E-05  0.00000000E+00
 -3.89262156E-05 -3.90114042E-05  0.00000000E+00  0.00000000E+00 -7.53146996E-05
  2.32040843E-05  2.67222728E-03  3.99078486E-05  9.75717380E-05 -8.61200380E-05
 -4.92172600E-04  5.76770951E-06  1.32863971E-05  0.00000000E+00 -5.68343374E-05
 -4.50561106E-05  0.00000000E+00  2.63595007E-04 -1.88558264E-04  0.00000000E+00
 -1.95938158E-04 -6.81563179E-05  0.00000000E+00 -8.97359027E-06  0.00000000E+00
  0.00000000E+00  2.22487909E-05  2.12870079E-05  9.16666419E-06  0.00000000E+00
  0.00000000E+00 -1.14197646E-04 -5.81067224E-05  1.32912955E-06  0.00000000E+00
  0.00000000E+00 -2.21999765E-04 -2.32709573E-04  0.00000000E+00  1.72768276E-06
 -2.77502415E-06  0.00000000E+00  0.00000000E+00 -4.41289853E-07 -1.18165359E-05
  0.00000000E+00 -4.47969112E-05  6.35204760E-06  0.00000000E+00  0.00000000E+00
 -7.80380401E-05  1.81373668E-04  2.58114090E-04  1.45956095E-03 -8.01826386E-05
 -1.49092761E-03  4.12438604E-04 -1.45279130E-04  6.46541951E-07  0.00000000E+00
 -2.08603445E-03 -3.68902092E-04  0.00000000E+00  1.00560455E-03  7.44806928E-04
  0.00000000E+00 -1.65667638E-04  6.48414163E-05  0.00000000E+00 -1.22625419E-04
  0.00000000E+00  0.00000000E+00  2.46547425E-04  8.72382379E-05 -4.46526499E-04
  0.00000000E+00  0.00000000E+00  8.88132726E-04 -8.77366069E-05  6.29975690E-06
  0.00000000E+00  0.00000000E+00 -3.38793157E-04 -1.18893492E-04  0.00000000E+00
 -2.08273475E-06  1.46465813E-05  0.00000000E+00  0.00000000E+00  1.93704452E-05
  1.15111544E-05  0.00000000E+00  1.66943582E-04 -7.42754598E-05  0.00000000E+00
  0.00000000E+00 -2.35484500E-04  4.54710545E-05  9.76647465E-01 -9.84983058E-03
  4.35703747E-02  4.47526456E-03 -4.52447628E-04  2.15606718E-03  4.37275989E-04
  0.00000000E+00 -2.39253777E-03 -5.57675740E-04  0.00000000E+00  1.13474666E-03
 -3.86176941E-06  0.00000000E+00  3.07513127E-06 -4.53996223E-05  0.00000000E+00
 -2.33080073E-04  0.00000000E+00  0.00000000E+00  1.02896545E-04  2.94038493E-05
  3.89338134E-04  0.00000000E+00  0.00000000E+00 -8.46640568E-04 -3.85392654E-04
 -1.57901464E-04  0.00000000E+00  0.00000000E+00  2.51771903E-04  1.86508718E-05
  0.00000000E+00  5.25618313E-05  1.73274745E-05  0.00000000E+00  0.00000000E+00
 -2.20494996E-05 -1.18319576E-05  0.00000000E+00  1.37853577E-04  4.82568421E-06
  0.00000000E+00  0.00000000E+00 -1.97818981E-04 -1.29536337E-04  4.75000883E-04
  2.05570433E-03  1.09896357E-04  1.48416475E-05 -4.09160325E-05 -2.46912891E-04
  0.00000000E+00  1.13202513E-04 -1.27292649E-03  0.00000000E+00  3.16007121E-04
 -3.35717263E-04  0.00000000E+00 -2.55854960E-06  0.00000000E+00  0.00000000E+00
  7.61158037E-05  1.54818522E-05 -1.59807819E-04  0.00000000E+00  0.00000000E+00
 -5.37549267E-04 -2.59545696E-05  9.76829666E-01 -9.16315854E-03  4.34506018E-02
  1.69020253E-04 -1.15368690E-03 -1.56096951E-03  1.44100403E-03  0.00000000E+00
  1.57356218E-03 -1.28344312E-03  0.00000000E+00 -5.66498519E-04 -8.61272974E-04
  0.00000000E+00  5.67725013E-05 -3.61884467E-05  0.00000000E+00  2.93029976E-05
  0.00000000E+00  0.00000000E+00 -1.17814872E-04 -2.80063333E-06  7.56966270E-04
  0.00000000E+00  0.00000000E+00 -2.01414853E-04 -2.35145759E-04 -2.66726826E-04
  0.00000000E+00  0.00000000E+00  1.66646239E-04  1.27490897E-04  0.00000000E+00
 -6.41104964E-05  1.22250954E-06  0.00000000E+00  0.00000000E+00  1.87391247E-05