 Entering Gaussian System, Link 0=g16
 Input=hoono_r3_1p482113.gjf
 Output=hoono_r3_1p482113.log
 Initial command:
 /sw/contrib/gaussian/g16/B01/g16/l1.exe "/scr/Gau-10417.inp" -scrdir="/scr/"
 Entering Link 1 = /sw/contrib/gaussian/g16/B01/g16/l1.exe PID=     10418.
  
 Copyright (c) 1988-2017, Gaussian, Inc.  All Rights Reserved.
  
 This is part of the Gaussian(R) 16 program.  It is based on
 the Gaussian(R) 09 system (copyright 2009, Gaussian, Inc.),
 the Gaussian(R) 03 system (copyright 2003, Gaussian, Inc.),
 the Gaussian(R) 98 system (copyright 1998, Gaussian, Inc.),
 the Gaussian(R) 94 system (copyright 1995, Gaussian, Inc.),
 the Gaussian 92(TM) system (copyright 1992, Gaussian, Inc.),
 the Gaussian 90(TM) system (copyright 1990, Gaussian, Inc.),
 the Gaussian 88(TM) system (copyright 1988, Gaussian, Inc.),
 the Gaussian 86(TM) system (copyright 1986, Carnegie Mellon
 University), and the Gaussian 82(TM) system (copyright 1983,
 Carnegie Mellon University). Gaussian is a federally registered
 trademark of Gaussian, Inc.
  
 This software contains proprietary and confidential information,
 including trade secrets, belonging to Gaussian, Inc.
  
 This software is provided under written license and may be
 used, copied, transmitted, or stored only in accord with that
 written license.
  
 The following legend is applicable only to US Government
 contracts under FAR:
  
                    RESTRICTED RIGHTS LEGEND
  
 Use, reproduction and disclosure by the US Government is
 subject to restrictions as set forth in subparagraphs (a)
 and (c) of the Commercial Computer Software - Restricted
 Rights clause in FAR 52.227-19.
  
 Gaussian, Inc.
 340 Quinnipiac St., Bldg. 40, Wallingford CT 06492
  
  
 ---------------------------------------------------------------
 Warning -- This program may not be used in any manner that
 competes with the business of Gaussian, Inc. or will provide
 assistance to any competitor of Gaussian, Inc.  The licensee
 of this program is prohibited from giving any competitor of
 Gaussian, Inc. access to this program.  By using this program,
 the user acknowledges that Gaussian, Inc. is engaged in the
 business of creating and licensing software in the field of
 computational chemistry and represents and warrants to the
 licensee that it is not a competitor of Gaussian, Inc. and that
 it will not use this program in any manner prohibited above.
 ---------------------------------------------------------------
  

 Cite this work as:
 Gaussian 16, Revision B.01,
 M. J. Frisch, G. W. Trucks, H. B. Schlegel, G. E. Scuseria, 
 M. A. Robb, J. R. Cheeseman, G. Scalmani, V. Barone, 
 G. A. Petersson, H. Nakatsuji, X. Li, M. Caricato, A. V. Marenich, 
 J. Bloino, B. G. Janesko, R. Gomperts, B. Mennucci, H. P. Hratchian, 
 J. V. Ortiz, A. F. Izmaylov, J. L. Sonnenberg, D. Williams-Young, 
 F. Ding, F. Lipparini, F. Egidi, J. Goings, B. Peng, A. Petrone, 
 T. Henderson, D. Ranasinghe, V. G. Zakrzewski, J. Gao, N. Rega, 
 G. Zheng, W. Liang, M. Hada, M. Ehara, K. Toyota, R. Fukuda, 
 J. Hasegawa, M. Ishida, T. Nakajima, Y. Honda, O. Kitao, H. Nakai, 
 T. Vreven, K. Throssell, J. A. Montgomery, Jr., J. E. Peralta, 
 F. Ogliaro, M. J. Bearpark, J. J. Heyd, E. N. Brothers, K. N. Kudin, 
 V. N. Staroverov, T. A. Keith, R. Kobayashi, J. Normand, 
 K. Raghavachari, A. P. Rendell, J. C. Burant, S. S. Iyengar, 
 J. Tomasi, M. Cossi, J. M. Millam, M. Klene, C. Adamo, R. Cammi, 
 J. W. Ochterski, R. L. Martin, K. Morokuma, O. Farkas, 
 J. B. Foresman, and D. J. Fox, Gaussian, Inc., Wallingford CT, 2016.
 
 ******************************************
 Gaussian 16:  ES64L-G16RevB.01 20-Dec-2017
                21-Feb-2022 
 ******************************************
 %nproc=28
 Will use up to   28 processors via shared memory.
 %mem=120GB
 %chk=hoono_r3_1p482113.chk
 ---------------------------------------
 #p freq mp2/aug-cc-pvtz density=current
 ---------------------------------------
 1/10=4,30=1,38=1/1,3;
 2/12=2,17=6,18=5,40=1/2;
 3/5=16,6=1,7=10,11=9,25=1,30=1,71=2,140=1/1,2,3;
 4//1;
 5/5=2,38=5,98=1/2;
 8/6=3,8=1,10=1,19=11,30=-1/1;
 9/15=3,16=-3/6;
 11/6=1,8=1,15=11,17=12,24=-1,27=1,28=-2,29=300,32=6,42=3/1,2,10;
 10/6=2,21=1/2;
 8/6=4,8=1,10=1,19=11,30=-1/11,4;
 10/5=1,20=4/2;
 11/12=2,14=11,16=1,17=2,28=-2,42=3,76=2/2,10,12;
 6/7=2,8=2,9=2,10=2,22=-1/1;
 7/8=1,10=1,12=2,25=1,44=2/1,2,3,16;
 1/10=4,30=1/3;
 99//99;
 Leave Link    1 at Mon Feb 21 20:15:49 2022, MaxMem= 16106127360 cpu:               1.9 elap:               0.1
 (Enter /sw/contrib/gaussian/g16/B01/g16/l101.exe)
 -----
 title
 -----
 Symbolic Z-matrix:
 Charge =  0 Multiplicity = 1
 H
 O                    1    r1
 O                    2    r2       1    a1
 N                    3    r3       2    a2       1    d1       0
 O                    4    r4       3    a3       2    d2       0
       Variables:
  r1                    0.96898                  
  r2                    1.45492                  
  r3                    1.48211                  
  r4                    1.17073                  
  a1                   97.59495                  
  a2                  102.29752                  
  a3                  109.06955                  
  d1                  180.                       
  d2                  180.                       
 
 ITRead=  0  0  0  0  0
 MicOpt= -1 -1 -1 -1 -1
 NAtoms=      5 NQM=        5 NQMF=       0 NMMI=      0 NMMIF=      0
                NMic=       0 NMicF=      0.
                    Isotopes and Nuclear Properties:
 (Nuclear quadrupole moments (NQMom) in fm**2, nuclear magnetic moments (NMagM)
  in nuclear magnetons)

  Atom         1           2           3           4           5
 IAtWgt=           1          16          16          14          16
 AtmWgt=   1.0078250  15.9949146  15.9949146  14.0030740  15.9949146
 NucSpn=           1           0           0           2           0
 AtZEff=  -0.0000000  -0.0000000  -0.0000000  -0.0000000  -0.0000000
 NQMom=    0.0000000   0.0000000   0.0000000   2.0440000   0.0000000
 NMagM=    2.7928460   0.0000000   0.0000000   0.4037610   0.0000000
 AtZNuc=   1.0000000   8.0000000   8.0000000   7.0000000   8.0000000
 Leave Link  101 at Mon Feb 21 20:15:49 2022, MaxMem= 16106127360 cpu:               4.1 elap:               0.2
 (Enter /sw/contrib/gaussian/g16/B01/g16/l103.exe)

 GradGradGradGradGradGradGradGradGradGradGradGradGradGradGradGradGradGrad
 Berny optimization.
 Initialization pass.
                       ----------------------------
                       !    Initial Parameters    !
                       ! (Angstroms and Degrees)  !
 ----------------------                            ----------------------
 !      Name          Value   Derivative information (Atomic Units)     !
 ------------------------------------------------------------------------
 !       r1          0.969    calculate D2E/DX2 analytically            !
 !       r2          1.4549   calculate D2E/DX2 analytically            !
 !       r3          1.4821   calculate D2E/DX2 analytically            !
 !       r4          1.1707   calculate D2E/DX2 analytically            !
 !       a1         97.5949   calculate D2E/DX2 analytically            !
 !       a2        102.2975   calculate D2E/DX2 analytically            !
 !       a3        109.0696   calculate D2E/DX2 analytically            !
 !       d1        180.0      calculate D2E/DX2 analytically            !
 !       d2        180.0      calculate D2E/DX2 analytically            !
 ------------------------------------------------------------------------
 Trust Radius=3.00D-01 FncErr=1.00D-07 GrdErr=1.00D-07 EigMax=2.50D+02 EigMin=1.00D-04
 Number of steps in this run=      2 maximum allowed number of steps=      2.
 GradGradGradGradGradGradGradGradGradGradGradGradGradGradGradGradGradGrad

 Leave Link  103 at Mon Feb 21 20:15:49 2022, MaxMem= 16106127360 cpu:               1.3 elap:               0.1
 (Enter /sw/contrib/gaussian/g16/B01/g16/l202.exe)
                          Input orientation:                          
 ---------------------------------------------------------------------
 Center     Atomic      Atomic             Coordinates (Angstroms)
 Number     Number       Type             X           Y           Z
 ---------------------------------------------------------------------
      1          1           0        0.000000    0.000000    0.000000
      2          8           0        0.000000    0.000000    0.968976
      3          8           0        1.442156    0.000000    1.161271
      4          7           0        1.563664    0.000000    2.638396
      5          8           0        2.697780    0.000000    2.928890
 ---------------------------------------------------------------------
                    Distance matrix (angstroms):
                    1          2          3          4          5
     1  H    0.000000
     2  O    0.968976   0.000000
     3  O    1.851584   1.454919   0.000000
     4  N    3.066949   2.287358   1.482114   0.000000
     5  O    3.982012   3.334559   2.168195   1.170729   0.000000
 Stoichiometry    HNO3
 Framework group  CS[SG(HNO3)]
 Deg. of freedom     7
 Full point group                 CS      NOp   2
 Largest Abelian subgroup         CS      NOp   2
 Largest concise Abelian subgroup C1      NOp   1
                         Standard orientation:                         
 ---------------------------------------------------------------------
 Center     Atomic      Atomic             Coordinates (Angstroms)
 Number     Number       Type             X           Y           Z
 ---------------------------------------------------------------------
      1          1           0        1.546196    1.702416   -0.000000
      2          8           0        1.453914    0.737845   -0.000000
      3          8           0        0.000000    0.683770   -0.000000
      4          7           0       -0.261633   -0.775068    0.000000
      5          8           0       -1.418260   -0.956233    0.000000
 ---------------------------------------------------------------------
 Rotational constants (GHZ):          53.9814256           4.9521822           4.5360511
 Leave Link  202 at Mon Feb 21 20:15:49 2022, MaxMem= 16106127360 cpu:               0.3 elap:               0.0
 (Enter /sw/contrib/gaussian/g16/B01/g16/l301.exe)
 Standard basis: Aug-CC-pVTZ (5D, 7F)
 Ernie: Thresh=  0.10000D-02 Tol=  0.10000D-05 Strict=F.
 Ernie:  12 primitive shells out of 131 were deleted.
 There are   166 symmetry adapted cartesian basis functions of A'  symmetry.
 There are    79 symmetry adapted cartesian basis functions of A"  symmetry.
 There are   136 symmetry adapted basis functions of A'  symmetry.
 There are    71 symmetry adapted basis functions of A"  symmetry.
   207 basis functions,   315 primitive gaussians,   245 cartesian basis functions
    16 alpha electrons       16 beta electrons
       nuclear repulsion energy       116.2428649383 Hartrees.
 IExCor=    0 DFT=F Ex=HF Corr=None ExCW=0 ScaHFX=  1.000000
 ScaDFX=  1.000000  1.000000  1.000000  1.000000 ScalE2=  1.000000  1.000000
 IRadAn=      5 IRanWt=     -1 IRanGd=            0 ICorTp=0 IEmpDi=  4
 NAtoms=    5 NActive=    5 NUniq=    5 SFac= 1.00D+00 NAtFMM=   60 NAOKFM=F Big=F
 Integral buffers will be    131072 words long.
 Raffenetti 1 integral format.
 Two-electron integral symmetry is turned on.
 Leave Link  301 at Mon Feb 21 20:15:49 2022, MaxMem= 16106127360 cpu:               1.7 elap:               0.1
 (Enter /sw/contrib/gaussian/g16/B01/g16/l302.exe)
 NPDir=0 NMtPBC=     1 NCelOv=     1 NCel=       1 NClECP=     1 NCelD=      1
         NCelK=      1 NCelE2=     1 NClLst=     1 CellRange=     0.0.
 One-electron integrals computed using PRISM.
 One-electron integral symmetry used in STVInt
 NBasis=   207 RedAO= T EigKep=  1.84D-04  NBF=   136    71
 NBsUse=   207 1.00D-06 EigRej= -1.00D+00 NBFU=   136    71
 Leave Link  302 at Mon Feb 21 20:15:50 2022, MaxMem= 16106127360 cpu:               4.4 elap:               0.2
 (Enter /sw/contrib/gaussian/g16/B01/g16/l303.exe)
 DipDrv:  MaxL=1.
 Leave Link  303 at Mon Feb 21 20:15:50 2022, MaxMem= 16106127360 cpu:               0.7 elap:               0.1
 (Enter /sw/contrib/gaussian/g16/B01/g16/l401.exe)
 ExpMin= 2.53D-02 ExpMax= 1.53D+04 ExpMxC= 5.22D+02 IAcc=3 IRadAn=         5 AccDes= 0.00D+00
 Harris functional with IExCor=  205 and IRadAn=       5 diagonalized for initial guess.
 HarFok:  IExCor=  205 AccDes= 0.00D+00 IRadAn=         5 IDoV= 1 UseB2=F ITyADJ=14
 ICtDFT=  3500011 ScaDFX=  1.000000  1.000000  1.000000  1.000000
 FoFCou: FMM=F IPFlag=           0 FMFlag=      100000 FMFlg1=           0
         NFxFlg=           0 DoJE=T BraDBF=F KetDBF=T FulRan=T
         wScrn=  0.000000 ICntrl=       500 IOpCl=  0 I1Cent=   200000004 NGrid=           0
         NMat0=    1 NMatS0=      1 NMatT0=    0 NMatD0=    1 NMtDS0=    0 NMtDT0=    0
 Petite list used in FoFCou.
 Harris En= -279.627747649807    
 JPrj=0 DoOrth=F DoCkMO=F.
 Initial guess orbital symmetries:
       Occupied  (A') (A') (A') (A') (A') (A') (A') (A') (A') (A')
                 (A") (A') (A') (A") (A") (A')
       Virtual   (A") (A') (A') (A') (A') (A') (A") (A') (A') (A')
                 (A") (A') (A") (A') (A') (A") (A') (A") (A') (A')
                 (A') (A') (A') (A') (A') (A") (A') (A") (A') (A')
                 (A") (A') (A") (A') (A') (A") (A') (A") (A') (A')
                 (A") (A') (A") (A') (A") (A') (A') (A') (A") (A")
                 (A') (A') (A') (A') (A") (A') (A") (A') (A") (A')
                 (A') (A') (A") (A') (A') (A") (A') (A") (A') (A')
                 (A") (A') (A') (A") (A") (A') (A') (A") (A') (A')
                 (A') (A") (A') (A") (A') (A") (A') (A") (A') (A')
                 (A') (A") (A') (A") (A') (A") (A") (A') (A') (A')
                 (A") (A') (A") (A') (A') (A') (A") (A') (A") (A')
                 (A") (A') (A') (A') (A") (A') (A') (A') (A") (A')
                 (A") (A') (A') (A") (A") (A') (A') (A") (A") (A')
                 (A') (A') (A') (A") (A") (A') (A") (A') (A') (A')
                 (A') (A") (A") (A') (A') (A") (A') (A') (A') (A')
                 (A") (A') (A') (A") (A') (A") (A') (A") (A") (A')
                 (A') (A") (A') (A") (A') (A") (A") (A") (A') (A')
                 (A") (A') (A") (A') (A") (A') (A") (A") (A') (A')
                 (A') (A') (A') (A') (A') (A') (A') (A') (A') (A')
                 (A')
 The electronic state of the initial guess is 1-A'.
 Leave Link  401 at Mon Feb 21 20:15:50 2022, MaxMem= 16106127360 cpu:               6.8 elap:               0.3
 (Enter /sw/contrib/gaussian/g16/B01/g16/l502.exe)
 Keep R1 ints in memory in symmetry-blocked form, NReq=348887737.
 FoFCou: FMM=F IPFlag=           0 FMFlag=           0 FMFlg1=           0
         NFxFlg=           0 DoJE=F BraDBF=F KetDBF=F FulRan=T
         wScrn=  0.000000 ICntrl=       600 IOpCl=  0 I1Cent=           0 NGrid=           0
         NMat0=    1 NMatS0=  21528 NMatT0=    0 NMatD0=    1 NMtDS0=    0 NMtDT0=    0
 Petite list used in FoFCou.
 Closed shell SCF:
 Using DIIS extrapolation, IDIIS=  1040.
 NGot= 16106127360 LenX= 15988850015 LenY= 15988789549
 Requested convergence on RMS density matrix=1.00D-08 within 128 cycles.
 Requested convergence on MAX density matrix=1.00D-06.
 Requested convergence on             energy=1.00D-06.
 No special actions if energy rises.

 Cycle   1  Pass 1  IDiag  1:
 E= -279.370458098997    
 DIIS: error= 2.74D-02 at cycle   1 NSaved=   1.
 NSaved= 1 IEnMin= 1 EnMin= -279.370458098997     IErMin= 1 ErrMin= 2.74D-02
 ErrMax= 2.74D-02  0.00D+00 EMaxC= 1.00D-01 BMatC= 4.35D-01 BMatP= 4.35D-01
 IDIUse=3 WtCom= 7.26D-01 WtEn= 2.74D-01
 Coeff-Com:  0.100D+01
 Coeff-En:   0.100D+01
 Coeff:      0.100D+01
 Gap=     0.502 Goal=   None    Shift=    0.000
 GapD=    0.502 DampG=2.000 DampE=0.500 DampFc=1.0000 IDamp=-1.
 RMSDP=1.61D-03 MaxDP=1.01D-01              OVMax= 1.07D-01

 Cycle   2  Pass 1  IDiag  1:
 E= -279.452844668373     Delta-E=       -0.082386569376 Rises=F Damp=F
 DIIS: error= 1.76D-02 at cycle   2 NSaved=   2.
 NSaved= 2 IEnMin= 2 EnMin= -279.452844668373     IErMin= 2 ErrMin= 1.76D-02
 ErrMax= 1.76D-02  0.00D+00 EMaxC= 1.00D-01 BMatC= 6.72D-02 BMatP= 4.35D-01
 IDIUse=3 WtCom= 8.24D-01 WtEn= 1.76D-01
 Coeff-Com:  0.186D+00 0.814D+00
 Coeff-En:   0.000D+00 0.100D+01
 Coeff:      0.153D+00 0.847D+00
 Gap=     0.525 Goal=   None    Shift=    0.000
 RMSDP=8.76D-04 MaxDP=3.65D-02 DE=-8.24D-02 OVMax= 7.09D-02

 Cycle   3  Pass 1  IDiag  1:
 E= -279.479855904099     Delta-E=       -0.027011235726 Rises=F Damp=F
 DIIS: error= 1.06D-02 at cycle   3 NSaved=   3.
 NSaved= 3 IEnMin= 3 EnMin= -279.479855904099     IErMin= 3 ErrMin= 1.06D-02
 ErrMax= 1.06D-02  0.00D+00 EMaxC= 1.00D-01 BMatC= 2.77D-02 BMatP= 6.72D-02
 IDIUse=3 WtCom= 8.94D-01 WtEn= 1.06D-01
 Coeff-Com: -0.323D-01 0.382D+00 0.651D+00
 Coeff-En:   0.000D+00 0.244D+00 0.756D+00
 Coeff:     -0.289D-01 0.367D+00 0.662D+00
 Gap=     0.510 Goal=   None    Shift=    0.000
 RMSDP=3.70D-04 MaxDP=1.59D-02 DE=-2.70D-02 OVMax= 3.59D-02

 Cycle   4  Pass 1  IDiag  1:
 E= -279.498172351971     Delta-E=       -0.018316447872 Rises=F Damp=F
 DIIS: error= 1.32D-03 at cycle   4 NSaved=   4.
 NSaved= 4 IEnMin= 4 EnMin= -279.498172351971     IErMin= 4 ErrMin= 1.32D-03
 ErrMax= 1.32D-03  0.00D+00 EMaxC= 1.00D-01 BMatC= 5.20D-04 BMatP= 2.77D-02
 IDIUse=3 WtCom= 9.87D-01 WtEn= 1.32D-02
 Coeff-Com: -0.121D-01 0.650D-01 0.170D+00 0.777D+00
 Coeff-En:   0.000D+00 0.000D+00 0.000D+00 0.100D+01
 Coeff:     -0.120D-01 0.641D-01 0.168D+00 0.780D+00
 Gap=     0.502 Goal=   None    Shift=    0.000
 RMSDP=9.04D-05 MaxDP=2.84D-03 DE=-1.83D-02 OVMax= 1.16D-02

 Cycle   5  Pass 1  IDiag  1:
 E= -279.498873542407     Delta-E=       -0.000701190435 Rises=F Damp=F
 DIIS: error= 7.76D-04 at cycle   5 NSaved=   5.
 NSaved= 5 IEnMin= 5 EnMin= -279.498873542407     IErMin= 5 ErrMin= 7.76D-04
 ErrMax= 7.76D-04  0.00D+00 EMaxC= 1.00D-01 BMatC= 9.15D-05 BMatP= 5.20D-04
 IDIUse=3 WtCom= 9.92D-01 WtEn= 7.76D-03
 Coeff-Com:  0.630D-02-0.753D-01-0.123D+00 0.108D-01 0.118D+01
 Coeff-En:   0.000D+00 0.000D+00 0.000D+00 0.000D+00 0.100D+01
 Coeff:      0.625D-02-0.747D-01-0.122D+00 0.108D-01 0.118D+01
 Gap=     0.502 Goal=   None    Shift=    0.000
 RMSDP=7.94D-05 MaxDP=2.16D-03 DE=-7.01D-04 OVMax= 1.15D-02

 Cycle   6  Pass 1  IDiag  1:
 E= -279.499213055972     Delta-E=       -0.000339513566 Rises=F Damp=F
 DIIS: error= 2.85D-04 at cycle   6 NSaved=   6.
 NSaved= 6 IEnMin= 6 EnMin= -279.499213055972     IErMin= 6 ErrMin= 2.85D-04
 ErrMax= 2.85D-04  0.00D+00 EMaxC= 1.00D-01 BMatC= 1.75D-05 BMatP= 9.15D-05
 IDIUse=3 WtCom= 9.97D-01 WtEn= 2.85D-03
 Coeff-Com:  0.669D-03 0.902D-03 0.374D-02-0.124D+00-0.242D+00 0.136D+01
 Coeff-En:   0.000D+00 0.000D+00 0.000D+00 0.000D+00 0.000D+00 0.100D+01
 Coeff:      0.667D-03 0.899D-03 0.373D-02-0.124D+00-0.241D+00 0.136D+01
 Gap=     0.502 Goal=   None    Shift=    0.000
 RMSDP=4.74D-05 MaxDP=1.32D-03 DE=-3.40D-04 OVMax= 5.72D-03

 Cycle   7  Pass 1  IDiag  1:
 E= -279.499292062488     Delta-E=       -0.000079006516 Rises=F Damp=F
 DIIS: error= 1.40D-04 at cycle   7 NSaved=   7.
 NSaved= 7 IEnMin= 7 EnMin= -279.499292062488     IErMin= 7 ErrMin= 1.40D-04
 ErrMax= 1.40D-04  0.00D+00 EMaxC= 1.00D-01 BMatC= 5.11D-06 BMatP= 1.75D-05
 IDIUse=3 WtCom= 9.99D-01 WtEn= 1.40D-03
 Coeff-Com: -0.969D-03 0.143D-01 0.282D-01-0.243D-01-0.306D+00 0.429D+00
 Coeff-Com:  0.859D+00
 Coeff-En:   0.000D+00 0.000D+00 0.000D+00 0.000D+00 0.000D+00 0.000D+00
 Coeff-En:   0.100D+01
 Coeff:     -0.967D-03 0.143D-01 0.282D-01-0.242D-01-0.305D+00 0.429D+00
 Coeff:      0.859D+00
 Gap=     0.502 Goal=   None    Shift=    0.000
 RMSDP=1.40D-05 MaxDP=4.00D-04 DE=-7.90D-05 OVMax= 1.61D-03

 Cycle   8  Pass 1  IDiag  1:
 E= -279.499301998500     Delta-E=       -0.000009936012 Rises=F Damp=F
 DIIS: error= 5.86D-05 at cycle   8 NSaved=   8.
 NSaved= 8 IEnMin= 8 EnMin= -279.499301998500     IErMin= 8 ErrMin= 5.86D-05
 ErrMax= 5.86D-05  0.00D+00 EMaxC= 1.00D-01 BMatC= 6.59D-07 BMatP= 5.11D-06
 IDIUse=1 WtCom= 1.00D+00 WtEn= 0.00D+00
 Coeff-Com: -0.482D-03 0.378D-02 0.833D-02 0.278D-01-0.405D-01-0.202D+00
 Coeff-Com:  0.148D+00 0.106D+01
 Coeff:     -0.482D-03 0.378D-02 0.833D-02 0.278D-01-0.405D-01-0.202D+00
 Coeff:      0.148D+00 0.106D+01
 Gap=     0.502 Goal=   None    Shift=    0.000
 RMSDP=7.56D-06 MaxDP=2.15D-04 DE=-9.94D-06 OVMax= 8.51D-04

 Cycle   9  Pass 1  IDiag  1:
 E= -279.499304019211     Delta-E=       -0.000002020711 Rises=F Damp=F
 DIIS: error= 1.60D-05 at cycle   9 NSaved=   9.
 NSaved= 9 IEnMin= 9 EnMin= -279.499304019211     IErMin= 9 ErrMin= 1.60D-05
 ErrMax= 1.60D-05  0.00D+00 EMaxC= 1.00D-01 BMatC= 7.10D-08 BMatP= 6.59D-07
 IDIUse=1 WtCom= 1.00D+00 WtEn= 0.00D+00
 Coeff-Com:  0.136D-03-0.187D-02-0.338D-02-0.304D-02 0.354D-01 0.470D-02
 Coeff-Com: -0.160D+00-0.137D+00 0.127D+01
 Coeff:      0.136D-03-0.187D-02-0.338D-02-0.304D-02 0.354D-01 0.470D-02
 Coeff:     -0.160D+00-0.137D+00 0.127D+01
 Gap=     0.502 Goal=   None    Shift=    0.000
 RMSDP=2.02D-06 MaxDP=6.88D-05 DE=-2.02D-06 OVMax= 1.77D-04

 Cycle  10  Pass 1  IDiag  1:
 E= -279.499304187028     Delta-E=       -0.000000167817 Rises=F Damp=F
 DIIS: error= 4.18D-06 at cycle  10 NSaved=  10.
 NSaved=10 IEnMin=10 EnMin= -279.499304187028     IErMin=10 ErrMin= 4.18D-06
 ErrMax= 4.18D-06  0.00D+00 EMaxC= 1.00D-01 BMatC= 5.43D-09 BMatP= 7.10D-08
 IDIUse=1 WtCom= 1.00D+00 WtEn= 0.00D+00
 Coeff-Com:  0.282D-04-0.213D-03-0.263D-03-0.249D-02 0.851D-03 0.185D-01
 Coeff-Com: -0.739D-02-0.698D-01-0.945D-01 0.116D+01
 Coeff:      0.282D-04-0.213D-03-0.263D-03-0.249D-02 0.851D-03 0.185D-01
 Coeff:     -0.739D-02-0.698D-01-0.945D-01 0.116D+01
 Gap=     0.502 Goal=   None    Shift=    0.000
 RMSDP=4.97D-07 MaxDP=2.08D-05 DE=-1.68D-07 OVMax= 3.96D-05

 Cycle  11  Pass 1  IDiag  1:
 E= -279.499304199076     Delta-E=       -0.000000012048 Rises=F Damp=F
 DIIS: error= 2.02D-06 at cycle  11 NSaved=  11.
 NSaved=11 IEnMin=11 EnMin= -279.499304199076     IErMin=11 ErrMin= 2.02D-06
 ErrMax= 2.02D-06  0.00D+00 EMaxC= 1.00D-01 BMatC= 6.39D-10 BMatP= 5.43D-09
 IDIUse=1 WtCom= 1.00D+00 WtEn= 0.00D+00
 Coeff-Com: -0.214D-04 0.248D-03 0.498D-03 0.534D-03-0.412D-02-0.362D-02
 Coeff-Com:  0.190D-01 0.317D-01-0.136D+00-0.156D+00 0.125D+01
 Coeff:     -0.214D-04 0.248D-03 0.498D-03 0.534D-03-0.412D-02-0.362D-02
 Coeff:      0.190D-01 0.317D-01-0.136D+00-0.156D+00 0.125D+01
 Gap=     0.502 Goal=   None    Shift=    0.000
 RMSDP=1.70D-07 MaxDP=6.02D-06 DE=-1.20D-08 OVMax= 1.72D-05

 Cycle  12  Pass 1  IDiag  1:
 E= -279.499304200790     Delta-E=       -0.000000001714 Rises=F Damp=F
 DIIS: error= 6.10D-07 at cycle  12 NSaved=  12.
 NSaved=12 IEnMin=12 EnMin= -279.499304200790     IErMin=12 ErrMin= 6.10D-07
 ErrMax= 6.10D-07  0.00D+00 EMaxC= 1.00D-01 BMatC= 7.56D-11 BMatP= 6.39D-10
 IDIUse=1 WtCom= 1.00D+00 WtEn= 0.00D+00
 Coeff-Com:  0.146D-05-0.319D-04-0.694D-04 0.148D-03 0.114D-02-0.223D-02
 Coeff-Com: -0.415D-02 0.488D-02 0.421D-01-0.123D+00-0.269D+00 0.135D+01
 Coeff:      0.146D-05-0.319D-04-0.694D-04 0.148D-03 0.114D-02-0.223D-02
 Coeff:     -0.415D-02 0.488D-02 0.421D-01-0.123D+00-0.269D+00 0.135D+01
 Gap=     0.502 Goal=   None    Shift=    0.000
 RMSDP=7.17D-08 MaxDP=2.80D-06 DE=-1.71D-09 OVMax= 7.07D-06

 Cycle  13  Pass 1  IDiag  1:
 E= -279.499304201030     Delta-E=       -0.000000000240 Rises=F Damp=F
 DIIS: error= 1.82D-07 at cycle  13 NSaved=  13.
 NSaved=13 IEnMin=13 EnMin= -279.499304201030     IErMin=13 ErrMin= 1.82D-07
 ErrMax= 1.82D-07  0.00D+00 EMaxC= 1.00D-01 BMatC= 4.66D-12 BMatP= 7.56D-11
 IDIUse=1 WtCom= 1.00D+00 WtEn= 0.00D+00
 Coeff-Com:  0.134D-05-0.147D-04-0.235D-04-0.898D-04 0.107D-03 0.807D-03
 Coeff-Com: -0.715D-03-0.348D-02 0.454D-03 0.447D-01-0.405D-01-0.349D+00
 Coeff-Com:  0.135D+01
 Coeff:      0.134D-05-0.147D-04-0.235D-04-0.898D-04 0.107D-03 0.807D-03
 Coeff:     -0.715D-03-0.348D-02 0.454D-03 0.447D-01-0.405D-01-0.349D+00
 Coeff:      0.135D+01
 Gap=     0.502 Goal=   None    Shift=    0.000
 RMSDP=2.05D-08 MaxDP=6.34D-07 DE=-2.40D-10 OVMax= 1.84D-06

 Cycle  14  Pass 1  IDiag  1:
 E= -279.499304201048     Delta-E=       -0.000000000017 Rises=F Damp=F
 DIIS: error= 2.79D-08 at cycle  14 NSaved=  14.
 NSaved=14 IEnMin=14 EnMin= -279.499304201048     IErMin=14 ErrMin= 2.79D-08
 ErrMax= 2.79D-08  0.00D+00 EMaxC= 1.00D-01 BMatC= 2.35D-13 BMatP= 4.66D-12
 IDIUse=1 WtCom= 1.00D+00 WtEn= 0.00D+00
 Coeff-Com: -0.223D-06 0.359D-05 0.653D-05 0.629D-05-0.895D-04 0.419D-04
 Coeff-Com:  0.278D-03 0.295D-03-0.262D-02 0.174D-02 0.180D-01-0.247D-01
 Coeff-Com: -0.213D+00 0.122D+01
 Coeff:     -0.223D-06 0.359D-05 0.653D-05 0.629D-05-0.895D-04 0.419D-04
 Coeff:      0.278D-03 0.295D-03-0.262D-02 0.174D-02 0.180D-01-0.247D-01
 Coeff:     -0.213D+00 0.122D+01
 Gap=     0.502 Goal=   None    Shift=    0.000
 RMSDP=4.14D-09 MaxDP=1.04D-07 DE=-1.74D-11 OVMax= 3.81D-07

 SCF Done:  E(RHF) =  -279.499304201     A.U. after   14 cycles
            NFock= 14  Conv=0.41D-08     -V/T= 2.0025
 KE= 2.788087867977D+02 PE=-8.938063571458D+02 EE= 2.192554012087D+02
 Leave Link  502 at Mon Feb 21 20:15:53 2022, MaxMem= 16106127360 cpu:              54.0 elap:               3.5
 (Enter /sw/contrib/gaussian/g16/B01/g16/l801.exe)
 ExpMin= 2.53D-02 ExpMax= 1.53D+04 ExpMxC= 5.22D+02 IAcc=3 IRadAn=         5 AccDes= 0.00D+00
 HarFok:  IExCor=  205 AccDes= 0.00D+00 IRadAn=         5 IDoV=-2 UseB2=F ITyADJ=14
 ICtDFT= 12500011 ScaDFX=  1.000000  1.000000  1.000000  1.000000
 Largest valence mixing into a core orbital is  2.09D-04
 Largest core mixing into a valence orbital is  3.70D-05
 Range of M.O.s used for correlation:     5   207
 NBasis=   207 NAE=    16 NBE=    16 NFC=     4 NFV=     0
 NROrb=    203 NOA=    12 NOB=    12 NVA=   191 NVB=   191

 **** Warning!!: The largest alpha MO coefficient is  0.17259003D+02

 Leave Link  801 at Mon Feb 21 20:15:54 2022, MaxMem= 16106127360 cpu:               2.2 elap:               0.1
 (Enter /sw/contrib/gaussian/g16/B01/g16/l906.exe)
 Frozen-core derivative calculation, NFC=   4 NFV=   0.
 FulOut=F Deriv=T AODrv=T NAtomX=     5
   MMem=           0  MDisk=          12 MDiskD=          12
  W3Min=      811440 MinDsk=     2425030 NBas6D=         245
 NBas2D=       30762    NTT=       30135    LW2=     7400000
    MDV= 16105574339 MDiskM=      328644 NBas2p=       30702
 Disk-based method using ON**2 memory for 12 occupieds at a time.
 Permanent disk used for amplitudes=    11516536 words.
 Estimated scratch disk usage=   321251614 words.
 IMap=   1   2   3   4   5   6   7   8   9  10  11  12  13  14  15  16
 Actual    scratch disk usage=   310331678 words.
 JobTyp=1 Pass  1:  I=   5 to  16 NPSUse= 28 ParTrn=T ParDer=T DoDerP=T.
 (rs|ai) integrals will be sorted in core.
 Spin components of T(2) and E(2):
     alpha-alpha T2 =       0.3430665061D-01 E2=     -0.1226746936D+00
     alpha-beta  T2 =       0.1885110130D+00 E2=     -0.7019697967D+00
     beta-beta   T2 =       0.3430665061D-01 E2=     -0.1226746936D+00
 The integrals were generated   1 times.
 ANorm=    0.1121215552D+01
 E2 =    -0.9473191839D+00 EUMP2 =    -0.28044662338497D+03
 Leave Link  906 at Mon Feb 21 20:17:31 2022, MaxMem= 16106127360 cpu:            2712.8 elap:              97.0
 (Enter /sw/contrib/gaussian/g16/B01/g16/l1101.exe)
 Using compressed Sx but separate Hx and Fx, NAtomX=     5.
 Will process      6 centers per pass.
 Leave Link 1101 at Mon Feb 21 20:17:31 2022, MaxMem= 16106127360 cpu:               5.1 elap:               0.2
 (Enter /sw/contrib/gaussian/g16/B01/g16/l1102.exe)
 Leave Link 1102 at Mon Feb 21 20:17:31 2022, MaxMem= 16106127360 cpu:               1.4 elap:               0.1
 (Enter /sw/contrib/gaussian/g16/B01/g16/l1110.exe)
 Forming Gx(P) for the SCF density, NAtomX=     5.
 Integral derivatives from FoFJK, PRISM(SPDF).
 Do as many integral derivatives as possible in FoFJK.
 G2DrvN: MDV=   16106126844.
 G2DrvN: will do     6 centers at a time, making    1 passes.
 Calling FoFCou, ICntrl=  3107 FMM=F I1Cent=   0 AccDes= 0.00D+00.
 FoFJK:  IHMeth= 1 ICntrl=    3107 DoSepK=F KAlg= 0 I1Cent=           0 FoldK=F
 IRaf=         0 NMat=       1 IRICut=       1 DoRegI=T DoRafI=F ISym2E= 1 IDoP0=0 IntGTp=1.
 FoFCou: FMM=F IPFlag=           0 FMFlag=      100000 FMFlg1=           0
         NFxFlg=           0 DoJE=F BraDBF=F KetDBF=F FulRan=T
         wScrn=  0.000000 ICntrl=      3107 IOpCl=  0 I1Cent=           0 NGrid=           0
         NMat0=    1 NMatS0=      1 NMatT0=    0 NMatD0=    1 NMtDS0=    0 NMtDT0=    0
 Petite list used in FoFCou.
 End of G2Drv F.D. properties file   721 does not exist.
 End of G2Drv F.D. properties file   722 does not exist.
 End of G2Drv F.D. properties file   788 does not exist.
 Leave Link 1110 at Mon Feb 21 20:17:34 2022, MaxMem= 16106127360 cpu:              83.7 elap:               3.0
 (Enter /sw/contrib/gaussian/g16/B01/g16/l1002.exe)
 Minotr:  Closed shell wavefunction.
          IDoAtm=11111
          Frozen-core window.
          Direct CPHF calculation.
          Differentiating once with respect to electric field.
                with respect to dipole field.
          Differentiating once with respect to nuclear coordinates.
          Requested convergence is 1.0D-08 RMS, and 1.0D-07 maximum.
          Secondary convergence is 1.0D-12 RMS, and 1.0D-12 maximum.
          NewPWx=T KeepS1=T KeepF1=T KeepIn=T MapXYZ=F SortEE=F KeepMc=T.
 Keep R1 ints in memory in symmetry-blocked form, NReq=348888983.
 FoFCou: FMM=F IPFlag=           0 FMFlag=           0 FMFlg1=           0
         NFxFlg=           0 DoJE=F BraDBF=F KetDBF=F FulRan=T
         wScrn=  0.000000 ICntrl=       600 IOpCl=  0 I1Cent=           0 NGrid=           0
         NMat0=    1 NMatS0=  21528 NMatT0=    0 NMatD0=    1 NMtDS0=    0 NMtDT0=    0
 Petite list used in FoFCou.
          MDV=   16106127360 using IRadAn=       1.
          Solving linear equations simultaneously, MaxMat=       0.
          There are    18 degrees of freedom in the 1st order CPHF.  IDoFFX=6 NUNeed=    18.
     15 vectors produced by pass  0 Test12= 1.70D-14 5.56D-09 XBig12= 8.33D+00 1.09D+00.
 AX will form    15 AO Fock derivatives at one time.
     15 vectors produced by pass  1 Test12= 1.70D-14 5.56D-09 XBig12= 1.37D+00 2.59D-01.
     15 vectors produced by pass  2 Test12= 1.70D-14 5.56D-09 XBig12= 1.47D-01 1.01D-01.
     15 vectors produced by pass  3 Test12= 1.70D-14 5.56D-09 XBig12= 5.21D-03 1.17D-02.
     15 vectors produced by pass  4 Test12= 1.70D-14 5.56D-09 XBig12= 1.02D-04 1.97D-03.
     15 vectors produced by pass  5 Test12= 1.70D-14 5.56D-09 XBig12= 1.48D-06 1.88D-04.
     15 vectors produced by pass  6 Test12= 1.70D-14 5.56D-09 XBig12= 1.17D-08 1.49D-05.
     13 vectors produced by pass  7 Test12= 1.70D-14 5.56D-09 XBig12= 8.69D-11 1.30D-06.
      3 vectors produced by pass  8 Test12= 1.70D-14 5.56D-09 XBig12= 5.98D-13 1.17D-07.
      2 vectors produced by pass  9 Test12= 1.70D-14 5.56D-09 XBig12= 3.78D-15 9.81D-09.
 InvSVY:  IOpt=1 It=  1 EMax= 1.44D-15
 Solved reduced A of dimension   123 with    15 vectors.
 FullF1:  Do perturbations      1 to      18.
 Saving first derivative matrices.
 End of Minotr F.D. properties file   721 does not exist.
 End of Minotr F.D. properties file   722 does not exist.
 End of Minotr F.D. properties file   788 does not exist.
 Leave Link 1002 at Mon Feb 21 20:17:37 2022, MaxMem= 16106127360 cpu:              80.6 elap:               2.9
 (Enter /sw/contrib/gaussian/g16/B01/g16/l811.exe)
 MDV= 16106127360.
 Form MO integral derivatives with frozen-active canonical formalism.
 MOERI=1 MOERIx=1 NAtoms=     5 NAtomX=     5.
 Discarding MO integrals.
 MO basis two electron integral derivatives will not be stored on disk.
 IAlg= 3 DoFC=T DoPWx=T Debug=F.
 Frozen-core window:  NFC=   4 NFV=   0.
 Reordered first order wavefunction length =     18678272
 In DefCFB: NBatch=  1 ICI= 16 ICA=191 LFMax= 96
            Large arrays: LIAPS=   619940160 LIARS=   288257200 words.
 In StABat: MaxSiz= 55 MinSiz= 25 NAtomB=  5
 DoIAMN: NPSUse= 28.
 Leave Link  811 at Mon Feb 21 20:18:59 2022, MaxMem= 16106127360 cpu:            2297.9 elap:              82.2
 (Enter /sw/contrib/gaussian/g16/B01/g16/l804.exe)
 Frozen-core window:  NFC=   4 NFV=   0.
 Closed-shell transformation, MDV= 16106127360 ITran=4 ISComp=1.
 Semi-Direct transformation.
 ModeAB=           2 MOrb=            16 LenV=   16104923135
 LASXX=     67341636 LTotXX=    67341636 LenRXX=    67341636
 LTotAB=    68301760 MaxLAS=    99807120 LenRXY=    99807120
 NonZer=   134683272 LenScr=   202817536 LnRSAI=           0
 LnScr1=           0 LExtra=           0 Total=    369966292
 MaxDsk=          -1 SrtSym=           F ITran=            4
 DoSDTr:  NPSUse= 28
 JobTyp=0 Pass  1:  I=   1 to  16.
 (rs|ai) integrals will be sorted in core.
 Complete sort for first half transformation.
 First half transformation complete.
 Begin second half transformation for I=  10.
 Begin second half transformation for I=  10.
 Complete sort for second half transformation.
 Second half transformation complete.
 Spin components of T(2) and E(2):
     alpha-alpha T2 =       0.3430665061D-01 E2=     -0.1226746936D+00
     alpha-beta  T2 =       0.1885110130D+00 E2=     -0.7019697967D+00
     beta-beta   T2 =       0.3430665061D-01 E2=     -0.1226746936D+00
 ANorm=    0.1585638240D+01
 E2 =    -0.9473191839D+00 EUMP2 =    -0.28044662338497D+03
 Leave Link  804 at Mon Feb 21 20:19:14 2022, MaxMem= 16106127360 cpu:             427.2 elap:              15.3
 (Enter /sw/contrib/gaussian/g16/B01/g16/l1002.exe)
 Minotr:  Closed shell wavefunction.
          Computing MP2/KS-MP2 derivatives.
          Using Z-Vector for PSCF gradient.
          Skipping F1 and S1 gradient terms here.
          IDoAtm=11111
          Frozen-core window.
          Using MO integrals in the linear equations.
          Forming densities via direct SCF.
          Differentiating once with respect to electric field.
                with respect to dipole field.
          Differentiating once with respect to nuclear coordinates.
          Using symmetry in CPHF.
          Requested convergence is 1.0D-10 RMS, and 1.0D-09 maximum.
          NewPWx=F KeepS1=T KeepF1=T KeepIn=T MapXYZ=F SortEE=F KeepMc=T.
          MDV=   16106127360 using IRadAn=       5.
          Solving linear equations separately, MaxMat=       0.
          There are     1 degrees of freedom in the 1st order CPHF.  IDoFFX=0 NUNeed=     1.
 FoFJK:  IHMeth= 1 ICntrl=       0 DoSepK=F KAlg= 0 I1Cent=           0 FoldK=F
 IRaf=         0 NMat=       1 IRICut=       1 DoRegI=T DoRafI=F ISym2E= 0 IDoP0=0 IntGTp=1.
 FoFCou: FMM=F IPFlag=           0 FMFlag=      100000 FMFlg1=           0
         NFxFlg=           0 DoJE=F BraDBF=F KetDBF=F FulRan=T
         wScrn=  0.000000 ICntrl=         0 IOpCl=  0 I1Cent=           0 NGrid=           0
         NMat0=    1 NMatS0=      1 NMatT0=    0 NMatD0=    1 NMtDS0=    0 NMtDT0=    0
 Symmetry not used in FoFCou.
 LinEq1:  Iter=  0 NonCon=     1 RMS=6.04D-03 Max=1.32D-01 NDo=     1
 LinEq1:  Iter=  1 NonCon=     1 RMS=1.97D-03 Max=3.98D-02 NDo=     1
 LinEq1:  Iter=  2 NonCon=     1 RMS=9.03D-04 Max=1.46D-02 NDo=     1
 LinEq1:  Iter=  3 NonCon=     1 RMS=4.03D-04 Max=7.83D-03 NDo=     1
 LinEq1:  Iter=  4 NonCon=     1 RMS=1.25D-04 Max=1.91D-03 NDo=     1
 LinEq1:  Iter=  5 NonCon=     1 RMS=4.71D-05 Max=7.45D-04 NDo=     1
 LinEq1:  Iter=  6 NonCon=     1 RMS=2.09D-05 Max=2.43D-04 NDo=     1
 LinEq1:  Iter=  7 NonCon=     1 RMS=8.55D-06 Max=1.74D-04 NDo=     1
 LinEq1:  Iter=  8 NonCon=     1 RMS=3.61D-06 Max=3.74D-05 NDo=     1
 LinEq1:  Iter=  9 NonCon=     1 RMS=9.88D-07 Max=1.48D-05 NDo=     1
 LinEq1:  Iter= 10 NonCon=     1 RMS=1.99D-07 Max=2.25D-06 NDo=     1
 LinEq1:  Iter= 11 NonCon=     1 RMS=3.79D-08 Max=4.38D-07 NDo=     1
 LinEq1:  Iter= 12 NonCon=     1 RMS=9.13D-09 Max=1.41D-07 NDo=     1
 LinEq1:  Iter= 13 NonCon=     1 RMS=1.62D-09 Max=2.89D-08 NDo=     1
 LinEq1:  Iter= 14 NonCon=     1 RMS=2.97D-10 Max=4.42D-09 NDo=     1
 LinEq1:  Iter= 15 NonCon=     0 RMS=5.35D-11 Max=6.33D-10 NDo=     1
 Linear equations converged to 1.000D-10 1.000D-09 after    15 iterations.
 End of Minotr F.D. properties file   721 does not exist.
 End of Minotr F.D. properties file   722 does not exist.
 End of Minotr F.D. properties file   788 does not exist.
 Leave Link 1002 at Mon Feb 21 20:19:17 2022, MaxMem= 16106127360 cpu:              65.7 elap:               2.4
 (Enter /sw/contrib/gaussian/g16/B01/g16/l1102.exe)
 Use density number 2.
 Symmetrizing basis deriv contribution to polar:
 IMax=3 JMax=2 DiffMx= 0.00D+00
 Leave Link 1102 at Mon Feb 21 20:19:17 2022, MaxMem= 16106127360 cpu:               0.8 elap:               0.1
 (Enter /sw/contrib/gaussian/g16/B01/g16/l1110.exe)
 Forming Gx(P) for generalized density number  2 NAtomX=     5.
 Integral derivatives from FoFJK, PRISM(SPDF).
 Do as many integral derivatives as possible in FoFJK.
 G2DrvN: MDV=   16106126844.
 G2DrvN: will do     6 centers at a time, making    1 passes.
 Calling FoFCou, ICntrl=  3107 FMM=F I1Cent=   0 AccDes= 0.00D+00.
 FoFJK:  IHMeth= 1 ICntrl=    3107 DoSepK=F KAlg= 0 I1Cent=           0 FoldK=F
 IRaf=         0 NMat=       1 IRICut=       1 DoRegI=T DoRafI=F ISym2E= 1 IDoP0=0 IntGTp=1.
 FoFCou: FMM=F IPFlag=           0 FMFlag=      100000 FMFlg1=           0
         NFxFlg=           0 DoJE=F BraDBF=F KetDBF=F FulRan=T
         wScrn=  0.000000 ICntrl=      3107 IOpCl=  0 I1Cent=           0 NGrid=           0
         NMat0=    1 NMatS0=      1 NMatT0=    0 NMatD0=    1 NMtDS0=    0 NMtDT0=    0
 Petite list used in FoFCou.
 End of G2Drv F.D. properties file   721 does not exist.
 End of G2Drv F.D. properties file   722 does not exist.
 End of G2Drv F.D. properties file   788 does not exist.
 Leave Link 1110 at Mon Feb 21 20:19:20 2022, MaxMem= 16106127360 cpu:              82.9 elap:               3.0
 (Enter /sw/contrib/gaussian/g16/B01/g16/l1112.exe)
 MP22nd: MDV=   16106127360
 This link is doing NAtomX=     5 total of    18 degrees of freedom.
 Using ON3 I/O method in MakUI.
 Frozen-core window:  NFC=   4 NFV=   0.
 Using Ix for Sx.
 Use MO integrals over full window.
 Using OV2 memory method for fx*t*t/D, MaxI=    16 DoOO2=F NP=  28.
 R2 and R3 integrals will be kept in memory, NReq=   915591705.
 FoFCou: FMM=F IPFlag=           0 FMFlag=           0 FMFlg1=           0
         NFxFlg=           0 DoJE=F BraDBF=F KetDBF=F FulRan=T
         wScrn=  0.000000 ICntrl=       600 IOpCl=  0 I1Cent=           0 NGrid=           0
         NMat0=    1 NMatS0=      1 NMatT0=    0 NMatD0=    1 NMtDS0=    0 NMtDT0=    0
 Symmetry not used in FoFCou.
 DD1Dir will call FoFMem   1 times, MxPair=       272
 NAB=   136 NAA=     0 NBB=     0.
 Symmetry is being used.
 FoFJK:  IHMeth= 1 ICntrl=       0 DoSepK=F KAlg= 0 I1Cent=           0 FoldK=F
 IRaf=         0 NMat=      18 IRICut=      45 DoRegI=T DoRafI=T ISym2E= 2 IDoP0=3 IntGTp=3.
 Discarding MO integrals.
 Leave Link 1112 at Mon Feb 21 20:19:50 2022, MaxMem= 16106127360 cpu:             841.2 elap:              30.3
 (Enter /sw/contrib/gaussian/g16/B01/g16/l601.exe)
 Copying SCF densities to generalized density rwf, IOpCl= 0 IROHF=0.

 **********************************************************************

            Population analysis using the MP2 Density.

 **********************************************************************

 Orbital symmetries:
       Occupied  (A') (A') (A') (A') (A') (A') (A') (A') (A') (A')
                 (A") (A') (A") (A') (A") (A')
       Virtual   (A') (A") (A') (A') (A") (A') (A') (A') (A") (A')
                 (A") (A') (A') (A') (A") (A') (A') (A") (A') (A')
                 (A') (A') (A') (A') (A") (A') (A') (A") (A') (A')
                 (A") (A') (A") (A') (A') (A") (A') (A') (A") (A')
                 (A") (A') (A") (A') (A') (A") (A') (A') (A") (A')
                 (A") (A') (A') (A') (A") (A') (A") (A') (A") (A')
                 (A') (A') (A") (A') (A') (A") (A') (A") (A') (A')
                 (A") (A') (A') (A") (A") (A') (A') (A") (A') (A')
                 (A') (A") (A') (A") (A') (A") (A') (A") (A') (A')
                 (A") (A') (A') (A") (A') (A") (A') (A") (A') (A')
                 (A") (A') (A") (A') (A') (A") (A') (A') (A") (A')
                 (A") (A') (A') (A') (A") (A') (A') (A') (A") (A')
                 (A") (A') (A") (A') (A') (A") (A") (A') (A") (A')
                 (A') (A') (A') (A") (A") (A") (A') (A') (A') (A')
                 (A") (A') (A") (A') (A') (A") (A') (A') (A') (A')
                 (A") (A') (A') (A") (A') (A") (A') (A") (A') (A")
                 (A') (A") (A') (A') (A") (A") (A") (A') (A") (A')
                 (A") (A') (A") (A') (A") (A') (A") (A') (A") (A')
                 (A') (A') (A') (A') (A') (A') (A') (A') (A') (A')
                 (A')
 The electronic state is 1-A'.
 Alpha  occ. eigenvalues --  -20.68980 -20.68694 -20.65712 -15.81660  -1.62323
 Alpha  occ. eigenvalues --   -1.49233  -1.24745  -0.94995  -0.77096  -0.75659
 Alpha  occ. eigenvalues --   -0.70805  -0.68055  -0.62157  -0.58815  -0.48273
 Alpha  occ. eigenvalues --   -0.47135
 Alpha virt. eigenvalues --    0.03027   0.06867   0.08549   0.10144   0.13382
 Alpha virt. eigenvalues --    0.13411   0.14457   0.15499   0.17877   0.19405
 Alpha virt. eigenvalues --    0.19969   0.20291   0.22142   0.23642   0.23712
 Alpha virt. eigenvalues --    0.26541   0.28453   0.30439   0.30977   0.34170
 Alpha virt. eigenvalues --    0.34894   0.38690   0.42284   0.43245   0.52618
 Alpha virt. eigenvalues --    0.52822   0.55599   0.58036   0.62424   0.63695
 Alpha virt. eigenvalues --    0.67361   0.68450   0.70716   0.71162   0.72439
 Alpha virt. eigenvalues --    0.73104   0.74554   0.79010   0.79289   0.80940
 Alpha virt. eigenvalues --    0.81438   0.82954   0.86645   0.90820   0.92283
 Alpha virt. eigenvalues --    0.92461   0.95880   0.97426   0.98559   1.01845
 Alpha virt. eigenvalues --    1.05105   1.05359   1.08028   1.11586   1.13893
 Alpha virt. eigenvalues --    1.18829   1.22005   1.23210   1.33625   1.34606
 Alpha virt. eigenvalues --    1.38866   1.44984   1.48763   1.50981   1.53648
 Alpha virt. eigenvalues --    1.56409   1.57545   1.61208   1.66222   1.66963
 Alpha virt. eigenvalues --    1.70101   1.79295   1.83003   1.83075   1.87895
 Alpha virt. eigenvalues --    1.90725   1.95584   1.98752   2.00283   2.07053
 Alpha virt. eigenvalues --    2.11822   2.12880   2.15280   2.21990   2.26236
 Alpha virt. eigenvalues --    2.26652   2.28725   2.31371   2.33833   2.38609
 Alpha virt. eigenvalues --    2.42088   2.42335   2.45189   2.46040   2.47268
 Alpha virt. eigenvalues --    2.49782   2.59163   2.59487   2.61531   2.62267
 Alpha virt. eigenvalues --    2.63647   2.66530   2.75365   2.81344   2.84524
 Alpha virt. eigenvalues --    2.87571   2.89547   2.90467   2.95680   3.01677
 Alpha virt. eigenvalues --    3.05849   3.11530   3.20598   3.22418   3.31265
 Alpha virt. eigenvalues --    3.33541   3.51317   3.63486   3.82730   3.83940
 Alpha virt. eigenvalues --    4.14839   4.16911   4.18102   4.24770   4.35187
 Alpha virt. eigenvalues --    4.39284   4.46495   4.51618   4.65351   4.70679
 Alpha virt. eigenvalues --    4.79883   4.81017   4.83192   4.89319   5.01538
 Alpha virt. eigenvalues --    5.07067   5.09327   5.14558   5.17216   5.23688
 Alpha virt. eigenvalues --    5.26367   5.30354   5.32832   5.34552   5.59890
 Alpha virt. eigenvalues --    5.66935   5.75507   5.83068   5.94632   6.15848
 Alpha virt. eigenvalues --    6.30851   6.32896   6.39116   6.48799   6.50051
 Alpha virt. eigenvalues --    6.61285   6.66895   6.69267   6.76118   6.76350
 Alpha virt. eigenvalues --    6.82550   6.89115   7.00805   7.05322   7.05917
 Alpha virt. eigenvalues --    7.09041   7.11738   7.14343   7.18070   7.21340
 Alpha virt. eigenvalues --    7.24309   7.31166   7.32140   7.34029   7.39226
 Alpha virt. eigenvalues --    7.41976   7.47839   7.60194   7.60413   7.61388
 Alpha virt. eigenvalues --    7.65502   7.77996   7.88149   8.06637   8.30386
 Alpha virt. eigenvalues --    8.40874   8.53346  13.34507  14.27181  15.14334
 Alpha virt. eigenvalues --   16.10921
          Condensed to atoms (all electrons):
               1          2          3          4          5
     1  H    0.589981   0.128537   0.019886   0.012234  -0.000668
     2  O    0.128537   8.321846  -0.175515  -0.086601   0.014922
     3  O    0.019886  -0.175515   8.475551  -0.123045  -0.034671
     4  N    0.012234  -0.086601  -0.123045   6.951255  -0.052288
     5  O   -0.000668   0.014922  -0.034671  -0.052288   8.255786
 Mulliken charges:
               1
     1  H    0.250030
     2  O   -0.203190
     3  O   -0.162205
     4  N    0.298445
     5  O   -0.183081
 Sum of Mulliken charges =  -0.00000
 Mulliken charges with hydrogens summed into heavy atoms:
               1
     2  O    0.046840
     3  O   -0.162205
     4  N    0.298445
     5  O   -0.183081
 APT charges:
               1
     1  H    0.298282
     2  O   -0.293390
     3  O   -0.506564
     4  N    0.888038
     5  O   -0.386366
 Sum of APT charges =  -0.00000
 APT charges with hydrogens summed into heavy atoms:
               1
     2  O    0.004892
     3  O   -0.506564
     4  N    0.888038
     5  O   -0.386366
 Electronic spatial extent (au):  <R**2>=            255.3327
 Charge=             -0.0000 electrons
 Dipole moment (field-independent basis, Debye):
    X=              0.4030    Y=              1.2251    Z=             -0.0000  Tot=              1.2897
 Quadrupole moment (field-independent basis, Debye-Ang):
   XX=            -22.4293   YY=            -18.5158   ZZ=            -22.0436
   XY=              3.2999   XZ=              0.0000   YZ=              0.0000
 Traceless Quadrupole moment (field-independent basis, Debye-Ang):
   XX=             -1.4331   YY=              2.4804   ZZ=             -1.0474
   XY=              3.2999   XZ=              0.0000   YZ=              0.0000
 Octapole moment (field-independent basis, Debye-Ang**2):
  XXX=              2.4069  YYY=             11.2473  ZZZ=              0.0000  XYY=              7.8689
  XXY=              6.3858  XXZ=             -0.0000  XZZ=             -1.6167  YZZ=             -0.9443
  YYZ=             -0.0000  XYZ=             -0.0000
 Hexadecapole moment (field-independent basis, Debye-Ang**3):
 XXXX=           -158.3423 YYYY=            -92.0317 ZZZZ=            -18.3123 XXXY=            -37.4363
 XXXZ=              0.0000 YYYX=            -31.1047 YYYZ=              0.0000 ZZZX=              0.0000
 ZZZY=              0.0000 XXYY=            -34.2501 XXZZ=            -30.8601 YYZZ=            -21.1680
 XXYZ=              0.0000 YYXZ=              0.0000 ZZXY=            -15.3096
 N-N= 1.162428649383D+02 E-N=-8.946090579139D+02  KE= 2.801698101619D+02
 Symmetry A'   KE= 2.662060915457D+02
 Symmetry A"   KE= 1.396371861623D+01
  Exact polarizability:  33.990   9.603  30.740  -0.000  -0.000  18.008
 Approx polarizability:  29.120   5.267  24.061  -0.000  -0.000  15.558
 No NMR shielding tensors so no spin-rotation constants.
 Leave Link  601 at Mon Feb 21 20:19:51 2022, MaxMem= 16106127360 cpu:               4.6 elap:               0.2
 (Enter /sw/contrib/gaussian/g16/B01/g16/l701.exe)
 ... and contract with generalized density number  2.
 Compute integral second derivatives.
 Leave Link  701 at Mon Feb 21 20:19:51 2022, MaxMem= 16106127360 cpu:               5.7 elap:               0.2
 (Enter /sw/contrib/gaussian/g16/B01/g16/l702.exe)
 L702 exits ... SP integral derivatives will be done elsewhere.
 Leave Link  702 at Mon Feb 21 20:19:51 2022, MaxMem= 16106127360 cpu:               0.5 elap:               0.0
 (Enter /sw/contrib/gaussian/g16/B01/g16/l703.exe)
 Integral derivatives from FoFJK, PRISM(SPDF).
 Compute integral second derivatives, UseDBF=F ICtDFT=           0.
 Calling FoFJK, ICntrl=  10100127 FMM=F ISym2X=1 I1Cent= 0 IOpClX= 0 NMat=1 NMatS=1 NMatT=0.
 FoFJK:  IHMeth= 1 ICntrl=10100127 DoSepK=F KAlg= 0 I1Cent=           0 FoldK=F
 IRaf=         0 NMat=       1 IRICut=       1 DoRegI=T DoRafI=F ISym2E= 1 IDoP0=0 IntGTp=1.
 FoFCou: FMM=F IPFlag=           0 FMFlag=      100000 FMFlg1=         800
         NFxFlg=           0 DoJE=F BraDBF=F KetDBF=F FulRan=T
         wScrn=  0.000000 ICntrl=  10100127 IOpCl=  0 I1Cent=           0 NGrid=           0
         NMat0=    1 NMatS0=      1 NMatT0=    0 NMatD0=    1 NMtDS0=    0 NMtDT0=    0
 Petite list used in FoFCou.
 Leave Link  703 at Mon Feb 21 20:20:06 2022, MaxMem= 16106127360 cpu:             422.1 elap:              15.1
 (Enter /sw/contrib/gaussian/g16/B01/g16/l716.exe)
 Dipole        = 1.58559056D-01 4.81980658D-01-1.10335182D-32
 Polarizability= 3.39896912D+01 9.60301060D+00 3.07397284D+01
                -6.50878750D-31-1.01853134D-30 1.80079145D+01
 Full mass-weighted force constant matrix:
 Low frequencies --- -275.6025   -0.0011    0.0005    0.0010   38.1527   43.0885
 Low frequencies ---   70.6484  239.3247  333.2672
 ******    1 imaginary frequencies (negative Signs) ****** 
 Diagonal vibrational polarizability:
       16.6941070      31.5883112      44.7216417
 Harmonic frequencies (cm**-1), IR intensities (KM/Mole), Raman scattering
 activities (A**4/AMU), depolarization ratios for plane and unpolarized
 incident light, reduced masses (AMU), force constants (mDyne/A),
 and normal coordinates:
                      1                      2                      3
                     A"                     A"                     A'
 Frequencies --   -275.5493               238.4615               333.2226
 Red. masses --      1.1339                10.8181                 8.5293
 Frc consts  --      0.0507                 0.3624                 0.5580
 IR Inten    --    125.2717                 0.6786                 9.8914
  Atom  AN      X      Y      Z        X      Y      Z        X      Y      Z
     1   1     0.00   0.00   1.00     0.00  -0.00  -0.55     0.55  -0.43   0.00
     2   8     0.00   0.00  -0.06     0.00  -0.00  -0.32    -0.08  -0.37   0.00
     3   8     0.00   0.00  -0.04     0.00   0.00   0.33    -0.14   0.45  -0.00
     4   7    -0.00  -0.00   0.05    -0.00  -0.00   0.53     0.03   0.23  -0.00
     5   8    -0.00  -0.00  -0.01    -0.00  -0.00  -0.45     0.16  -0.26   0.00
                      4                      5                      6
                     A'                     A'                     A'
 Frequencies --    407.6070               771.9125               963.5387
 Red. masses --     12.4806                13.1284                15.5066
 Frc consts  --      1.2217                 4.6089                 8.4821
 IR Inten    --    213.2614               154.5221                20.3395
  Atom  AN      X      Y      Z        X      Y      Z        X      Y      Z
     1   1    -0.38  -0.22  -0.00    -0.32   0.19  -0.00    -0.15  -0.04   0.00
     2   8    -0.31  -0.23  -0.00     0.43   0.09   0.00    -0.53   0.03   0.00
     3   8    -0.19  -0.42   0.00    -0.04  -0.24  -0.00     0.75  -0.02  -0.00
     4   7     0.35   0.45   0.00    -0.16   0.62  -0.00    -0.12   0.23  -0.00
     5   8     0.22   0.27  -0.00    -0.22  -0.40   0.00    -0.11  -0.21   0.00
                      7                      8                      9
                     A'                     A'                     A'
 Frequencies --   1366.9070              1667.1411              3778.1657
 Red. masses --      1.1303                13.3085                 1.0676
 Frc consts  --      1.2443                21.7933                 8.9785
 IR Inten    --    148.8608               152.1450                82.8849
  Atom  AN      X      Y      Z        X      Y      Z        X      Y      Z
     1   1     0.99  -0.05   0.00    -0.34   0.00  -0.00     0.10   0.99  -0.00
     2   8    -0.03   0.05   0.00    -0.00  -0.04  -0.00    -0.01  -0.06  -0.00
     3   8    -0.02  -0.05  -0.00     0.00   0.15   0.00     0.00   0.00   0.00
     4   7     0.02   0.01  -0.00     0.71  -0.05   0.00    -0.00  -0.00   0.00
     5   8    -0.03  -0.01   0.00    -0.60  -0.07  -0.00     0.00   0.00  -0.00

 -------------------
 - Thermochemistry -
 -------------------
 Temperature   298.150 Kelvin.  Pressure   1.00000 Atm.
 Atom     1 has atomic number  1 and mass   1.00783
 Atom     2 has atomic number  8 and mass  15.99491
 Atom     3 has atomic number  8 and mass  15.99491
 Atom     4 has atomic number  7 and mass  14.00307
 Atom     5 has atomic number  8 and mass  15.99491
 Molecular mass:    62.99564 amu.
 Principal axes and moments of inertia in atomic units:
                           1         2         3
     Eigenvalues --    33.43263 364.43352 397.86615
           X            0.80425  -0.59430   0.00000
           Y            0.59430   0.80425   0.00000
           Z           -0.00000   0.00000   1.00000
 This molecule is an asymmetric top.
 Rotational symmetry number  1.
 Rotational temperatures (Kelvin)      2.59070     0.23767     0.21770
 Rotational constants (GHZ):          53.98143     4.95218     4.53605
    1 imaginary frequencies ignored.
 Zero-point vibrational energy      56983.9 (Joules/Mol)
                                   13.61947 (Kcal/Mol)
 Warning -- explicit consideration of   3 degrees of freedom as
           vibrations may cause significant error
 Vibrational temperatures:    343.09   479.43   586.46  1110.61  1386.32
          (Kelvin)           1966.67  2398.64  5435.94
 
 Zero-point correction=                           0.021704 (Hartree/Particle)
 Thermal correction to Energy=                    0.025862
 Thermal correction to Enthalpy=                  0.026806
 Thermal correction to Gibbs Free Energy=        -0.004457
 Sum of electronic and zero-point Energies=           -280.424919
 Sum of electronic and thermal Energies=              -280.420761
 Sum of electronic and thermal Enthalpies=            -280.419817
 Sum of electronic and thermal Free Energies=         -280.451080
 
                     E (Thermal)             CV                S
                      KCal/Mol        Cal/Mol-Kelvin    Cal/Mol-Kelvin
 Total                   16.229             12.083             65.799
 Electronic               0.000              0.000              0.000
 Translational            0.889              2.981             38.341
 Rotational               0.889              2.981             23.098
 Vibrational             14.451              6.121              4.360
 Vibration     1          0.656              1.782              1.814
 Vibration     2          0.715              1.609              1.244
 Vibration     3          0.772              1.454              0.935
                       Q            Log10(Q)             Ln(Q)
 Total Bot       0.112227D+03          2.050099          4.720527
 Total V=0       0.107954D+13         12.033238         27.707555
 Vib (Bot)       0.229124D-09         -9.639929        -22.196757
 Vib (Bot)    1  0.822849D+00         -0.084680         -0.194983
 Vib (Bot)    2  0.559609D+00         -0.252115         -0.580516
 Vib (Bot)    3  0.434826D+00         -0.361684         -0.832809
 Vib (V=0)       0.220399D+01          0.343210          0.790271
 Vib (V=0)    1  0.146285D+01          0.165200          0.380386
 Vib (V=0)    2  0.125044D+01          0.097063          0.223497
 Vib (V=0)    3  0.116263D+01          0.065440          0.150682
 Electronic      0.100000D+01          0.000000          0.000000
 Translational   0.196526D+08          7.293420         16.793719
 Rotational      0.249235D+05          4.396609         10.123565
 
                                                                title
                                                             IR Spectrum
 
     3                                                                      1          1                                             
     7                                                                      6          3            9      7           4 3  2        
     7                                                                      6          6            6      7           0 3  3        
     8                                                                      7          7            4      2           8 3  8        
 
     X                                                                      X          X            X      X           X X  X        
     X                                                                      X          X            X      X           X             
     X                                                                      X          X                   X           X             
     X                                                                      X          X                   X           X             
     X                                                                      X          X                   X           X             
     X                                                                      X          X                   X           X             
     X                                                                      X          X                   X           X             
     X                                                                      X          X                   X           X             
                                                                            X          X                   X           X             
                                                                            X          X                   X           X             
                                                                            X          X                   X           X             
                                                                            X          X                   X           X             
                                                                            X          X                   X           X             
                                                                            X          X                   X           X             
                                                                                                                       X             
                                                                                                                       X             
                                                                                                                       X             
                                                                                                                       X             
                                                                                                                       X             
                                                                                                                       X             
 
 ***** Axes restored to original set *****
 -------------------------------------------------------------------
 Center     Atomic                   Forces (Hartrees/Bohr)
 Number     Number              X              Y              Z
 -------------------------------------------------------------------
      1        1           0.000113581    0.000000000    0.000147358
      2        8           0.000109534    0.000000000    0.000605230
      3        8           0.001278824    0.000000000    0.003963005
      4        7           0.004404782    0.000000000   -0.002573796
      5        8          -0.005906721   -0.000000000   -0.002141797
 -------------------------------------------------------------------
 Cartesian Forces:  Max     0.005906721 RMS     0.002355941
 -----------------------------------------------------------------------------------------------
                       Internal Coordinate Forces (Hartree/Bohr or radian)
  Cent   Atom   N1       Length/X         N2         Alpha/Y        N3         Beta/Z          J
 -----------------------------------------------------------------------------------------------
      1  H 
      2  O        1  -0.000147(     1)
      3  O        2  -0.000321(     2)      1  -0.000208(     5)
      4  N        3  -0.004823(     3)      2  -0.001762(     6)      1   0.000000(     8)     0
      5  O        4  -0.006253(     4)      3  -0.001348(     7)      2  -0.000000(     9)     0
 -----------------------------------------------------------------------------------------------
 Internal  Forces:  Max     0.006253444 RMS     0.002737681
 Force constants in Cartesian coordinates: 
                1             2             3             4             5 
      1  0.642668D-01
      2  0.000000D+00 -0.249145D-02
      3  0.520011D-02  0.000000D+00  0.512203D+00
      4 -0.352208D-01  0.000000D+00 -0.160161D-01  0.271561D+00
      5  0.000000D+00  0.319305D-02  0.000000D+00  0.000000D+00  0.167349D-02
      6  0.477973D-01  0.000000D+00 -0.508597D+00  0.328277D-01  0.000000D+00
      7 -0.190218D-01  0.000000D+00  0.122256D-01 -0.220958D+00  0.000000D+00
      8  0.000000D+00  0.109714D-02  0.000000D+00  0.000000D+00 -0.619906D-02
      9 -0.529639D-01  0.000000D+00 -0.582035D-03 -0.198462D-01  0.000000D+00
     10 -0.867813D-02  0.000000D+00 -0.476690D-02 -0.154958D-01  0.000000D+00
     11  0.000000D+00 -0.283076D-02  0.000000D+00  0.000000D+00 -0.466197D-02
     12  0.573644D-02  0.000000D+00 -0.429634D-02  0.116857D-01  0.000000D+00
     13 -0.134609D-02  0.000000D+00  0.335728D-02  0.113352D-03  0.000000D+00
     14  0.000000D+00  0.103202D-02  0.000000D+00  0.000000D+00  0.599449D-02
     15 -0.577003D-02  0.000000D+00  0.127195D-02 -0.865115D-02  0.000000D+00
                6             7             8             9            10 
      6  0.592080D+00
      7 -0.232105D-01  0.338079D+00
      8  0.000000D+00  0.000000D+00  0.507249D-02
      9 -0.774531D-01  0.341079D-01  0.000000D+00  0.163673D+00
     10 -0.491880D-01 -0.750562D-01  0.000000D+00  0.172481D+00  0.816657D+00
     11  0.000000D+00  0.000000D+00  0.711694D-02  0.000000D+00  0.000000D+00
     12  0.186102D-01  0.632485D-01  0.000000D+00 -0.687238D-01 -0.184065D-01
     13 -0.822658D-02 -0.230429D-01  0.000000D+00 -0.133779D+00 -0.717427D+00
     14  0.000000D+00  0.000000D+00 -0.708751D-02  0.000000D+00  0.000000D+00
     15 -0.246407D-01 -0.863714D-01  0.000000D+00 -0.169137D-01 -0.100120D+00
               11            12            13            14            15 
     11  0.119991D-01
     12  0.000000D+00  0.172966D+00
     13  0.000000D+00 -0.622642D-01  0.741703D+00
     14 -0.116233D-01  0.000000D+00  0.000000D+00  0.116843D-01
     15  0.000000D+00 -0.118556D+00  0.200912D+00  0.000000D+00  0.158838D+00
 Force constants in internal coordinates: 
                1             2             3             4             5 
      1  0.512203D+00
      2 -0.102444D-01  0.280563D+00
      3  0.312977D-02  0.930123D-03  0.981743D-01
      4 -0.356790D-02  0.612050D-02  0.147800D+00  0.802403D+00
      5  0.963554D-02  0.655457D-01  0.156624D-02  0.500931D-02  0.215213D+00
      6  0.412332D-02  0.561763D-01  0.365006D-01  0.219142D-01  0.299308D-01
      7 -0.883014D-03  0.362312D-01  0.268033D-01  0.804047D-01  0.212918D-01
      8  0.000000D+00  0.000000D+00  0.000000D+00  0.000000D+00  0.000000D+00
      9  0.000000D+00  0.000000D+00  0.000000D+00  0.000000D+00  0.000000D+00
                6             7             8             9 
      6  0.267650D+00
      7  0.969287D-01  0.466503D+00
      8  0.000000D+00  0.000000D+00 -0.844489D-02
      9  0.000000D+00  0.000000D+00 -0.391589D-02  0.391424D-01
 Leave Link  716 at Mon Feb 21 20:20:06 2022, MaxMem= 16106127360 cpu:               1.3 elap:               0.1
 (Enter /sw/contrib/gaussian/g16/B01/g16/l103.exe)

 GradGradGradGradGradGradGradGradGradGradGradGradGradGradGradGradGradGrad
 Berny optimization.
 Search for a local minimum.
 Step number   1 out of a maximum of    2
 All quantities printed in internal units (Hartrees-Bohrs-Radians)
 Second derivative matrix not updated -- analytic derivatives used.
 The second derivative matrix:
                          r1        r2        r3        r4        a1
           r1           0.51220
           r2          -0.01024   0.28056
           r3           0.00313   0.00093   0.09817
           r4          -0.00357   0.00612   0.14780   0.80240
           a1           0.00964   0.06555   0.00157   0.00501   0.21521
           a2           0.00412   0.05618   0.03650   0.02191   0.02993
           a3          -0.00088   0.03623   0.02680   0.08040   0.02129
           d1           0.00000  -0.00000  -0.00000  -0.00000  -0.00000
           d2          -0.00000   0.00000   0.00000   0.00000   0.00000
                          a2        a3        d1        d2
           a2           0.26765
           a3           0.09693   0.46650
           d1          -0.00000  -0.00000  -0.00844
           d2          -0.00000  -0.00000  -0.00392   0.03914
 ITU=  0
     Eigenvalues ---   -0.00876   0.03946   0.06308   0.17380   0.21380
     Eigenvalues ---    0.31913   0.50416   0.51291   0.85584
 Eigenvalue     1 is  -8.76D-03 should be greater than     0.000000 Eigenvector:
                          d1        d2        a3        a2        r3
   1                    0.99668   0.08147   0.00000   0.00000  -0.00000
                          r4        a1        r2        r1
   1                    0.00000  -0.00000   0.00000  -0.00000
 Angle between quadratic step and forces=  56.01 degrees.
 Linear search not attempted -- first point.
 Variable       Old X    -DE/DX   Delta X   Delta X   Delta X     New X
                                 (Linear)    (Quad)   (Total)
    r1        1.83110  -0.00015   0.00000   0.00002   0.00002   1.83112
    r2        2.74940  -0.00032   0.00000  -0.00103  -0.00103   2.74837
    r3        2.80079  -0.00482   0.00000  -0.05203  -0.05203   2.74876
    r4        2.21236  -0.00625   0.00000   0.00181   0.00181   2.21416
    a1        1.70335  -0.00021   0.00000  -0.00039  -0.00039   1.70296
    a2        1.78543  -0.00176   0.00000   0.00072   0.00072   1.78615
    a3        1.90362  -0.00135   0.00000  -0.00026  -0.00026   1.90336
    d1        3.14159   0.00000   0.00000  -0.00000   0.00000   3.14159
    d2        3.14159  -0.00000   0.00000  -0.00000   0.00000   3.14159
         Item               Value     Threshold  Converged?
 Maximum Force            0.006253     0.000450     NO 
 RMS     Force            0.002738     0.000300     NO 
 Maximum Displacement     0.052025     0.001800     NO 
 RMS     Displacement     0.017358     0.001200     NO 
 Predicted change in Energy=-1.195544D-04
                       ----------------------------
                       ! Non-Optimized Parameters !
                       ! (Angstroms and Degrees)  !
 ----------------------                            ----------------------
 !      Name          Value   Derivative information (Atomic Units)     !
 ------------------------------------------------------------------------
 !       r1          0.969    -DE/DX =   -0.0001                        !
 !       r2          1.4544   -DE/DX =   -0.0003                        !
 !       r3          1.4546   -DE/DX =   -0.0048                        !
 !       r4          1.1717   -DE/DX =   -0.0063                        !
 !       a1         97.5725   -DE/DX =   -0.0002                        !
 !       a2        102.3387   -DE/DX =   -0.0018                        !
 !       a3        109.0545   -DE/DX =   -0.0013                        !
 !       d1        180.0      -DE/DX =    0.0                           !
 !       d2        180.0      -DE/DX =    0.0                           !
 ------------------------------------------------------------------------
 GradGradGradGradGradGradGradGradGradGradGradGradGradGradGradGradGradGrad

 Leave Link  103 at Mon Feb 21 20:20:06 2022, MaxMem= 16106127360 cpu:               2.0 elap:               0.1
 (Enter /sw/contrib/gaussian/g16/B01/g16/l9999.exe)

 ----------------------------------------------------------------------

 Electric dipole moment (input orientation):
 (Debye = 10**-18 statcoulomb cm , SI units = C m)
                  (au)            (Debye)         (10**-30 SI)
   Tot        0.507392D+00      0.128966D+01      0.430185D+01
   x         -0.111936D+00     -0.284513D+00     -0.949033D+00
   y          0.000000D+00      0.000000D+00      0.000000D+00
   z         -0.494891D+00     -0.125789D+01     -0.419586D+01

 Dipole polarizability, Alpha (input orientation).
 (esu units = cm**3 , SI units = C**2 m**2 J**-1)
 Alpha(0;0):
               (au)            (10**-24 esu)      (10**-40 SI)
   iso        0.275791D+02      0.408680D+01      0.454718D+01
   aniso      0.221516D+02      0.328253D+01      0.365230D+01
   xx         0.321394D+02      0.476257D+01      0.529907D+01
   yx         0.000000D+00      0.000000D+00      0.000000D+00
   yy         0.180079D+02      0.266850D+01      0.296910D+01
   zx         0.973692D+01      0.144286D+01      0.160540D+01
   zy         0.000000D+00      0.000000D+00      0.000000D+00
   zz         0.325900D+02      0.482934D+01      0.537337D+01

 ----------------------------------------------------------------------

 Dipole orientation:
     1          0.00000000          0.00000000         -0.00000000
     8         -0.40395990          0.00000000         -1.78598372
     8          2.17400692          0.00000000         -2.74164167
     7          1.78216343          0.00000000         -5.51488538
     8          3.75142285          0.00000000         -6.52312164

 Electric dipole moment (dipole orientation):
 (Debye = 10**-18 statcoulomb cm , SI units = C m)
                  (au)            (Debye)         (10**-30 SI)
   Tot        0.507392D+00      0.128966D+01      0.430185D+01
   x          0.000000D+00      0.000000D+00      0.000000D+00
   y          0.000000D+00      0.000000D+00      0.000000D+00
   z          0.507392D+00      0.128966D+01      0.430185D+01

 Dipole polarizability, Alpha (dipole orientation).
 (esu units = cm**3 , SI units = C**2 m**2 J**-1)
 Alpha(0;0):
               (au)            (10**-24 esu)      (10**-40 SI)
   iso        0.275791D+02      0.408680D+01      0.454718D+01
   aniso      0.221516D+02      0.328253D+01      0.365230D+01
   xx         0.279710D+02      0.414488D+01      0.461180D+01
   yx         0.000000D+00      0.000000D+00      0.000000D+00
   yy         0.180079D+02      0.266850D+01      0.296910D+01
   zx        -0.869219D+01     -0.128805D+01     -0.143315D+01
   zy         0.000000D+00      0.000000D+00      0.000000D+00
   zz         0.367584D+02      0.544703D+01      0.606064D+01

 ----------------------------------------------------------------------
 1\1\GINC-N2124\Freq\RMP2-FC\Aug-CC-pVTZ\H1N1O3\CGAVINH\21-Feb-2022\1\\
 #p freq mp2/aug-cc-pvtz density=current\\title\\0,1\H\O,1,r1\O,2,r2,1,
 a1\N,3,r3,2,a2,1,d1,0\O,4,r4,3,a3,2,d2,0\\r1=0.96897556\r2=1.45491931\
 r3=1.48211399\r4=1.17072885\a1=97.59494903\a2=102.29752444\a3=109.0695
 5123\d1=180.\d2=180.\\Version=ES64L-G16RevB.01\State=1-A'\HF=-279.4993
 042\MP2=-280.4466234\RMSD=4.137e-09\RMSF=2.356e-03\ZeroPoint=0.021704\
 Thermal=0.025862\Dipole=-0.111936,0.,-0.4948905\DipoleDeriv=0.2643344,
 0.,0.0460777,0.,0.354861,0.,0.0821217,0.,0.2756506,-0.332503,0.,-0.205
 7079,0.,-0.3167358,0.,-0.1128646,0.,-0.2309327,-0.0609423,0.,0.138023,
 0.,-0.1006335,0.,-0.7406226,0.,-1.3581164,0.921075,0.,0.9447115,0.,0.0
 729539,0.,0.9111681,0.,1.6700864,-0.7919642,0.,-0.9231042,0.,-0.010445
 7,0.,-0.1398025,0.,-0.3566879\Polar=32.1394071,0.,18.0079145,9.7369202
 ,0.,32.5900125\Quadrupole=-1.5042308,-0.778707,2.2829378,0.,2.1330421,
 0.\PG=CS [SG(H1N1O3)]\NImag=1\\0.06426684,0.,-0.00249145,0.00520011,0.
 ,0.51220304,-0.03522083,0.,-0.01601606,0.27156131,0.,0.00319305,0.,0.,
 0.00167349,0.04779734,0.,-0.50859662,0.03282768,0.,0.59208015,-0.01902
 178,0.,0.01222557,-0.22095799,0.,-0.02321049,0.33807892,0.,0.00109714,
 0.,0.,-0.00619906,0.,0.,0.00507249,-0.05296387,0.,-0.00058203,-0.01984
 621,0.,-0.07745307,0.03410786,0.,0.16367265,-0.00867813,0.,-0.00476690
 ,-0.01549585,0.,-0.04918795,-0.07505622,0.,0.17248084,0.81665713,0.,-0
 .00283076,0.,0.,-0.00466197,0.,0.,0.00711694,0.,0.,0.01199905,0.005736
 44,0.,-0.00429634,0.01168575,0.,0.01861021,0.06324846,0.,-0.06872381,-
 0.01840645,0.,0.17296598,-0.00134609,0.,0.00335728,0.00011335,0.,-0.00
 822658,-0.02304293,0.,-0.13377862,-0.71742693,0.,-0.06226419,0.7417026
 0,0.,0.00103202,0.,0.,0.00599449,0.,0.,-0.00708751,0.,0.,-0.01162326,0
 .,0.,0.01168426,-0.00577003,0.,0.00127195,-0.00865115,0.,-0.02464068,-
 0.08637140,0.,-0.01691373,-0.10011953,0.,-0.11855604,0.20091211,0.,0.1
 5883850\\-0.00011358,0.,-0.00014736,-0.00010953,0.,-0.00060523,-0.0012
 7882,0.,-0.00396300,-0.00440478,0.,0.00257380,0.00590672,0.,0.00214180
 \\\@


 ... IT CAN BE VERY DIFFICULT, IN THESE COMPLEX TIMES,
 TO UNDERSTAND JUST HOW SCIENTISTS DO WHAT THEY DO.

                     DON MOSER IN THE FEBRUARY 1979 SMITHSONIAN
 Job cpu time:       0 days  1 hours 58 minutes 34.8 seconds.
 Elapsed time:       0 days  0 hours  4 minutes 17.0 seconds.
 File lengths (MBytes):  RWF=   7239 Int=      0 D2E=      0 Chk=      8 Scr=      1
 Normal termination of Gaussian 16 at Mon Feb 21 20:20:07 2022.
