title                                                                   
Freq      RMP2-FC                                                     Aug-CC-pVTZ         
Number of atoms                            I                5
Info1-9                                    I   N=           9
          33          24           0           0           0         100
           6           2           1
Full Title                                 C   N=           1
title       
Route                                      C   N=           4
#p freq mp2/aug-cc-pvtz density=current         
Charge                                     I                0
Multiplicity                               I                1
Number of electrons                        I               32
Number of alpha electrons                  I               16
Number of beta electrons                   I               16
Number of basis functions                  I              207
Number of independent functions            I              207
Number of point charges in /Mol/           I                0
Number of translation vectors              I                0
Atomic numbers                             I   N=           5
           1           8           8           7           8
Nuclear charges                            R   N=           5
  1.00000000E+00  8.00000000E+00  8.00000000E+00  7.00000000E+00  8.00000000E+00
Current cartesian coordinates              R   N=          15
  2.97524114E+00  3.18011135E+00  9.54446929E-31  2.74788536E+00  1.36318240E+00
  5.45727340E-31 -4.50852556E-17  1.27196236E+00  3.10409463E-31 -4.97458021E-01
 -1.43948436E+00  1.40681481E-31 -2.68451473E+00 -1.77310986E+00 -7.57075463E-31
Number of symbols in /Mol/                 I                0
Force Field                                I                0
Atom Types                                 C   N=           5
                                                            
Int Atom Types                             I   N=           5
           0           0           0           0           0
MM charges                                 R   N=           5
  0.00000000E+00  0.00000000E+00  0.00000000E+00  0.00000000E+00  0.00000000E+00
Integer atomic weights                     I   N=           5
           1          16          16          14          16
Real atomic weights                        R   N=           5
  1.00782504E+00  1.59949146E+01  1.59949146E+01  1.40030740E+01  1.59949146E+01
Atom fragment info                         I   N=           5
           0           0           0           0           0
Atom residue num                           I   N=           5
           0           0           0           0           0
Nuclear spins                              I   N=           5
           1           0           0           2           0
Nuclear ZEff                               R   N=           5
 -1.00000000E+00 -5.60000000E+00 -5.60000000E+00 -4.55000000E+00 -5.60000000E+00
Nuclear ZNuc                               R   N=           5
  1.00000000E+00  8.00000000E+00  8.00000000E+00  7.00000000E+00  8.00000000E+00
Nuclear QMom                               R   N=           5
  0.00000000E+00  0.00000000E+00  0.00000000E+00  2.04400000E+00  0.00000000E+00
Nuclear GFac                               R   N=           5
  2.79284600E+00  0.00000000E+00  0.00000000E+00  4.03761000E-01  0.00000000E+00
MicOpt                                     I   N=           5
          -1          -1          -1          -1          -1
Number of residues                         I                0
Number of secondary structures             I                0
SymInf integers                            I   N=          26
           1           2           1           1           1           1
           1          -1           0           0           0           0
           0           0           0           0           0           0
           0           0           0           0           0           0
           0           0
RotTr to input orientation                 R   N=          12
 -9.92261759E-01  6.83380486E-16 -1.24163608E-01  1.24163608E-01 -9.49928736E-16
 -9.92261759E-01 -7.96038902E-16 -1.00000000E+00  8.57726972E-16  2.55736391E+00
  0.00000000E+00  3.52491955E+00
Number of contracted shells                I               65
Number of primitive shells                 I              119
Pure/Cartesian d shells                    I                0
Pure/Cartesian f shells                    I                0
Highest angular momentum                   I                3
Largest degree of contraction              I                7
Shell types                                I   N=          65
           0           0           0           0           1           1
           1          -2          -2           0           0           0
           0           0           1           1           1           1
          -2          -2          -2          -3          -3           0
           0           0           0           0           1           1
           1           1          -2          -2          -2          -3
          -3           0           0           0           0           0
           1           1           1           1          -2          -2
          -2          -3          -3           0           0           0
           0           0           1           1           1           1
          -2          -2          -2          -3          -3
Number of primitives per shell             I   N=          65
           3           1           1           1           1           1
           1           1           1           7           6           1
           1           1           3           1           1           1
           1           1           1           1           1           7
           6           1           1           1           3           1
           1           1           1           1           1           1
           1           7           6           1           1           1
           3           1           1           1           1           1
           1           1           1           7           6           1
           1           1           3           1           1           1
           1           1           1           1           1
Shell to atom map                          I   N=          65
           1           1           1           1           1           1
           1           1           1           2           2           2
           2           2           2           2           2           2
           2           2           2           2           2           3
           3           3           3           3           3           3
           3           3           3           3           3           3
           3           4           4           4           4           4
           4           4           4           4           4           4
           4           4           4           5           5           5
           5           5           5           5           5           5
           5           5           5           5           5
Primitive exponents                        R   N=         119
  3.38700000E+01  5.09500000E+00  1.15900000E+00  3.25800000E-01  1.02700000E-01
  2.52600000E-02  1.40700000E+00  3.88000000E-01  1.02000000E-01  1.05700000E+00
  2.47000000E-01  1.53300000E+04  2.29900000E+03  5.22400000E+02  1.47300000E+02
  4.75500000E+01  1.67600000E+01  6.20700000E+00  5.22400000E+02  1.47300000E+02
  4.75500000E+01  1.67600000E+01  6.20700000E+00  6.88200000E-01  1.75200000E+00
  2.38400000E-01  7.37600000E-02  3.44600000E+01  7.74900000E+00  2.28000000E+00
  7.15600000E-01  2.14000000E-01  5.97400000E-02  2.31400000E+00  6.45000000E-01
  2.14000000E-01  1.42800000E+00  5.00000000E-01  1.53300000E+04  2.29900000E+03
  5.22400000E+02  1.47300000E+02  4.75500000E+01  1.67600000E+01  6.20700000E+00
  5.22400000E+02  1.47300000E+02  4.75500000E+01  1.67600000E+01  6.20700000E+00
  6.88200000E-01  1.75200000E+00  2.38400000E-01  7.37600000E-02  3.44600000E+01
  7.74900000E+00  2.28000000E+00  7.15600000E-01  2.14000000E-01  5.97400000E-02
  2.31400000E+00  6.45000000E-01  2.14000000E-01  1.42800000E+00  5.00000000E-01
  1.14200000E+04  1.71200000E+03  3.89300000E+02  1.10000000E+02  3.55700000E+01
  1.25400000E+01  4.64400000E+00  3.89300000E+02  1.10000000E+02  3.55700000E+01
  1.25400000E+01  4.64400000E+00  5.11800000E-01  1.29300000E+00  1.78700000E-01
  5.76000000E-02  2.66300000E+01  5.94800000E+00  1.74200000E+00  5.55000000E-01
  1.72500000E-01  4.91000000E-02  1.65400000E+00  4.69000000E-01  1.51000000E-01
  1.09300000E+00  3.64000000E-01  1.53300000E+04  2.29900000E+03  5.22400000E+02
  1.47300000E+02  4.75500000E+01  1.67600000E+01  6.20700000E+00  5.22400000E+02
  1.47300000E+02  4.75500000E+01  1.67600000E+01  6.20700000E+00  6.88200000E-01
  1.75200000E+00  2.38400000E-01  7.37600000E-02  3.44600000E+01  7.74900000E+00
  2.28000000E+00  7.15600000E-01  2.14000000E-01  5.97400000E-02  2.31400000E+00
  6.45000000E-01  2.14000000E-01  1.42800000E+00  5.00000000E-01
Contraction coefficients                   R   N=         119
  2.54948632E-02  1.90362766E-01  8.52162022E-01  1.00000000E+00  1.00000000E+00
  1.00000000E+00  1.00000000E+00  1.00000000E+00  1.00000000E+00  1.00000000E+00
  1.00000000E+00  5.19808943E-04  4.02025621E-03  2.07128267E-02  8.10105536E-02
  2.35962985E-01  4.42653446E-01  3.57064423E-01 -4.42115008E-05 -1.22591041E-03
 -1.05517725E-02 -6.74452633E-02 -1.71198607E-01  1.07329856E+00  1.00000000E+00
  1.00000000E+00  1.00000000E+00  4.11634896E-02  2.57762836E-01  8.02419274E-01
  1.00000000E+00  1.00000000E+00  1.00000000E+00  1.00000000E+00  1.00000000E+00
  1.00000000E+00  1.00000000E+00  1.00000000E+00  5.19808943E-04  4.02025621E-03
  2.07128267E-02  8.10105536E-02  2.35962985E-01  4.42653446E-01  3.57064423E-01
 -4.42115008E-05 -1.22591041E-03 -1.05517725E-02 -6.74452633E-02 -1.71198607E-01
  1.07329856E+00  1.00000000E+00  1.00000000E+00  1.00000000E+00  4.11634896E-02
  2.57762836E-01  8.02419274E-01  1.00000000E+00  1.00000000E+00  1.00000000E+00
  1.00000000E+00  1.00000000E+00  1.00000000E+00  1.00000000E+00  1.00000000E+00
  5.34563860E-04  4.13435660E-03  2.12335358E-02  8.25006224E-02  2.38138871E-01
  4.42551547E-01  3.53757422E-01 -4.89867350E-05 -1.19527323E-03 -1.03490714E-02
 -6.48680190E-02 -1.71552477E-01  1.07289568E+00  1.00000000E+00  1.00000000E+00
  1.00000000E+00  3.98072123E-02  2.49002660E-01  8.10479727E-01  1.00000000E+00
  1.00000000E+00  1.00000000E+00  1.00000000E+00  1.00000000E+00  1.00000000E+00
  1.00000000E+00  1.00000000E+00  5.19808943E-04  4.02025621E-03  2.07128267E-02
  8.10105536E-02  2.35962985E-01  4.42653446E-01  3.57064423E-01 -4.42115008E-05
 -1.22591041E-03 -1.05517725E-02 -6.74452633E-02 -1.71198607E-01  1.07329856E+00
  1.00000000E+00  1.00000000E+00  1.00000000E+00  4.11634896E-02  2.57762836E-01
  8.02419274E-01  1.00000000E+00  1.00000000E+00  1.00000000E+00  1.00000000E+00
  1.00000000E+00  1.00000000E+00  1.00000000E+00  1.00000000E+00
Coordinates of each shell                  R   N=         195
  2.97524114E+00  3.18011135E+00  3.47583903E-31  2.97524114E+00  3.18011135E+00
  3.47583903E-31  2.97524114E+00  3.18011135E+00  3.47583903E-31  2.97524114E+00
  3.18011135E+00  3.47583903E-31  2.97524114E+00  3.18011135E+00  3.47583903E-31
  2.97524114E+00  3.18011135E+00  3.47583903E-31  2.97524114E+00  3.18011135E+00
  3.47583903E-31  2.97524114E+00  3.18011135E+00  3.47583903E-31  2.97524114E+00
  3.18011135E+00  3.47583903E-31  2.74788536E+00  1.36318240E+00  1.67023658E-31
  2.74788536E+00  1.36318240E+00  1.67023658E-31  2.74788536E+00  1.36318240E+00
  1.67023658E-31  2.74788536E+00  1.36318240E+00  1.67023658E-31  2.74788536E+00
  1.36318240E+00  1.67023658E-31  2.74788536E+00  1.36318240E+00  1.67023658E-31
  2.74788536E+00  1.36318240E+00  1.67023658E-31  2.74788536E+00  1.36318240E+00
  1.67023658E-31  2.74788536E+00  1.36318240E+00  1.67023658E-31  2.74788536E+00
  1.36318240E+00  1.67023658E-31  2.74788536E+00  1.36318240E+00  1.67023658E-31
  2.74788536E+00  1.36318240E+00  1.67023658E-31  2.74788536E+00  1.36318240E+00
  1.67023658E-31  2.74788536E+00  1.36318240E+00  1.67023658E-31  1.92339628E-17
  1.27196236E+00  1.24454602E-31  1.92339628E-17  1.27196236E+00  1.24454602E-31
  1.92339628E-17  1.27196236E+00  1.24454602E-31  1.92339628E-17  1.27196236E+00
  1.24454602E-31  1.92339628E-17  1.27196236E+00  1.24454602E-31  1.92339628E-17
  1.27196236E+00  1.24454602E-31  1.92339628E-17  1.27196236E+00  1.24454602E-31
  1.92339628E-17  1.27196236E+00  1.24454602E-31  1.92339628E-17  1.27196236E+00
  1.24454602E-31  1.92339628E-17  1.27196236E+00  1.24454602E-31  1.92339628E-17
  1.27196236E+00  1.24454602E-31  1.92339628E-17  1.27196236E+00  1.24454602E-31
  1.92339628E-17  1.27196236E+00  1.24454602E-31  1.92339628E-17  1.27196236E+00
  1.24454602E-31 -4.97458021E-01 -1.43948436E+00 -1.46936335E-31 -4.97458021E-01
 -1.43948436E+00 -1.46936335E-31 -4.97458021E-01 -1.43948436E+00 -1.46936335E-31
 -4.97458021E-01 -1.43948436E+00 -1.46936335E-31 -4.97458021E-01 -1.43948436E+00
 -1.46936335E-31 -4.97458021E-01 -1.43948436E+00 -1.46936335E-31 -4.97458021E-01
 -1.43948436E+00 -1.46936335E-31 -4.97458021E-01 -1.43948436E+00 -1.46936335E-31
 -4.97458021E-01 -1.43948436E+00 -1.46936335E-31 -4.97458021E-01 -1.43948436E+00
 -1.46936335E-31 -4.97458021E-01 -1.43948436E+00 -1.46936335E-31 -4.97458021E-01
 -1.43948436E+00 -1.46936335E-31 -4.97458021E-01 -1.43948436E+00 -1.46936335E-31
 -4.97458021E-01 -1.43948436E+00 -1.46936335E-31 -2.68451473E+00 -1.77310986E+00
 -2.06356955E-31 -2.68451473E+00 -1.77310986E+00 -2.06356955E-31 -2.68451473E+00
 -1.77310986E+00 -2.06356955E-31 -2.68451473E+00 -1.77310986E+00 -2.06356955E-31
 -2.68451473E+00 -1.77310986E+00 -2.06356955E-31 -2.68451473E+00 -1.77310986E+00
 -2.06356955E-31 -2.68451473E+00 -1.77310986E+00 -2.06356955E-31 -2.68451473E+00
 -1.77310986E+00 -2.06356955E-31 -2.68451473E+00 -1.77310986E+00 -2.06356955E-31
 -2.68451473E+00 -1.77310986E+00 -2.06356955E-31 -2.68451473E+00 -1.77310986E+00
 -2.06356955E-31 -2.68451473E+00 -1.77310986E+00 -2.06356955E-31 -2.68451473E+00
 -1.77310986E+00 -2.06356955E-31 -2.68451473E+00 -1.77310986E+00 -2.06356955E-31
Num ILSW                                   I              100
ILSW                                       I   N=         100
           0           0           0           0           2           0
           0           0           0           0           0          -1
           5           0           0           0           2           0
           0           0           0           0           1           0
           1           0           0           0           0           0
           0           0      100000           0          -1           0
           0           0           0           0           0           0
           0           0           0           1           1           0
           0 -2000000000           1           0           0           0
           0           0           4          52           0           0
           0           0           0           0           0           0
           0           0           0           5           4           1
           0           0           0           0           0           0
           0           0           0           0           0           0
           0           0           0           0           0           0
           0           0           0           0           0           0
           0           0           0           0
Num RLSW                                   I               52
RLSW                                       R   N=          52
  1.00000000E+00  1.00000000E+00  1.00000000E+00  1.00000000E+00  1.00000000E+00
  0.00000000E+00  0.00000000E+00  1.00000000E+00  0.00000000E+00  0.00000000E+00
  0.00000000E+00  0.00000000E+00  1.00000000E+00  0.00000000E+00  0.00000000E+00
  0.00000000E+00  0.00000000E+00  1.00000000E+00  0.00000000E+00  0.00000000E+00
  0.00000000E+00  0.00000000E+00  1.00000000E+00  0.00000000E+00  0.00000000E+00
  0.00000000E+00  0.00000000E+00  1.00000000E+00  0.00000000E+00  0.00000000E+00
  0.00000000E+00  0.00000000E+00  1.00000000E+00  0.00000000E+00  0.00000000E+00
  0.00000000E+00  0.00000000E+00  0.00000000E+00  1.00000000E+00  1.00000000E+00
  0.00000000E+00  1.00000000E+00  0.00000000E+00  0.00000000E+00  0.00000000E+00
  0.00000000E+00  0.00000000E+00  0.00000000E+00  0.00000000E+00  0.00000000E+00
  0.00000000E+00  0.00000000E+00
MxBond                                     I                2
NBond                                      I   N=           5
           1           2           2           2           1
IBond                                      I   N=          10
           2           0           1           3           2           4
           3           5           4           0
RBond                                      R   N=          10
  1.00000000E+00  0.00000000E+00  1.00000000E+00  1.00000000E+00  1.00000000E+00
  1.00000000E+00  1.00000000E+00  2.00000000E+00  2.00000000E+00  0.00000000E+00
Virial Ratio                               R      2.002372763852661E+00
SCF Energy                                 R     -2.795018038078354E+02
MP2 Energy                                 R     -2.804466637578122E+02
Total Energy                               R     -2.804466637578122E+02
Post-SCF wavefunction norm                 R      1.584183015133299E+00
RMS Force                                  R      1.285529562286799E-03
RMS Density                                R      3.805933321001793E-09
NImag                                      I                1
Job Status                                 I                1
Nuclear derivative order                   I                2
External E-field                           R   N=          35
  0.00000000E+00  0.00000000E+00  0.00000000E+00  0.00000000E+00  0.00000000E+00
  0.00000000E+00  0.00000000E+00  0.00000000E+00  0.00000000E+00  0.00000000E+00
  0.00000000E+00  0.00000000E+00  0.00000000E+00  0.00000000E+00  0.00000000E+00
  0.00000000E+00  0.00000000E+00  0.00000000E+00  0.00000000E+00  0.00000000E+00
  0.00000000E+00  0.00000000E+00  0.00000000E+00  0.00000000E+00  0.00000000E+00
  0.00000000E+00  0.00000000E+00  0.00000000E+00  0.00000000E+00  0.00000000E+00
  0.00000000E+00  0.00000000E+00  0.00000000E+00  0.00000000E+00  0.00000000E+00
IOpCl                                      I                0
IROHF                                      I                0
Alpha Orbital Energies                     R   N=         207
 -2.06910759E+01 -2.06843429E+01 -2.06593705E+01 -1.58128863E+01 -1.62398775E+00
 -1.49486926E+00 -1.25461282E+00 -9.48020523E-01 -7.72103812E-01 -7.60101760E-01
 -7.11650833E-01 -6.79726362E-01 -6.20200916E-01 -5.88056419E-01 -4.85043961E-01
 -4.72497782E-01  2.94719141E-02  7.17173995E-02  8.59506431E-02  1.01767399E-01
  1.33817972E-01  1.34027542E-01  1.44089032E-01  1.54459016E-01  1.78302765E-01
  1.94315801E-01  1.99931249E-01  2.06297689E-01  2.20872481E-01  2.35421314E-01
  2.37394007E-01  2.66692749E-01  2.93425806E-01  3.04079442E-01  3.10041423E-01
  3.43559302E-01  3.49468374E-01  3.87166228E-01  4.20848994E-01  4.32140389E-01
  5.27094021E-01  5.29162790E-01  5.58766881E-01  5.82024277E-01  6.25808124E-01
  6.38427287E-01  6.74315219E-01  6.84184110E-01  7.06278545E-01  7.11885110E-01
  7.21399531E-01  7.30126704E-01  7.44938158E-01  7.90197035E-01  7.90269036E-01
  8.09489052E-01  8.13138314E-01  8.31464533E-01  8.68649365E-01  9.07662065E-01
  9.22951191E-01  9.25593752E-01  9.58258142E-01  9.78086037E-01  9.83575780E-01
  1.01571163E+00  1.05236325E+00  1.05513184E+00  1.08212802E+00  1.11756760E+00
  1.13921536E+00  1.18906160E+00  1.22082360E+00  1.23130979E+00  1.33845343E+00
  1.34866416E+00  1.38704381E+00  1.45173619E+00  1.48839550E+00  1.51149596E+00
  1.53862516E+00  1.56716207E+00  1.57988229E+00  1.61523869E+00  1.66490190E+00
  1.66919101E+00  1.70348459E+00  1.78965253E+00  1.83177698E+00  1.83372328E+00
  1.87901589E+00  1.90936426E+00  1.95710140E+00  1.99088369E+00  2.00700054E+00
  2.07654902E+00  2.11736888E+00  2.13197913E+00  2.15024497E+00  2.22282315E+00
  2.26508780E+00  2.26612311E+00  2.28843475E+00  2.31471765E+00  2.34566401E+00
  2.38533899E+00  2.42191874E+00  2.42531381E+00  2.45477399E+00  2.46318278E+00
  2.47481242E+00  2.50287421E+00  2.58884990E+00  2.59480329E+00  2.61799598E+00
  2.62750394E+00  2.63406939E+00  2.66924846E+00  2.75689463E+00  2.82230558E+00
  2.86280360E+00  2.88820525E+00  2.89463128E+00  2.92171497E+00  2.96075023E+00
  3.02649146E+00  3.06763671E+00  3.12277061E+00  3.20085344E+00  3.22926100E+00
  3.31846233E+00  3.34082412E+00  3.51413500E+00  3.65013549E+00  3.83932307E+00
  3.84748100E+00  4.15153067E+00  4.15770384E+00  4.18401749E+00  4.25668444E+00
  4.35869165E+00  4.39106583E+00  4.46463241E+00  4.51245959E+00  4.66394280E+00
  4.69499226E+00  4.80638322E+00  4.82434516E+00  4.83162911E+00  4.89589479E+00
  5.02208731E+00  5.07783230E+00  5.10369118E+00  5.14827253E+00  5.18546762E+00
  5.23670298E+00  5.27356089E+00  5.31031677E+00  5.33116146E+00  5.35357876E+00
  5.60948352E+00  5.67372747E+00  5.77321958E+00  5.81849019E+00  5.95700857E+00
  6.16482829E+00  6.30674708E+00  6.34124134E+00  6.39634209E+00  6.49346998E+00
  6.50562561E+00  6.61258242E+00  6.66751325E+00  6.69741961E+00  6.75499773E+00
  6.76504418E+00  6.83107347E+00  6.89789334E+00  7.00355714E+00  7.05735472E+00
  7.06161199E+00  7.09102540E+00  7.12368309E+00  7.15521159E+00  7.18117969E+00
  7.22402015E+00  7.24177701E+00  7.31002229E+00  7.32562233E+00  7.34672006E+00
  7.39881489E+00  7.41901988E+00  7.48427030E+00  7.60861794E+00  7.61499208E+00
  7.62749654E+00  7.66557459E+00  7.78532404E+00  7.88655377E+00  8.09165026E+00
  8.31125410E+00  8.41957144E+00  8.54538248E+00  1.33946597E+01  1.43965590E+01
  1.51436384E+01  1.61512999E+01
Alpha MO coefficients                      R   N=       42849
  9.21465622E-05 -7.24227345E-04 -7.82528886E-04 -5.72838842E-06 -3.20896933E-05
 -2.39270968E-05  0.00000000E+00 -3.39737406E-05  1.11302774E-04  0.00000000E+00
  9.79788096E-05  5.84611542E-05  0.00000000E+00  3.43801832E-05  0.00000000E+00
  0.00000000E+00 -4.07045621E-05  2.46113997E-05 -1.66182394E-06  0.00000000E+00
  0.00000000E+00 -1.23664936E-04  1.11946716E-04  4.46671306E-03 -2.73592260E-04
  6.48460540E-06  1.68861283E-03  1.90123341E-03  1.06684221E-04  5.47411845E-06
  0.00000000E+00 -6.16659676E-04 -1.14652507E-05  0.00000000E+00 -1.11943991E-03
  8.56772742E-04  0.00000000E+00 -4.13921390E-04  6.65143054E-05  0.00000000E+00
  2.90443690E-05  0.00000000E+00  0.00000000E+00 -5.53501382E-05  5.06153128E-06
 -3.85534824E-04  0.00000000E+00  0.00000000E+00  7.37085588E-04 -2.91860057E-05
 -4.54581596E-04  0.00000000E+00  0.00000000E+00  2.45566915E-04 -2.16752464E-05
  0.00000000E+00  8.03315476E-05  1.19075097E-05  0.00000000E+00  0.00000000E+00
 -1.09837216E-04 -4.39330293E-06  0.00000000E+00  2.54148130E-04 -2.79903092E-05
  0.00000000E+00  0.00000000E+00 -3.59427654E-04  5.59937117E-05  9.76913652E-01
 -9.21397084E-03  4.33158996E-02  2.03859211E-03 -9.54872240E-04  1.49997211E-03
 -1.35669666E-03  0.00000000E+00 -1.44307125E-03  1.38535501E-03  0.00000000E+00
  5.42090600E-05 -1.20068407E-03  0.00000000E+00 -1.44244548E-04 -1.61825251E-05
  0.00000000E+00  4.70598135E-05  0.00000000E+00  0.00000000E+00 -3.45640702E-05
  2.00793204E-05  7.45968000E-04  0.00000000E+00  0.00000000E+00 -2.39962664E-04
 -3.87722462E-04 -3.50620306E-04  0.00000000E+00  0.00000000E+00 -3.19464789E-04
 -3.95031587E-04  0.00000000E+00  4.76977669E-05 -4.94377544E-05  0.00000000E+00
  0.00000000E+00 -3.97253751E-05 -1.50674258E-05  0.00000000E+00  2.34626565E-05
  2.40213252E-05  0.00000000E+00  0.00000000E+00 -3.05903677E-04 -1.39693087E-04
  3.89016619E-05  4.52990378E-05 -2.63367870E-04 -7.17775223E-04 -1.46531057E-04
 -2.70250852E-05 -9.67804042E-05  0.00000000E+00  2.69462177E-04  7.05276081E-04
  0.00000000E+00 -8.54204409E-04 -5.13987589E-04  0.00000000E+00 -1.30149215E-04
 -3.03043408E-05  0.00000000E+00 -1.82249919E-05  0.00000000E+00  0.00000000E+00
 -2.96943256E-05  1.50851218E-05 -3.26652774E-04  0.00000000E+00  0.00000000E+00
 -8.24814743E-04  1.30124238E-04 -3.61049662E-05  0.00000000E+00  0.00000000E+00
  1.08361709E-04 -1.12261163E-04  0.00000000E+00 -2.07361203E-05 -1.19698216E-04
  0.00000000E+00  0.00000000E+00 -6.31330961E-05 -1.37233220E-04  0.00000000E+00
  2.79907120E-06 -1.51029146E-04  0.00000000E+00  0.00000000E+00  4.39956845E-05
 -4.18308753E-04 -2.51115462E-03  1.21085209E-04 -1.20441480E-04 -2.59071937E-04
  1.29352914E-04 -7.77502536E-06 -2.75245649E-05  0.00000000E+00  6.85224590E-05
  1.62514473E-04  0.00000000E+00  2.30909997E-04  2.16193254E-04  0.00000000E+00
  1.28135004E-04  2.52915076E-05  0.00000000E+00 -3.33518131E-06  0.00000000E+00
  0.00000000E+00 -1.78095955E-05  1.02953856E-06  7.34429330E-07  0.00000000E+00
  0.00000000E+00  7.98578108E-05  8.85370596E-05 -1.02276927E-04  0.00000000E+00
  0.00000000E+00  1.64394578E-04  1.68062037E-04  0.00000000E+00  1.58720531E-05
 -3.54197263E-06  0.00000000E+00  0.00000000E+00 -4.28391018E-06 -1.20271650E-05
  0.00000000E+00 -3.37286435E-05  4.50056912E-05  0.00000000E+00  0.00000000E+00
  8.31287574E-05  9.04293038E-05  3.58390338E-05 -9.88115899E-04 -4.93017208E-04
 -1.14946519E-05 -2.33042781E-05  1.66375609E-05  0.00000000E+00 -1.46940592E-06
  2.72061202E-04  0.00000000E+00 -4.55713865E-05  1.34762092E-04  0.00000000E+00
  2.45039649E-05  0.00000000E+00  0.00000000E+00  1.37699958E-05  1.23661851E-05
 -2.91265949E-05  0.00000000E+00  0.00000000E+00  1.31422921E-05  3.83390998E-05
  1.09300277E-04  8.40111710E-05 -2.85713823E-05  7.47631948E-04  6.60007803E-04
  1.00211527E-05  2.59726885E-06  0.00000000E+00 -7.14800862E-05  1.38995975E-05
  0.00000000E+00  3.67991768E-04  9.04207287E-04  0.00000000E+00  8.54078014E-06
  8.47007135E-05  0.00000000E+00 -2.15997224E-06  0.00000000E+00  0.00000000E+00
 -3.23161899E-07 -6.52180291E-06 -3.61172196E-05  0.00000000E+00  0.00000000E+00
 -1.64425058E-05  8.85274126E-05 -2.25308858E-05  0.00000000E+00  0.00000000E+00
 -2.71746603E-04 -1.47617476E-04  0.00000000E+00  9.43841368E-06  6.08564381E-06
  0.00000000E+00  0.00000000E+00  2.56564673E-06 -1.82727574E-05  0.00000000E+00
 -4.23747154E-05 -3.83350255E-05  0.00000000E+00  0.00000000E+00 -8.12788221E-05
  2.19354883E-05  2.54995492E-03  3.92914945E-05  8.83005110E-05 -4.87287772E-05
 -4.76311418E-04  7.31058742E-06  1.57781788E-05  0.00000000E+00 -6.24887104E-05
 -5.46471395E-05  0.00000000E+00  2.40064669E-04 -1.95549258E-04  0.00000000E+00
 -1.90808484E-04 -6.53757082E-05  0.00000000E+00 -8.59692164E-06  0.00000000E+00
  0.00000000E+00  2.26408145E-05  1.96891846E-05  3.84115489E-06  0.00000000E+00
  0.00000000E+00 -1.19055027E-04 -4.56003622E-05 -1.21046862E-06  0.00000000E+00
  0.00000000E+00 -2.23619893E-04 -2.13001356E-04  0.00000000E+00  3.09158513E-06
 -8.15900013E-07  0.00000000E+00  0.00000000E+00  1.48414678E-06 -1.32500477E-05
  0.00000000E+00 -4.54441320E-05  4.87619505E-06  0.00000000E+00  0.00000000E+00
 -7.59855547E-05  1.86930552E-04  2.58742929E-04  1.46561972E-03 -7.78878685E-05
 -1.53535778E-03  4.06129396E-04 -1.44394383E-04  5.25249313E-07  0.00000000E+00
 -2.09127109E-03 -4.02690469E-04  0.00000000E+00  1.02465654E-03  7.52902923E-04
  0.00000000E+00 -1.70974387E-04  5.72128712E-05  0.00000000E+00 -1.23378899E-04
  0.00000000E+00  0.00000000E+00  2.43311338E-04  9.34829475E-05 -4.41921764E-04
  0.00000000E+00  0.00000000E+00  9.00404917E-04 -6.84746589E-05  1.15942654E-05
  0.00000000E+00  0.00000000E+00 -3.34880426E-04 -1.24072625E-04  0.00000000E+00
 -1.18911776E-06  1.54775705E-05  0.00000000E+00  0.00000000E+00  1.88178314E-05
  1.33644705E-05  0.00000000E+00  1.64401845E-04 -7.18559355E-05  0.00000000E+00
  0.00000000E+00 -2.40782149E-04  4.29625980E-05  9.76649677E-01 -9.84790837E-03
  4.35677960E-02  4.48844715E-03 -4.53424612E-04  2.14906986E-03  4.79452978E-04
  0.00000000E+00 -2.38578315E-03 -6.02212394E-04  0.00000000E+00  1.13511890E-03
 -2.86377177E-06  0.00000000E+00  3.68609979E-06 -4.32467023E-05  0.00000000E+00
 -2.32236980E-04  0.00000000E+00  0.00000000E+00  1.02898764E-04  3.14742090E-05
  3.90918082E-04  0.00000000E+00  0.00000000E+00 -8.35397256E-04 -4.17663363E-04
 -1.54632117E-04  0.00000000E+00  0.00000000E+00  2.54821129E-04  1.75501147E-05
  0.00000000E+00  5.24001342E-05  1.76490090E-05  0.00000000E+00  0.00000000E+00
 -2.21912996E-05 -1.32647164E-05  0.00000000E+00  1.38041584E-04  9.03351891E-06
  0.00000000E+00  0.00000000E+00 -1.90554654E-04 -1.40054442E-04  4.78763683E-04
  2.15766805E-03  1.34355316E-04  1.19541585E-05 -4.36351135E-05 -2.45375363E-04
  0.00000000E+00  7.66203221E-05 -1.29518820E-03  0.00000000E+00  2.79072741E-04
 -3.42905295E-04  0.00000000E+00 -1.08148434E-06  0.00000000E+00  0.00000000E+00
  7.64056487E-05  6.45039192E-06 -1.52479518E-04  0.00000000E+00  0.00000000E+00
 -5.37592802E-04  2.77931131E-06  9.76829596E-01 -9.15375747E-03  4.34555694E-02
  6.54239107E-05 -1.09382030E-03 -1.54386864E-03  1.46130819E-03  0.00000000E+00
  1.55290538E-03 -1.29455016E-03  0.00000000E+00 -5.99856976E-04 -9.47155083E-04
  0.00000000E+00  5.89479898E-05 -1.08050609E-05  0.00000000E+00  2.72814835E-05
  0.00000000E+00  0.00000000E+00 -1.17724080E-04  5.37716177E-06  7.64587632E-04
  0.00000000E+00  0.00000000E+00 -2.08558941E-04 -2.63541898E-04 -2.63623727E-04
  0.00000000E+00  0.00000000E+00  1.91538813E-04  1.41196675E-04  0.00000000E+00
 -6.41307381E-05  5.75037290E-08  0.00000000E+00  0.00000000E+00  1.99335570E-05