title                                                                   
Freq      RMP2-FC                                                     Aug-CC-pVTZ         
Number of atoms                            I                5
Info1-9                                    I   N=           9
          33          24           0           0           0         100
           6           2           1
Full Title                                 C   N=           1
title       
Route                                      C   N=           4
#p freq mp2/aug-cc-pvtz density=current         
Charge                                     I                0
Multiplicity                               I                1
Number of electrons                        I               32
Number of alpha electrons                  I               16
Number of beta electrons                   I               16
Number of basis functions                  I              207
Number of independent functions            I              207
Number of point charges in /Mol/           I                0
Number of translation vectors              I                0
Atomic numbers                             I   N=           5
           1           8           8           7           8
Nuclear charges                            R   N=           5
  1.00000000E+00  8.00000000E+00  8.00000000E+00  7.00000000E+00  8.00000000E+00
Current cartesian coordinates              R   N=          15
  2.92089417E+00  3.22233468E+00  3.54298906E-31  2.74744632E+00  1.39946955E+00
  2.54467667E-31  2.81442857E-17  1.29586579E+00  2.67588657E-31 -4.94414526E-01
 -1.46914563E+00 -2.52917970E-31 -2.67994538E+00 -1.81262475E+00  6.12823969E-31
Number of symbols in /Mol/                 I                0
Force Field                                I                0
Atom Types                                 C   N=           5
                                                            
Int Atom Types                             I   N=           5
           0           0           0           0           0
MM charges                                 R   N=           5
  0.00000000E+00  0.00000000E+00  0.00000000E+00  0.00000000E+00  0.00000000E+00
Integer atomic weights                     I   N=           5
           1          16          16          14          16
Real atomic weights                        R   N=           5
  1.00782504E+00  1.59949146E+01  1.59949146E+01  1.40030740E+01  1.59949146E+01
Atom fragment info                         I   N=           5
           0           0           0           0           0
Atom residue num                           I   N=           5
           0           0           0           0           0
Nuclear spins                              I   N=           5
           1           0           0           2           0
Nuclear ZEff                               R   N=           5
 -1.00000000E+00 -5.60000000E+00 -5.60000000E+00 -4.55000000E+00 -5.60000000E+00
Nuclear ZNuc                               R   N=           5
  1.00000000E+00  8.00000000E+00  8.00000000E+00  7.00000000E+00  8.00000000E+00
Nuclear QMom                               R   N=           5
  0.00000000E+00  0.00000000E+00  0.00000000E+00  2.04400000E+00  0.00000000E+00
Nuclear GFac                               R   N=           5
  2.79284600E+00  0.00000000E+00  0.00000000E+00  4.03761000E-01  0.00000000E+00
MicOpt                                     I   N=           5
          -1          -1          -1          -1          -1
Number of residues                         I                0
Number of secondary structures             I                0
SymInf integers                            I   N=          26
           1           2           1           1           1           1
           1          -1           0           0           0           0
           0           0           0           0           0           0
           0           0           0           0           0           0
           0           0
RotTr to input orientation                 R   N=          12
 -9.95503631E-01 -8.63449608E-16 -9.47233884E-02  9.47233884E-02  7.55833107E-16
 -9.95503631E-01  9.31162293E-16 -1.00000000E+00 -6.70645730E-16  2.60253029E+00
  0.00000000E+00  3.48452287E+00
Number of contracted shells                I               65
Number of primitive shells                 I              119
Pure/Cartesian d shells                    I                0
Pure/Cartesian f shells                    I                0
Highest angular momentum                   I                3
Largest degree of contraction              I                7
Shell types                                I   N=          65
           0           0           0           0           1           1
           1          -2          -2           0           0           0
           0           0           1           1           1           1
          -2          -2          -2          -3          -3           0
           0           0           0           0           1           1
           1           1          -2          -2          -2          -3
          -3           0           0           0           0           0
           1           1           1           1          -2          -2
          -2          -3          -3           0           0           0
           0           0           1           1           1           1
          -2          -2          -2          -3          -3
Number of primitives per shell             I   N=          65
           3           1           1           1           1           1
           1           1           1           7           6           1
           1           1           3           1           1           1
           1           1           1           1           1           7
           6           1           1           1           3           1
           1           1           1           1           1           1
           1           7           6           1           1           1
           3           1           1           1           1           1
           1           1           1           7           6           1
           1           1           3           1           1           1
           1           1           1           1           1
Shell to atom map                          I   N=          65
           1           1           1           1           1           1
           1           1           1           2           2           2
           2           2           2           2           2           2
           2           2           2           2           2           3
           3           3           3           3           3           3
           3           3           3           3           3           3
           3           4           4           4           4           4
           4           4           4           4           4           4
           4           4           4           5           5           5
           5           5           5           5           5           5
           5           5           5           5           5
Primitive exponents                        R   N=         119
  3.38700000E+01  5.09500000E+00  1.15900000E+00  3.25800000E-01  1.02700000E-01
  2.52600000E-02  1.40700000E+00  3.88000000E-01  1.02000000E-01  1.05700000E+00
  2.47000000E-01  1.53300000E+04  2.29900000E+03  5.22400000E+02  1.47300000E+02
  4.75500000E+01  1.67600000E+01  6.20700000E+00  5.22400000E+02  1.47300000E+02
  4.75500000E+01  1.67600000E+01  6.20700000E+00  6.88200000E-01  1.75200000E+00
  2.38400000E-01  7.37600000E-02  3.44600000E+01  7.74900000E+00  2.28000000E+00
  7.15600000E-01  2.14000000E-01  5.97400000E-02  2.31400000E+00  6.45000000E-01
  2.14000000E-01  1.42800000E+00  5.00000000E-01  1.53300000E+04  2.29900000E+03
  5.22400000E+02  1.47300000E+02  4.75500000E+01  1.67600000E+01  6.20700000E+00
  5.22400000E+02  1.47300000E+02  4.75500000E+01  1.67600000E+01  6.20700000E+00
  6.88200000E-01  1.75200000E+00  2.38400000E-01  7.37600000E-02  3.44600000E+01
  7.74900000E+00  2.28000000E+00  7.15600000E-01  2.14000000E-01  5.97400000E-02
  2.31400000E+00  6.45000000E-01  2.14000000E-01  1.42800000E+00  5.00000000E-01
  1.14200000E+04  1.71200000E+03  3.89300000E+02  1.10000000E+02  3.55700000E+01
  1.25400000E+01  4.64400000E+00  3.89300000E+02  1.10000000E+02  3.55700000E+01
  1.25400000E+01  4.64400000E+00  5.11800000E-01  1.29300000E+00  1.78700000E-01
  5.76000000E-02  2.66300000E+01  5.94800000E+00  1.74200000E+00  5.55000000E-01
  1.72500000E-01  4.91000000E-02  1.65400000E+00  4.69000000E-01  1.51000000E-01
  1.09300000E+00  3.64000000E-01  1.53300000E+04  2.29900000E+03  5.22400000E+02
  1.47300000E+02  4.75500000E+01  1.67600000E+01  6.20700000E+00  5.22400000E+02
  1.47300000E+02  4.75500000E+01  1.67600000E+01  6.20700000E+00  6.88200000E-01
  1.75200000E+00  2.38400000E-01  7.37600000E-02  3.44600000E+01  7.74900000E+00
  2.28000000E+00  7.15600000E-01  2.14000000E-01  5.97400000E-02  2.31400000E+00
  6.45000000E-01  2.14000000E-01  1.42800000E+00  5.00000000E-01
Contraction coefficients                   R   N=         119
  2.54948632E-02  1.90362766E-01  8.52162022E-01  1.00000000E+00  1.00000000E+00
  1.00000000E+00  1.00000000E+00  1.00000000E+00  1.00000000E+00  1.00000000E+00
  1.00000000E+00  5.19808943E-04  4.02025621E-03  2.07128267E-02  8.10105536E-02
  2.35962985E-01  4.42653446E-01  3.57064423E-01 -4.42115008E-05 -1.22591041E-03
 -1.05517725E-02 -6.74452633E-02 -1.71198607E-01  1.07329856E+00  1.00000000E+00
  1.00000000E+00  1.00000000E+00  4.11634896E-02  2.57762836E-01  8.02419274E-01
  1.00000000E+00  1.00000000E+00  1.00000000E+00  1.00000000E+00  1.00000000E+00
  1.00000000E+00  1.00000000E+00  1.00000000E+00  5.19808943E-04  4.02025621E-03
  2.07128267E-02  8.10105536E-02  2.35962985E-01  4.42653446E-01  3.57064423E-01
 -4.42115008E-05 -1.22591041E-03 -1.05517725E-02 -6.74452633E-02 -1.71198607E-01
  1.07329856E+00  1.00000000E+00  1.00000000E+00  1.00000000E+00  4.11634896E-02
  2.57762836E-01  8.02419274E-01  1.00000000E+00  1.00000000E+00  1.00000000E+00
  1.00000000E+00  1.00000000E+00  1.00000000E+00  1.00000000E+00  1.00000000E+00
  5.34563860E-04  4.13435660E-03  2.12335358E-02  8.25006224E-02  2.38138871E-01
  4.42551547E-01  3.53757422E-01 -4.89867350E-05 -1.19527323E-03 -1.03490714E-02
 -6.48680190E-02 -1.71552477E-01  1.07289568E+00  1.00000000E+00  1.00000000E+00
  1.00000000E+00  3.98072123E-02  2.49002660E-01  8.10479727E-01  1.00000000E+00
  1.00000000E+00  1.00000000E+00  1.00000000E+00  1.00000000E+00  1.00000000E+00
  1.00000000E+00  1.00000000E+00  5.19808943E-04  4.02025621E-03  2.07128267E-02
  8.10105536E-02  2.35962985E-01  4.42653446E-01  3.57064423E-01 -4.42115008E-05
 -1.22591041E-03 -1.05517725E-02 -6.74452633E-02 -1.71198607E-01  1.07329856E+00
  1.00000000E+00  1.00000000E+00  1.00000000E+00  4.11634896E-02  2.57762836E-01
  8.02419274E-01  1.00000000E+00  1.00000000E+00  1.00000000E+00  1.00000000E+00
  1.00000000E+00  1.00000000E+00  1.00000000E+00  1.00000000E+00
Coordinates of each shell                  R   N=         195
  2.92089417E+00  3.22233468E+00  3.86251689E-31  2.92089417E+00  3.22233468E+00
  3.86251689E-31  2.92089417E+00  3.22233468E+00  3.86251689E-31  2.92089417E+00
  3.22233468E+00  3.86251689E-31  2.92089417E+00  3.22233468E+00  3.86251689E-31
  2.92089417E+00  3.22233468E+00  3.86251689E-31  2.92089417E+00  3.22233468E+00
  3.86251689E-31  2.92089417E+00  3.22233468E+00  3.86251689E-31  2.92089417E+00
  3.22233468E+00  3.86251689E-31  2.74744632E+00  1.39946955E+00  4.26404084E-32
  2.74744632E+00  1.39946955E+00  4.26404084E-32  2.74744632E+00  1.39946955E+00
  4.26404084E-32  2.74744632E+00  1.39946955E+00  4.26404084E-32  2.74744632E+00
  1.39946955E+00  4.26404084E-32  2.74744632E+00  1.39946955E+00  4.26404084E-32
  2.74744632E+00  1.39946955E+00  4.26404084E-32  2.74744632E+00  1.39946955E+00
  4.26404084E-32  2.74744632E+00  1.39946955E+00  4.26404084E-32  2.74744632E+00
  1.39946955E+00  4.26404084E-32  2.74744632E+00  1.39946955E+00  4.26404084E-32
  2.74744632E+00  1.39946955E+00  4.26404084E-32  2.74744632E+00  1.39946955E+00
  4.26404084E-32  2.74744632E+00  1.39946955E+00  4.26404084E-32  1.73755418E-17
  1.29586579E+00  2.54702631E-31  1.73755418E-17  1.29586579E+00  2.54702631E-31
  1.73755418E-17  1.29586579E+00  2.54702631E-31  1.73755418E-17  1.29586579E+00
  2.54702631E-31  1.73755418E-17  1.29586579E+00  2.54702631E-31  1.73755418E-17
  1.29586579E+00  2.54702631E-31  1.73755418E-17  1.29586579E+00  2.54702631E-31
  1.73755418E-17  1.29586579E+00  2.54702631E-31  1.73755418E-17  1.29586579E+00
  2.54702631E-31  1.73755418E-17  1.29586579E+00  2.54702631E-31  1.73755418E-17
  1.29586579E+00  2.54702631E-31  1.73755418E-17  1.29586579E+00  2.54702631E-31
  1.73755418E-17  1.29586579E+00  2.54702631E-31  1.73755418E-17  1.29586579E+00
  2.54702631E-31 -4.94414526E-01 -1.46914563E+00 -2.46934854E-31 -4.94414526E-01
 -1.46914563E+00 -2.46934854E-31 -4.94414526E-01 -1.46914563E+00 -2.46934854E-31
 -4.94414526E-01 -1.46914563E+00 -2.46934854E-31 -4.94414526E-01 -1.46914563E+00
 -2.46934854E-31 -4.94414526E-01 -1.46914563E+00 -2.46934854E-31 -4.94414526E-01
 -1.46914563E+00 -2.46934854E-31 -4.94414526E-01 -1.46914563E+00 -2.46934854E-31
 -4.94414526E-01 -1.46914563E+00 -2.46934854E-31 -4.94414526E-01 -1.46914563E+00
 -2.46934854E-31 -4.94414526E-01 -1.46914563E+00 -2.46934854E-31 -4.94414526E-01
 -1.46914563E+00 -2.46934854E-31 -4.94414526E-01 -1.46914563E+00 -2.46934854E-31
 -4.94414526E-01 -1.46914563E+00 -2.46934854E-31 -2.67994538E+00 -1.81262475E+00
 -1.29556503E-31 -2.67994538E+00 -1.81262475E+00 -1.29556503E-31 -2.67994538E+00
 -1.81262475E+00 -1.29556503E-31 -2.67994538E+00 -1.81262475E+00 -1.29556503E-31
 -2.67994538E+00 -1.81262475E+00 -1.29556503E-31 -2.67994538E+00 -1.81262475E+00
 -1.29556503E-31 -2.67994538E+00 -1.81262475E+00 -1.29556503E-31 -2.67994538E+00
 -1.81262475E+00 -1.29556503E-31 -2.67994538E+00 -1.81262475E+00 -1.29556503E-31
 -2.67994538E+00 -1.81262475E+00 -1.29556503E-31 -2.67994538E+00 -1.81262475E+00
 -1.29556503E-31 -2.67994538E+00 -1.81262475E+00 -1.29556503E-31 -2.67994538E+00
 -1.81262475E+00 -1.29556503E-31 -2.67994538E+00 -1.81262475E+00 -1.29556503E-31
Num ILSW                                   I              100
ILSW                                       I   N=         100
           0           0           0           0           2           0
           0           0           0           0           0          -1
           5           0           0           0           2           0
           0           0           0           0           1           0
           1           0           0           0           0           0
           0           0      100000           0          -1           0
           0           0           0           0           0           0
           0           0           0           1           1           0
           0 -2000000000           1           0           0           0
           0           0           4          52           0           0
           0           0           0           0           0           0
           0           0           0           5           4           1
           0           0           0           0           0           0
           0           0           0           0           0           0
           0           0           0           0           0           0
           0           0           0           0           0           0
           0           0           0           0
Num RLSW                                   I               52
RLSW                                       R   N=          52
  1.00000000E+00  1.00000000E+00  1.00000000E+00  1.00000000E+00  1.00000000E+00
  0.00000000E+00  0.00000000E+00  1.00000000E+00  0.00000000E+00  0.00000000E+00
  0.00000000E+00  0.00000000E+00  1.00000000E+00  0.00000000E+00  0.00000000E+00
  0.00000000E+00  0.00000000E+00  1.00000000E+00  0.00000000E+00  0.00000000E+00
  0.00000000E+00  0.00000000E+00  1.00000000E+00  0.00000000E+00  0.00000000E+00
  0.00000000E+00  0.00000000E+00  1.00000000E+00  0.00000000E+00  0.00000000E+00
  0.00000000E+00  0.00000000E+00  1.00000000E+00  0.00000000E+00  0.00000000E+00
  0.00000000E+00  0.00000000E+00  0.00000000E+00  1.00000000E+00  1.00000000E+00
  0.00000000E+00  1.00000000E+00  0.00000000E+00  0.00000000E+00  0.00000000E+00
  0.00000000E+00  0.00000000E+00  0.00000000E+00  0.00000000E+00  0.00000000E+00
  0.00000000E+00  0.00000000E+00
MxBond                                     I                2
NBond                                      I   N=           5
           1           2           2           2           1
IBond                                      I   N=          10
           2           0           1           3           2           4
           3           5           4           0
RBond                                      R   N=          10
  1.00000000E+00  0.00000000E+00  1.00000000E+00  1.00000000E+00  1.00000000E+00
  1.00000000E+00  1.00000000E+00  2.00000000E+00  2.00000000E+00  0.00000000E+00
Virial Ratio                               R      2.002498051083396E+00
SCF Energy                                 R     -2.794988407452528E+02
MP2 Energy                                 R     -2.804465812593012E+02
Total Energy                               R     -2.804465812593012E+02
Post-SCF wavefunction norm                 R      1.585898949935241E+00
RMS Force                                  R      2.790266027693811E-03
RMS Density                                R      4.206257658351582E-09
NImag                                      I                1
Job Status                                 I                1
Nuclear derivative order                   I                2
External E-field                           R   N=          35
  0.00000000E+00  0.00000000E+00  0.00000000E+00  0.00000000E+00  0.00000000E+00
  0.00000000E+00  0.00000000E+00  0.00000000E+00  0.00000000E+00  0.00000000E+00
  0.00000000E+00  0.00000000E+00  0.00000000E+00  0.00000000E+00  0.00000000E+00
  0.00000000E+00  0.00000000E+00  0.00000000E+00  0.00000000E+00  0.00000000E+00
  0.00000000E+00  0.00000000E+00  0.00000000E+00  0.00000000E+00  0.00000000E+00
  0.00000000E+00  0.00000000E+00  0.00000000E+00  0.00000000E+00  0.00000000E+00
  0.00000000E+00  0.00000000E+00  0.00000000E+00  0.00000000E+00  0.00000000E+00
IOpCl                                      I                0
IROHF                                      I                0
Alpha Orbital Energies                     R   N=         207
 -2.06908053E+01 -2.06862179E+01 -2.06565986E+01 -1.58172963E+01 -1.62316768E+00
 -1.49167496E+00 -1.24618812E+00 -9.50311303E-01 -7.70632048E-01 -7.56145146E-01
 -7.07423704E-01 -6.80756420E-01 -6.21760804E-01 -5.87909708E-01 -4.82258330E-01
 -4.71111183E-01  3.03854575E-02  6.81248350E-02  8.54075790E-02  1.01387234E-01
  1.33791589E-01  1.34132375E-01  1.44656906E-01  1.55076040E-01  1.78861103E-01
  1.94005005E-01  1.99670575E-01  2.02194201E-01  2.21516133E-01  2.36593537E-01
  2.37071338E-01  2.65180873E-01  2.83035739E-01  3.04488612E-01  3.09727018E-01
  3.41391543E-01  3.48813987E-01  3.86916279E-01  4.22992317E-01  4.32608113E-01
  5.25958286E-01  5.28024159E-01  5.55539161E-01  5.80123434E-01  6.23920741E-01
  6.36705494E-01  6.73429297E-01  6.84497862E-01  7.07284046E-01  7.11707790E-01
  7.24441802E-01  7.31345930E-01  7.45717772E-01  7.89841416E-01  7.93047013E-01
  8.09233867E-01  8.14698318E-01  8.29365978E-01  8.66120047E-01  9.08178529E-01
  9.22986463E-01  9.24295423E-01  9.59199412E-01  9.73665728E-01  9.85765403E-01
  1.01882374E+00  1.05088432E+00  1.05335873E+00  1.07991491E+00  1.11553293E+00
  1.13853530E+00  1.18807371E+00  1.21990619E+00  1.23200339E+00  1.33578345E+00
  1.34524969E+00  1.38907746E+00  1.44916413E+00  1.48758899E+00  1.50992194E+00
  1.53618262E+00  1.56355152E+00  1.57470820E+00  1.61186400E+00  1.66182483E+00
  1.66965971E+00  1.70058400E+00  1.79290414E+00  1.82979875E+00  1.83002965E+00
  1.87908268E+00  1.90671882E+00  1.95573730E+00  1.98667806E+00  2.00218491E+00
  2.06928893E+00  2.11768970E+00  2.12820822E+00  2.15329108E+00  2.21907386E+00
  2.26169796E+00  2.26688004E+00  2.28701105E+00  2.31359080E+00  2.33730716E+00
  2.38603708E+00  2.42020122E+00  2.42236696E+00  2.45154368E+00  2.46000182E+00
  2.47191867E+00  2.49719135E+00  2.59201116E+00  2.59457667E+00  2.61430020E+00
  2.62227295E+00  2.63681191E+00  2.66493207E+00  2.75294199E+00  2.81119042E+00
  2.84332959E+00  2.87415168E+00  2.89576000E+00  2.90114637E+00  2.95655233E+00
  3.01531154E+00  3.05663757E+00  3.11428835E+00  3.20588991E+00  3.22411892E+00
  3.31193557E+00  3.33433530E+00  3.51241615E+00  3.63331047E+00  3.82527321E+00
  3.83856623E+00  4.14831871E+00  4.17032763E+00  4.18061679E+00  4.24595205E+00
  4.35191666E+00  4.39281246E+00  4.46528283E+00  4.51558734E+00  4.65200186E+00
  4.70600020E+00  4.79704218E+00  4.80835816E+00  4.83246084E+00  4.89269510E+00
  5.01393920E+00  5.06944367E+00  5.09126194E+00  5.14579901E+00  5.17087041E+00
  5.23591943E+00  5.26209380E+00  5.30267077E+00  5.32817648E+00  5.34376066E+00
  5.59727544E+00  5.66856394E+00  5.75229878E+00  5.83098198E+00  5.94381575E+00
  6.15658875E+00  6.30848322E+00  6.32733889E+00  6.39076055E+00  6.48694771E+00
  6.49962823E+00  6.61270408E+00  6.66909914E+00  6.69164079E+00  6.76186769E+00
  6.76350030E+00  6.82413533E+00  6.88991373E+00  7.00719985E+00  7.05268175E+00
  7.05958719E+00  7.09046931E+00  7.11614528E+00  7.14231495E+00  7.18056497E+00
  7.21110884E+00  7.24331159E+00  7.31250234E+00  7.32074699E+00  7.33892210E+00
  7.39093992E+00  7.41760220E+00  7.47728954E+00  7.59828203E+00  7.60347492E+00
  7.61254647E+00  7.65322751E+00  7.77822756E+00  7.88062419E+00  8.06169594E+00
  8.30179881E+00  8.40859909E+00  8.53154507E+00  1.33383150E+01  1.42508705E+01
  1.51400837E+01  1.61016741E+01
Alpha MO coefficients                      R   N=       42849
  3.71935462E-05 -9.72058008E-04 -4.82545968E-04 -1.30395119E-05 -2.27173222E-05
  1.68981855E-05  0.00000000E+00  4.82738549E-06  2.75321332E-04  0.00000000E+00
 -3.99566853E-05  1.33754616E-04  0.00000000E+00  2.55293926E-05  0.00000000E+00
  0.00000000E+00  1.37360754E-05  1.00753627E-05 -2.42353627E-05  0.00000000E+00
  0.00000000E+00  9.17826044E-06  2.97502859E-05  5.49705948E-05  8.62808153E-05
 -2.87523687E-05  7.03512311E-04  6.21984331E-04  8.88596793E-06  2.22948504E-06
  0.00000000E+00 -6.34665895E-05  2.00531465E-05  0.00000000E+00  3.45608751E-04
  8.57028781E-04  0.00000000E+00  9.41920074E-06  7.69233216E-05  0.00000000E+00
 -2.43202883E-06  0.00000000E+00  0.00000000E+00  4.75246446E-07 -6.99308897E-06
 -3.26741211E-05  0.00000000E+00  0.00000000E+00 -3.00404387E-05  8.68528950E-05
 -1.95793497E-05  0.00000000E+00  0.00000000E+00 -2.66509053E-04 -1.44538604E-04
  0.00000000E+00  8.39209402E-06  5.49847825E-06  0.00000000E+00  0.00000000E+00
  3.99638076E-06 -1.83625260E-05  0.00000000E+00 -4.20407738E-05 -3.58059441E-05
  0.00000000E+00  0.00000000E+00 -7.11046022E-05  1.26283711E-05 -3.58733013E-03
  9.80175995E-05 -1.84714170E-04 -1.09153372E-04 -4.86539197E-04 -2.04092441E-07
  2.42793985E-05  0.00000000E+00 -5.70667392E-05 -5.94108218E-05  0.00000000E+00
  2.56997758E-04 -7.78987140E-05  0.00000000E+00 -1.74684489E-04 -4.64273407E-05
  0.00000000E+00 -8.40807888E-06  0.00000000E+00  0.00000000E+00  2.02158335E-05
  1.74438049E-05 -1.19977109E-06  0.00000000E+00  0.00000000E+00 -9.75356829E-05
 -3.14023114E-05  3.15382236E-06  0.00000000E+00  0.00000000E+00 -1.77961265E-04
 -1.85396013E-04  0.00000000E+00  5.37384073E-06  1.48710695E-06  0.00000000E+00
  0.00000000E+00  5.43465556E-06 -1.76803515E-05  0.00000000E+00 -4.92884488E-05
 -2.43384324E-06  0.00000000E+00  0.00000000E+00 -7.42350021E-05  1.84558563E-04
  2.60278188E-04  1.46843283E-03 -8.16673601E-05 -1.44026775E-03  4.37391737E-04
 -1.46297703E-04 -9.74020672E-07  0.00000000E+00 -2.06287221E-03 -3.95750611E-04
  0.00000000E+00  1.01903994E-03  7.82272424E-04  0.00000000E+00 -1.73141618E-04
  5.89501787E-05  0.00000000E+00 -1.23423700E-04  0.00000000E+00  0.00000000E+00
  2.40426754E-04  9.41015968E-05 -4.44920674E-04  0.00000000E+00  0.00000000E+00
  8.98014744E-04 -3.47426784E-05  4.96532220E-06  0.00000000E+00  0.00000000E+00
 -3.33681149E-04 -1.11366858E-04  0.00000000E+00 -2.60939122E-06  1.53053627E-05
  0.00000000E+00  0.00000000E+00  1.73150654E-05  1.39756785E-05  0.00000000E+00
  1.69199865E-04 -6.62251480E-05  0.00000000E+00  0.00000000E+00 -2.51232837E-04
  2.94972531E-05  9.76652426E-01 -9.85413154E-03  4.35527250E-02  4.46793594E-03
 -4.56656805E-04  2.14199248E-03  4.82692920E-04  0.00000000E+00 -2.38105875E-03
 -6.03092919E-04  0.00000000E+00  1.14194422E-03  8.39086059E-06  0.00000000E+00
  2.84525667E-06 -3.95348257E-05  0.00000000E+00 -2.31803711E-04  0.00000000E+00
  0.00000000E+00  1.04571135E-04  3.10749230E-05  3.86078465E-04  0.00000000E+00
  0.00000000E+00 -8.26642858E-04 -4.16732636E-04 -1.57118114E-04  0.00000000E+00
  0.00000000E+00  2.62848020E-04  2.43576295E-05  0.00000000E+00  5.17522386E-05
  1.76401833E-05  0.00000000E+00  0.00000000E+00 -2.25458273E-05 -1.35304752E-05
  0.00000000E+00  1.35266562E-04  9.13914307E-06  0.00000000E+00  0.00000000E+00
 -1.87120204E-04 -1.38595751E-04  9.38604708E-05 -6.85799030E-04 -7.74828220E-04
 -5.14966118E-06 -2.32368037E-05 -2.67941091E-05  0.00000000E+00 -5.09611098E-05
  7.49192635E-05  0.00000000E+00  8.84112507E-05  5.13223173E-05  0.00000000E+00
  3.28678272E-05  0.00000000E+00  0.00000000E+00 -4.83927776E-05  2.24142551E-05
 -4.35643825E-06  0.00000000E+00  0.00000000E+00 -1.40772208E-04  1.17258443E-04
  4.78346037E-03 -2.78316438E-04  2.19031832E-05  1.54049618E-03  1.83352924E-03
  1.06304188E-04  8.27088009E-06  0.00000000E+00 -6.15068050E-04 -3.60777617E-05
  0.00000000E+00 -1.04886974E-03  8.18773441E-04  0.00000000E+00 -3.97648874E-04
  6.67620270E-05  0.00000000E+00  2.87157272E-05  0.00000000E+00  0.00000000E+00
 -5.47895761E-05  4.34950738E-06 -3.79084619E-04  0.00000000E+00  0.00000000E+00
  7.40615579E-04 -1.85350555E-05 -4.48594126E-04  0.00000000E+00  0.00000000E+00
  2.22094510E-04 -2.45955493E-06  0.00000000E+00  8.04774416E-05  1.31402127E-05
  0.00000000E+00  0.00000000E+00 -1.09849384E-04 -4.56564816E-06  0.00000000E+00
  2.54475247E-04 -2.69634530E-05  0.00000000E+00  0.00000000E+00 -3.60942673E-04
  4.14652649E-05  9.76923097E-01 -9.20141169E-03  4.32829852E-02  2.25786699E-03
 -8.22122495E-04  1.51249831E-03 -1.29123417E-03  0.00000000E+00 -1.46917887E-03
  1.28956484E-03  0.00000000E+00  1.18479295E-04 -1.23358837E-03  0.00000000E+00
 -1.38057921E-04 -2.91844040E-05  0.00000000E+00  5.34391254E-05  0.00000000E+00
  0.00000000E+00 -2.79825777E-05  1.90046189E-05  7.22681480E-04  0.00000000E+00
  0.00000000E+00 -2.73711809E-04 -3.71291305E-04 -3.79878685E-04  0.00000000E+00
  0.00000000E+00 -3.12772700E-04 -3.64575667E-04  0.00000000E+00  4.99652775E-05
 -4.59646833E-05  0.00000000E+00  0.00000000E+00 -3.74513500E-05 -1.47081012E-05
  0.00000000E+00  1.91443312E-05  3.34244064E-05  0.00000000E+00  0.00000000E+00
 -2.97816419E-04 -1.21495087E-04  3.09797770E-05 -3.38466007E-06 -2.39088665E-04
 -7.92684423E-04 -1.70188911E-04 -2.76135284E-05 -9.09077269E-05  0.00000000E+00
  2.37696451E-04  5.78345239E-04  0.00000000E+00 -8.54840106E-04 -6.17515823E-04
  0.00000000E+00 -1.28156026E-04 -4.09369843E-05  0.00000000E+00 -8.44384941E-06
  0.00000000E+00  0.00000000E+00 -8.54235686E-06  1.00886551E-05 -3.01537888E-04
  0.00000000E+00  0.00000000E+00 -7.71631709E-04  1.17523002E-04 -2.40431524E-05
  0.00000000E+00  0.00000000E+00  1.11006434E-04 -1.05019228E-04  0.00000000E+00
 -1.96062165E-05 -1.14748558E-04  0.00000000E+00  0.00000000E+00 -5.57718305E-05
 -1.34656616E-04  0.00000000E+00  1.19915742E-05 -1.41766606E-04  0.00000000E+00
  0.00000000E+00  6.69562429E-05 -4.25721465E-04  3.62617166E-03  6.67312425E-05
  1.51236252E-04 -2.53265827E-04  9.53003354E-05  6.39086444E-06 -2.77277826E-05
  0.00000000E+00  5.02691987E-05  1.73377276E-04  0.00000000E+00  2.07630632E-04
  2.41801342E-04  0.00000000E+00  1.15182529E-04  2.24649144E-05  0.00000000E+00
 -5.91456481E-06  0.00000000E+00  0.00000000E+00 -1.65151571E-05  5.39491866E-07
  6.86473477E-06  0.00000000E+00  0.00000000E+00  6.65642884E-05  9.90036910E-05
 -9.50542124E-05  0.00000000E+00  0.00000000E+00  1.58643616E-04  1.77067608E-04
  0.00000000E+00  1.51663434E-05 -5.41156257E-06  0.00000000E+00  0.00000000E+00
 -7.87181713E-06 -1.00111192E-05  0.00000000E+00 -2.76955949E-05  4.78863217E-05
  0.00000000E+00  0.00000000E+00  8.18213624E-05  9.38942915E-05  4.75317253E-04
  2.01779581E-03  8.21492985E-05  1.33520149E-05 -4.11179350E-05 -2.45694310E-04
  0.00000000E+00  1.18261861E-04 -1.25977383E-03  0.00000000E+00  3.09097571E-04
 -3.25055247E-04  0.00000000E+00 -1.51197189E-06  0.00000000E+00  0.00000000E+00
  7.67453061E-05  1.56869506E-05 -1.59421759E-04  0.00000000E+00  0.00000000E+00
 -5.36845101E-04 -2.72977296E-05  9.76829374E-01 -9.15824330E-03  4.34487008E-02
  1.94246898E-04 -1.09701505E-03 -1.56293460E-03  1.43335934E-03  0.00000000E+00
  1.57329935E-03 -1.27322211E-03  0.00000000E+00 -5.58922609E-04 -8.30162246E-04
  0.00000000E+00  5.43770698E-05 -2.24078234E-05  0.00000000E+00  2.93218609E-05
  0.00000000E+00  0.00000000E+00 -1.17169841E-04 -4.24971945E-06  7.53591448E-04
  0.00000000E+00  0.00000000E+00 -1.99070054E-04 -2.35576790E-04 -2.71589256E-04
  0.00000000E+00  0.00000000E+00  1.65091057E-04  1.27189225E-04  0.00000000E+00
 -6.41073801E-05  1.04076988E-06  0.00000000E+00  0.00000000E+00  1.89355417E-05