 Entering Gaussian System, Link 0=g16
 Input=hoono_a2_103p5573.gjf
 Output=hoono_a2_103p5573.log
 Initial command:
 /sw/contrib/gaussian/g16/B01/g16/l1.exe "/scr/Gau-26989.inp" -scrdir="/scr/"
 Entering Link 1 = /sw/contrib/gaussian/g16/B01/g16/l1.exe PID=     26990.
  
 Copyright (c) 1988-2017, Gaussian, Inc.  All Rights Reserved.
  
 This is part of the Gaussian(R) 16 program.  It is based on
 the Gaussian(R) 09 system (copyright 2009, Gaussian, Inc.),
 the Gaussian(R) 03 system (copyright 2003, Gaussian, Inc.),
 the Gaussian(R) 98 system (copyright 1998, Gaussian, Inc.),
 the Gaussian(R) 94 system (copyright 1995, Gaussian, Inc.),
 the Gaussian 92(TM) system (copyright 1992, Gaussian, Inc.),
 the Gaussian 90(TM) system (copyright 1990, Gaussian, Inc.),
 the Gaussian 88(TM) system (copyright 1988, Gaussian, Inc.),
 the Gaussian 86(TM) system (copyright 1986, Carnegie Mellon
 University), and the Gaussian 82(TM) system (copyright 1983,
 Carnegie Mellon University). Gaussian is a federally registered
 trademark of Gaussian, Inc.
  
 This software contains proprietary and confidential information,
 including trade secrets, belonging to Gaussian, Inc.
  
 This software is provided under written license and may be
 used, copied, transmitted, or stored only in accord with that
 written license.
  
 The following legend is applicable only to US Government
 contracts under FAR:
  
                    RESTRICTED RIGHTS LEGEND
  
 Use, reproduction and disclosure by the US Government is
 subject to restrictions as set forth in subparagraphs (a)
 and (c) of the Commercial Computer Software - Restricted
 Rights clause in FAR 52.227-19.
  
 Gaussian, Inc.
 340 Quinnipiac St., Bldg. 40, Wallingford CT 06492
  
  
 ---------------------------------------------------------------
 Warning -- This program may not be used in any manner that
 competes with the business of Gaussian, Inc. or will provide
 assistance to any competitor of Gaussian, Inc.  The licensee
 of this program is prohibited from giving any competitor of
 Gaussian, Inc. access to this program.  By using this program,
 the user acknowledges that Gaussian, Inc. is engaged in the
 business of creating and licensing software in the field of
 computational chemistry and represents and warrants to the
 licensee that it is not a competitor of Gaussian, Inc. and that
 it will not use this program in any manner prohibited above.
 ---------------------------------------------------------------
  

 Cite this work as:
 Gaussian 16, Revision B.01,
 M. J. Frisch, G. W. Trucks, H. B. Schlegel, G. E. Scuseria, 
 M. A. Robb, J. R. Cheeseman, G. Scalmani, V. Barone, 
 G. A. Petersson, H. Nakatsuji, X. Li, M. Caricato, A. V. Marenich, 
 J. Bloino, B. G. Janesko, R. Gomperts, B. Mennucci, H. P. Hratchian, 
 J. V. Ortiz, A. F. Izmaylov, J. L. Sonnenberg, D. Williams-Young, 
 F. Ding, F. Lipparini, F. Egidi, J. Goings, B. Peng, A. Petrone, 
 T. Henderson, D. Ranasinghe, V. G. Zakrzewski, J. Gao, N. Rega, 
 G. Zheng, W. Liang, M. Hada, M. Ehara, K. Toyota, R. Fukuda, 
 J. Hasegawa, M. Ishida, T. Nakajima, Y. Honda, O. Kitao, H. Nakai, 
 T. Vreven, K. Throssell, J. A. Montgomery, Jr., J. E. Peralta, 
 F. Ogliaro, M. J. Bearpark, J. J. Heyd, E. N. Brothers, K. N. Kudin, 
 V. N. Staroverov, T. A. Keith, R. Kobayashi, J. Normand, 
 K. Raghavachari, A. P. Rendell, J. C. Burant, S. S. Iyengar, 
 J. Tomasi, M. Cossi, J. M. Millam, M. Klene, C. Adamo, R. Cammi, 
 J. W. Ochterski, R. L. Martin, K. Morokuma, O. Farkas, 
 J. B. Foresman, and D. J. Fox, Gaussian, Inc., Wallingford CT, 2016.
 
 ******************************************
 Gaussian 16:  ES64L-G16RevB.01 20-Dec-2017
                21-Feb-2022 
 ******************************************
 %nproc=28
 Will use up to   28 processors via shared memory.
 %mem=120GB
 %chk=hoono_a2_103p5573.chk
 ---------------------------------------
 #p freq mp2/aug-cc-pvtz density=current
 ---------------------------------------
 1/10=4,30=1,38=1/1,3;
 2/12=2,17=6,18=5,40=1/2;
 3/5=16,6=1,7=10,11=9,25=1,30=1,71=2,140=1/1,2,3;
 4//1;
 5/5=2,38=5,98=1/2;
 8/6=3,8=1,10=1,19=11,30=-1/1;
 9/15=3,16=-3/6;
 11/6=1,8=1,15=11,17=12,24=-1,27=1,28=-2,29=300,32=6,42=3/1,2,10;
 10/6=2,21=1/2;
 8/6=4,8=1,10=1,19=11,30=-1/11,4;
 10/5=1,20=4/2;
 11/12=2,14=11,16=1,17=2,28=-2,42=3,76=2/2,10,12;
 6/7=2,8=2,9=2,10=2,22=-1/1;
 7/8=1,10=1,12=2,25=1,44=2/1,2,3,16;
 1/10=4,30=1/3;
 99//99;
 Leave Link    1 at Mon Feb 21 20:41:21 2022, MaxMem= 16106127360 cpu:               3.0 elap:               0.1
 (Enter /sw/contrib/gaussian/g16/B01/g16/l101.exe)
 -----
 title
 -----
 Symbolic Z-matrix:
 Charge =  0 Multiplicity = 1
 H
 O                    1    r1
 O                    2    r2       1    a1
 N                    3    r3       2    a2       1    d1       0
 O                    4    r4       3    a3       2    d2       0
       Variables:
  r1                    0.96898                  
  r2                    1.45492                  
  r3                    1.45878                  
  r4                    1.17073                  
  a1                   97.59495                  
  a2                  103.55733                  
  a3                  109.06955                  
  d1                  180.                       
  d2                  180.                       
 
 ITRead=  0  0  0  0  0
 MicOpt= -1 -1 -1 -1 -1
 NAtoms=      5 NQM=        5 NQMF=       0 NMMI=      0 NMMIF=      0
                NMic=       0 NMicF=      0.
                    Isotopes and Nuclear Properties:
 (Nuclear quadrupole moments (NQMom) in fm**2, nuclear magnetic moments (NMagM)
  in nuclear magnetons)

  Atom         1           2           3           4           5
 IAtWgt=           1          16          16          14          16
 AtmWgt=   1.0078250  15.9949146  15.9949146  14.0030740  15.9949146
 NucSpn=           1           0           0           2           0
 AtZEff=  -0.0000000  -0.0000000  -0.0000000  -0.0000000  -0.0000000
 NQMom=    0.0000000   0.0000000   0.0000000   2.0440000   0.0000000
 NMagM=    2.7928460   0.0000000   0.0000000   0.4037610   0.0000000
 AtZNuc=   1.0000000   8.0000000   8.0000000   7.0000000   8.0000000
 Leave Link  101 at Mon Feb 21 20:41:22 2022, MaxMem= 16106127360 cpu:               2.3 elap:               0.1
 (Enter /sw/contrib/gaussian/g16/B01/g16/l103.exe)

 GradGradGradGradGradGradGradGradGradGradGradGradGradGradGradGradGradGrad
 Berny optimization.
 Initialization pass.
                       ----------------------------
                       !    Initial Parameters    !
                       ! (Angstroms and Degrees)  !
 ----------------------                            ----------------------
 !      Name          Value   Derivative information (Atomic Units)     !
 ------------------------------------------------------------------------
 !       r1          0.969    calculate D2E/DX2 analytically            !
 !       r2          1.4549   calculate D2E/DX2 analytically            !
 !       r3          1.4588   calculate D2E/DX2 analytically            !
 !       r4          1.1707   calculate D2E/DX2 analytically            !
 !       a1         97.5949   calculate D2E/DX2 analytically            !
 !       a2        103.5573   calculate D2E/DX2 analytically            !
 !       a3        109.0696   calculate D2E/DX2 analytically            !
 !       d1        180.0      calculate D2E/DX2 analytically            !
 !       d2        180.0      calculate D2E/DX2 analytically            !
 ------------------------------------------------------------------------
 Trust Radius=3.00D-01 FncErr=1.00D-07 GrdErr=1.00D-07 EigMax=2.50D+02 EigMin=1.00D-04
 Number of steps in this run=      2 maximum allowed number of steps=      2.
 GradGradGradGradGradGradGradGradGradGradGradGradGradGradGradGradGradGrad

 Leave Link  103 at Mon Feb 21 20:41:22 2022, MaxMem= 16106127360 cpu:               1.2 elap:               0.1
 (Enter /sw/contrib/gaussian/g16/B01/g16/l202.exe)
                          Input orientation:                          
 ---------------------------------------------------------------------
 Center     Atomic      Atomic             Coordinates (Angstroms)
 Number     Number       Type             X           Y           Z
 ---------------------------------------------------------------------
      1          1           0        0.000000    0.000000    0.000000
      2          8           0        0.000000    0.000000    0.968976
      3          8           0        1.442156    0.000000    1.161271
      4          7           0        1.593688    0.000000    2.612163
      5          8           0        2.733916    0.000000    2.877653
 ---------------------------------------------------------------------
                    Distance matrix (angstroms):
                    1          2          3          4          5
     1  H    0.000000
     2  O    0.968976   0.000000
     3  O    1.851584   1.454919   0.000000
     4  N    3.059941   2.289084   1.458784   0.000000
     5  O    3.969280   3.334269   2.148165   1.170729   0.000000
 Stoichiometry    HNO3
 Framework group  CS[SG(HNO3)]
 Deg. of freedom     7
 Full point group                 CS      NOp   2
 Largest Abelian subgroup         CS      NOp   2
 Largest concise Abelian subgroup C1      NOp   1
                         Standard orientation:                         
 ---------------------------------------------------------------------
 Center     Atomic      Atomic             Coordinates (Angstroms)
 Number     Number       Type             X           Y           Z
 ---------------------------------------------------------------------
      1          1           0        1.524747    1.714444    0.000000
      2          8           0        1.452481    0.748167    0.000000
      3          8           0       -0.000000    0.663964    0.000000
      4          7           0       -0.259318   -0.771587   -0.000000
      5          8           0       -1.416171   -0.951299   -0.000000
 ---------------------------------------------------------------------
 Rotational constants (GHZ):          56.0508237           4.9650618           4.5610385
 Leave Link  202 at Mon Feb 21 20:41:22 2022, MaxMem= 16106127360 cpu:               2.2 elap:               0.1
 (Enter /sw/contrib/gaussian/g16/B01/g16/l301.exe)
 Standard basis: Aug-CC-pVTZ (5D, 7F)
 Ernie: Thresh=  0.10000D-02 Tol=  0.10000D-05 Strict=F.
 Ernie:  12 primitive shells out of 131 were deleted.
 There are   166 symmetry adapted cartesian basis functions of A'  symmetry.
 There are    79 symmetry adapted cartesian basis functions of A"  symmetry.
 There are   136 symmetry adapted basis functions of A'  symmetry.
 There are    71 symmetry adapted basis functions of A"  symmetry.
   207 basis functions,   315 primitive gaussians,   245 cartesian basis functions
    16 alpha electrons       16 beta electrons
       nuclear repulsion energy       116.7055712062 Hartrees.
 IExCor=    0 DFT=F Ex=HF Corr=None ExCW=0 ScaHFX=  1.000000
 ScaDFX=  1.000000  1.000000  1.000000  1.000000 ScalE2=  1.000000  1.000000
 IRadAn=      5 IRanWt=     -1 IRanGd=            0 ICorTp=0 IEmpDi=  4
 NAtoms=    5 NActive=    5 NUniq=    5 SFac= 1.00D+00 NAtFMM=   60 NAOKFM=F Big=F
 Integral buffers will be    131072 words long.
 Raffenetti 1 integral format.
 Two-electron integral symmetry is turned on.
 Leave Link  301 at Mon Feb 21 20:41:22 2022, MaxMem= 16106127360 cpu:               1.4 elap:               0.1
 (Enter /sw/contrib/gaussian/g16/B01/g16/l302.exe)
 NPDir=0 NMtPBC=     1 NCelOv=     1 NCel=       1 NClECP=     1 NCelD=      1
         NCelK=      1 NCelE2=     1 NClLst=     1 CellRange=     0.0.
 One-electron integrals computed using PRISM.
 One-electron integral symmetry used in STVInt
 NBasis=   207 RedAO= T EigKep=  1.81D-04  NBF=   136    71
 NBsUse=   207 1.00D-06 EigRej= -1.00D+00 NBFU=   136    71
 Leave Link  302 at Mon Feb 21 20:41:22 2022, MaxMem= 16106127360 cpu:               4.9 elap:               0.2
 (Enter /sw/contrib/gaussian/g16/B01/g16/l303.exe)
 DipDrv:  MaxL=1.
 Leave Link  303 at Mon Feb 21 20:41:22 2022, MaxMem= 16106127360 cpu:               2.3 elap:               0.1
 (Enter /sw/contrib/gaussian/g16/B01/g16/l401.exe)
 ExpMin= 2.53D-02 ExpMax= 1.53D+04 ExpMxC= 5.22D+02 IAcc=3 IRadAn=         5 AccDes= 0.00D+00
 Harris functional with IExCor=  205 and IRadAn=       5 diagonalized for initial guess.
 HarFok:  IExCor=  205 AccDes= 0.00D+00 IRadAn=         5 IDoV= 1 UseB2=F ITyADJ=14
 ICtDFT=  3500011 ScaDFX=  1.000000  1.000000  1.000000  1.000000
 FoFCou: FMM=F IPFlag=           0 FMFlag=      100000 FMFlg1=           0
         NFxFlg=           0 DoJE=T BraDBF=F KetDBF=T FulRan=T
         wScrn=  0.000000 ICntrl=       500 IOpCl=  0 I1Cent=   200000004 NGrid=           0
         NMat0=    1 NMatS0=      1 NMatT0=    0 NMatD0=    1 NMtDS0=    0 NMtDT0=    0
 Petite list used in FoFCou.
 Harris En= -279.628857258008    
 JPrj=0 DoOrth=F DoCkMO=F.
 Initial guess orbital symmetries:
       Occupied  (A') (A') (A') (A') (A') (A') (A') (A') (A') (A')
                 (A") (A') (A') (A") (A") (A')
       Virtual   (A") (A') (A') (A') (A') (A') (A") (A') (A') (A')
                 (A") (A') (A") (A') (A') (A") (A') (A") (A') (A')
                 (A') (A') (A') (A') (A') (A") (A') (A") (A') (A')
                 (A") (A') (A") (A') (A') (A") (A') (A") (A') (A')
                 (A") (A') (A") (A') (A") (A') (A') (A') (A") (A")
                 (A') (A') (A') (A') (A") (A') (A") (A') (A") (A')
                 (A') (A') (A") (A') (A') (A") (A') (A") (A') (A')
                 (A") (A') (A') (A") (A") (A') (A') (A") (A') (A')
                 (A') (A") (A') (A") (A') (A") (A') (A") (A') (A')
                 (A') (A") (A') (A") (A') (A") (A") (A') (A') (A')
                 (A") (A') (A") (A') (A') (A') (A") (A') (A") (A')
                 (A") (A') (A') (A') (A") (A') (A') (A') (A") (A')
                 (A") (A') (A') (A") (A") (A') (A") (A') (A") (A')
                 (A') (A') (A') (A") (A") (A') (A") (A') (A') (A')
                 (A') (A") (A") (A') (A') (A") (A') (A') (A') (A')
                 (A") (A') (A') (A") (A') (A") (A') (A") (A') (A")
                 (A') (A") (A') (A") (A') (A") (A") (A") (A') (A')
                 (A") (A') (A") (A') (A") (A') (A") (A") (A') (A')
                 (A') (A') (A') (A') (A') (A') (A') (A') (A') (A')
                 (A')
 The electronic state of the initial guess is 1-A'.
 Leave Link  401 at Mon Feb 21 20:41:22 2022, MaxMem= 16106127360 cpu:               6.6 elap:               0.3
 (Enter /sw/contrib/gaussian/g16/B01/g16/l502.exe)
 Keep R1 ints in memory in symmetry-blocked form, NReq=348887737.
 FoFCou: FMM=F IPFlag=           0 FMFlag=           0 FMFlg1=           0
         NFxFlg=           0 DoJE=F BraDBF=F KetDBF=F FulRan=T
         wScrn=  0.000000 ICntrl=       600 IOpCl=  0 I1Cent=           0 NGrid=           0
         NMat0=    1 NMatS0=  21528 NMatT0=    0 NMatD0=    1 NMtDS0=    0 NMtDT0=    0
 Petite list used in FoFCou.
 Closed shell SCF:
 Using DIIS extrapolation, IDIIS=  1040.
 NGot= 16106127360 LenX= 15988850015 LenY= 15988789549
 Requested convergence on RMS density matrix=1.00D-08 within 128 cycles.
 Requested convergence on MAX density matrix=1.00D-06.
 Requested convergence on             energy=1.00D-06.
 No special actions if energy rises.

 Cycle   1  Pass 1  IDiag  1:
 E= -279.370655166863    
 DIIS: error= 2.47D-02 at cycle   1 NSaved=   1.
 NSaved= 1 IEnMin= 1 EnMin= -279.370655166863     IErMin= 1 ErrMin= 2.47D-02
 ErrMax= 2.47D-02  0.00D+00 EMaxC= 1.00D-01 BMatC= 4.38D-01 BMatP= 4.38D-01
 IDIUse=3 WtCom= 7.53D-01 WtEn= 2.47D-01
 Coeff-Com:  0.100D+01
 Coeff-En:   0.100D+01
 Coeff:      0.100D+01
 Gap=     0.512 Goal=   None    Shift=    0.000
 GapD=    0.512 DampG=2.000 DampE=0.500 DampFc=1.0000 IDamp=-1.
 RMSDP=1.62D-03 MaxDP=9.95D-02              OVMax= 1.12D-01

 Cycle   2  Pass 1  IDiag  1:
 E= -279.452568832850     Delta-E=       -0.081913665988 Rises=F Damp=F
 DIIS: error= 1.78D-02 at cycle   2 NSaved=   2.
 NSaved= 2 IEnMin= 2 EnMin= -279.452568832850     IErMin= 2 ErrMin= 1.78D-02
 ErrMax= 1.78D-02  0.00D+00 EMaxC= 1.00D-01 BMatC= 7.15D-02 BMatP= 4.38D-01
 IDIUse=3 WtCom= 8.22D-01 WtEn= 1.78D-01
 Coeff-Com:  0.194D+00 0.806D+00
 Coeff-En:   0.000D+00 0.100D+01
 Coeff:      0.160D+00 0.840D+00
 Gap=     0.529 Goal=   None    Shift=    0.000
 RMSDP=8.99D-04 MaxDP=3.73D-02 DE=-8.19D-02 OVMax= 6.93D-02

 Cycle   3  Pass 1  IDiag  1:
 E= -279.481550120287     Delta-E=       -0.028981287437 Rises=F Damp=F
 DIIS: error= 1.04D-02 at cycle   3 NSaved=   3.
 NSaved= 3 IEnMin= 3 EnMin= -279.481550120287     IErMin= 3 ErrMin= 1.04D-02
 ErrMax= 1.04D-02  0.00D+00 EMaxC= 1.00D-01 BMatC= 2.87D-02 BMatP= 7.15D-02
 IDIUse=3 WtCom= 8.96D-01 WtEn= 1.04D-01
 Coeff-Com: -0.330D-01 0.379D+00 0.654D+00
 Coeff-En:   0.000D+00 0.241D+00 0.759D+00
 Coeff:     -0.296D-01 0.364D+00 0.665D+00
 Gap=     0.510 Goal=   None    Shift=    0.000
 RMSDP=3.77D-04 MaxDP=1.55D-02 DE=-2.90D-02 OVMax= 3.81D-02

 Cycle   4  Pass 1  IDiag  1:
 E= -279.500628868203     Delta-E=       -0.019078747916 Rises=F Damp=F
 DIIS: error= 1.34D-03 at cycle   4 NSaved=   4.
 NSaved= 4 IEnMin= 4 EnMin= -279.500628868203     IErMin= 4 ErrMin= 1.34D-03
 ErrMax= 1.34D-03  0.00D+00 EMaxC= 1.00D-01 BMatC= 4.94D-04 BMatP= 2.87D-02
 IDIUse=3 WtCom= 9.87D-01 WtEn= 1.34D-02
 Coeff-Com: -0.117D-01 0.577D-01 0.159D+00 0.795D+00
 Coeff-En:   0.000D+00 0.000D+00 0.000D+00 0.100D+01
 Coeff:     -0.115D-01 0.569D-01 0.156D+00 0.798D+00
 Gap=     0.502 Goal=   None    Shift=    0.000
 RMSDP=9.04D-05 MaxDP=2.78D-03 DE=-1.91D-02 OVMax= 1.12D-02

 Cycle   5  Pass 1  IDiag  1:
 E= -279.501307273791     Delta-E=       -0.000678405588 Rises=F Damp=F
 DIIS: error= 7.49D-04 at cycle   5 NSaved=   5.
 NSaved= 5 IEnMin= 5 EnMin= -279.501307273791     IErMin= 5 ErrMin= 7.49D-04
 ErrMax= 7.49D-04  0.00D+00 EMaxC= 1.00D-01 BMatC= 8.76D-05 BMatP= 4.94D-04
 IDIUse=3 WtCom= 9.93D-01 WtEn= 7.49D-03
 Coeff-Com:  0.614D-02-0.727D-01-0.118D+00 0.211D-01 0.116D+01
 Coeff-En:   0.000D+00 0.000D+00 0.000D+00 0.000D+00 0.100D+01
 Coeff:      0.610D-02-0.721D-01-0.117D+00 0.210D-01 0.116D+01
 Gap=     0.502 Goal=   None    Shift=    0.000
 RMSDP=7.66D-05 MaxDP=2.11D-03 DE=-6.78D-04 OVMax= 1.12D-02

 Cycle   6  Pass 1  IDiag  1:
 E= -279.501624602610     Delta-E=       -0.000317328819 Rises=F Damp=F
 DIIS: error= 2.86D-04 at cycle   6 NSaved=   6.
 NSaved= 6 IEnMin= 6 EnMin= -279.501624602610     IErMin= 6 ErrMin= 2.86D-04
 ErrMax= 2.86D-04  0.00D+00 EMaxC= 1.00D-01 BMatC= 1.68D-05 BMatP= 8.76D-05
 IDIUse=3 WtCom= 9.97D-01 WtEn= 2.86D-03
 Coeff-Com:  0.580D-03 0.184D-02 0.489D-02-0.131D+00-0.233D+00 0.136D+01
 Coeff-En:   0.000D+00 0.000D+00 0.000D+00 0.000D+00 0.000D+00 0.100D+01
 Coeff:      0.578D-03 0.183D-02 0.487D-02-0.131D+00-0.232D+00 0.136D+01
 Gap=     0.502 Goal=   None    Shift=    0.000
 RMSDP=4.56D-05 MaxDP=1.26D-03 DE=-3.17D-04 OVMax= 5.59D-03

 Cycle   7  Pass 1  IDiag  1:
 E= -279.501698140857     Delta-E=       -0.000073538248 Rises=F Damp=F
 DIIS: error= 1.23D-04 at cycle   7 NSaved=   7.
 NSaved= 7 IEnMin= 7 EnMin= -279.501698140857     IErMin= 7 ErrMin= 1.23D-04
 ErrMax= 1.23D-04  0.00D+00 EMaxC= 1.00D-01 BMatC= 4.49D-06 BMatP= 1.68D-05
 IDIUse=3 WtCom= 9.99D-01 WtEn= 1.23D-03
 Coeff-Com: -0.948D-03 0.136D-01 0.266D-01-0.238D-01-0.286D+00 0.383D+00
 Coeff-Com:  0.887D+00
 Coeff-En:   0.000D+00 0.000D+00 0.000D+00 0.000D+00 0.000D+00 0.000D+00
 Coeff-En:   0.100D+01
 Coeff:     -0.946D-03 0.136D-01 0.266D-01-0.238D-01-0.285D+00 0.383D+00
 Coeff:      0.887D+00
 Gap=     0.502 Goal=   None    Shift=    0.000
 RMSDP=1.34D-05 MaxDP=3.82D-04 DE=-7.35D-05 OVMax= 1.56D-03

 Cycle   8  Pass 1  IDiag  1:
 E= -279.501707106235     Delta-E=       -0.000008965377 Rises=F Damp=F
 DIIS: error= 5.89D-05 at cycle   8 NSaved=   8.
 NSaved= 8 IEnMin= 8 EnMin= -279.501707106235     IErMin= 8 ErrMin= 5.89D-05
 ErrMax= 5.89D-05  0.00D+00 EMaxC= 1.00D-01 BMatC= 6.13D-07 BMatP= 4.49D-06
 IDIUse=1 WtCom= 1.00D+00 WtEn= 0.00D+00
 Coeff-Com: -0.450D-03 0.347D-02 0.763D-02 0.275D-01-0.411D-01-0.198D+00
 Coeff-Com:  0.177D+00 0.102D+01
 Coeff:     -0.450D-03 0.347D-02 0.763D-02 0.275D-01-0.411D-01-0.198D+00
 Coeff:      0.177D+00 0.102D+01
 Gap=     0.502 Goal=   None    Shift=    0.000
 RMSDP=6.95D-06 MaxDP=2.04D-04 DE=-8.97D-06 OVMax= 7.52D-04

 Cycle   9  Pass 1  IDiag  1:
 E= -279.501708899915     Delta-E=       -0.000001793680 Rises=F Damp=F
 DIIS: error= 1.51D-05 at cycle   9 NSaved=   9.
 NSaved= 9 IEnMin= 9 EnMin= -279.501708899915     IErMin= 9 ErrMin= 1.51D-05
 ErrMax= 1.51D-05  0.00D+00 EMaxC= 1.00D-01 BMatC= 7.09D-08 BMatP= 6.13D-07
 IDIUse=1 WtCom= 1.00D+00 WtEn= 0.00D+00
 Coeff-Com:  0.123D-03-0.173D-02-0.308D-02-0.191D-02 0.342D-01-0.756D-03
 Coeff-Com: -0.169D+00-0.947D-01 0.124D+01
 Coeff:      0.123D-03-0.173D-02-0.308D-02-0.191D-02 0.342D-01-0.756D-03
 Coeff:     -0.169D+00-0.947D-01 0.124D+01
 Gap=     0.502 Goal=   None    Shift=    0.000
 RMSDP=1.96D-06 MaxDP=6.66D-05 DE=-1.79D-06 OVMax= 1.76D-04

 Cycle  10  Pass 1  IDiag  1:
 E= -279.501709062960     Delta-E=       -0.000000163045 Rises=F Damp=F
 DIIS: error= 4.02D-06 at cycle  10 NSaved=  10.
 NSaved=10 IEnMin=10 EnMin= -279.501709062960     IErMin=10 ErrMin= 4.02D-06
 ErrMax= 4.02D-06  0.00D+00 EMaxC= 1.00D-01 BMatC= 5.63D-09 BMatP= 7.09D-08
 IDIUse=1 WtCom= 1.00D+00 WtEn= 0.00D+00
 Coeff-Com:  0.319D-04-0.252D-03-0.341D-03-0.274D-02 0.178D-02 0.199D-01
 Coeff-Com: -0.142D-01-0.748D-01-0.769D-01 0.115D+01
 Coeff:      0.319D-04-0.252D-03-0.341D-03-0.274D-02 0.178D-02 0.199D-01
 Coeff:     -0.142D-01-0.748D-01-0.769D-01 0.115D+01
 Gap=     0.502 Goal=   None    Shift=    0.000
 RMSDP=5.11D-07 MaxDP=2.13D-05 DE=-1.63D-07 OVMax= 4.18D-05

 Cycle  11  Pass 1  IDiag  1:
 E= -279.501709075717     Delta-E=       -0.000000012758 Rises=F Damp=F
 DIIS: error= 2.04D-06 at cycle  11 NSaved=  11.
 NSaved=11 IEnMin=11 EnMin= -279.501709075717     IErMin=11 ErrMin= 2.04D-06
 ErrMax= 2.04D-06  0.00D+00 EMaxC= 1.00D-01 BMatC= 6.70D-10 BMatP= 5.63D-09
 IDIUse=1 WtCom= 1.00D+00 WtEn= 0.00D+00
 Coeff-Com: -0.214D-04 0.246D-03 0.490D-03 0.530D-03-0.429D-02-0.361D-02
 Coeff-Com:  0.214D-01 0.305D-01-0.138D+00-0.181D+00 0.127D+01
 Coeff:     -0.214D-04 0.246D-03 0.490D-03 0.530D-03-0.429D-02-0.361D-02
 Coeff:      0.214D-01 0.305D-01-0.138D+00-0.181D+00 0.127D+01
 Gap=     0.502 Goal=   None    Shift=    0.000
 RMSDP=1.80D-07 MaxDP=6.66D-06 DE=-1.28D-08 OVMax= 1.75D-05

 Cycle  12  Pass 1  IDiag  1:
 E= -279.501709077557     Delta-E=       -0.000000001840 Rises=F Damp=F
 DIIS: error= 6.00D-07 at cycle  12 NSaved=  12.
 NSaved=12 IEnMin=12 EnMin= -279.501709077557     IErMin=12 ErrMin= 6.00D-07
 ErrMax= 6.00D-07  0.00D+00 EMaxC= 1.00D-01 BMatC= 7.29D-11 BMatP= 6.70D-10
 IDIUse=1 WtCom= 1.00D+00 WtEn= 0.00D+00
 Coeff-Com:  0.125D-05-0.295D-04-0.634D-04 0.183D-03 0.108D-02-0.230D-02
 Coeff-Com: -0.416D-02 0.552D-02 0.417D-01-0.111D+00-0.287D+00 0.136D+01
 Coeff:      0.125D-05-0.295D-04-0.634D-04 0.183D-03 0.108D-02-0.230D-02
 Coeff:     -0.416D-02 0.552D-02 0.417D-01-0.111D+00-0.287D+00 0.136D+01
 Gap=     0.502 Goal=   None    Shift=    0.000
 RMSDP=7.29D-08 MaxDP=2.89D-06 DE=-1.84D-09 OVMax= 6.73D-06

 Cycle  13  Pass 1  IDiag  1:
 E= -279.501709077790     Delta-E=       -0.000000000233 Rises=F Damp=F
 DIIS: error= 1.71D-07 at cycle  13 NSaved=  13.
 NSaved=13 IEnMin=13 EnMin= -279.501709077790     IErMin=13 ErrMin= 1.71D-07
 ErrMax= 1.71D-07  0.00D+00 EMaxC= 1.00D-01 BMatC= 4.08D-12 BMatP= 7.29D-11
 IDIUse=1 WtCom= 1.00D+00 WtEn= 0.00D+00
 Coeff-Com:  0.129D-05-0.141D-04-0.226D-04-0.896D-04 0.122D-03 0.767D-03
 Coeff-Com: -0.860D-03-0.324D-02 0.517D-03 0.408D-01-0.339D-01-0.329D+00
 Coeff-Com:  0.132D+01
 Coeff:      0.129D-05-0.141D-04-0.226D-04-0.896D-04 0.122D-03 0.767D-03
 Coeff:     -0.860D-03-0.324D-02 0.517D-03 0.408D-01-0.339D-01-0.329D+00
 Coeff:      0.132D+01
 Gap=     0.502 Goal=   None    Shift=    0.000
 RMSDP=1.94D-08 MaxDP=5.63D-07 DE=-2.33D-10 OVMax= 1.57D-06

 Cycle  14  Pass 1  IDiag  1:
 E= -279.501709077804     Delta-E=       -0.000000000014 Rises=F Damp=F
 DIIS: error= 2.46D-08 at cycle  14 NSaved=  14.
 NSaved=14 IEnMin=14 EnMin= -279.501709077804     IErMin=14 ErrMin= 2.46D-08
 ErrMax= 2.46D-08  0.00D+00 EMaxC= 1.00D-01 BMatC= 1.96D-13 BMatP= 4.08D-12
 IDIUse=1 WtCom= 1.00D+00 WtEn= 0.00D+00
 Coeff-Com: -0.188D-06 0.310D-05 0.554D-05 0.448D-05-0.820D-04 0.455D-04
 Coeff-Com:  0.283D-03 0.215D-03-0.241D-02 0.136D-02 0.171D-01-0.257D-01
 Coeff-Com: -0.198D+00 0.121D+01
 Coeff:     -0.188D-06 0.310D-05 0.554D-05 0.448D-05-0.820D-04 0.455D-04
 Coeff:      0.283D-03 0.215D-03-0.241D-02 0.136D-02 0.171D-01-0.257D-01
 Coeff:     -0.198D+00 0.121D+01
 Gap=     0.502 Goal=   None    Shift=    0.000
 RMSDP=3.80D-09 MaxDP=9.26D-08 DE=-1.35D-11 OVMax= 3.41D-07

 SCF Done:  E(RHF) =  -279.501709078     A.U. after   14 cycles
            NFock= 14  Conv=0.38D-08     -V/T= 2.0024
 KE= 2.788382854365D+02 PE=-8.947290073164D+02 EE= 2.196834415958D+02
 Leave Link  502 at Mon Feb 21 20:41:26 2022, MaxMem= 16106127360 cpu:              55.1 elap:               3.7
 (Enter /sw/contrib/gaussian/g16/B01/g16/l801.exe)
 ExpMin= 2.53D-02 ExpMax= 1.53D+04 ExpMxC= 5.22D+02 IAcc=3 IRadAn=         5 AccDes= 0.00D+00
 HarFok:  IExCor=  205 AccDes= 0.00D+00 IRadAn=         5 IDoV=-2 UseB2=F ITyADJ=14
 ICtDFT= 12500011 ScaDFX=  1.000000  1.000000  1.000000  1.000000
 Largest valence mixing into a core orbital is  2.08D-04
 Largest core mixing into a valence orbital is  3.62D-05
 Range of M.O.s used for correlation:     5   207
 NBasis=   207 NAE=    16 NBE=    16 NFC=     4 NFV=     0
 NROrb=    203 NOA=    12 NOB=    12 NVA=   191 NVB=   191

 **** Warning!!: The largest alpha MO coefficient is  0.17308648D+02

 Leave Link  801 at Mon Feb 21 20:41:26 2022, MaxMem= 16106127360 cpu:               2.2 elap:               0.1
 (Enter /sw/contrib/gaussian/g16/B01/g16/l906.exe)
 Frozen-core derivative calculation, NFC=   4 NFV=   0.
 FulOut=F Deriv=T AODrv=T NAtomX=     5
   MMem=           0  MDisk=          12 MDiskD=          12
  W3Min=      811440 MinDsk=     2425030 NBas6D=         245
 NBas2D=       30762    NTT=       30135    LW2=     7400000
    MDV= 16105574311 MDiskM=      328644 NBas2p=       30702
 Disk-based method using ON**2 memory for 12 occupieds at a time.
 Permanent disk used for amplitudes=    11516536 words.
 Estimated scratch disk usage=   321251614 words.
 IMap=   1   2   3   4   5   6   7   8   9  10  11  12  13  14  15  16
 Actual    scratch disk usage=   310331678 words.
 JobTyp=1 Pass  1:  I=   5 to  16 NPSUse= 28 ParTrn=T ParDer=T DoDerP=T.
 (rs|ai) integrals will be sorted in core.
 Spin components of T(2) and E(2):
     alpha-alpha T2 =       0.3403054268D-01 E2=     -0.1223917456D+00
     alpha-beta  T2 =       0.1868508018D+00 E2=     -0.7001739665D+00
     beta-beta   T2 =       0.3403054268D-01 E2=     -0.1223917456D+00
 The integrals were generated   1 times.
 ANorm=    0.1120228498D+01
 E2 =    -0.9449574576D+00 EUMP2 =    -0.28044666653544D+03
 Leave Link  906 at Mon Feb 21 20:43:03 2022, MaxMem= 16106127360 cpu:            2698.7 elap:              96.5
 (Enter /sw/contrib/gaussian/g16/B01/g16/l1101.exe)
 Using compressed Sx but separate Hx and Fx, NAtomX=     5.
 Will process      6 centers per pass.
 Leave Link 1101 at Mon Feb 21 20:43:03 2022, MaxMem= 16106127360 cpu:               5.1 elap:               0.2
 (Enter /sw/contrib/gaussian/g16/B01/g16/l1102.exe)
 Leave Link 1102 at Mon Feb 21 20:43:03 2022, MaxMem= 16106127360 cpu:               0.6 elap:               0.0
 (Enter /sw/contrib/gaussian/g16/B01/g16/l1110.exe)
 Forming Gx(P) for the SCF density, NAtomX=     5.
 Integral derivatives from FoFJK, PRISM(SPDF).
 Do as many integral derivatives as possible in FoFJK.
 G2DrvN: MDV=   16106126844.
 G2DrvN: will do     6 centers at a time, making    1 passes.
 Calling FoFCou, ICntrl=  3107 FMM=F I1Cent=   0 AccDes= 0.00D+00.
 FoFJK:  IHMeth= 1 ICntrl=    3107 DoSepK=F KAlg= 0 I1Cent=           0 FoldK=F
 IRaf=         0 NMat=       1 IRICut=       1 DoRegI=T DoRafI=F ISym2E= 1 IDoP0=0 IntGTp=1.
 FoFCou: FMM=F IPFlag=           0 FMFlag=      100000 FMFlg1=           0
         NFxFlg=           0 DoJE=F BraDBF=F KetDBF=F FulRan=T
         wScrn=  0.000000 ICntrl=      3107 IOpCl=  0 I1Cent=           0 NGrid=           0
         NMat0=    1 NMatS0=      1 NMatT0=    0 NMatD0=    1 NMtDS0=    0 NMtDT0=    0
 Petite list used in FoFCou.
 End of G2Drv F.D. properties file   721 does not exist.
 End of G2Drv F.D. properties file   722 does not exist.
 End of G2Drv F.D. properties file   788 does not exist.
 Leave Link 1110 at Mon Feb 21 20:43:06 2022, MaxMem= 16106127360 cpu:              83.5 elap:               3.0
 (Enter /sw/contrib/gaussian/g16/B01/g16/l1002.exe)
 Minotr:  Closed shell wavefunction.
          IDoAtm=11111
          Frozen-core window.
          Direct CPHF calculation.
          Differentiating once with respect to electric field.
                with respect to dipole field.
          Differentiating once with respect to nuclear coordinates.
          Requested convergence is 1.0D-08 RMS, and 1.0D-07 maximum.
          Secondary convergence is 1.0D-12 RMS, and 1.0D-12 maximum.
          NewPWx=T KeepS1=T KeepF1=T KeepIn=T MapXYZ=F SortEE=F KeepMc=T.
 Keep R1 ints in memory in symmetry-blocked form, NReq=348888983.
 FoFCou: FMM=F IPFlag=           0 FMFlag=           0 FMFlg1=           0
         NFxFlg=           0 DoJE=F BraDBF=F KetDBF=F FulRan=T
         wScrn=  0.000000 ICntrl=       600 IOpCl=  0 I1Cent=           0 NGrid=           0
         NMat0=    1 NMatS0=  21528 NMatT0=    0 NMatD0=    1 NMtDS0=    0 NMtDT0=    0
 Petite list used in FoFCou.
          MDV=   16106127360 using IRadAn=       1.
          Solving linear equations simultaneously, MaxMat=       0.
          There are    18 degrees of freedom in the 1st order CPHF.  IDoFFX=6 NUNeed=    18.
     15 vectors produced by pass  0 Test12= 1.70D-14 5.56D-09 XBig12= 8.29D+00 1.06D+00.
 AX will form    15 AO Fock derivatives at one time.
     15 vectors produced by pass  1 Test12= 1.70D-14 5.56D-09 XBig12= 1.34D+00 2.52D-01.
     15 vectors produced by pass  2 Test12= 1.70D-14 5.56D-09 XBig12= 1.42D-01 9.88D-02.
     15 vectors produced by pass  3 Test12= 1.70D-14 5.56D-09 XBig12= 4.99D-03 1.11D-02.
     15 vectors produced by pass  4 Test12= 1.70D-14 5.56D-09 XBig12= 9.91D-05 1.91D-03.
     15 vectors produced by pass  5 Test12= 1.70D-14 5.56D-09 XBig12= 1.38D-06 1.76D-04.
     15 vectors produced by pass  6 Test12= 1.70D-14 5.56D-09 XBig12= 1.09D-08 1.51D-05.
     12 vectors produced by pass  7 Test12= 1.70D-14 5.56D-09 XBig12= 8.13D-11 1.28D-06.
      3 vectors produced by pass  8 Test12= 1.70D-14 5.56D-09 XBig12= 5.77D-13 1.19D-07.
      2 vectors produced by pass  9 Test12= 1.70D-14 5.56D-09 XBig12= 3.82D-15 1.01D-08.
 InvSVY:  IOpt=1 It=  1 EMax= 6.66D-16
 Solved reduced A of dimension   122 with    15 vectors.
 FullF1:  Do perturbations      1 to      18.
 Saving first derivative matrices.
 End of Minotr F.D. properties file   721 does not exist.
 End of Minotr F.D. properties file   722 does not exist.
 End of Minotr F.D. properties file   788 does not exist.
 Leave Link 1002 at Mon Feb 21 20:43:09 2022, MaxMem= 16106127360 cpu:              79.1 elap:               2.9
 (Enter /sw/contrib/gaussian/g16/B01/g16/l811.exe)
 MDV= 16106127360.
 Form MO integral derivatives with frozen-active canonical formalism.
 MOERI=1 MOERIx=1 NAtoms=     5 NAtomX=     5.
 Discarding MO integrals.
 MO basis two electron integral derivatives will not be stored on disk.
 IAlg= 3 DoFC=T DoPWx=T Debug=F.
 Frozen-core window:  NFC=   4 NFV=   0.
 Reordered first order wavefunction length =     18678272
 In DefCFB: NBatch=  1 ICI= 16 ICA=191 LFMax= 96
            Large arrays: LIAPS=   619940160 LIARS=   288257200 words.
 In StABat: MaxSiz= 55 MinSiz= 25 NAtomB=  5
 DoIAMN: NPSUse= 28.
 Leave Link  811 at Mon Feb 21 20:44:29 2022, MaxMem= 16106127360 cpu:            2241.9 elap:              80.2
 (Enter /sw/contrib/gaussian/g16/B01/g16/l804.exe)
 Frozen-core window:  NFC=   4 NFV=   0.
 Closed-shell transformation, MDV= 16106127360 ITran=4 ISComp=1.
 Semi-Direct transformation.
 ModeAB=           2 MOrb=            16 LenV=   16104923065
 LASXX=     67341636 LTotXX=    67341636 LenRXX=    67341636
 LTotAB=    68301760 MaxLAS=    99807120 LenRXY=    99807120
 NonZer=   134683272 LenScr=   202817536 LnRSAI=           0
 LnScr1=           0 LExtra=           0 Total=    369966292
 MaxDsk=          -1 SrtSym=           F ITran=            4
 DoSDTr:  NPSUse= 28
 JobTyp=0 Pass  1:  I=   1 to  16.
 (rs|ai) integrals will be sorted in core.
 Complete sort for first half transformation.
 First half transformation complete.
 Begin second half transformation for I=  10.
 Begin second half transformation for I=  10.
 Complete sort for second half transformation.
 Second half transformation complete.
 Spin components of T(2) and E(2):
     alpha-alpha T2 =       0.3403054268D-01 E2=     -0.1223917456D+00
     alpha-beta  T2 =       0.1868508018D+00 E2=     -0.7001739665D+00
     beta-beta   T2 =       0.3403054268D-01 E2=     -0.1223917456D+00
 ANorm=    0.1584242334D+01
 E2 =    -0.9449574576D+00 EUMP2 =    -0.28044666653544D+03
 Leave Link  804 at Mon Feb 21 20:44:45 2022, MaxMem= 16106127360 cpu:             441.0 elap:              15.8
 (Enter /sw/contrib/gaussian/g16/B01/g16/l1002.exe)
 Minotr:  Closed shell wavefunction.
          Computing MP2/KS-MP2 derivatives.
          Using Z-Vector for PSCF gradient.
          Skipping F1 and S1 gradient terms here.
          IDoAtm=11111
          Frozen-core window.
          Using MO integrals in the linear equations.
          Forming densities via direct SCF.
          Differentiating once with respect to electric field.
                with respect to dipole field.
          Differentiating once with respect to nuclear coordinates.
          Using symmetry in CPHF.
          Requested convergence is 1.0D-10 RMS, and 1.0D-09 maximum.
          NewPWx=F KeepS1=T KeepF1=T KeepIn=T MapXYZ=F SortEE=F KeepMc=T.
          MDV=   16106127360 using IRadAn=       5.
          Solving linear equations separately, MaxMat=       0.
          There are     1 degrees of freedom in the 1st order CPHF.  IDoFFX=0 NUNeed=     1.
 FoFJK:  IHMeth= 1 ICntrl=       0 DoSepK=F KAlg= 0 I1Cent=           0 FoldK=F
 IRaf=         0 NMat=       1 IRICut=       1 DoRegI=T DoRafI=F ISym2E= 0 IDoP0=0 IntGTp=1.
 FoFCou: FMM=F IPFlag=           0 FMFlag=      100000 FMFlg1=           0
         NFxFlg=           0 DoJE=F BraDBF=F KetDBF=F FulRan=T
         wScrn=  0.000000 ICntrl=         0 IOpCl=  0 I1Cent=           0 NGrid=           0
         NMat0=    1 NMatS0=      1 NMatT0=    0 NMatD0=    1 NMtDS0=    0 NMtDT0=    0
 Symmetry not used in FoFCou.
 LinEq1:  Iter=  0 NonCon=     1 RMS=5.98D-03 Max=1.33D-01 NDo=     1
 LinEq1:  Iter=  1 NonCon=     1 RMS=1.91D-03 Max=3.83D-02 NDo=     1
 LinEq1:  Iter=  2 NonCon=     1 RMS=8.71D-04 Max=1.37D-02 NDo=     1
 LinEq1:  Iter=  3 NonCon=     1 RMS=3.88D-04 Max=7.86D-03 NDo=     1
 LinEq1:  Iter=  4 NonCon=     1 RMS=1.21D-04 Max=1.93D-03 NDo=     1
 LinEq1:  Iter=  5 NonCon=     1 RMS=4.68D-05 Max=7.42D-04 NDo=     1
 LinEq1:  Iter=  6 NonCon=     1 RMS=2.08D-05 Max=2.48D-04 NDo=     1
 LinEq1:  Iter=  7 NonCon=     1 RMS=8.27D-06 Max=1.59D-04 NDo=     1
 LinEq1:  Iter=  8 NonCon=     1 RMS=3.51D-06 Max=3.47D-05 NDo=     1
 LinEq1:  Iter=  9 NonCon=     1 RMS=9.50D-07 Max=1.31D-05 NDo=     1
 LinEq1:  Iter= 10 NonCon=     1 RMS=1.87D-07 Max=2.00D-06 NDo=     1
 LinEq1:  Iter= 11 NonCon=     1 RMS=3.45D-08 Max=3.43D-07 NDo=     1
 LinEq1:  Iter= 12 NonCon=     1 RMS=8.28D-09 Max=1.24D-07 NDo=     1
 LinEq1:  Iter= 13 NonCon=     1 RMS=1.49D-09 Max=2.57D-08 NDo=     1
 LinEq1:  Iter= 14 NonCon=     1 RMS=2.72D-10 Max=3.69D-09 NDo=     1
 LinEq1:  Iter= 15 NonCon=     0 RMS=4.94D-11 Max=5.65D-10 NDo=     1
 Linear equations converged to 1.000D-10 1.000D-09 after    15 iterations.
 End of Minotr F.D. properties file   721 does not exist.
 End of Minotr F.D. properties file   722 does not exist.
 End of Minotr F.D. properties file   788 does not exist.
 Leave Link 1002 at Mon Feb 21 20:44:47 2022, MaxMem= 16106127360 cpu:              63.5 elap:               2.3
 (Enter /sw/contrib/gaussian/g16/B01/g16/l1102.exe)
 Use density number 2.
 Symmetrizing basis deriv contribution to polar:
 IMax=3 JMax=2 DiffMx= 0.00D+00
 Leave Link 1102 at Mon Feb 21 20:44:47 2022, MaxMem= 16106127360 cpu:               0.8 elap:               0.1
 (Enter /sw/contrib/gaussian/g16/B01/g16/l1110.exe)
 Forming Gx(P) for generalized density number  2 NAtomX=     5.
 Integral derivatives from FoFJK, PRISM(SPDF).
 Do as many integral derivatives as possible in FoFJK.
 G2DrvN: MDV=   16106126844.
 G2DrvN: will do     6 centers at a time, making    1 passes.
 Calling FoFCou, ICntrl=  3107 FMM=F I1Cent=   0 AccDes= 0.00D+00.
 FoFJK:  IHMeth= 1 ICntrl=    3107 DoSepK=F KAlg= 0 I1Cent=           0 FoldK=F
 IRaf=         0 NMat=       1 IRICut=       1 DoRegI=T DoRafI=F ISym2E= 1 IDoP0=0 IntGTp=1.
 FoFCou: FMM=F IPFlag=           0 FMFlag=      100000 FMFlg1=           0
         NFxFlg=           0 DoJE=F BraDBF=F KetDBF=F FulRan=T
         wScrn=  0.000000 ICntrl=      3107 IOpCl=  0 I1Cent=           0 NGrid=           0
         NMat0=    1 NMatS0=      1 NMatT0=    0 NMatD0=    1 NMtDS0=    0 NMtDT0=    0
 Petite list used in FoFCou.
 End of G2Drv F.D. properties file   721 does not exist.
 End of G2Drv F.D. properties file   722 does not exist.
 End of G2Drv F.D. properties file   788 does not exist.
 Leave Link 1110 at Mon Feb 21 20:44:50 2022, MaxMem= 16106127360 cpu:              83.0 elap:               3.0
 (Enter /sw/contrib/gaussian/g16/B01/g16/l1112.exe)
 MP22nd: MDV=   16106127360
 This link is doing NAtomX=     5 total of    18 degrees of freedom.
 Using ON3 I/O method in MakUI.
 Frozen-core window:  NFC=   4 NFV=   0.
 Using Ix for Sx.
 Use MO integrals over full window.
 Using OV2 memory method for fx*t*t/D, MaxI=    16 DoOO2=F NP=  28.
 R2 and R3 integrals will be kept in memory, NReq=   915591705.
 FoFCou: FMM=F IPFlag=           0 FMFlag=           0 FMFlg1=           0
         NFxFlg=           0 DoJE=F BraDBF=F KetDBF=F FulRan=T
         wScrn=  0.000000 ICntrl=       600 IOpCl=  0 I1Cent=           0 NGrid=           0
         NMat0=    1 NMatS0=      1 NMatT0=    0 NMatD0=    1 NMtDS0=    0 NMtDT0=    0
 Symmetry not used in FoFCou.
 DD1Dir will call FoFMem   1 times, MxPair=       272
 NAB=   136 NAA=     0 NBB=     0.
 Symmetry is being used.
 FoFJK:  IHMeth= 1 ICntrl=       0 DoSepK=F KAlg= 0 I1Cent=           0 FoldK=F
 IRaf=         0 NMat=      18 IRICut=      45 DoRegI=T DoRafI=T ISym2E= 2 IDoP0=3 IntGTp=3.
 Discarding MO integrals.
 Leave Link 1112 at Mon Feb 21 20:45:26 2022, MaxMem= 16106127360 cpu:             977.5 elap:              35.3
 (Enter /sw/contrib/gaussian/g16/B01/g16/l601.exe)
 Copying SCF densities to generalized density rwf, IOpCl= 0 IROHF=0.

 **********************************************************************

            Population analysis using the MP2 Density.

 **********************************************************************

 Orbital symmetries:
       Occupied  (A') (A') (A') (A') (A') (A') (A') (A') (A') (A')
                 (A") (A') (A") (A') (A") (A')
       Virtual   (A') (A") (A') (A') (A") (A') (A') (A') (A") (A')
                 (A") (A') (A') (A') (A") (A') (A') (A") (A') (A')
                 (A') (A') (A') (A') (A") (A') (A') (A") (A') (A')
                 (A") (A') (A") (A') (A') (A") (A') (A") (A') (A')
                 (A") (A') (A") (A') (A') (A") (A') (A') (A") (A')
                 (A") (A') (A') (A') (A") (A') (A") (A') (A") (A')
                 (A') (A') (A") (A') (A') (A") (A') (A") (A') (A')
                 (A") (A') (A') (A") (A") (A') (A') (A") (A') (A')
                 (A') (A") (A') (A") (A") (A') (A') (A") (A') (A')
                 (A") (A') (A') (A") (A') (A") (A') (A") (A') (A')
                 (A") (A') (A") (A') (A') (A") (A') (A') (A") (A')
                 (A") (A') (A') (A') (A") (A') (A') (A') (A") (A')
                 (A") (A') (A") (A') (A') (A") (A") (A') (A") (A')
                 (A') (A') (A') (A") (A") (A") (A') (A') (A') (A')
                 (A") (A') (A") (A') (A') (A") (A') (A') (A') (A')
                 (A") (A') (A') (A") (A') (A") (A') (A") (A') (A")
                 (A') (A") (A') (A") (A') (A") (A") (A') (A") (A')
                 (A") (A') (A") (A') (A") (A') (A") (A") (A') (A')
                 (A') (A') (A') (A') (A') (A') (A') (A') (A') (A')
                 (A')
 The electronic state is 1-A'.
 Alpha  occ. eigenvalues --  -20.69051 -20.68458 -20.66040 -15.81322  -1.62399
 Alpha  occ. eigenvalues --   -1.49538  -1.25500  -0.94783  -0.77183  -0.75968
 Alpha  occ. eigenvalues --   -0.71161  -0.68125  -0.62079  -0.58848  -0.48511
 Alpha  occ. eigenvalues --   -0.47224
 Alpha virt. eigenvalues --    0.02963   0.07152   0.08597   0.10206   0.13381
 Alpha virt. eigenvalues --    0.13382   0.14392   0.15410   0.17831   0.19430
 Alpha virt. eigenvalues --    0.19994   0.20618   0.22068   0.23526   0.23727
 Alpha virt. eigenvalues --    0.26698   0.29361   0.30320   0.31079   0.34375
 Alpha virt. eigenvalues --    0.34932   0.38666   0.42237   0.43260   0.52752
 Alpha virt. eigenvalues --    0.52816   0.55703   0.57974   0.62563   0.63928
 Alpha virt. eigenvalues --    0.67474   0.68455   0.70711   0.71032   0.72450
 Alpha virt. eigenvalues --    0.72871   0.74464   0.79212   0.79292   0.81104
 Alpha virt. eigenvalues --    0.81262   0.82937   0.86821   0.90857   0.92168
 Alpha virt. eigenvalues --    0.92668   0.95457   0.97319   0.98356   1.01640
 Alpha virt. eigenvalues --    1.05101   1.05576   1.07890   1.11459   1.13910
 Alpha virt. eigenvalues --    1.19103   1.21957   1.23427   1.33996   1.35135
 Alpha virt. eigenvalues --    1.38468   1.45453   1.48811   1.50881   1.53655
 Alpha virt. eigenvalues --    1.56570   1.57883   1.61157   1.66101   1.67207
 Alpha virt. eigenvalues --    1.70329   1.79216   1.83482   1.83640   1.87729
 Alpha virt. eigenvalues --    1.90791   1.95409   1.99117   2.00583   2.07842
 Alpha virt. eigenvalues --    2.12394   2.13286   2.14957   2.22348   2.26413
 Alpha virt. eigenvalues --    2.26524   2.29077   2.31245   2.33715   2.38461
 Alpha virt. eigenvalues --    2.42216   2.42934   2.45501   2.46142   2.47659
 Alpha virt. eigenvalues --    2.49755   2.58820   2.59771   2.61967   2.62685
 Alpha virt. eigenvalues --    2.63768   2.66533   2.75440   2.81947   2.84290
 Alpha virt. eigenvalues --    2.87684   2.89473   2.92647   2.96122   3.01728
 Alpha virt. eigenvalues --    3.06496   3.11854   3.20315   3.22360   3.31804
 Alpha virt. eigenvalues --    3.34793   3.52608   3.63605   3.83702   3.84377
 Alpha virt. eigenvalues --    4.14717   4.16364   4.18242   4.25504   4.35513
 Alpha virt. eigenvalues --    4.39059   4.46299   4.52042   4.65429   4.70969
 Alpha virt. eigenvalues --    4.80071   4.82408   4.83079   4.89474   5.02463
 Alpha virt. eigenvalues --    5.07771   5.10391   5.14992   5.17434   5.23940
 Alpha virt. eigenvalues --    5.27310   5.30809   5.32625   5.34906   5.59567
 Alpha virt. eigenvalues --    5.67341   5.76563   5.83078   5.95749   6.16437
 Alpha virt. eigenvalues --    6.30889   6.33960   6.39573   6.49415   6.50650
 Alpha virt. eigenvalues --    6.61131   6.67029   6.70088   6.75351   6.76319
 Alpha virt. eigenvalues --    6.83166   6.90010   7.01662   7.05608   7.06019
 Alpha virt. eigenvalues --    7.08983   7.12311   7.14729   7.18079   7.22658
 Alpha virt. eigenvalues --    7.24009   7.30614   7.32559   7.33973   7.39636
 Alpha virt. eigenvalues --    7.43350   7.48234   7.61208   7.61694   7.62096
 Alpha virt. eigenvalues --    7.66215   7.78678   7.88077   8.09546   8.31398
 Alpha virt. eigenvalues --    8.40938   8.54539  13.37979  14.41805  15.14816
 Alpha virt. eigenvalues --   16.15046
          Condensed to atoms (all electrons):
               1          2          3          4          5
     1  H    0.587193   0.128640   0.021147   0.011609  -0.000551
     2  O    0.128640   8.322379  -0.175969  -0.085988   0.015103
     3  O    0.021147  -0.175969   8.469428  -0.131900  -0.037398
     4  N    0.011609  -0.085988  -0.131900   6.972342  -0.055624
     5  O   -0.000551   0.015103  -0.037398  -0.055624   8.270521
 Mulliken charges:
               1
     1  H    0.251963
     2  O   -0.204165
     3  O   -0.145308
     4  N    0.289560
     5  O   -0.192050
 Sum of Mulliken charges =  -0.00000
 Mulliken charges with hydrogens summed into heavy atoms:
               1
     2  O    0.047798
     3  O   -0.145308
     4  N    0.289560
     5  O   -0.192050
 APT charges:
               1
     1  H    0.299587
     2  O   -0.294195
     3  O   -0.492788
     4  N    0.880639
     5  O   -0.393242
 Sum of APT charges =  -0.00000
 APT charges with hydrogens summed into heavy atoms:
               1
     2  O    0.005391
     3  O   -0.492788
     4  N    0.880639
     5  O   -0.393242
 Electronic spatial extent (au):  <R**2>=            254.2826
 Charge=             -0.0000 electrons
 Dipole moment (field-independent basis, Debye):
    X=              0.4762    Y=              1.3701    Z=              0.0000  Tot=              1.4505
 Quadrupole moment (field-independent basis, Debye-Ang):
   XX=            -22.6016   YY=            -18.4881   ZZ=            -22.0128
   XY=              3.2105   XZ=              0.0000   YZ=             -0.0000
 Traceless Quadrupole moment (field-independent basis, Debye-Ang):
   XX=             -1.5675   YY=              2.5461   ZZ=             -0.9786
   XY=              3.2105   XZ=              0.0000   YZ=             -0.0000
 Octapole moment (field-independent basis, Debye-Ang**2):
  XXX=              2.5005  YYY=             11.7679  ZZZ=             -0.0000  XYY=              7.9536
  XXY=              6.3661  XXZ=              0.0000  XZZ=             -1.5753  YZZ=             -0.8676
  YYZ=              0.0000  XYZ=              0.0000
 Hexadecapole moment (field-independent basis, Debye-Ang**3):
 XXXX=           -158.5600 YYYY=            -90.8905 ZZZZ=            -18.2461 XXXY=            -37.9378
 XXXZ=             -0.0000 YYYX=            -31.1246 YYYZ=             -0.0000 ZZZX=             -0.0000
 ZZZY=             -0.0000 XXYY=            -34.3339 XXZZ=            -30.7666 YYZZ=            -21.0482
 XXYZ=             -0.0000 YYXZ=             -0.0000 ZZXY=            -15.3495
 N-N= 1.167055712062D+02 E-N=-8.955114202734D+02  KE= 2.801904568622D+02
 Symmetry A'   KE= 2.662200068245D+02
 Symmetry A"   KE= 1.397045003775D+01
  Exact polarizability:  33.982   9.641  30.505   0.000   0.000  17.942
 Approx polarizability:  28.991   5.264  23.604   0.000   0.000  15.527
 No NMR shielding tensors so no spin-rotation constants.
 Leave Link  601 at Mon Feb 21 20:45:26 2022, MaxMem= 16106127360 cpu:               5.3 elap:               0.2
 (Enter /sw/contrib/gaussian/g16/B01/g16/l701.exe)
 ... and contract with generalized density number  2.
 Compute integral second derivatives.
 Leave Link  701 at Mon Feb 21 20:45:26 2022, MaxMem= 16106127360 cpu:               5.9 elap:               0.2
 (Enter /sw/contrib/gaussian/g16/B01/g16/l702.exe)
 L702 exits ... SP integral derivatives will be done elsewhere.
 Leave Link  702 at Mon Feb 21 20:45:26 2022, MaxMem= 16106127360 cpu:               0.5 elap:               0.0
 (Enter /sw/contrib/gaussian/g16/B01/g16/l703.exe)
 Integral derivatives from FoFJK, PRISM(SPDF).
 Compute integral second derivatives, UseDBF=F ICtDFT=           0.
 Calling FoFJK, ICntrl=  10100127 FMM=F ISym2X=1 I1Cent= 0 IOpClX= 0 NMat=1 NMatS=1 NMatT=0.
 FoFJK:  IHMeth= 1 ICntrl=10100127 DoSepK=F KAlg= 0 I1Cent=           0 FoldK=F
 IRaf=         0 NMat=       1 IRICut=       1 DoRegI=T DoRafI=F ISym2E= 1 IDoP0=0 IntGTp=1.
 FoFCou: FMM=F IPFlag=           0 FMFlag=      100000 FMFlg1=         800
         NFxFlg=           0 DoJE=F BraDBF=F KetDBF=F FulRan=T
         wScrn=  0.000000 ICntrl=  10100127 IOpCl=  0 I1Cent=           0 NGrid=           0
         NMat0=    1 NMatS0=      1 NMatT0=    0 NMatD0=    1 NMtDS0=    0 NMtDT0=    0
 Petite list used in FoFCou.
 Leave Link  703 at Mon Feb 21 20:45:42 2022, MaxMem= 16106127360 cpu:             425.1 elap:              15.2
 (Enter /sw/contrib/gaussian/g16/B01/g16/l716.exe)
 Dipole        = 1.87362551D-01 5.39053213D-01 1.45366808D-32
 Polarizability= 3.39822028D+01 9.64097197D+00 3.05049392D+01
                 6.44199251D-32 2.66541934D-31 1.79424134D+01
 Full mass-weighted force constant matrix:
 Low frequencies --- -277.3574  -70.3614   -0.0019   -0.0013   -0.0013   21.4555
 Low frequencies ---   30.8261  231.7579  337.2090
 ******    1 imaginary frequencies (negative Signs) ****** 
 Diagonal vibrational polarizability:
       14.4006898      25.7701717      43.9711592
 Harmonic frequencies (cm**-1), IR intensities (KM/Mole), Raman scattering
 activities (A**4/AMU), depolarization ratios for plane and unpolarized
 incident light, reduced masses (AMU), force constants (mDyne/A),
 and normal coordinates:
                      1                      2                      3
                     A"                     A"                     A'
 Frequencies --   -277.3556               231.7294               337.2074
 Red. masses --      1.1402                10.5959                 8.7772
 Frc consts  --      0.0517                 0.3352                 0.5880
 IR Inten    --    124.5684                 0.7845                 1.6751
  Atom  AN      X      Y      Z        X      Y      Z        X      Y      Z
     1   1     0.00  -0.00   1.00     0.00   0.00  -0.57     0.52  -0.44  -0.00
     2   8     0.00   0.00  -0.06     0.00   0.00  -0.31    -0.11  -0.39  -0.00
     3   8     0.00   0.00  -0.04     0.00   0.00   0.34    -0.16   0.40   0.00
     4   7    -0.00  -0.00   0.06    -0.00  -0.00   0.52     0.07   0.29   0.00
     5   8    -0.00  -0.00  -0.01    -0.00  -0.00  -0.44     0.18  -0.24  -0.00
                      4                      5                      6
                     A'                     A'                     A'
 Frequencies --    442.2638               784.6452               967.6699
 Red. masses --     11.9142                12.7751                15.2857
 Frc consts  --      1.3730                 4.6341                 8.4332
 IR Inten    --    202.3858               172.2541                23.8940
  Atom  AN      X      Y      Z        X      Y      Z        X      Y      Z
     1   1     0.46   0.16   0.00    -0.36   0.18  -0.00    -0.19  -0.04   0.00
     2   8     0.31   0.17   0.00     0.42   0.09   0.00    -0.51   0.02   0.00
     3   8     0.15   0.47  -0.00    -0.06  -0.27  -0.00     0.75  -0.01  -0.00
     4   7    -0.34  -0.37  -0.00    -0.14   0.61  -0.00    -0.12   0.25  -0.00
     5   8    -0.20  -0.32   0.00    -0.21  -0.37   0.00    -0.12  -0.22   0.00
                      7                      8                      9
                     A'                     A'                     A'
 Frequencies --   1371.5922              1676.6184              3778.7049
 Red. masses --      1.1354                13.2422                 1.0676
 Frc consts  --      1.2584                21.9321                 8.9814
 IR Inten    --    154.5860               140.1772                84.8452
  Atom  AN      X      Y      Z        X      Y      Z        X      Y      Z
     1   1     1.00  -0.03   0.00    -0.34  -0.00  -0.00     0.08   0.99  -0.00
     2   8    -0.03   0.05   0.00    -0.00  -0.04  -0.00    -0.01  -0.06  -0.00
     3   8    -0.02  -0.05  -0.00     0.00   0.15   0.00     0.00   0.00   0.00
     4   7     0.02   0.01  -0.00     0.71  -0.05   0.00    -0.00  -0.00   0.00
     5   8    -0.03  -0.01   0.00    -0.60  -0.07  -0.00     0.00   0.00  -0.00

 -------------------
 - Thermochemistry -
 -------------------
 Temperature   298.150 Kelvin.  Pressure   1.00000 Atm.
 Atom     1 has atomic number  1 and mass   1.00783
 Atom     2 has atomic number  8 and mass  15.99491
 Atom     3 has atomic number  8 and mass  15.99491
 Atom     4 has atomic number  7 and mass  14.00307
 Atom     5 has atomic number  8 and mass  15.99491
 Molecular mass:    62.99564 amu.
 Principal axes and moments of inertia in atomic units:
                           1         2         3
     Eigenvalues --    32.19830 363.48817 395.68646
           X            0.80458  -0.59385   0.00000
           Y            0.59385   0.80458   0.00000
           Z            0.00000  -0.00000   1.00000
 This molecule is an asymmetric top.
 Rotational symmetry number  1.
 Rotational temperatures (Kelvin)      2.69002     0.23829     0.21890
 Rotational constants (GHZ):          56.05082     4.96506     4.56104
    1 imaginary frequencies ignored.
 Zero-point vibrational energy      57363.5 (Joules/Mol)
                                   13.71021 (Kcal/Mol)
 Warning -- explicit consideration of   3 degrees of freedom as
           vibrations may cause significant error
 Vibrational temperatures:    333.41   485.17   636.32  1128.93  1392.26
          (Kelvin)           1973.42  2412.28  5436.71
 
 Zero-point correction=                           0.021849 (Hartree/Particle)
 Thermal correction to Energy=                    0.025975
 Thermal correction to Enthalpy=                  0.026920
 Thermal correction to Gibbs Free Energy=        -0.004276
 Sum of electronic and zero-point Energies=           -280.424818
 Sum of electronic and thermal Energies=              -280.420691
 Sum of electronic and thermal Enthalpies=            -280.419747
 Sum of electronic and thermal Free Energies=         -280.450942
 
                     E (Thermal)             CV                S
                      KCal/Mol        Cal/Mol-Kelvin    Cal/Mol-Kelvin
 Total                   16.300             11.980             65.656
 Electronic               0.000              0.000              0.000
 Translational            0.889              2.981             38.341
 Rotational               0.889              2.981             23.053
 Vibrational             14.522              6.018              4.263
 Vibration     1          0.653              1.792              1.866
 Vibration     2          0.718              1.601              1.225
 Vibration     3          0.802              1.378              0.820
                       Q            Log10(Q)             Ln(Q)
 Total Bot       0.926395D+02          1.966796          4.528716
 Total V=0       0.103860D+13         12.016450         27.668899
 Vib (Bot)       0.193506D-09         -9.713306        -22.365714
 Vib (Bot)    1  0.849304D+00         -0.070937         -0.163338
 Vib (Bot)    2  0.551623D+00         -0.258357         -0.594890
 Vib (Bot)    3  0.390172D+00         -0.408744         -0.941168
 Vib (V=0)       0.216944D+01          0.336348          0.774470
 Vib (V=0)    1  0.148555D+01          0.171888          0.395788
 Vib (V=0)    2  0.124451D+01          0.094997          0.218738
 Vib (V=0)    3  0.113422D+01          0.054697          0.125945
 Electronic      0.100000D+01          0.000000          0.000000
 Translational   0.196526D+08          7.293420         16.793719
 Rotational      0.243603D+05          4.386683         10.100710
 
                                                                title
                                                             IR Spectrum
 
     3                                                                      1         1                                              
     7                                                                      6         3             9     7           4  3   2       
     7                                                                      7         7             6     8           4  3   3       
     9                                                                      7         2             8     5           2  7   2       
 
     X                                                                      X         X             X     X           X  X   X       
     X                                                                      X         X             X     X           X              
     X                                                                      X         X                   X           X              
     X                                                                      X         X                   X           X              
     X                                                                      X         X                   X           X              
     X                                                                      X         X                   X           X              
     X                                                                      X         X                   X           X              
     X                                                                      X         X                   X           X              
                                                                            X         X                   X           X              
                                                                            X         X                   X           X              
                                                                            X         X                   X           X              
                                                                            X         X                   X           X              
                                                                            X         X                   X           X              
                                                                            X         X                   X           X              
                                                                                      X                   X           X              
                                                                                                          X           X              
                                                                                                          X           X              
                                                                                                                      X              
                                                                                                                      X              
                                                                                                                      X              
 
 ***** Axes restored to original set *****
 -------------------------------------------------------------------
 Center     Atomic                   Forces (Hartrees/Bohr)
 Number     Number              X              Y              Z
 -------------------------------------------------------------------
      1        1           0.000442560    0.000000000    0.000097997
      2        8           0.000693214    0.000000000    0.002585363
      3        8           0.001933969    0.000000000   -0.002091646
      4        7          -0.003183365   -0.000000000    0.000383042
      5        8           0.000113622   -0.000000000   -0.000974756
 -------------------------------------------------------------------
 Cartesian Forces:  Max     0.003183365 RMS     0.001334889
 -----------------------------------------------------------------------------------------------
                       Internal Coordinate Forces (Hartree/Bohr or radian)
  Cent   Atom   N1       Length/X         N2         Alpha/Y        N3         Beta/Z          J
 -----------------------------------------------------------------------------------------------
      1  H 
      2  O        1  -0.000098(     1)
      3  O        2  -0.001480(     2)      1  -0.000810(     5)
      4  N        3  -0.000907(     3)      2  -0.006090(     6)      1   0.000000(     8)     0
      5  O        4  -0.000110(     4)      3  -0.002157(     7)      2   0.000000(     9)     0
 -----------------------------------------------------------------------------------------------
 Internal  Forces:  Max     0.006089820 RMS     0.002246815
 Force constants in Cartesian coordinates: 
                1             2             3             4             5 
      1  0.645827D-01
      2  0.000000D+00 -0.250655D-02
      3  0.495224D-02  0.000000D+00  0.512340D+00
      4 -0.357459D-01  0.000000D+00 -0.159909D-01  0.270862D+00
      5  0.000000D+00  0.329523D-02  0.000000D+00  0.000000D+00  0.216250D-02
      6  0.484895D-01  0.000000D+00 -0.508824D+00  0.302166D-01  0.000000D+00
      7 -0.184263D-01  0.000000D+00  0.124495D-01 -0.220571D+00  0.000000D+00
      8  0.000000D+00  0.100509D-02  0.000000D+00  0.000000D+00 -0.625404D-02
      9 -0.536669D-01  0.000000D+00 -0.446844D-03 -0.172938D-01  0.000000D+00
     10 -0.884912D-02  0.000000D+00 -0.479903D-02 -0.146864D-01  0.000000D+00
     11  0.000000D+00 -0.282443D-02  0.000000D+00  0.000000D+00 -0.567912D-02
     12  0.597328D-02  0.000000D+00 -0.436540D-02  0.120321D-01  0.000000D+00
     13 -0.156136D-02  0.000000D+00  0.338821D-02  0.141729D-03  0.000000D+00
     14  0.000000D+00  0.103066D-02  0.000000D+00  0.000000D+00  0.647542D-02
     15 -0.574814D-02  0.000000D+00  0.129629D-02 -0.896400D-02  0.000000D+00
                6             7             8             9            10 
      6  0.592586D+00
      7 -0.205708D-01  0.342554D+00
      8  0.000000D+00  0.000000D+00  0.307888D-02
      9 -0.802137D-01  0.329485D-01  0.000000D+00  0.184359D+00
     10 -0.489348D-01 -0.739439D-01  0.000000D+00  0.175530D+00  0.825110D+00
     11  0.000000D+00  0.000000D+00  0.999496D-02  0.000000D+00  0.000000D+00
     12  0.209573D-01  0.658167D-01  0.000000D+00 -0.884862D-01 -0.363048D-01
     13 -0.920048D-02 -0.296122D-01  0.000000D+00 -0.137518D+00 -0.727631D+00
     14  0.000000D+00  0.000000D+00 -0.782489D-02  0.000000D+00  0.000000D+00
     15 -0.245055D-01 -0.906439D-01  0.000000D+00 -0.152125D-01 -0.854914D-01
               11            12            13            14            15 
     11  0.758800D-02
     12  0.000000D+00  0.184823D+00
     13  0.000000D+00 -0.475173D-01  0.758663D+00
     14 -0.907942D-02  0.000000D+00  0.000000D+00  0.939822D-02
     15  0.000000D+00 -0.112929D+00  0.190847D+00  0.000000D+00  0.151350D+00
 Force constants in internal coordinates: 
                1             2             3             4             5 
      1  0.512340D+00
      2 -0.104771D-01  0.278597D+00
      3  0.319905D-02  0.101018D-02  0.114962D+00
      4 -0.359390D-02  0.612139D-02  0.153128D+00  0.811734D+00
      5  0.951063D-02  0.652734D-01  0.157023D-02  0.517138D-02  0.216362D+00
      6  0.408260D-02  0.531433D-01  0.334715D-01  0.228850D-01  0.311380D-01
      7 -0.109327D-02  0.369407D-01  0.327838D-01  0.830188D-01  0.212461D-01
      8  0.000000D+00  0.000000D+00  0.000000D+00  0.000000D+00  0.000000D+00
      9  0.000000D+00  0.000000D+00  0.000000D+00  0.000000D+00  0.000000D+00
                6             7             8             9 
      6  0.266347D+00
      7  0.958357D-01  0.480784D+00
      8  0.000000D+00  0.000000D+00 -0.832690D-02
      9  0.000000D+00  0.000000D+00 -0.391091D-02  0.415377D-01
 Leave Link  716 at Mon Feb 21 20:45:42 2022, MaxMem= 16106127360 cpu:               2.6 elap:               0.1
 (Enter /sw/contrib/gaussian/g16/B01/g16/l103.exe)

 GradGradGradGradGradGradGradGradGradGradGradGradGradGradGradGradGradGrad
 Berny optimization.
 Search for a local minimum.
 Step number   1 out of a maximum of    2
 All quantities printed in internal units (Hartrees-Bohrs-Radians)
 Second derivative matrix not updated -- analytic derivatives used.
 The second derivative matrix:
                          r1        r2        r3        r4        a1
           r1           0.51234
           r2          -0.01048   0.27860
           r3           0.00320   0.00101   0.11496
           r4          -0.00359   0.00612   0.15313   0.81173
           a1           0.00951   0.06527   0.00157   0.00517   0.21636
           a2           0.00408   0.05314   0.03347   0.02288   0.03114
           a3          -0.00109   0.03694   0.03278   0.08302   0.02125
           d1           0.00000  -0.00000  -0.00000  -0.00000  -0.00000
           d2          -0.00000   0.00000   0.00000   0.00000   0.00000
                          a2        a3        d1        d2
           a2           0.26635
           a3           0.09584   0.48078
           d1          -0.00000  -0.00000  -0.00833
           d2          -0.00000  -0.00000  -0.00391   0.04154
 ITU=  0
     Eigenvalues ---   -0.00863   0.04184   0.07817   0.17455   0.21437
     Eigenvalues ---    0.31944   0.51199   0.51315   0.86946
 Eigenvalue     1 is  -8.63D-03 should be greater than     0.000000 Eigenvector:
                          d1        d2        a3        a2        r3
   1                    0.99698   0.07772   0.00000   0.00000  -0.00000
                          r4        a1        r1        r2
   1                    0.00000  -0.00000  -0.00000   0.00000
 Angle between quadratic step and forces=  23.01 degrees.
 Linear search not attempted -- first point.
 Variable       Old X    -DE/DX   Delta X   Delta X   Delta X     New X
                                 (Linear)    (Quad)   (Total)
    r1        1.83110  -0.00010   0.00000  -0.00000  -0.00000   1.83109
    r2        2.74940  -0.00148   0.00000  -0.00101  -0.00101   2.74839
    r3        2.75670  -0.00091   0.00000  -0.00273  -0.00273   2.75398
    r4        2.21236  -0.00011   0.00000   0.00101   0.00101   2.21337
    a1        1.70335  -0.00081   0.00000  -0.00023  -0.00023   1.70313
    a2        1.80742  -0.00609   0.00000  -0.02241  -0.02241   1.78501
    a3        1.90362  -0.00216   0.00000   0.00008   0.00008   1.90370
    d1        3.14159   0.00000   0.00000   0.00000   0.00000   3.14159
    d2        3.14159   0.00000   0.00000  -0.00000   0.00000   3.14159
         Item               Value     Threshold  Converged?
 Maximum Force            0.006090     0.000450     NO 
 RMS     Force            0.002247     0.000300     NO 
 Maximum Displacement     0.022409     0.001800     NO 
 RMS     Displacement     0.007540     0.001200     NO 
 Predicted change in Energy=-7.016837D-05
                       ----------------------------
                       ! Non-Optimized Parameters !
                       ! (Angstroms and Degrees)  !
 ----------------------                            ----------------------
 !      Name          Value   Derivative information (Atomic Units)     !
 ------------------------------------------------------------------------
 !       r1          0.969    -DE/DX =   -0.0001                        !
 !       r2          1.4544   -DE/DX =   -0.0015                        !
 !       r3          1.4573   -DE/DX =   -0.0009                        !
 !       r4          1.1713   -DE/DX =   -0.0001                        !
 !       a1         97.5819   -DE/DX =   -0.0008                        !
 !       a2        102.2734   -DE/DX =   -0.0061                        !
 !       a3        109.0741   -DE/DX =   -0.0022                        !
 !       d1        180.0      -DE/DX =    0.0                           !
 !       d2        180.0      -DE/DX =    0.0                           !
 ------------------------------------------------------------------------
 GradGradGradGradGradGradGradGradGradGradGradGradGradGradGradGradGradGrad

 Leave Link  103 at Mon Feb 21 20:45:42 2022, MaxMem= 16106127360 cpu:               0.8 elap:               0.1
 (Enter /sw/contrib/gaussian/g16/B01/g16/l9999.exe)

 ----------------------------------------------------------------------

 Electric dipole moment (input orientation):
 (Debye = 10**-18 statcoulomb cm , SI units = C m)
                  (au)            (Debye)         (10**-30 SI)
   Tot        0.570687D+00      0.145054D+01      0.483848D+01
   x         -0.146638D+00     -0.372717D+00     -0.124325D+01
   y          0.000000D+00      0.000000D+00      0.000000D+00
   z         -0.551525D+00     -0.140184D+01     -0.467603D+01

 Dipole polarizability, Alpha (input orientation).
 (esu units = cm**3 , SI units = C**2 m**2 J**-1)
 Alpha(0;0):
               (au)            (10**-24 esu)      (10**-40 SI)
   iso        0.274765D+02      0.407160D+01      0.453027D+01
   aniso      0.221909D+02      0.328835D+01      0.365879D+01
   xx         0.325288D+02      0.482027D+01      0.536328D+01
   yx         0.000000D+00      0.000000D+00      0.000000D+00
   yy         0.179424D+02      0.265879D+01      0.295830D+01
   zx         0.979233D+01      0.145107D+01      0.161454D+01
   zy         0.000000D+00      0.000000D+00      0.000000D+00
   zz         0.319583D+02      0.473574D+01      0.526922D+01

 ----------------------------------------------------------------------

 Dipole orientation:
     1          0.00000000          0.00000000          0.00000000
     8         -0.47050133          0.00000000         -1.76961859
     8          2.06990347          0.00000000         -2.82106447
     7          1.64213920          0.00000000         -5.54437598
     8          3.59560056          0.00000000         -6.58289017

 Electric dipole moment (dipole orientation):
 (Debye = 10**-18 statcoulomb cm , SI units = C m)
                  (au)            (Debye)         (10**-30 SI)
   Tot        0.570687D+00      0.145054D+01      0.483848D+01
   x          0.000000D+00      0.000000D+00      0.000000D+00
   y          0.000000D+00      0.000000D+00      0.000000D+00
   z          0.570687D+00      0.145054D+01      0.483848D+01

 Dipole polarizability, Alpha (dipole orientation).
 (esu units = cm**3 , SI units = C**2 m**2 J**-1)
 Alpha(0;0):
               (au)            (10**-24 esu)      (10**-40 SI)
   iso        0.274765D+02      0.407160D+01      0.453027D+01
   aniso      0.221909D+02      0.328835D+01      0.365879D+01
   xx         0.276278D+02      0.409402D+01      0.455521D+01
   yx         0.000000D+00      0.000000D+00      0.000000D+00
   yy         0.179424D+02      0.265879D+01      0.295830D+01
   zx        -0.864095D+01     -0.128046D+01     -0.142470D+01
   zy         0.000000D+00      0.000000D+00      0.000000D+00
   zz         0.368593D+02      0.546199D+01      0.607728D+01

 ----------------------------------------------------------------------
 1\1\GINC-N2109\Freq\RMP2-FC\Aug-CC-pVTZ\H1N1O3\CGAVINH\21-Feb-2022\1\\
 #p freq mp2/aug-cc-pvtz density=current\\title\\0,1\H\O,1,r1\O,2,r2,1,
 a1\N,3,r3,2,a2,1,d1,0\O,4,r4,3,a3,2,d2,0\\r1=0.96897556\r2=1.45491931\
 r3=1.45878406\r4=1.17072885\a1=97.59494903\a2=103.5573325\a3=109.06955
 123\d1=180.\d2=180.\\Version=ES64L-G16RevB.01\State=1-A'\HF=-279.50170
 91\MP2=-280.4466665\RMSD=3.803e-09\RMSF=1.335e-03\ZeroPoint=0.0218486\
 Thermal=0.0259753\Dipole=-0.1466381,0.,-0.5515255\DipoleDeriv=0.264740
 7,0.,0.0467159,0.,0.355632,0.,0.0852323,0.,0.2783874,-0.3374728,0.,-0.
 2123308,0.,-0.3125868,0.,-0.1175082,0.,-0.2325265,-0.0521596,0.,0.1261
 53,0.,-0.0887038,0.,-0.774699,0.,-1.3375,0.9335132,0.,0.9334978,0.,0.0
 653374,0.,0.9411512,0.,1.643065,-0.8086215,0.,-0.8940359,0.,-0.0196788
 ,0.,-0.1341764,0.,-0.3514258\Polar=32.5288163,0.,17.9424134,9.7923346,
 0.,31.9583257\Quadrupole=-1.5033989,-0.7275934,2.2309922,0.,2.132925,0
 .\PG=CS [SG(H1N1O3)]\NImag=1\\0.06458267,0.,-0.00250655,0.00495224,0.,
 0.51233991,-0.03574593,0.,-0.01599091,0.27086190,0.,0.00329523,0.,0.,0
 .00216250,0.04848950,0.,-0.50882396,0.03021657,0.,0.59258594,-0.018426
 26,0.,0.01244949,-0.22057133,0.,-0.02057082,0.34255366,0.,0.00100509,0
 .,0.,-0.00625404,0.,0.,0.00307888,-0.05366688,0.,-0.00044684,-0.017293
 77,0.,-0.08021374,0.03294848,0.,0.18435923,-0.00884912,0.,-0.00479903,
 -0.01468637,0.,-0.04893477,-0.07394391,0.,0.17553003,0.82511019,0.,-0.
 00282443,0.,0.,-0.00567912,0.,0.,0.00999496,0.,0.,0.00758800,0.0059732
 8,0.,-0.00436540,0.01203211,0.,0.02095729,0.06581674,0.,-0.08848618,-0
 .03630480,0.,0.18482290,-0.00156136,0.,0.00338821,0.00014173,0.,-0.009
 20048,-0.02961216,0.,-0.13751787,-0.72763078,0.,-0.04751733,0.75866257
 ,0.,0.00103066,0.,0.,0.00647542,0.,0.,-0.00782489,0.,0.,-0.00907942,0.
 ,0.,0.00939822,-0.00574814,0.,0.00129629,-0.00896400,0.,-0.02450553,-0
 .09064390,0.,-0.01521247,-0.08549143,0.,-0.11292861,0.19084747,0.,0.15
 135031\\-0.00044256,0.,-0.00009800,-0.00069321,0.,-0.00258536,-0.00193
 397,0.,0.00209165,0.00318336,0.,-0.00038304,-0.00011362,0.,0.00097476\
 \\@


 REFRAIN FROM ILLUSIONS, INSIST ON WORK AND NOT WORDS,
 PATIENTLY SEEK DIVINE AND SCIENTIFIC TRUTH.
 LAST WORDS OF MARIA MENDELEEVA TO HER SON DMITRI, C. 1850
 Job cpu time:       0 days  1 hours 59 minutes 57.3 seconds.
 Elapsed time:       0 days  0 hours  4 minutes 20.3 seconds.
 File lengths (MBytes):  RWF=   7239 Int=      0 D2E=      0 Chk=      8 Scr=      1
 Normal termination of Gaussian 16 at Mon Feb 21 20:45:43 2022.
