title                                                                   
Freq      RMP2-FC                                                     Aug-CC-pVTZ         
Number of atoms                            I                5
Info1-9                                    I   N=           9
          33          24           0           0           0         100
           6           2           1
Full Title                                 C   N=           1
title       
Route                                      C   N=           4
#p freq mp2/aug-cc-pvtz density=current         
Charge                                     I                0
Multiplicity                               I                1
Number of electrons                        I               32
Number of alpha electrons                  I               16
Number of beta electrons                   I               16
Number of basis functions                  I              207
Number of independent functions            I              207
Number of point charges in /Mol/           I                0
Number of translation vectors              I                0
Atomic numbers                             I   N=           5
           1           8           8           7           8
Nuclear charges                            R   N=           5
  1.00000000E+00  8.00000000E+00  8.00000000E+00  7.00000000E+00  8.00000000E+00
Current cartesian coordinates              R   N=          15
  2.87198826E+00  3.19641516E+00  6.86714854E-32  2.74765627E+00  1.36954269E+00
  2.39250334E-32 -5.16789490E-17  1.27166494E+00 -1.78933548E-33 -4.90886863E-01
 -1.44097914E+00  5.49579428E-32 -2.67712880E+00 -1.77990278E+00 -7.60154241E-32
Number of symbols in /Mol/                 I                0
Force Field                                I                0
Atom Types                                 C   N=           5
                                                            
Int Atom Types                             I   N=           5
           0           0           0           0           0
MM charges                                 R   N=           5
  0.00000000E+00  0.00000000E+00  0.00000000E+00  0.00000000E+00  0.00000000E+00
Integer atomic weights                     I   N=           5
           1          16          16          14          16
Real atomic weights                        R   N=           5
  1.00782504E+00  1.59949146E+01  1.59949146E+01  1.40030740E+01  1.59949146E+01
Atom fragment info                         I   N=           5
           0           0           0           0           0
Atom residue num                           I   N=           5
           0           0           0           0           0
Nuclear spins                              I   N=           5
           1           0           0           2           0
Nuclear ZEff                               R   N=           5
 -1.00000000E+00 -5.60000000E+00 -5.60000000E+00 -4.55000000E+00 -5.60000000E+00
Nuclear ZNuc                               R   N=           5
  1.00000000E+00  8.00000000E+00  8.00000000E+00  7.00000000E+00  8.00000000E+00
Nuclear QMom                               R   N=           5
  0.00000000E+00  0.00000000E+00  0.00000000E+00  2.04400000E+00  0.00000000E+00
Nuclear GFac                               R   N=           5
  2.79284600E+00  0.00000000E+00  0.00000000E+00  4.03761000E-01  0.00000000E+00
MicOpt                                     I   N=           5
          -1          -1          -1          -1          -1
Number of residues                         I                0
Number of secondary structures             I                0
SymInf integers                            I   N=          26
           1           2           1           1           1           1
           1          -1           0           0           0           0
           0           0           0           0           0           0
           0           0           0           0           0           0
           0           0
RotTr to input orientation                 R   N=          12
 -9.97692117E-01 -9.82964591E-17 -6.79002232E-02  6.79002232E-02 -7.30438495E-17
 -9.97692117E-01  9.31099087E-17 -1.00000000E+00  7.95496244E-17  2.64832274E+00
  0.00000000E+00  3.38404685E+00
Number of contracted shells                I               65
Number of primitive shells                 I              119
Pure/Cartesian d shells                    I                0
Pure/Cartesian f shells                    I                0
Highest angular momentum                   I                3
Largest degree of contraction              I                7
Shell types                                I   N=          65
           0           0           0           0           1           1
           1          -2          -2           0           0           0
           0           0           1           1           1           1
          -2          -2          -2          -3          -3           0
           0           0           0           0           1           1
           1           1          -2          -2          -2          -3
          -3           0           0           0           0           0
           1           1           1           1          -2          -2
          -2          -3          -3           0           0           0
           0           0           1           1           1           1
          -2          -2          -2          -3          -3
Number of primitives per shell             I   N=          65
           3           1           1           1           1           1
           1           1           1           7           6           1
           1           1           3           1           1           1
           1           1           1           1           1           7
           6           1           1           1           3           1
           1           1           1           1           1           1
           1           7           6           1           1           1
           3           1           1           1           1           1
           1           1           1           7           6           1
           1           1           3           1           1           1
           1           1           1           1           1
Shell to atom map                          I   N=          65
           1           1           1           1           1           1
           1           1           1           2           2           2
           2           2           2           2           2           2
           2           2           2           2           2           3
           3           3           3           3           3           3
           3           3           3           3           3           3
           3           4           4           4           4           4
           4           4           4           4           4           4
           4           4           4           5           5           5
           5           5           5           5           5           5
           5           5           5           5           5
Primitive exponents                        R   N=         119
  3.38700000E+01  5.09500000E+00  1.15900000E+00  3.25800000E-01  1.02700000E-01
  2.52600000E-02  1.40700000E+00  3.88000000E-01  1.02000000E-01  1.05700000E+00
  2.47000000E-01  1.53300000E+04  2.29900000E+03  5.22400000E+02  1.47300000E+02
  4.75500000E+01  1.67600000E+01  6.20700000E+00  5.22400000E+02  1.47300000E+02
  4.75500000E+01  1.67600000E+01  6.20700000E+00  6.88200000E-01  1.75200000E+00
  2.38400000E-01  7.37600000E-02  3.44600000E+01  7.74900000E+00  2.28000000E+00
  7.15600000E-01  2.14000000E-01  5.97400000E-02  2.31400000E+00  6.45000000E-01
  2.14000000E-01  1.42800000E+00  5.00000000E-01  1.53300000E+04  2.29900000E+03
  5.22400000E+02  1.47300000E+02  4.75500000E+01  1.67600000E+01  6.20700000E+00
  5.22400000E+02  1.47300000E+02  4.75500000E+01  1.67600000E+01  6.20700000E+00
  6.88200000E-01  1.75200000E+00  2.38400000E-01  7.37600000E-02  3.44600000E+01
  7.74900000E+00  2.28000000E+00  7.15600000E-01  2.14000000E-01  5.97400000E-02
  2.31400000E+00  6.45000000E-01  2.14000000E-01  1.42800000E+00  5.00000000E-01
  1.14200000E+04  1.71200000E+03  3.89300000E+02  1.10000000E+02  3.55700000E+01
  1.25400000E+01  4.64400000E+00  3.89300000E+02  1.10000000E+02  3.55700000E+01
  1.25400000E+01  4.64400000E+00  5.11800000E-01  1.29300000E+00  1.78700000E-01
  5.76000000E-02  2.66300000E+01  5.94800000E+00  1.74200000E+00  5.55000000E-01
  1.72500000E-01  4.91000000E-02  1.65400000E+00  4.69000000E-01  1.51000000E-01
  1.09300000E+00  3.64000000E-01  1.53300000E+04  2.29900000E+03  5.22400000E+02
  1.47300000E+02  4.75500000E+01  1.67600000E+01  6.20700000E+00  5.22400000E+02
  1.47300000E+02  4.75500000E+01  1.67600000E+01  6.20700000E+00  6.88200000E-01
  1.75200000E+00  2.38400000E-01  7.37600000E-02  3.44600000E+01  7.74900000E+00
  2.28000000E+00  7.15600000E-01  2.14000000E-01  5.97400000E-02  2.31400000E+00
  6.45000000E-01  2.14000000E-01  1.42800000E+00  5.00000000E-01
Contraction coefficients                   R   N=         119
  2.54948632E-02  1.90362766E-01  8.52162022E-01  1.00000000E+00  1.00000000E+00
  1.00000000E+00  1.00000000E+00  1.00000000E+00  1.00000000E+00  1.00000000E+00
  1.00000000E+00  5.19808943E-04  4.02025621E-03  2.07128267E-02  8.10105536E-02
  2.35962985E-01  4.42653446E-01  3.57064423E-01 -4.42115008E-05 -1.22591041E-03
 -1.05517725E-02 -6.74452633E-02 -1.71198607E-01  1.07329856E+00  1.00000000E+00
  1.00000000E+00  1.00000000E+00  4.11634896E-02  2.57762836E-01  8.02419274E-01
  1.00000000E+00  1.00000000E+00  1.00000000E+00  1.00000000E+00  1.00000000E+00
  1.00000000E+00  1.00000000E+00  1.00000000E+00  5.19808943E-04  4.02025621E-03
  2.07128267E-02  8.10105536E-02  2.35962985E-01  4.42653446E-01  3.57064423E-01
 -4.42115008E-05 -1.22591041E-03 -1.05517725E-02 -6.74452633E-02 -1.71198607E-01
  1.07329856E+00  1.00000000E+00  1.00000000E+00  1.00000000E+00  4.11634896E-02
  2.57762836E-01  8.02419274E-01  1.00000000E+00  1.00000000E+00  1.00000000E+00
  1.00000000E+00  1.00000000E+00  1.00000000E+00  1.00000000E+00  1.00000000E+00
  5.34563860E-04  4.13435660E-03  2.12335358E-02  8.25006224E-02  2.38138871E-01
  4.42551547E-01  3.53757422E-01 -4.89867350E-05 -1.19527323E-03 -1.03490714E-02
 -6.48680190E-02 -1.71552477E-01  1.07289568E+00  1.00000000E+00  1.00000000E+00
  1.00000000E+00  3.98072123E-02  2.49002660E-01  8.10479727E-01  1.00000000E+00
  1.00000000E+00  1.00000000E+00  1.00000000E+00  1.00000000E+00  1.00000000E+00
  1.00000000E+00  1.00000000E+00  5.19808943E-04  4.02025621E-03  2.07128267E-02
  8.10105536E-02  2.35962985E-01  4.42653446E-01  3.57064423E-01 -4.42115008E-05
 -1.22591041E-03 -1.05517725E-02 -6.74452633E-02 -1.71198607E-01  1.07329856E+00
  1.00000000E+00  1.00000000E+00  1.00000000E+00  4.11634896E-02  2.57762836E-01
  8.02419274E-01  1.00000000E+00  1.00000000E+00  1.00000000E+00  1.00000000E+00
  1.00000000E+00  1.00000000E+00  1.00000000E+00  1.00000000E+00
Coordinates of each shell                  R   N=         195
  2.87198826E+00  3.19641516E+00 -3.15580473E-33  2.87198826E+00  3.19641516E+00
 -3.15580473E-33  2.87198826E+00  3.19641516E+00 -3.15580473E-33  2.87198826E+00
  3.19641516E+00 -3.15580473E-33  2.87198826E+00  3.19641516E+00 -3.15580473E-33
  2.87198826E+00  3.19641516E+00 -3.15580473E-33  2.87198826E+00  3.19641516E+00
 -3.15580473E-33  2.87198826E+00  3.19641516E+00 -3.15580473E-33  2.87198826E+00
  3.19641516E+00 -3.15580473E-33  2.74765627E+00  1.36954269E+00  7.36295556E-33
  2.74765627E+00  1.36954269E+00  7.36295556E-33  2.74765627E+00  1.36954269E+00
  7.36295556E-33  2.74765627E+00  1.36954269E+00  7.36295556E-33  2.74765627E+00
  1.36954269E+00  7.36295556E-33  2.74765627E+00  1.36954269E+00  7.36295556E-33
  2.74765627E+00  1.36954269E+00  7.36295556E-33  2.74765627E+00  1.36954269E+00
  7.36295556E-33  2.74765627E+00  1.36954269E+00  7.36295556E-33  2.74765627E+00
  1.36954269E+00  7.36295556E-33  2.74765627E+00  1.36954269E+00  7.36295556E-33
  2.74765627E+00  1.36954269E+00  7.36295556E-33  2.74765627E+00  1.36954269E+00
  7.36295556E-33  2.74765627E+00  1.36954269E+00  7.36295556E-33  1.30366150E-17
  1.27166494E+00 -7.81915286E-33  1.30366150E-17  1.27166494E+00 -7.81915286E-33
  1.30366150E-17  1.27166494E+00 -7.81915286E-33  1.30366150E-17  1.27166494E+00
 -7.81915286E-33  1.30366150E-17  1.27166494E+00 -7.81915286E-33  1.30366150E-17
  1.27166494E+00 -7.81915286E-33  1.30366150E-17  1.27166494E+00 -7.81915286E-33
  1.30366150E-17  1.27166494E+00 -7.81915286E-33  1.30366150E-17  1.27166494E+00
 -7.81915286E-33  1.30366150E-17  1.27166494E+00 -7.81915286E-33  1.30366150E-17
  1.27166494E+00 -7.81915286E-33  1.30366150E-17  1.27166494E+00 -7.81915286E-33
  1.30366150E-17  1.27166494E+00 -7.81915286E-33  1.30366150E-17  1.27166494E+00
 -7.81915286E-33 -4.90886863E-01 -1.44097914E+00  6.04032024E-33 -4.90886863E-01
 -1.44097914E+00  6.04032024E-33 -4.90886863E-01 -1.44097914E+00  6.04032024E-33
 -4.90886863E-01 -1.44097914E+00  6.04032024E-33 -4.90886863E-01 -1.44097914E+00
  6.04032024E-33 -4.90886863E-01 -1.44097914E+00  6.04032024E-33 -4.90886863E-01
 -1.44097914E+00  6.04032024E-33 -4.90886863E-01 -1.44097914E+00  6.04032024E-33
 -4.90886863E-01 -1.44097914E+00  6.04032024E-33 -4.90886863E-01 -1.44097914E+00
  6.04032024E-33 -4.90886863E-01 -1.44097914E+00  6.04032024E-33 -4.90886863E-01
 -1.44097914E+00  6.04032024E-33 -4.90886863E-01 -1.44097914E+00  6.04032024E-33
 -4.90886863E-01 -1.44097914E+00  6.04032024E-33 -2.67712880E+00 -1.77990278E+00
 -4.43460732E-33 -2.67712880E+00 -1.77990278E+00 -4.43460732E-33 -2.67712880E+00
 -1.77990278E+00 -4.43460732E-33 -2.67712880E+00 -1.77990278E+00 -4.43460732E-33
 -2.67712880E+00 -1.77990278E+00 -4.43460732E-33 -2.67712880E+00 -1.77990278E+00
 -4.43460732E-33 -2.67712880E+00 -1.77990278E+00 -4.43460732E-33 -2.67712880E+00
 -1.77990278E+00 -4.43460732E-33 -2.67712880E+00 -1.77990278E+00 -4.43460732E-33
 -2.67712880E+00 -1.77990278E+00 -4.43460732E-33 -2.67712880E+00 -1.77990278E+00
 -4.43460732E-33 -2.67712880E+00 -1.77990278E+00 -4.43460732E-33 -2.67712880E+00
 -1.77990278E+00 -4.43460732E-33 -2.67712880E+00 -1.77990278E+00 -4.43460732E-33
Num ILSW                                   I              100
ILSW                                       I   N=         100
           0           0           0           0           2           0
           0           0           0           0           0          -1
           5           0           0           0           2           0
           0           0           0           0           1           0
           1           0           0           0           0           0
           0           0      100000           0          -1           0
           0           0           0           0           0           0
           0           0           0           1           1           0
           0 -2000000000           1           0           0           0
           0           0           4          52           0           0
           0           0           0           0           0           0
           0           0           0           5           4           1
           0           0           0           0           0           0
           0           0           0           0           0           0
           0           0           0           0           0           0
           0           0           0           0           0           0
           0           0           0           0
Num RLSW                                   I               52
RLSW                                       R   N=          52
  1.00000000E+00  1.00000000E+00  1.00000000E+00  1.00000000E+00  1.00000000E+00
  0.00000000E+00  0.00000000E+00  1.00000000E+00  0.00000000E+00  0.00000000E+00
  0.00000000E+00  0.00000000E+00  1.00000000E+00  0.00000000E+00  0.00000000E+00
  0.00000000E+00  0.00000000E+00  1.00000000E+00  0.00000000E+00  0.00000000E+00
  0.00000000E+00  0.00000000E+00  1.00000000E+00  0.00000000E+00  0.00000000E+00
  0.00000000E+00  0.00000000E+00  1.00000000E+00  0.00000000E+00  0.00000000E+00
  0.00000000E+00  0.00000000E+00  1.00000000E+00  0.00000000E+00  0.00000000E+00
  0.00000000E+00  0.00000000E+00  0.00000000E+00  1.00000000E+00  1.00000000E+00
  0.00000000E+00  1.00000000E+00  0.00000000E+00  0.00000000E+00  0.00000000E+00
  0.00000000E+00  0.00000000E+00  0.00000000E+00  0.00000000E+00  0.00000000E+00
  0.00000000E+00  0.00000000E+00
MxBond                                     I                2
NBond                                      I   N=           5
           1           2           2           2           1
IBond                                      I   N=          10
           2           0           1           3           2           4
           3           5           4           0
RBond                                      R   N=          10
  1.00000000E+00  0.00000000E+00  1.00000000E+00  1.00000000E+00  1.00000000E+00
  1.00000000E+00  1.00000000E+00  2.00000000E+00  2.00000000E+00  0.00000000E+00
Virial Ratio                               R      2.002330269158748E+00
SCF Energy                                 R     -2.795013587216105E+02
MP2 Energy                                 R     -2.804466465242468E+02
Total Energy                               R     -2.804466465242468E+02
Post-SCF wavefunction norm                 R      1.584302712122112E+00
RMS Force                                  R      1.431930293047821E-03
RMS Density                                R      3.773959867257576E-09
NImag                                      I                1
Job Status                                 I                1
Nuclear derivative order                   I                2
External E-field                           R   N=          35
  0.00000000E+00  0.00000000E+00  0.00000000E+00  0.00000000E+00  0.00000000E+00
  0.00000000E+00  0.00000000E+00  0.00000000E+00  0.00000000E+00  0.00000000E+00
  0.00000000E+00  0.00000000E+00  0.00000000E+00  0.00000000E+00  0.00000000E+00
  0.00000000E+00  0.00000000E+00  0.00000000E+00  0.00000000E+00  0.00000000E+00
  0.00000000E+00  0.00000000E+00  0.00000000E+00  0.00000000E+00  0.00000000E+00
  0.00000000E+00  0.00000000E+00  0.00000000E+00  0.00000000E+00  0.00000000E+00
  0.00000000E+00  0.00000000E+00  0.00000000E+00  0.00000000E+00  0.00000000E+00
IOpCl                                      I                0
IROHF                                      I                0
Alpha Orbital Energies                     R   N=         207
 -2.06907010E+01 -2.06842712E+01 -2.06606213E+01 -1.58127987E+01 -1.62411064E+00
 -1.49678692E+00 -1.25415714E+00 -9.48160087E-01 -7.73632959E-01 -7.58108939E-01
 -7.11982541E-01 -6.78901377E-01 -6.20754970E-01 -5.90966176E-01 -4.85432382E-01
 -4.72522083E-01  2.98148502E-02  7.16030874E-02  8.59279100E-02  1.01656982E-01
  1.33869713E-01  1.34058507E-01  1.44109228E-01  1.54622301E-01  1.78204545E-01
  1.94002286E-01  1.99659741E-01  2.06407681E-01  2.20722125E-01  2.35354985E-01
  2.37358837E-01  2.65324212E-01  2.93437433E-01  3.03730540E-01  3.10951576E-01
  3.43288157E-01  3.49996803E-01  3.87285065E-01  4.23323734E-01  4.31143139E-01
  5.27610838E-01  5.29366874E-01  5.58157405E-01  5.81213416E-01  6.26089161E-01
  6.38134965E-01  6.74617246E-01  6.84770355E-01  7.06488805E-01  7.10111693E-01
  7.27417245E-01  7.28588940E-01  7.44435105E-01  7.93121236E-01  7.94111450E-01
  8.11488128E-01  8.12249066E-01  8.29556878E-01  8.67784729E-01  9.08619212E-01
  9.21022970E-01  9.27278957E-01  9.54934171E-01  9.76629947E-01  9.85870413E-01
  1.01731160E+00  1.05160781E+00  1.05449948E+00  1.08262424E+00  1.11745530E+00
  1.14346559E+00  1.19008663E+00  1.22088552E+00  1.23496582E+00  1.33939061E+00
  1.35169730E+00  1.38568882E+00  1.45632091E+00  1.48718476E+00  1.50642742E+00
  1.53738073E+00  1.56659580E+00  1.57956178E+00  1.61089160E+00  1.66269876E+00
  1.67057810E+00  1.70313564E+00  1.79695788E+00  1.83074022E+00  1.83585560E+00
  1.87748274E+00  1.91102977E+00  1.95508489E+00  1.99375976E+00  2.00413370E+00
  2.07891184E+00  2.12562790E+00  2.13207124E+00  2.14966856E+00  2.22628932E+00
  2.26285139E+00  2.26421167E+00  2.29080322E+00  2.31385374E+00  2.34262622E+00
  2.38658982E+00  2.42722951E+00  2.43307568E+00  2.45339953E+00  2.46248737E+00
  2.47927774E+00  2.49966203E+00  2.59049052E+00  2.59868579E+00  2.62049955E+00
  2.62537957E+00  2.63510031E+00  2.66571793E+00  2.75793938E+00  2.82707616E+00
  2.84745222E+00  2.87996490E+00  2.89243324E+00  2.92745612E+00  2.95455620E+00
  3.02424341E+00  3.06894158E+00  3.12040388E+00  3.20833161E+00  3.22403995E+00
  3.31459165E+00  3.34265134E+00  3.51888494E+00  3.63850782E+00  3.83731055E+00
  3.84139089E+00  4.14635771E+00  4.17031161E+00  4.18348997E+00  4.25849808E+00
  4.34569813E+00  4.39582546E+00  4.46186095E+00  4.52643137E+00  4.65931179E+00
  4.72861838E+00  4.80308422E+00  4.82422593E+00  4.82790478E+00  4.89560876E+00
  5.02459904E+00  5.07705840E+00  5.10240589E+00  5.13799472E+00  5.17407199E+00
  5.24948922E+00  5.27043980E+00  5.30668602E+00  5.32859893E+00  5.35753009E+00
  5.60271078E+00  5.67352999E+00  5.76548238E+00  5.84034196E+00  5.95796707E+00
  6.17370494E+00  6.31103587E+00  6.33336869E+00  6.39346140E+00  6.49378124E+00
  6.50522237E+00  6.61490307E+00  6.66797652E+00  6.70227049E+00  6.76092575E+00
  6.76141435E+00  6.83443186E+00  6.89899045E+00  7.02353633E+00  7.05021502E+00
  7.05675699E+00  7.08922239E+00  7.12517061E+00  7.14321074E+00  7.18209219E+00
  7.22660674E+00  7.24159975E+00  7.30340984E+00  7.32453672E+00  7.34963973E+00
  7.39976787E+00  7.44648808E+00  7.48476557E+00  7.60722372E+00  7.62056496E+00
  7.62642671E+00  7.66671697E+00  7.79539756E+00  7.88705350E+00  8.09399915E+00
  8.31825256E+00  8.39665231E+00  8.54294918E+00  1.33892627E+01  1.43894203E+01
  1.51818530E+01  1.61538342E+01
Alpha MO coefficients                      R   N=       42849
  9.00598377E-05 -5.35844278E-04 -6.63728814E-04 -2.97754512E-06 -8.45834720E-06
 -2.96877322E-05  0.00000000E+00 -5.55616478E-05 -1.70767716E-06  0.00000000E+00
  7.51305858E-05  1.01619526E-05  0.00000000E+00  2.78011332E-05  0.00000000E+00
  0.00000000E+00 -5.90112777E-05  1.70101007E-05 -8.83021869E-06  0.00000000E+00
  0.00000000E+00 -1.57716934E-04  1.24799244E-04  4.70796114E-03 -2.91598905E-04
  2.32504032E-05  1.40134892E-03  1.73585352E-03  1.05582281E-04  9.85252842E-06
  0.00000000E+00 -6.16162832E-04 -6.48493672E-05  0.00000000E+00 -1.07646309E-03
  7.14230170E-04  0.00000000E+00 -3.90840676E-04  5.92152933E-05  0.00000000E+00
  2.86327478E-05  0.00000000E+00  0.00000000E+00 -5.28454535E-05  6.57464647E-06
 -3.70111669E-04  0.00000000E+00  0.00000000E+00  7.45393707E-04 -3.31671511E-05
 -4.37514874E-04  0.00000000E+00  0.00000000E+00  2.40021380E-04 -3.29732332E-06
  0.00000000E+00  7.97545908E-05  1.36039775E-05  0.00000000E+00  0.00000000E+00
 -1.09725456E-04 -1.94366374E-06  0.00000000E+00  2.55494571E-04 -2.69116452E-05
  0.00000000E+00  0.00000000E+00 -3.47249808E-04  4.32285272E-05  9.76908396E-01
 -9.21839731E-03  4.33215117E-02  2.03982056E-03 -8.77490235E-04  1.48765401E-03
 -1.35296618E-03  0.00000000E+00 -1.42819542E-03  1.38184368E-03  0.00000000E+00
  1.12428110E-04 -1.11399823E-03  0.00000000E+00 -1.24622454E-04 -7.63608872E-06
  0.00000000E+00  4.53229967E-05  0.00000000E+00  0.00000000E+00 -3.59996514E-05
  2.28700429E-05  7.48963173E-04  0.00000000E+00  0.00000000E+00 -2.24544215E-04
 -3.91718683E-04 -3.69631605E-04  0.00000000E+00  0.00000000E+00 -3.06627586E-04
 -3.49793020E-04  0.00000000E+00  4.71309728E-05 -4.83911786E-05  0.00000000E+00
  0.00000000E+00 -3.81114575E-05 -1.64429271E-05  0.00000000E+00  2.37259973E-05
  1.95716758E-05  0.00000000E+00  0.00000000E+00 -3.04918901E-04 -1.39715317E-04
  3.92449511E-05  4.64070116E-05 -2.65654944E-04 -6.83625329E-04 -1.39507195E-04
 -2.70057699E-05 -9.82499573E-05  0.00000000E+00  2.70405298E-04  7.14237325E-04
  0.00000000E+00 -8.19001883E-04 -4.38912649E-04  0.00000000E+00 -1.20204804E-04
 -2.42542206E-05  0.00000000E+00 -1.80060592E-05  0.00000000E+00  0.00000000E+00
 -2.95688186E-05  1.50673773E-05 -3.31023331E-04  0.00000000E+00  0.00000000E+00
 -8.32226117E-04  1.24876076E-04 -3.66026167E-05  0.00000000E+00  0.00000000E+00
  8.37620157E-05 -1.22647482E-04  0.00000000E+00 -2.06032309E-05 -1.20479070E-04
  0.00000000E+00  0.00000000E+00 -6.19844977E-05 -1.38418231E-04  0.00000000E+00
  3.33399932E-06 -1.54466357E-04  0.00000000E+00  0.00000000E+00  4.41501701E-05
 -4.18032192E-04 -2.64628223E-03  1.22741198E-04 -1.26645415E-04 -2.31425740E-04
  1.42376848E-04 -8.14515301E-06 -2.80171421E-05  0.00000000E+00  6.98083467E-05
  1.64987098E-04  0.00000000E+00  2.35315981E-04  1.81971996E-04  0.00000000E+00
  1.25331315E-04  2.24502237E-05  0.00000000E+00 -3.35992659E-06  0.00000000E+00
  0.00000000E+00 -1.79986329E-05  1.44444088E-06  6.60485203E-07  0.00000000E+00
  0.00000000E+00  8.08735257E-05  8.67535880E-05 -9.79415293E-05  0.00000000E+00
  0.00000000E+00  1.68806457E-04  1.54581438E-04  0.00000000E+00  1.58623977E-05
 -3.49932243E-06  0.00000000E+00  0.00000000E+00 -4.34015757E-06 -1.18708477E-05
  0.00000000E+00 -3.34891462E-05  4.57714513E-05  0.00000000E+00  0.00000000E+00
  8.41566644E-05  8.95382737E-05  4.25052448E-05 -9.88874430E-04 -4.80824015E-04
 -1.01419195E-05 -2.05543077E-05  1.53774430E-05  0.00000000E+00  2.63360725E-06
  2.77167697E-04  0.00000000E+00 -3.65035584E-05  1.32656842E-04  0.00000000E+00
  2.75337772E-05  0.00000000E+00  0.00000000E+00  1.10311890E-05  9.16384906E-06
 -2.54858899E-05  0.00000000E+00  0.00000000E+00  9.10400614E-06  3.06139144E-05
  1.15571698E-04  8.40989301E-05 -2.74243874E-05  7.53479244E-04  6.42045455E-04
  1.05234910E-05  2.42733190E-06  0.00000000E+00 -7.48092053E-05  1.79640152E-05
  0.00000000E+00  2.95361414E-04  8.95332699E-04  0.00000000E+00 -1.88765620E-06
  7.70418306E-05  0.00000000E+00 -2.39968356E-06  0.00000000E+00  0.00000000E+00
  8.76804963E-08 -5.50984499E-06 -3.54876974E-05  0.00000000E+00  0.00000000E+00
 -2.33894163E-05  7.73797096E-05 -2.36532059E-05  0.00000000E+00  0.00000000E+00
 -2.61985612E-04 -1.78443318E-04  0.00000000E+00  8.92822284E-06  5.93434757E-06
  0.00000000E+00  0.00000000E+00  2.92343196E-06 -1.92109783E-05  0.00000000E+00
 -3.80399282E-05 -3.78950638E-05  0.00000000E+00  0.00000000E+00 -7.13280086E-05
  1.79454489E-05  2.68529734E-03  3.90850602E-05  9.44208903E-05 -9.25121565E-05
 -4.57607497E-04  7.27224477E-06  1.58608096E-05  0.00000000E+00 -6.21223840E-05
 -5.68578890E-05  0.00000000E+00  2.32444973E-04 -1.76091623E-04  0.00000000E+00
 -1.83471217E-04 -6.23464987E-05  0.00000000E+00 -8.84362339E-06  0.00000000E+00
  0.00000000E+00  2.21056812E-05  1.99071122E-05  5.06270233E-06  0.00000000E+00
  0.00000000E+00 -1.15608261E-04 -4.77395183E-05 -8.14697461E-06  0.00000000E+00
  0.00000000E+00 -2.19676897E-04 -1.98022897E-04  0.00000000E+00  3.49627924E-06
 -1.83383869E-07  0.00000000E+00  0.00000000E+00  2.05848533E-06 -1.40296710E-05
  0.00000000E+00 -4.78254894E-05  1.73584176E-06  0.00000000E+00  0.00000000E+00
 -7.73070057E-05  1.89232454E-04  2.58637210E-04  1.46467687E-03 -7.82312811E-05
 -1.54138042E-03  3.88050015E-04 -1.44567556E-04 -3.47336651E-07  0.00000000E+00
 -2.08744628E-03 -4.04905725E-04  0.00000000E+00  1.05241499E-03  7.75541575E-04
  0.00000000E+00 -1.70863745E-04  5.38456978E-05  0.00000000E+00 -1.23317105E-04
  0.00000000E+00  0.00000000E+00  2.42841057E-04  9.47639178E-05 -4.42701581E-04
  0.00000000E+00  0.00000000E+00  8.97211198E-04 -6.39025989E-05  1.15828508E-05
  0.00000000E+00  0.00000000E+00 -3.42476737E-04 -1.22904158E-04  0.00000000E+00
 -1.42814503E-06  1.50540225E-05  0.00000000E+00  0.00000000E+00  1.89701311E-05
  1.33649856E-05  0.00000000E+00  1.65057436E-04 -7.16542874E-05  0.00000000E+00
  0.00000000E+00 -2.40451627E-04  4.09421830E-05  9.76648855E-01 -9.84864201E-03
  4.35682788E-02  4.51472756E-03 -4.37437110E-04  2.14706571E-03  4.82583902E-04
  0.00000000E+00 -2.38202269E-03 -6.05483905E-04  0.00000000E+00  1.14416145E-03
 -5.31075346E-06  0.00000000E+00  5.86784977E-06 -4.12795899E-05  0.00000000E+00
 -2.32466139E-04  0.00000000E+00  0.00000000E+00  1.02543952E-04  3.22743117E-05
  3.90195037E-04  0.00000000E+00  0.00000000E+00 -8.32461374E-04 -4.21011702E-04
 -1.52596042E-04  0.00000000E+00  0.00000000E+00  2.57642076E-04  1.59677162E-05
  0.00000000E+00  5.21313033E-05  1.77591015E-05  0.00000000E+00  0.00000000E+00
 -2.20146769E-05 -1.33145866E-05  0.00000000E+00  1.38585865E-04  9.52640678E-06
  0.00000000E+00  0.00000000E+00 -1.88830221E-04 -1.41399101E-04  4.70789334E-04
  1.95225542E-03  9.49190160E-05  1.80500621E-05 -3.82305294E-05 -2.48965724E-04
  0.00000000E+00  1.46024606E-04 -1.25043510E-03  0.00000000E+00  3.45558381E-04
 -3.33103149E-04  0.00000000E+00 -4.33006825E-06  0.00000000E+00  0.00000000E+00
  7.46718092E-05  2.63413286E-05 -1.69122250E-04  0.00000000E+00  0.00000000E+00
 -5.34117079E-04 -5.27507991E-05  9.76830516E-01 -9.17418114E-03  4.34435742E-02
  2.78998553E-04 -1.19777480E-03 -1.58268350E-03  1.42050897E-03  0.00000000E+00
  1.59931183E-03 -1.27376054E-03  0.00000000E+00 -5.38871707E-04 -7.74057394E-04
  0.00000000E+00  5.43847835E-05 -5.43827254E-05  0.00000000E+00  3.20264619E-05
  0.00000000E+00  0.00000000E+00 -1.17989375E-04 -1.24351747E-05  7.49567020E-04
  0.00000000E+00  0.00000000E+00 -1.97010318E-04 -2.01843624E-04 -2.69139149E-04
  0.00000000E+00  0.00000000E+00  1.44907541E-04  1.10599780E-04  0.00000000E+00
 -6.42384080E-05  2.69409687E-06  0.00000000E+00  0.00000000E+00  1.74486944E-05