 Entering Gaussian System, Link 0=g16
 Input=hoono_r2_1p472736.gjf
 Output=hoono_r2_1p472736.log
 Initial command:
 /sw/contrib/gaussian/g16/B01/g16/l1.exe "/scr/Gau-16324.inp" -scrdir="/scr/"
 Entering Link 1 = /sw/contrib/gaussian/g16/B01/g16/l1.exe PID=     16325.
  
 Copyright (c) 1988-2017, Gaussian, Inc.  All Rights Reserved.
  
 This is part of the Gaussian(R) 16 program.  It is based on
 the Gaussian(R) 09 system (copyright 2009, Gaussian, Inc.),
 the Gaussian(R) 03 system (copyright 2003, Gaussian, Inc.),
 the Gaussian(R) 98 system (copyright 1998, Gaussian, Inc.),
 the Gaussian(R) 94 system (copyright 1995, Gaussian, Inc.),
 the Gaussian 92(TM) system (copyright 1992, Gaussian, Inc.),
 the Gaussian 90(TM) system (copyright 1990, Gaussian, Inc.),
 the Gaussian 88(TM) system (copyright 1988, Gaussian, Inc.),
 the Gaussian 86(TM) system (copyright 1986, Carnegie Mellon
 University), and the Gaussian 82(TM) system (copyright 1983,
 Carnegie Mellon University). Gaussian is a federally registered
 trademark of Gaussian, Inc.
  
 This software contains proprietary and confidential information,
 including trade secrets, belonging to Gaussian, Inc.
  
 This software is provided under written license and may be
 used, copied, transmitted, or stored only in accord with that
 written license.
  
 The following legend is applicable only to US Government
 contracts under FAR:
  
                    RESTRICTED RIGHTS LEGEND
  
 Use, reproduction and disclosure by the US Government is
 subject to restrictions as set forth in subparagraphs (a)
 and (c) of the Commercial Computer Software - Restricted
 Rights clause in FAR 52.227-19.
  
 Gaussian, Inc.
 340 Quinnipiac St., Bldg. 40, Wallingford CT 06492
  
  
 ---------------------------------------------------------------
 Warning -- This program may not be used in any manner that
 competes with the business of Gaussian, Inc. or will provide
 assistance to any competitor of Gaussian, Inc.  The licensee
 of this program is prohibited from giving any competitor of
 Gaussian, Inc. access to this program.  By using this program,
 the user acknowledges that Gaussian, Inc. is engaged in the
 business of creating and licensing software in the field of
 computational chemistry and represents and warrants to the
 licensee that it is not a competitor of Gaussian, Inc. and that
 it will not use this program in any manner prohibited above.
 ---------------------------------------------------------------
  

 Cite this work as:
 Gaussian 16, Revision B.01,
 M. J. Frisch, G. W. Trucks, H. B. Schlegel, G. E. Scuseria, 
 M. A. Robb, J. R. Cheeseman, G. Scalmani, V. Barone, 
 G. A. Petersson, H. Nakatsuji, X. Li, M. Caricato, A. V. Marenich, 
 J. Bloino, B. G. Janesko, R. Gomperts, B. Mennucci, H. P. Hratchian, 
 J. V. Ortiz, A. F. Izmaylov, J. L. Sonnenberg, D. Williams-Young, 
 F. Ding, F. Lipparini, F. Egidi, J. Goings, B. Peng, A. Petrone, 
 T. Henderson, D. Ranasinghe, V. G. Zakrzewski, J. Gao, N. Rega, 
 G. Zheng, W. Liang, M. Hada, M. Ehara, K. Toyota, R. Fukuda, 
 J. Hasegawa, M. Ishida, T. Nakajima, Y. Honda, O. Kitao, H. Nakai, 
 T. Vreven, K. Throssell, J. A. Montgomery, Jr., J. E. Peralta, 
 F. Ogliaro, M. J. Bearpark, J. J. Heyd, E. N. Brothers, K. N. Kudin, 
 V. N. Staroverov, T. A. Keith, R. Kobayashi, J. Normand, 
 K. Raghavachari, A. P. Rendell, J. C. Burant, S. S. Iyengar, 
 J. Tomasi, M. Cossi, J. M. Millam, M. Klene, C. Adamo, R. Cammi, 
 J. W. Ochterski, R. L. Martin, K. Morokuma, O. Farkas, 
 J. B. Foresman, and D. J. Fox, Gaussian, Inc., Wallingford CT, 2016.
 
 ******************************************
 Gaussian 16:  ES64L-G16RevB.01 20-Dec-2017
                21-Feb-2022 
 ******************************************
 %nproc=28
 Will use up to   28 processors via shared memory.
 %mem=120GB
 %chk=hoono_r2_1p472736.chk
 ---------------------------------------
 #p freq mp2/aug-cc-pvtz density=current
 ---------------------------------------
 1/10=4,30=1,38=1/1,3;
 2/12=2,17=6,18=5,40=1/2;
 3/5=16,6=1,7=10,11=9,25=1,30=1,71=2,140=1/1,2,3;
 4//1;
 5/5=2,38=5,98=1/2;
 8/6=3,8=1,10=1,19=11,30=-1/1;
 9/15=3,16=-3/6;
 11/6=1,8=1,15=11,17=12,24=-1,27=1,28=-2,29=300,32=6,42=3/1,2,10;
 10/6=2,21=1/2;
 8/6=4,8=1,10=1,19=11,30=-1/11,4;
 10/5=1,20=4/2;
 11/12=2,14=11,16=1,17=2,28=-2,42=3,76=2/2,10,12;
 6/7=2,8=2,9=2,10=2,22=-1/1;
 7/8=1,10=1,12=2,25=1,44=2/1,2,3,16;
 1/10=4,30=1/3;
 99//99;
 Leave Link    1 at Mon Feb 21 20:07:15 2022, MaxMem= 16106127360 cpu:               2.3 elap:               0.1
 (Enter /sw/contrib/gaussian/g16/B01/g16/l101.exe)
 -----
 title
 -----
 Symbolic Z-matrix:
 Charge =  0 Multiplicity = 1
 H
 O                    1    r1
 O                    2    r2       1    a1
 N                    3    r3       2    a2       1    d1       0
 O                    4    r4       3    a3       2    d2       0
       Variables:
  r1                    0.96898                  
  r2                    1.47274                  
  r3                    1.45878                  
  r4                    1.17073                  
  a1                   97.59495                  
  a2                  102.29752                  
  a3                  109.06955                  
  d1                  180.                       
  d2                  180.                       
 
 ITRead=  0  0  0  0  0
 MicOpt= -1 -1 -1 -1 -1
 NAtoms=      5 NQM=        5 NQMF=       0 NMMI=      0 NMMIF=      0
                NMic=       0 NMicF=      0.
                    Isotopes and Nuclear Properties:
 (Nuclear quadrupole moments (NQMom) in fm**2, nuclear magnetic moments (NMagM)
  in nuclear magnetons)

  Atom         1           2           3           4           5
 IAtWgt=           1          16          16          14          16
 AtmWgt=   1.0078250  15.9949146  15.9949146  14.0030740  15.9949146
 NucSpn=           1           0           0           2           0
 AtZEff=  -0.0000000  -0.0000000  -0.0000000  -0.0000000  -0.0000000
 NQMom=    0.0000000   0.0000000   0.0000000   2.0440000   0.0000000
 NMagM=    2.7928460   0.0000000   0.0000000   0.4037610   0.0000000
 AtZNuc=   1.0000000   8.0000000   8.0000000   7.0000000   8.0000000
 Leave Link  101 at Mon Feb 21 20:07:15 2022, MaxMem= 16106127360 cpu:               3.3 elap:               0.2
 (Enter /sw/contrib/gaussian/g16/B01/g16/l103.exe)

 GradGradGradGradGradGradGradGradGradGradGradGradGradGradGradGradGradGrad
 Berny optimization.
 Initialization pass.
                       ----------------------------
                       !    Initial Parameters    !
                       ! (Angstroms and Degrees)  !
 ----------------------                            ----------------------
 !      Name          Value   Derivative information (Atomic Units)     !
 ------------------------------------------------------------------------
 !       r1          0.969    calculate D2E/DX2 analytically            !
 !       r2          1.4727   calculate D2E/DX2 analytically            !
 !       r3          1.4588   calculate D2E/DX2 analytically            !
 !       r4          1.1707   calculate D2E/DX2 analytically            !
 !       a1         97.5949   calculate D2E/DX2 analytically            !
 !       a2        102.2975   calculate D2E/DX2 analytically            !
 !       a3        109.0696   calculate D2E/DX2 analytically            !
 !       d1        180.0      calculate D2E/DX2 analytically            !
 !       d2        180.0      calculate D2E/DX2 analytically            !
 ------------------------------------------------------------------------
 Trust Radius=3.00D-01 FncErr=1.00D-07 GrdErr=1.00D-07 EigMax=2.50D+02 EigMin=1.00D-04
 Number of steps in this run=      2 maximum allowed number of steps=      2.
 GradGradGradGradGradGradGradGradGradGradGradGradGradGradGradGradGradGrad

 Leave Link  103 at Mon Feb 21 20:07:15 2022, MaxMem= 16106127360 cpu:               0.6 elap:               0.0
 (Enter /sw/contrib/gaussian/g16/B01/g16/l202.exe)
                          Input orientation:                          
 ---------------------------------------------------------------------
 Center     Atomic      Atomic             Coordinates (Angstroms)
 Number     Number       Type             X           Y           Z
 ---------------------------------------------------------------------
      1          1           0        0.000000    0.000000    0.000000
      2          8           0        0.000000    0.000000    0.968976
      3          8           0        1.459817    0.000000    1.163626
      4          7           0        1.579413    0.000000    2.617499
      5          8           0        2.713529    0.000000    2.907994
 ---------------------------------------------------------------------
                    Distance matrix (angstroms):
                    1          2          3          4          5
     1  H    0.000000
     2  O    0.968976   0.000000
     3  O    1.866840   1.472737   0.000000
     4  N    3.057098   2.283019   1.458784   0.000000
     5  O    3.977394   3.335121   2.148165   1.170729   0.000000
 Stoichiometry    HNO3
 Framework group  CS[SG(HNO3)]
 Deg. of freedom     7
 Full point group                 CS      NOp   2
 Largest Abelian subgroup         CS      NOp   2
 Largest concise Abelian subgroup C1      NOp   1
                         Standard orientation:                         
 ---------------------------------------------------------------------
 Center     Atomic      Atomic             Coordinates (Angstroms)
 Number     Number       Type             X           Y           Z
 ---------------------------------------------------------------------
      1          1           0        1.574429    1.675982    0.000000
      2          8           0        1.472206    0.712414   -0.000000
      3          8           0       -0.000000    0.672856    0.000000
      4          7           0       -0.272307   -0.760288   -0.000000
      5          8           0       -1.430740   -0.929516    0.000000
 ---------------------------------------------------------------------
 Rotational constants (GHZ):          54.5212259           4.9694316           4.5543202
 Leave Link  202 at Mon Feb 21 20:07:15 2022, MaxMem= 16106127360 cpu:               0.9 elap:               0.1
 (Enter /sw/contrib/gaussian/g16/B01/g16/l301.exe)
 Standard basis: Aug-CC-pVTZ (5D, 7F)
 Ernie: Thresh=  0.10000D-02 Tol=  0.10000D-05 Strict=F.
 Ernie:  12 primitive shells out of 131 were deleted.
 There are   166 symmetry adapted cartesian basis functions of A'  symmetry.
 There are    79 symmetry adapted cartesian basis functions of A"  symmetry.
 There are   136 symmetry adapted basis functions of A'  symmetry.
 There are    71 symmetry adapted basis functions of A"  symmetry.
   207 basis functions,   315 primitive gaussians,   245 cartesian basis functions
    16 alpha electrons       16 beta electrons
       nuclear repulsion energy       116.4360114781 Hartrees.
 IExCor=    0 DFT=F Ex=HF Corr=None ExCW=0 ScaHFX=  1.000000
 ScaDFX=  1.000000  1.000000  1.000000  1.000000 ScalE2=  1.000000  1.000000
 IRadAn=      5 IRanWt=     -1 IRanGd=            0 ICorTp=0 IEmpDi=  4
 NAtoms=    5 NActive=    5 NUniq=    5 SFac= 1.00D+00 NAtFMM=   60 NAOKFM=F Big=F
 Integral buffers will be    131072 words long.
 Raffenetti 1 integral format.
 Two-electron integral symmetry is turned on.
 Leave Link  301 at Mon Feb 21 20:07:15 2022, MaxMem= 16106127360 cpu:               1.7 elap:               0.1
 (Enter /sw/contrib/gaussian/g16/B01/g16/l302.exe)
 NPDir=0 NMtPBC=     1 NCelOv=     1 NCel=       1 NClECP=     1 NCelD=      1
         NCelK=      1 NCelE2=     1 NClLst=     1 CellRange=     0.0.
 One-electron integrals computed using PRISM.
 One-electron integral symmetry used in STVInt
 NBasis=   207 RedAO= T EigKep=  1.84D-04  NBF=   136    71
 NBsUse=   207 1.00D-06 EigRej= -1.00D+00 NBFU=   136    71
 Leave Link  302 at Mon Feb 21 20:07:15 2022, MaxMem= 16106127360 cpu:               4.7 elap:               0.2
 (Enter /sw/contrib/gaussian/g16/B01/g16/l303.exe)
 DipDrv:  MaxL=1.
 Leave Link  303 at Mon Feb 21 20:07:15 2022, MaxMem= 16106127360 cpu:               1.6 elap:               0.1
 (Enter /sw/contrib/gaussian/g16/B01/g16/l401.exe)
 ExpMin= 2.53D-02 ExpMax= 1.53D+04 ExpMxC= 5.22D+02 IAcc=3 IRadAn=         5 AccDes= 0.00D+00
 Harris functional with IExCor=  205 and IRadAn=       5 diagonalized for initial guess.
 HarFok:  IExCor=  205 AccDes= 0.00D+00 IRadAn=         5 IDoV= 1 UseB2=F ITyADJ=14
 ICtDFT=  3500011 ScaDFX=  1.000000  1.000000  1.000000  1.000000
 FoFCou: FMM=F IPFlag=           0 FMFlag=      100000 FMFlg1=           0
         NFxFlg=           0 DoJE=T BraDBF=F KetDBF=T FulRan=T
         wScrn=  0.000000 ICntrl=       500 IOpCl=  0 I1Cent=   200000004 NGrid=           0
         NMat0=    1 NMatS0=      1 NMatT0=    0 NMatD0=    1 NMtDS0=    0 NMtDT0=    0
 Petite list used in FoFCou.
 Harris En= -279.627812146247    
 JPrj=0 DoOrth=F DoCkMO=F.
 Initial guess orbital symmetries:
       Occupied  (A') (A') (A') (A') (A') (A') (A') (A') (A') (A')
                 (A") (A') (A') (A") (A") (A')
       Virtual   (A") (A') (A') (A') (A') (A') (A") (A') (A') (A')
                 (A") (A') (A") (A') (A') (A") (A') (A") (A') (A')
                 (A') (A') (A') (A') (A') (A") (A') (A") (A') (A')
                 (A") (A') (A") (A') (A') (A") (A') (A") (A') (A')
                 (A") (A') (A") (A') (A") (A') (A') (A') (A") (A")
                 (A') (A') (A') (A') (A") (A') (A") (A') (A") (A')
                 (A') (A') (A") (A') (A') (A") (A') (A") (A') (A')
                 (A") (A') (A') (A") (A") (A') (A') (A") (A') (A')
                 (A') (A") (A') (A") (A') (A") (A') (A") (A') (A')
                 (A') (A") (A') (A") (A') (A") (A") (A') (A') (A")
                 (A') (A') (A") (A') (A') (A') (A') (A") (A") (A')
                 (A") (A') (A') (A') (A") (A') (A') (A') (A") (A')
                 (A") (A') (A') (A") (A") (A') (A") (A') (A") (A')
                 (A') (A') (A') (A") (A") (A') (A") (A') (A') (A')
                 (A') (A") (A") (A') (A') (A") (A') (A') (A') (A')
                 (A') (A") (A') (A") (A') (A") (A') (A") (A") (A')
                 (A') (A") (A') (A") (A') (A") (A") (A") (A') (A')
                 (A") (A') (A") (A') (A') (A") (A") (A") (A') (A')
                 (A') (A') (A') (A') (A') (A') (A') (A') (A') (A')
                 (A')
 The electronic state of the initial guess is 1-A'.
 Leave Link  401 at Mon Feb 21 20:07:16 2022, MaxMem= 16106127360 cpu:               7.3 elap:               0.3
 (Enter /sw/contrib/gaussian/g16/B01/g16/l502.exe)
 Keep R1 ints in memory in symmetry-blocked form, NReq=348887737.
 FoFCou: FMM=F IPFlag=           0 FMFlag=           0 FMFlg1=           0
         NFxFlg=           0 DoJE=F BraDBF=F KetDBF=F FulRan=T
         wScrn=  0.000000 ICntrl=       600 IOpCl=  0 I1Cent=           0 NGrid=           0
         NMat0=    1 NMatS0=  21528 NMatT0=    0 NMatD0=    1 NMtDS0=    0 NMtDT0=    0
 Petite list used in FoFCou.
 Closed shell SCF:
 Using DIIS extrapolation, IDIIS=  1040.
 NGot= 16106127360 LenX= 15988850015 LenY= 15988789549
 Requested convergence on RMS density matrix=1.00D-08 within 128 cycles.
 Requested convergence on MAX density matrix=1.00D-06.
 Requested convergence on             energy=1.00D-06.
 No special actions if energy rises.

 Cycle   1  Pass 1  IDiag  1:
 E= -279.368328725079    
 DIIS: error= 2.94D-02 at cycle   1 NSaved=   1.
 NSaved= 1 IEnMin= 1 EnMin= -279.368328725079     IErMin= 1 ErrMin= 2.94D-02
 ErrMax= 2.94D-02  0.00D+00 EMaxC= 1.00D-01 BMatC= 4.38D-01 BMatP= 4.38D-01
 IDIUse=3 WtCom= 7.06D-01 WtEn= 2.94D-01
 Coeff-Com:  0.100D+01
 Coeff-En:   0.100D+01
 Coeff:      0.100D+01
 Gap=     0.516 Goal=   None    Shift=    0.000
 GapD=    0.516 DampG=2.000 DampE=0.500 DampFc=1.0000 IDamp=-1.
 RMSDP=1.62D-03 MaxDP=9.92D-02              OVMax= 1.14D-01

 Cycle   2  Pass 1  IDiag  1:
 E= -279.449717682900     Delta-E=       -0.081388957822 Rises=F Damp=F
 DIIS: error= 1.82D-02 at cycle   2 NSaved=   2.
 NSaved= 2 IEnMin= 2 EnMin= -279.449717682900     IErMin= 2 ErrMin= 1.82D-02
 ErrMax= 1.82D-02  0.00D+00 EMaxC= 1.00D-01 BMatC= 7.34D-02 BMatP= 4.38D-01
 IDIUse=3 WtCom= 8.18D-01 WtEn= 1.82D-01
 Coeff-Com:  0.198D+00 0.802D+00
 Coeff-En:   0.555D-02 0.994D+00
 Coeff:      0.163D+00 0.837D+00
 Gap=     0.530 Goal=   None    Shift=    0.000
 RMSDP=9.07D-04 MaxDP=3.72D-02 DE=-8.14D-02 OVMax= 7.01D-02

 Cycle   3  Pass 1  IDiag  1:
 E= -279.479463800258     Delta-E=       -0.029746117358 Rises=F Damp=F
 DIIS: error= 1.06D-02 at cycle   3 NSaved=   3.
 NSaved= 3 IEnMin= 3 EnMin= -279.479463800258     IErMin= 3 ErrMin= 1.06D-02
 ErrMax= 1.06D-02  0.00D+00 EMaxC= 1.00D-01 BMatC= 2.93D-02 BMatP= 7.34D-02
 IDIUse=3 WtCom= 8.94D-01 WtEn= 1.06D-01
 Coeff-Com: -0.332D-01 0.378D+00 0.655D+00
 Coeff-En:   0.000D+00 0.242D+00 0.758D+00
 Coeff:     -0.297D-01 0.364D+00 0.666D+00
 Gap=     0.511 Goal=   None    Shift=    0.000
 RMSDP=3.79D-04 MaxDP=1.51D-02 DE=-2.97D-02 OVMax= 3.85D-02

 Cycle   4  Pass 1  IDiag  1:
 E= -279.498981113637     Delta-E=       -0.019517313379 Rises=F Damp=F
 DIIS: error= 1.31D-03 at cycle   4 NSaved=   4.
 NSaved= 4 IEnMin= 4 EnMin= -279.498981113637     IErMin= 4 ErrMin= 1.31D-03
 ErrMax= 1.31D-03  0.00D+00 EMaxC= 1.00D-01 BMatC= 5.08D-04 BMatP= 2.93D-02
 IDIUse=3 WtCom= 9.87D-01 WtEn= 1.31D-02
 Coeff-Com: -0.119D-01 0.589D-01 0.162D+00 0.792D+00
 Coeff-En:   0.000D+00 0.000D+00 0.000D+00 0.100D+01
 Coeff:     -0.118D-01 0.581D-01 0.159D+00 0.794D+00
 Gap=     0.503 Goal=   None    Shift=    0.000
 RMSDP=9.03D-05 MaxDP=2.84D-03 DE=-1.95D-02 OVMax= 1.13D-02

 Cycle   5  Pass 1  IDiag  1:
 E= -279.499660103855     Delta-E=       -0.000678990218 Rises=F Damp=F
 DIIS: error= 7.46D-04 at cycle   5 NSaved=   5.
 NSaved= 5 IEnMin= 5 EnMin= -279.499660103855     IErMin= 5 ErrMin= 7.46D-04
 ErrMax= 7.46D-04  0.00D+00 EMaxC= 1.00D-01 BMatC= 8.80D-05 BMatP= 5.08D-04
 IDIUse=3 WtCom= 9.93D-01 WtEn= 7.46D-03
 Coeff-Com:  0.610D-02-0.719D-01-0.117D+00 0.259D-01 0.116D+01
 Coeff-En:   0.000D+00 0.000D+00 0.000D+00 0.000D+00 0.100D+01
 Coeff:      0.606D-02-0.714D-01-0.116D+00 0.257D-01 0.116D+01
 Gap=     0.502 Goal=   None    Shift=    0.000
 RMSDP=7.53D-05 MaxDP=2.07D-03 DE=-6.79D-04 OVMax= 1.09D-02

 Cycle   6  Pass 1  IDiag  1:
 E= -279.499972266092     Delta-E=       -0.000312162237 Rises=F Damp=F
 DIIS: error= 2.96D-04 at cycle   6 NSaved=   6.
 NSaved= 6 IEnMin= 6 EnMin= -279.499972266092     IErMin= 6 ErrMin= 2.96D-04
 ErrMax= 2.96D-04  0.00D+00 EMaxC= 1.00D-01 BMatC= 1.70D-05 BMatP= 8.80D-05
 IDIUse=3 WtCom= 9.97D-01 WtEn= 2.96D-03
 Coeff-Com:  0.837D-03-0.139D-02-0.736D-03-0.125D+00-0.190D+00 0.132D+01
 Coeff-En:   0.000D+00 0.000D+00 0.000D+00 0.000D+00 0.000D+00 0.100D+01
 Coeff:      0.835D-03-0.139D-02-0.734D-03-0.124D+00-0.189D+00 0.131D+01
 Gap=     0.503 Goal=   None    Shift=    0.000
 RMSDP=4.42D-05 MaxDP=1.23D-03 DE=-3.12D-04 OVMax= 5.37D-03

 Cycle   7  Pass 1  IDiag  1:
 E= -279.500044000041     Delta-E=       -0.000071733949 Rises=F Damp=F
 DIIS: error= 1.30D-04 at cycle   7 NSaved=   7.
 NSaved= 7 IEnMin= 7 EnMin= -279.500044000041     IErMin= 7 ErrMin= 1.30D-04
 ErrMax= 1.30D-04  0.00D+00 EMaxC= 1.00D-01 BMatC= 5.38D-06 BMatP= 1.70D-05
 IDIUse=3 WtCom= 9.99D-01 WtEn= 1.30D-03
 Coeff-Com: -0.947D-03 0.140D-01 0.271D-01-0.304D-01-0.308D+00 0.456D+00
 Coeff-Com:  0.843D+00
 Coeff-En:   0.000D+00 0.000D+00 0.000D+00 0.000D+00 0.000D+00 0.000D+00
 Coeff-En:   0.100D+01
 Coeff:     -0.945D-03 0.139D-01 0.270D-01-0.304D-01-0.308D+00 0.455D+00
 Coeff:      0.843D+00
 Gap=     0.503 Goal=   None    Shift=    0.000
 RMSDP=1.39D-05 MaxDP=3.87D-04 DE=-7.17D-05 OVMax= 1.60D-03

 Cycle   8  Pass 1  IDiag  1:
 E= -279.500054035916     Delta-E=       -0.000010035875 Rises=F Damp=F
 DIIS: error= 5.34D-05 at cycle   8 NSaved=   8.
 NSaved= 8 IEnMin= 8 EnMin= -279.500054035916     IErMin= 8 ErrMin= 5.34D-05
 ErrMax= 5.34D-05  0.00D+00 EMaxC= 1.00D-01 BMatC= 6.08D-07 BMatP= 5.38D-06
 IDIUse=1 WtCom= 1.00D+00 WtEn= 0.00D+00
 Coeff-Com: -0.446D-03 0.341D-02 0.750D-02 0.275D-01-0.407D-01-0.191D+00
 Coeff-Com:  0.921D-01 0.110D+01
 Coeff:     -0.446D-03 0.341D-02 0.750D-02 0.275D-01-0.407D-01-0.191D+00
 Coeff:      0.921D-01 0.110D+01
 Gap=     0.502 Goal=   None    Shift=    0.000
 RMSDP=7.38D-06 MaxDP=2.14D-04 DE=-1.00D-05 OVMax= 7.98D-04

 Cycle   9  Pass 1  IDiag  1:
 E= -279.500055979923     Delta-E=       -0.000001944006 Rises=F Damp=F
 DIIS: error= 1.59D-05 at cycle   9 NSaved=   9.
 NSaved= 9 IEnMin= 9 EnMin= -279.500055979923     IErMin= 9 ErrMin= 1.59D-05
 ErrMax= 1.59D-05  0.00D+00 EMaxC= 1.00D-01 BMatC= 6.65D-08 BMatP= 6.08D-07
 IDIUse=1 WtCom= 1.00D+00 WtEn= 0.00D+00
 Coeff-Com:  0.124D-03-0.172D-02-0.306D-02-0.193D-02 0.342D-01 0.427D-03
 Coeff-Com: -0.143D+00-0.141D+00 0.126D+01
 Coeff:      0.124D-03-0.172D-02-0.306D-02-0.193D-02 0.342D-01 0.427D-03
 Coeff:     -0.143D+00-0.141D+00 0.126D+01
 Gap=     0.502 Goal=   None    Shift=    0.000
 RMSDP=1.94D-06 MaxDP=6.62D-05 DE=-1.94D-06 OVMax= 1.72D-04

 Cycle  10  Pass 1  IDiag  1:
 E= -279.500056139502     Delta-E=       -0.000000159579 Rises=F Damp=F
 DIIS: error= 4.09D-06 at cycle  10 NSaved=  10.
 NSaved=10 IEnMin=10 EnMin= -279.500056139502     IErMin=10 ErrMin= 4.09D-06
 ErrMax= 4.09D-06  0.00D+00 EMaxC= 1.00D-01 BMatC= 5.54D-09 BMatP= 6.65D-08
 IDIUse=1 WtCom= 1.00D+00 WtEn= 0.00D+00
 Coeff-Com:  0.299D-04-0.229D-03-0.300D-03-0.265D-02 0.130D-02 0.193D-01
 Coeff-Com: -0.691D-02-0.786D-01-0.849D-01 0.115D+01
 Coeff:      0.299D-04-0.229D-03-0.300D-03-0.265D-02 0.130D-02 0.193D-01
 Coeff:     -0.691D-02-0.786D-01-0.849D-01 0.115D+01
 Gap=     0.502 Goal=   None    Shift=    0.000
 RMSDP=5.08D-07 MaxDP=2.11D-05 DE=-1.60D-07 OVMax= 4.11D-05

 Cycle  11  Pass 1  IDiag  1:
 E= -279.500056152073     Delta-E=       -0.000000012571 Rises=F Damp=F
 DIIS: error= 2.01D-06 at cycle  11 NSaved=  11.
 NSaved=11 IEnMin=11 EnMin= -279.500056152073     IErMin=11 ErrMin= 2.01D-06
 ErrMax= 2.01D-06  0.00D+00 EMaxC= 1.00D-01 BMatC= 6.49D-10 BMatP= 5.54D-09
 IDIUse=1 WtCom= 1.00D+00 WtEn= 0.00D+00
 Coeff-Com: -0.213D-04 0.243D-03 0.481D-03 0.507D-03-0.428D-02-0.329D-02
 Coeff-Com:  0.166D-01 0.363D-01-0.138D+00-0.179D+00 0.127D+01
 Coeff:     -0.213D-04 0.243D-03 0.481D-03 0.507D-03-0.428D-02-0.329D-02
 Coeff:      0.166D-01 0.363D-01-0.138D+00-0.179D+00 0.127D+01
 Gap=     0.502 Goal=   None    Shift=    0.000
 RMSDP=1.77D-07 MaxDP=6.45D-06 DE=-1.26D-08 OVMax= 1.74D-05

 Cycle  12  Pass 1  IDiag  1:
 E= -279.500056153858     Delta-E=       -0.000000001785 Rises=F Damp=F
 DIIS: error= 5.81D-07 at cycle  12 NSaved=  12.
 NSaved=12 IEnMin=12 EnMin= -279.500056153858     IErMin=12 ErrMin= 5.81D-07
 ErrMax= 5.81D-07  0.00D+00 EMaxC= 1.00D-01 BMatC= 7.15D-11 BMatP= 6.49D-10
 IDIUse=1 WtCom= 1.00D+00 WtEn= 0.00D+00
 Coeff-Com:  0.123D-05-0.292D-04-0.625D-04 0.188D-03 0.109D-02-0.224D-02
 Coeff-Com: -0.408D-02 0.507D-02 0.419D-01-0.115D+00-0.275D+00 0.135D+01
 Coeff:      0.123D-05-0.292D-04-0.625D-04 0.188D-03 0.109D-02-0.224D-02
 Coeff:     -0.408D-02 0.507D-02 0.419D-01-0.115D+00-0.275D+00 0.135D+01
 Gap=     0.502 Goal=   None    Shift=    0.000
 RMSDP=7.16D-08 MaxDP=2.83D-06 DE=-1.78D-09 OVMax= 6.74D-06

 Cycle  13  Pass 1  IDiag  1:
 E= -279.500056154087     Delta-E=       -0.000000000229 Rises=F Damp=F
 DIIS: error= 1.75D-07 at cycle  13 NSaved=  13.
 NSaved=13 IEnMin=13 EnMin= -279.500056154087     IErMin=13 ErrMin= 1.75D-07
 ErrMax= 1.75D-07  0.00D+00 EMaxC= 1.00D-01 BMatC= 4.11D-12 BMatP= 7.15D-11
 IDIUse=1 WtCom= 1.00D+00 WtEn= 0.00D+00
 Coeff-Com:  0.130D-05-0.141D-04-0.227D-04-0.874D-04 0.121D-03 0.731D-03
 Coeff-Com: -0.556D-03-0.354D-02 0.580D-03 0.417D-01-0.387D-01-0.324D+00
 Coeff-Com:  0.132D+01
 Coeff:      0.130D-05-0.141D-04-0.227D-04-0.874D-04 0.121D-03 0.731D-03
 Coeff:     -0.556D-03-0.354D-02 0.580D-03 0.417D-01-0.387D-01-0.324D+00
 Coeff:      0.132D+01
 Gap=     0.502 Goal=   None    Shift=    0.000
 RMSDP=1.94D-08 MaxDP=5.64D-07 DE=-2.29D-10 OVMax= 1.61D-06

 Cycle  14  Pass 1  IDiag  1:
 E= -279.500056154100     Delta-E=       -0.000000000012 Rises=F Damp=F
 DIIS: error= 2.59D-08 at cycle  14 NSaved=  14.
 NSaved=14 IEnMin=14 EnMin= -279.500056154100     IErMin=14 ErrMin= 2.59D-08
 ErrMax= 2.59D-08  0.00D+00 EMaxC= 1.00D-01 BMatC= 2.17D-13 BMatP= 4.11D-12
 IDIUse=1 WtCom= 1.00D+00 WtEn= 0.00D+00
 Coeff-Com: -0.198D-06 0.324D-05 0.572D-05 0.450D-05-0.857D-04 0.476D-04
 Coeff-Com:  0.249D-03 0.287D-03-0.253D-02 0.148D-02 0.177D-01-0.260D-01
 Coeff-Com: -0.209D+00 0.122D+01
 Coeff:     -0.198D-06 0.324D-05 0.572D-05 0.450D-05-0.857D-04 0.476D-04
 Coeff:      0.249D-03 0.287D-03-0.253D-02 0.148D-02 0.177D-01-0.260D-01
 Coeff:     -0.209D+00 0.122D+01
 Gap=     0.502 Goal=   None    Shift=    0.000
 RMSDP=3.97D-09 MaxDP=9.27D-08 DE=-1.23D-11 OVMax= 3.68D-07

 SCF Done:  E(RHF) =  -279.500056154     A.U. after   14 cycles
            NFock= 14  Conv=0.40D-08     -V/T= 2.0025
 KE= 2.788156770502D+02 PE=-8.941794043858D+02 EE= 2.194276597034D+02
 Leave Link  502 at Mon Feb 21 20:07:19 2022, MaxMem= 16106127360 cpu:              55.1 elap:               3.5
 (Enter /sw/contrib/gaussian/g16/B01/g16/l801.exe)
 ExpMin= 2.53D-02 ExpMax= 1.53D+04 ExpMxC= 5.22D+02 IAcc=3 IRadAn=         5 AccDes= 0.00D+00
 HarFok:  IExCor=  205 AccDes= 0.00D+00 IRadAn=         5 IDoV=-2 UseB2=F ITyADJ=14
 ICtDFT= 12500011 ScaDFX=  1.000000  1.000000  1.000000  1.000000
 Largest valence mixing into a core orbital is  2.08D-04
 Largest core mixing into a valence orbital is  3.64D-05
 Range of M.O.s used for correlation:     5   207
 NBasis=   207 NAE=    16 NBE=    16 NFC=     4 NFV=     0
 NROrb=    203 NOA=    12 NOB=    12 NVA=   191 NVB=   191

 **** Warning!!: The largest alpha MO coefficient is  0.17537597D+02

 Leave Link  801 at Mon Feb 21 20:07:20 2022, MaxMem= 16106127360 cpu:               4.9 elap:               0.2
 (Enter /sw/contrib/gaussian/g16/B01/g16/l906.exe)
 Frozen-core derivative calculation, NFC=   4 NFV=   0.
 FulOut=F Deriv=T AODrv=T NAtomX=     5
   MMem=           0  MDisk=          12 MDiskD=          12
  W3Min=      811440 MinDsk=     2425030 NBas6D=         245
 NBas2D=       30762    NTT=       30135    LW2=     7400000
    MDV= 16105574339 MDiskM=      328644 NBas2p=       30702
 Disk-based method using ON**2 memory for 12 occupieds at a time.
 Permanent disk used for amplitudes=    11516536 words.
 Estimated scratch disk usage=   321251614 words.
 IMap=   1   2   3   4   5   6   7   8   9  10  11  12  13  14  15  16
 Actual    scratch disk usage=   310331678 words.
 JobTyp=1 Pass  1:  I=   5 to  16 NPSUse= 28 ParTrn=T ParDer=T DoDerP=T.
 (rs|ai) integrals will be sorted in core.
 Spin components of T(2) and E(2):
     alpha-alpha T2 =       0.3419276477D-01 E2=     -0.1225176006D+00
     alpha-beta  T2 =       0.1881555447D+00 E2=     -0.7014810347D+00
     beta-beta   T2 =       0.3419276477D-01 E2=     -0.1225176006D+00
 The integrals were generated   1 times.
 ANorm=    0.1120955429D+01
 E2 =    -0.9465162359D+00 EUMP2 =    -0.28044657238997D+03
 Leave Link  906 at Mon Feb 21 20:08:56 2022, MaxMem= 16106127360 cpu:            2709.7 elap:              96.9
 (Enter /sw/contrib/gaussian/g16/B01/g16/l1101.exe)
 Using compressed Sx but separate Hx and Fx, NAtomX=     5.
 Will process      6 centers per pass.
 Leave Link 1101 at Mon Feb 21 20:08:57 2022, MaxMem= 16106127360 cpu:               5.5 elap:               0.2
 (Enter /sw/contrib/gaussian/g16/B01/g16/l1102.exe)
 Leave Link 1102 at Mon Feb 21 20:08:57 2022, MaxMem= 16106127360 cpu:               1.3 elap:               0.1
 (Enter /sw/contrib/gaussian/g16/B01/g16/l1110.exe)
 Forming Gx(P) for the SCF density, NAtomX=     5.
 Integral derivatives from FoFJK, PRISM(SPDF).
 Do as many integral derivatives as possible in FoFJK.
 G2DrvN: MDV=   16106126844.
 G2DrvN: will do     6 centers at a time, making    1 passes.
 Calling FoFCou, ICntrl=  3107 FMM=F I1Cent=   0 AccDes= 0.00D+00.
 FoFJK:  IHMeth= 1 ICntrl=    3107 DoSepK=F KAlg= 0 I1Cent=           0 FoldK=F
 IRaf=         0 NMat=       1 IRICut=       1 DoRegI=T DoRafI=F ISym2E= 1 IDoP0=0 IntGTp=1.
 FoFCou: FMM=F IPFlag=           0 FMFlag=      100000 FMFlg1=           0
         NFxFlg=           0 DoJE=F BraDBF=F KetDBF=F FulRan=T
         wScrn=  0.000000 ICntrl=      3107 IOpCl=  0 I1Cent=           0 NGrid=           0
         NMat0=    1 NMatS0=      1 NMatT0=    0 NMatD0=    1 NMtDS0=    0 NMtDT0=    0
 Petite list used in FoFCou.
 End of G2Drv F.D. properties file   721 does not exist.
 End of G2Drv F.D. properties file   722 does not exist.
 End of G2Drv F.D. properties file   788 does not exist.
 Leave Link 1110 at Mon Feb 21 20:09:00 2022, MaxMem= 16106127360 cpu:              83.3 elap:               3.0
 (Enter /sw/contrib/gaussian/g16/B01/g16/l1002.exe)
 Minotr:  Closed shell wavefunction.
          IDoAtm=11111
          Frozen-core window.
          Direct CPHF calculation.
          Differentiating once with respect to electric field.
                with respect to dipole field.
          Differentiating once with respect to nuclear coordinates.
          Requested convergence is 1.0D-08 RMS, and 1.0D-07 maximum.
          Secondary convergence is 1.0D-12 RMS, and 1.0D-12 maximum.
          NewPWx=T KeepS1=T KeepF1=T KeepIn=T MapXYZ=F SortEE=F KeepMc=T.
 Keep R1 ints in memory in symmetry-blocked form, NReq=348888983.
 FoFCou: FMM=F IPFlag=           0 FMFlag=           0 FMFlg1=           0
         NFxFlg=           0 DoJE=F BraDBF=F KetDBF=F FulRan=T
         wScrn=  0.000000 ICntrl=       600 IOpCl=  0 I1Cent=           0 NGrid=           0
         NMat0=    1 NMatS0=  21528 NMatT0=    0 NMatD0=    1 NMtDS0=    0 NMtDT0=    0
 Petite list used in FoFCou.
          MDV=   16106127360 using IRadAn=       1.
          Solving linear equations simultaneously, MaxMat=       0.
          There are    18 degrees of freedom in the 1st order CPHF.  IDoFFX=6 NUNeed=    18.
     15 vectors produced by pass  0 Test12= 1.70D-14 5.56D-09 XBig12= 8.52D+00 9.92D-01.
 AX will form    15 AO Fock derivatives at one time.
     15 vectors produced by pass  1 Test12= 1.70D-14 5.56D-09 XBig12= 1.37D+00 2.68D-01.
     15 vectors produced by pass  2 Test12= 1.70D-14 5.56D-09 XBig12= 1.45D-01 9.51D-02.
     15 vectors produced by pass  3 Test12= 1.70D-14 5.56D-09 XBig12= 5.04D-03 1.06D-02.
     15 vectors produced by pass  4 Test12= 1.70D-14 5.56D-09 XBig12= 9.99D-05 1.89D-03.
     15 vectors produced by pass  5 Test12= 1.70D-14 5.56D-09 XBig12= 1.42D-06 1.77D-04.
     15 vectors produced by pass  6 Test12= 1.70D-14 5.56D-09 XBig12= 1.12D-08 1.50D-05.
     12 vectors produced by pass  7 Test12= 1.70D-14 5.56D-09 XBig12= 8.28D-11 1.28D-06.
      3 vectors produced by pass  8 Test12= 1.70D-14 5.56D-09 XBig12= 5.88D-13 1.23D-07.
      2 vectors produced by pass  9 Test12= 1.70D-14 5.56D-09 XBig12= 3.88D-15 1.05D-08.
 InvSVY:  IOpt=1 It=  1 EMax= 8.88D-16
 Solved reduced A of dimension   122 with    15 vectors.
 FullF1:  Do perturbations      1 to      18.
 Saving first derivative matrices.
 End of Minotr F.D. properties file   721 does not exist.
 End of Minotr F.D. properties file   722 does not exist.
 End of Minotr F.D. properties file   788 does not exist.
 Leave Link 1002 at Mon Feb 21 20:09:03 2022, MaxMem= 16106127360 cpu:              91.6 elap:               3.3
 (Enter /sw/contrib/gaussian/g16/B01/g16/l811.exe)
 MDV= 16106127360.
 Form MO integral derivatives with frozen-active canonical formalism.
 MOERI=1 MOERIx=1 NAtoms=     5 NAtomX=     5.
 Discarding MO integrals.
 MO basis two electron integral derivatives will not be stored on disk.
 IAlg= 3 DoFC=T DoPWx=T Debug=F.
 Frozen-core window:  NFC=   4 NFV=   0.
 Reordered first order wavefunction length =     18678272
 In DefCFB: NBatch=  1 ICI= 16 ICA=191 LFMax= 96
            Large arrays: LIAPS=   619940160 LIARS=   288257200 words.
 In StABat: MaxSiz= 55 MinSiz= 25 NAtomB=  5
 DoIAMN: NPSUse= 28.
 Leave Link  811 at Mon Feb 21 20:10:26 2022, MaxMem= 16106127360 cpu:            2315.5 elap:              82.9
 (Enter /sw/contrib/gaussian/g16/B01/g16/l804.exe)
 Frozen-core window:  NFC=   4 NFV=   0.
 Closed-shell transformation, MDV= 16106127360 ITran=4 ISComp=1.
 Semi-Direct transformation.
 ModeAB=           2 MOrb=            16 LenV=   16104923065
 LASXX=     67341636 LTotXX=    67341636 LenRXX=    67341636
 LTotAB=    68301760 MaxLAS=    99807120 LenRXY=    99807120
 NonZer=   134683272 LenScr=   202817536 LnRSAI=           0
 LnScr1=           0 LExtra=           0 Total=    369966292
 MaxDsk=          -1 SrtSym=           F ITran=            4
 DoSDTr:  NPSUse= 28
 JobTyp=0 Pass  1:  I=   1 to  16.
 (rs|ai) integrals will be sorted in core.
 Complete sort for first half transformation.
 First half transformation complete.
 Begin second half transformation for I=  10.
 Begin second half transformation for I=  10.
 Complete sort for second half transformation.
 Second half transformation complete.
 Spin components of T(2) and E(2):
     alpha-alpha T2 =       0.3419276477D-01 E2=     -0.1225176006D+00
     alpha-beta  T2 =       0.1881555447D+00 E2=     -0.7014810347D+00
     beta-beta   T2 =       0.3419276477D-01 E2=     -0.1225176006D+00
 ANorm=    0.1585270371D+01
 E2 =    -0.9465162359D+00 EUMP2 =    -0.28044657238997D+03
 Leave Link  804 at Mon Feb 21 20:10:42 2022, MaxMem= 16106127360 cpu:             429.5 elap:              15.4
 (Enter /sw/contrib/gaussian/g16/B01/g16/l1002.exe)
 Minotr:  Closed shell wavefunction.
          Computing MP2/KS-MP2 derivatives.
          Using Z-Vector for PSCF gradient.
          Skipping F1 and S1 gradient terms here.
          IDoAtm=11111
          Frozen-core window.
          Using MO integrals in the linear equations.
          Forming densities via direct SCF.
          Differentiating once with respect to electric field.
                with respect to dipole field.
          Differentiating once with respect to nuclear coordinates.
          Using symmetry in CPHF.
          Requested convergence is 1.0D-10 RMS, and 1.0D-09 maximum.
          NewPWx=F KeepS1=T KeepF1=T KeepIn=T MapXYZ=F SortEE=F KeepMc=T.
          MDV=   16106127360 using IRadAn=       5.
          Solving linear equations separately, MaxMat=       0.
          There are     1 degrees of freedom in the 1st order CPHF.  IDoFFX=0 NUNeed=     1.
 FoFJK:  IHMeth= 1 ICntrl=       0 DoSepK=F KAlg= 0 I1Cent=           0 FoldK=F
 IRaf=         0 NMat=       1 IRICut=       1 DoRegI=T DoRafI=F ISym2E= 0 IDoP0=0 IntGTp=1.
 FoFCou: FMM=F IPFlag=           0 FMFlag=      100000 FMFlg1=           0
         NFxFlg=           0 DoJE=F BraDBF=F KetDBF=F FulRan=T
         wScrn=  0.000000 ICntrl=         0 IOpCl=  0 I1Cent=           0 NGrid=           0
         NMat0=    1 NMatS0=      1 NMatT0=    0 NMatD0=    1 NMtDS0=    0 NMtDT0=    0
 Symmetry not used in FoFCou.
 LinEq1:  Iter=  0 NonCon=     1 RMS=5.99D-03 Max=1.34D-01 NDo=     1
 LinEq1:  Iter=  1 NonCon=     1 RMS=1.91D-03 Max=3.80D-02 NDo=     1
 LinEq1:  Iter=  2 NonCon=     1 RMS=8.71D-04 Max=1.44D-02 NDo=     1
 LinEq1:  Iter=  3 NonCon=     1 RMS=3.87D-04 Max=7.73D-03 NDo=     1
 LinEq1:  Iter=  4 NonCon=     1 RMS=1.19D-04 Max=1.87D-03 NDo=     1
 LinEq1:  Iter=  5 NonCon=     1 RMS=4.38D-05 Max=6.93D-04 NDo=     1
 LinEq1:  Iter=  6 NonCon=     1 RMS=2.00D-05 Max=2.14D-04 NDo=     1
 LinEq1:  Iter=  7 NonCon=     1 RMS=8.17D-06 Max=1.38D-04 NDo=     1
 LinEq1:  Iter=  8 NonCon=     1 RMS=3.51D-06 Max=3.39D-05 NDo=     1
 LinEq1:  Iter=  9 NonCon=     1 RMS=9.57D-07 Max=1.33D-05 NDo=     1
 LinEq1:  Iter= 10 NonCon=     1 RMS=1.88D-07 Max=2.07D-06 NDo=     1
 LinEq1:  Iter= 11 NonCon=     1 RMS=3.50D-08 Max=3.54D-07 NDo=     1
 LinEq1:  Iter= 12 NonCon=     1 RMS=8.54D-09 Max=1.07D-07 NDo=     1
 LinEq1:  Iter= 13 NonCon=     1 RMS=1.58D-09 Max=2.21D-08 NDo=     1
 LinEq1:  Iter= 14 NonCon=     1 RMS=2.88D-10 Max=4.04D-09 NDo=     1
 LinEq1:  Iter= 15 NonCon=     0 RMS=5.23D-11 Max=5.24D-10 NDo=     1
 Linear equations converged to 1.000D-10 1.000D-09 after    15 iterations.
 End of Minotr F.D. properties file   721 does not exist.
 End of Minotr F.D. properties file   722 does not exist.
 End of Minotr F.D. properties file   788 does not exist.
 Leave Link 1002 at Mon Feb 21 20:10:44 2022, MaxMem= 16106127360 cpu:              68.8 elap:               2.5
 (Enter /sw/contrib/gaussian/g16/B01/g16/l1102.exe)
 Use density number 2.
 Symmetrizing basis deriv contribution to polar:
 IMax=3 JMax=2 DiffMx= 0.00D+00
 Leave Link 1102 at Mon Feb 21 20:10:44 2022, MaxMem= 16106127360 cpu:               2.3 elap:               0.1
 (Enter /sw/contrib/gaussian/g16/B01/g16/l1110.exe)
 Forming Gx(P) for generalized density number  2 NAtomX=     5.
 Integral derivatives from FoFJK, PRISM(SPDF).
 Do as many integral derivatives as possible in FoFJK.
 G2DrvN: MDV=   16106126844.
 G2DrvN: will do     6 centers at a time, making    1 passes.
 Calling FoFCou, ICntrl=  3107 FMM=F I1Cent=   0 AccDes= 0.00D+00.
 FoFJK:  IHMeth= 1 ICntrl=    3107 DoSepK=F KAlg= 0 I1Cent=           0 FoldK=F
 IRaf=         0 NMat=       1 IRICut=       1 DoRegI=T DoRafI=F ISym2E= 1 IDoP0=0 IntGTp=1.
 FoFCou: FMM=F IPFlag=           0 FMFlag=      100000 FMFlg1=           0
         NFxFlg=           0 DoJE=F BraDBF=F KetDBF=F FulRan=T
         wScrn=  0.000000 ICntrl=      3107 IOpCl=  0 I1Cent=           0 NGrid=           0
         NMat0=    1 NMatS0=      1 NMatT0=    0 NMatD0=    1 NMtDS0=    0 NMtDT0=    0
 Petite list used in FoFCou.
 End of G2Drv F.D. properties file   721 does not exist.
 End of G2Drv F.D. properties file   722 does not exist.
 End of G2Drv F.D. properties file   788 does not exist.
 Leave Link 1110 at Mon Feb 21 20:10:47 2022, MaxMem= 16106127360 cpu:              85.0 elap:               3.1
 (Enter /sw/contrib/gaussian/g16/B01/g16/l1112.exe)
 MP22nd: MDV=   16106127360
 This link is doing NAtomX=     5 total of    18 degrees of freedom.
 Using ON3 I/O method in MakUI.
 Frozen-core window:  NFC=   4 NFV=   0.
 Using Ix for Sx.
 Use MO integrals over full window.
 Using OV2 memory method for fx*t*t/D, MaxI=    16 DoOO2=F NP=  28.
 R2 and R3 integrals will be kept in memory, NReq=   915591705.
 FoFCou: FMM=F IPFlag=           0 FMFlag=           0 FMFlg1=           0
         NFxFlg=           0 DoJE=F BraDBF=F KetDBF=F FulRan=T
         wScrn=  0.000000 ICntrl=       600 IOpCl=  0 I1Cent=           0 NGrid=           0
         NMat0=    1 NMatS0=      1 NMatT0=    0 NMatD0=    1 NMtDS0=    0 NMtDT0=    0
 Symmetry not used in FoFCou.
 DD1Dir will call FoFMem   1 times, MxPair=       272
 NAB=   136 NAA=     0 NBB=     0.
 Symmetry is being used.
 FoFJK:  IHMeth= 1 ICntrl=       0 DoSepK=F KAlg= 0 I1Cent=           0 FoldK=F
 IRaf=         0 NMat=      18 IRICut=      45 DoRegI=T DoRafI=T ISym2E= 2 IDoP0=3 IntGTp=3.
 Discarding MO integrals.
 Leave Link 1112 at Mon Feb 21 20:11:20 2022, MaxMem= 16106127360 cpu:             917.8 elap:              33.1
 (Enter /sw/contrib/gaussian/g16/B01/g16/l601.exe)
 Copying SCF densities to generalized density rwf, IOpCl= 0 IROHF=0.

 **********************************************************************

            Population analysis using the MP2 Density.

 **********************************************************************

 Orbital symmetries:
       Occupied  (A') (A') (A') (A') (A') (A') (A') (A') (A') (A')
                 (A") (A') (A") (A') (A") (A')
       Virtual   (A') (A") (A') (A') (A') (A") (A') (A') (A") (A')
                 (A") (A') (A') (A') (A") (A') (A') (A") (A') (A')
                 (A') (A') (A') (A') (A") (A') (A') (A") (A') (A')
                 (A") (A') (A") (A') (A') (A") (A') (A') (A") (A')
                 (A") (A') (A") (A') (A') (A") (A') (A') (A") (A')
                 (A") (A') (A') (A') (A") (A') (A") (A') (A") (A')
                 (A') (A') (A") (A') (A') (A") (A') (A") (A') (A')
                 (A") (A') (A') (A") (A") (A') (A') (A") (A') (A')
                 (A') (A") (A') (A") (A') (A") (A') (A") (A') (A')
                 (A") (A') (A') (A") (A') (A") (A') (A") (A') (A')
                 (A") (A') (A") (A') (A') (A") (A') (A') (A") (A')
                 (A") (A') (A') (A') (A") (A') (A') (A') (A") (A')
                 (A") (A') (A") (A') (A') (A") (A") (A') (A") (A')
                 (A') (A') (A') (A") (A") (A") (A') (A') (A') (A')
                 (A") (A') (A") (A') (A') (A") (A') (A') (A') (A')
                 (A') (A") (A') (A") (A') (A") (A') (A") (A") (A')
                 (A') (A") (A') (A") (A') (A") (A") (A') (A") (A')
                 (A") (A') (A") (A') (A") (A') (A") (A") (A') (A')
                 (A') (A') (A') (A') (A') (A') (A') (A') (A') (A')
                 (A')
 The electronic state is 1-A'.
 Alpha  occ. eigenvalues --  -20.69188 -20.68460 -20.66151 -15.81318  -1.62355
 Alpha  occ. eigenvalues --   -1.48880  -1.25756  -0.94783  -0.77096  -0.75778
 Alpha  occ. eigenvalues --   -0.71026  -0.67938  -0.61876  -0.58691  -0.48836
 Alpha  occ. eigenvalues --   -0.47289
 Alpha virt. eigenvalues --    0.02959   0.07165   0.08547   0.10163   0.13300
 Alpha virt. eigenvalues --    0.13397   0.14399   0.15445   0.17829   0.19434
 Alpha virt. eigenvalues --    0.19988   0.20614   0.21714   0.22950   0.23723
 Alpha virt. eigenvalues --    0.26593   0.29329   0.30373   0.31005   0.34243
 Alpha virt. eigenvalues --    0.34906   0.38698   0.42116   0.43135   0.52705
 Alpha virt. eigenvalues --    0.52889   0.55821   0.58114   0.62562   0.63842
 Alpha virt. eigenvalues --    0.67456   0.68466   0.70494   0.71166   0.72316
 Alpha virt. eigenvalues --    0.72984   0.74483   0.79030   0.79185   0.81033
 Alpha virt. eigenvalues --    0.81240   0.82937   0.86805   0.90650   0.92164
 Alpha virt. eigenvalues --    0.92482   0.95730   0.97660   0.98347   1.01640
 Alpha virt. eigenvalues --    1.05073   1.05522   1.08070   1.11574   1.13856
 Alpha virt. eigenvalues --    1.18827   1.22076   1.23137   1.33834   1.34935
 Alpha virt. eigenvalues --    1.38603   1.45291   1.48809   1.51017   1.53697
 Alpha virt. eigenvalues --    1.56551   1.57861   1.61216   1.66091   1.66882
 Alpha virt. eigenvalues --    1.70300   1.79088   1.83006   1.83434   1.87653
 Alpha virt. eigenvalues --    1.90859   1.95591   1.99000   2.00758   2.07670
 Alpha virt. eigenvalues --    2.11688   2.13174   2.14650   2.22359   2.26072
 Alpha virt. eigenvalues --    2.26348   2.28848   2.31241   2.33901   2.38814
 Alpha virt. eigenvalues --    2.42150   2.42598   2.45284   2.46309   2.47462
 Alpha virt. eigenvalues --    2.49950   2.58718   2.59412   2.61489   2.62213
 Alpha virt. eigenvalues --    2.62965   2.66233   2.75638   2.82351   2.85073
 Alpha virt. eigenvalues --    2.87547   2.88506   2.91835   2.95370   3.01285
 Alpha virt. eigenvalues --    3.06836   3.12531   3.18295   3.22155   3.31008
 Alpha virt. eigenvalues --    3.34794   3.51090   3.64053   3.83823   3.84018
 Alpha virt. eigenvalues --    4.14555   4.15728   4.18098   4.25544   4.34747
 Alpha virt. eigenvalues --    4.38918   4.44687   4.52194   4.65920   4.70122
 Alpha virt. eigenvalues --    4.80320   4.82342   4.83105   4.89424   5.02187
 Alpha virt. eigenvalues --    5.07683   5.09966   5.14482   5.17839   5.24012
 Alpha virt. eigenvalues --    5.27201   5.30767   5.32716   5.35090   5.59598
 Alpha virt. eigenvalues --    5.67335   5.76439   5.79735   5.95139   6.16494
 Alpha virt. eigenvalues --    6.33555   6.33669   6.39858   6.49510   6.50564
 Alpha virt. eigenvalues --    6.61763   6.67953   6.70166   6.75579   6.75892
 Alpha virt. eigenvalues --    6.83198   6.89670   6.99928   7.03108   7.04283
 Alpha virt. eigenvalues --    7.07773   7.12229   7.13843   7.17616   7.22043
 Alpha virt. eigenvalues --    7.23734   7.30394   7.32452   7.34752   7.39508
 Alpha virt. eigenvalues --    7.40986   7.48276   7.59477   7.61153   7.61818
 Alpha virt. eigenvalues --    7.65924   7.77165   7.88261   8.06351   8.29109
 Alpha virt. eigenvalues --    8.38959   8.54496  13.33937  14.37214  15.14322
 Alpha virt. eigenvalues --   16.15020
          Condensed to atoms (all electrons):
               1          2          3          4          5
     1  H    0.588382   0.127972   0.020925   0.012025  -0.000580
     2  O    0.127972   8.300578  -0.152219  -0.087538   0.014944
     3  O    0.020925  -0.152219   8.449225  -0.131842  -0.038062
     4  N    0.012025  -0.087538  -0.131842   6.969349  -0.055160
     5  O   -0.000580   0.014944  -0.038062  -0.055160   8.271534
 Mulliken charges:
               1
     1  H    0.251276
     2  O   -0.203737
     3  O   -0.148028
     4  N    0.293166
     5  O   -0.192677
 Sum of Mulliken charges =   0.00000
 Mulliken charges with hydrogens summed into heavy atoms:
               1
     2  O    0.047539
     3  O   -0.148028
     4  N    0.293166
     5  O   -0.192677
 APT charges:
               1
     1  H    0.298009
     2  O   -0.289216
     3  O   -0.495634
     4  N    0.877467
     5  O   -0.390626
 Sum of APT charges =   0.00000
 APT charges with hydrogens summed into heavy atoms:
               1
     2  O    0.008793
     3  O   -0.495634
     4  N    0.877467
     5  O   -0.390626
 Electronic spatial extent (au):  <R**2>=            254.6059
 Charge=              0.0000 electrons
 Dipole moment (field-independent basis, Debye):
    X=              0.5115    Y=              1.3450    Z=              0.0000  Tot=              1.4390
 Quadrupole moment (field-independent basis, Debye-Ang):
   XX=            -22.3711   YY=            -18.6813   ZZ=            -22.0350
   XY=              3.3113   XZ=              0.0000   YZ=             -0.0000
 Traceless Quadrupole moment (field-independent basis, Debye-Ang):
   XX=             -1.3419   YY=              2.3478   ZZ=             -1.0059
   XY=              3.3113   XZ=              0.0000   YZ=             -0.0000
 Octapole moment (field-independent basis, Debye-Ang**2):
  XXX=              3.1223  YYY=             11.0564  ZZZ=              0.0000  XYY=              7.9279
  XXY=              6.7559  XXZ=              0.0000  XZZ=             -1.6138  YZZ=             -0.8666
  YYZ=              0.0000  XYZ=              0.0000
 Hexadecapole moment (field-independent basis, Debye-Ang**3):
 XXXX=           -161.1292 YYYY=            -88.9433 ZZZZ=            -18.2894 XXXY=            -36.2727
 XXXZ=              0.0000 YYYX=            -30.8268 YYYZ=             -0.0000 ZZZX=              0.0000
 ZZZY=             -0.0000 XXYY=            -33.9913 XXZZ=            -31.4388 YYZZ=            -20.4781
 XXYZ=             -0.0000 YYXZ=              0.0000 ZZXY=            -15.0873
 N-N= 1.164360114781D+02 E-N=-8.949711269818D+02  KE= 2.801733506207D+02
 Symmetry A'   KE= 2.662119140324D+02
 Symmetry A"   KE= 1.396143658835D+01
  Exact polarizability:  34.436   9.499  30.181  -0.000   0.000  17.987
 Approx polarizability:  29.537   5.091  23.482  -0.000   0.000  15.551
 No NMR shielding tensors so no spin-rotation constants.
 Leave Link  601 at Mon Feb 21 20:11:21 2022, MaxMem= 16106127360 cpu:               4.9 elap:               0.2
 (Enter /sw/contrib/gaussian/g16/B01/g16/l701.exe)
 ... and contract with generalized density number  2.
 Compute integral second derivatives.
 Leave Link  701 at Mon Feb 21 20:11:21 2022, MaxMem= 16106127360 cpu:               6.6 elap:               0.3
 (Enter /sw/contrib/gaussian/g16/B01/g16/l702.exe)
 L702 exits ... SP integral derivatives will be done elsewhere.
 Leave Link  702 at Mon Feb 21 20:11:21 2022, MaxMem= 16106127360 cpu:               1.0 elap:               0.1
 (Enter /sw/contrib/gaussian/g16/B01/g16/l703.exe)
 Integral derivatives from FoFJK, PRISM(SPDF).
 Compute integral second derivatives, UseDBF=F ICtDFT=           0.
 Calling FoFJK, ICntrl=  10100127 FMM=F ISym2X=1 I1Cent= 0 IOpClX= 0 NMat=1 NMatS=1 NMatT=0.
 FoFJK:  IHMeth= 1 ICntrl=10100127 DoSepK=F KAlg= 0 I1Cent=           0 FoldK=F
 IRaf=         0 NMat=       1 IRICut=       1 DoRegI=T DoRafI=F ISym2E= 1 IDoP0=0 IntGTp=1.
 FoFCou: FMM=F IPFlag=           0 FMFlag=      100000 FMFlg1=         800
         NFxFlg=           0 DoJE=F BraDBF=F KetDBF=F FulRan=T
         wScrn=  0.000000 ICntrl=  10100127 IOpCl=  0 I1Cent=           0 NGrid=           0
         NMat0=    1 NMatS0=      1 NMatT0=    0 NMatD0=    1 NMtDS0=    0 NMtDT0=    0
 Petite list used in FoFCou.
 Leave Link  703 at Mon Feb 21 20:11:36 2022, MaxMem= 16106127360 cpu:             421.9 elap:              15.1
 (Enter /sw/contrib/gaussian/g16/B01/g16/l716.exe)
 Dipole        = 2.01240058D-01 5.29167832D-01 2.22594244D-31
 Polarizability= 3.44359496D+01 9.49930320D+00 3.01814761D+01
                -1.62522450D-30 4.47183830D-30 1.79867353D+01
 Full mass-weighted force constant matrix:
 Low frequencies --- -276.3476  -26.6400   -0.0007    0.0015    0.0016   39.7449
 Low frequencies ---   62.7545  235.8661  343.6154
 ******    1 imaginary frequencies (negative Signs) ****** 
 Diagonal vibrational polarizability:
       14.6397214      24.8972093      44.3043587
 Harmonic frequencies (cm**-1), IR intensities (KM/Mole), Raman scattering
 activities (A**4/AMU), depolarization ratios for plane and unpolarized
 incident light, reduced masses (AMU), force constants (mDyne/A),
 and normal coordinates:
                      1                      2                      3
                     A"                     A"                     A'
 Frequencies --   -275.9709               234.6201               343.4866
 Red. masses --      1.1415                10.2918                 8.7319
 Frc consts  --      0.0512                 0.3338                 0.6070
 IR Inten    --    124.1047                 0.9241                 2.5619
  Atom  AN      X      Y      Z        X      Y      Z        X      Y      Z
     1   1    -0.00   0.00   1.00    -0.00   0.00  -0.59     0.52  -0.45  -0.00
     2   8     0.00   0.00  -0.07     0.00   0.00  -0.30    -0.11  -0.39   0.00
     3   8    -0.00   0.00  -0.04     0.00   0.00   0.32    -0.15   0.42   0.00
     4   7    -0.00  -0.00   0.06    -0.00  -0.00   0.52     0.06   0.28  -0.00
     5   8    -0.00  -0.00  -0.01    -0.00  -0.00  -0.44     0.17  -0.24  -0.00
                      4                      5                      6
                     A'                     A'                     A'
 Frequencies --    446.4571               772.6966               933.1987
 Red. masses --     12.1497                13.2049                14.8063
 Frc consts  --      1.4268                 4.6452                 7.5971
 IR Inten    --    198.8602               162.1414                34.2125
  Atom  AN      X      Y      Z        X      Y      Z        X      Y      Z
     1   1     0.44   0.16   0.00    -0.32   0.19  -0.00    -0.25  -0.01  -0.00
     2   8     0.33   0.18   0.00     0.47   0.07   0.00    -0.45   0.04   0.00
     3   8     0.16   0.46  -0.00    -0.14  -0.27  -0.00     0.73  -0.05  -0.00
     4   7    -0.35  -0.38  -0.00    -0.12   0.61  -0.00    -0.14   0.31  -0.00
     5   8    -0.21  -0.31   0.00    -0.20  -0.34   0.00    -0.14  -0.26   0.00
                      7                      8                      9
                     A'                     A'                     A'
 Frequencies --   1351.2690              1676.4391              3780.3764
 Red. masses --      1.1324                13.3979                 1.0677
 Frc consts  --      1.2183                22.1852                 8.9898
 IR Inten    --    151.2700               141.5491                81.6393
  Atom  AN      X      Y      Z        X      Y      Z        X      Y      Z
     1   1     0.99  -0.06  -0.00    -0.33   0.01   0.00     0.11   0.99  -0.00
     2   8    -0.03   0.05   0.00    -0.00  -0.04  -0.00    -0.01  -0.06   0.00
     3   8    -0.02  -0.05   0.00     0.00   0.15  -0.00     0.00   0.00   0.00
     4   7     0.02   0.01  -0.00     0.71  -0.06   0.00    -0.00  -0.00  -0.00
     5   8    -0.03  -0.01  -0.00    -0.60  -0.06   0.00     0.00   0.00  -0.00

 -------------------
 - Thermochemistry -
 -------------------
 Temperature   298.150 Kelvin.  Pressure   1.00000 Atm.
 Atom     1 has atomic number  1 and mass   1.00783
 Atom     2 has atomic number  8 and mass  15.99491
 Atom     3 has atomic number  8 and mass  15.99491
 Atom     4 has atomic number  7 and mass  14.00307
 Atom     5 has atomic number  8 and mass  15.99491
 Molecular mass:    62.99564 amu.
 Principal axes and moments of inertia in atomic units:
                           1         2         3
     Eigenvalues --    33.10163 363.16854 396.27017
           X            0.81662  -0.57717   0.00000
           Y            0.57717   0.81662   0.00000
           Z           -0.00000  -0.00000   1.00000
 This molecule is an asymmetric top.
 Rotational symmetry number  1.
 Rotational temperatures (Kelvin)      2.61661     0.23850     0.21857
 Rotational constants (GHZ):          54.52123     4.96943     4.55432
    1 imaginary frequencies ignored.
 Zero-point vibrational energy      57053.2 (Joules/Mol)
                                   13.63603 (Kcal/Mol)
 Warning -- explicit consideration of   3 degrees of freedom as
           vibrations may cause significant error
 Vibrational temperatures:    337.57   494.20   642.35  1111.74  1342.66
          (Kelvin)           1944.17  2412.02  5439.12
 
 Zero-point correction=                           0.021730 (Hartree/Particle)
 Thermal correction to Energy=                    0.025852
 Thermal correction to Enthalpy=                  0.026797
 Thermal correction to Gibbs Free Energy=        -0.004395
 Sum of electronic and zero-point Energies=           -280.424842
 Sum of electronic and thermal Energies=              -280.420720
 Sum of electronic and thermal Enthalpies=            -280.419776
 Sum of electronic and thermal Free Energies=         -280.450967
 
                     E (Thermal)             CV                S
                      KCal/Mol        Cal/Mol-Kelvin    Cal/Mol-Kelvin
 Total                   16.223             12.024             65.648
 Electronic               0.000              0.000              0.000
 Translational            0.889              2.981             38.341
 Rotational               0.889              2.981             23.081
 Vibrational             14.445              6.063              4.226
 Vibration     1          0.654              1.788              1.843
 Vibration     2          0.722              1.589              1.196
 Vibration     3          0.806              1.369              0.807
                       Q            Log10(Q)             Ln(Q)
 Total Bot       0.105069D+03          2.021473          4.654614
 Total V=0       0.103933D+13         12.016755         27.669601
 Vib (Bot)       0.216388D-09         -9.664766        -22.253947
 Vib (Bot)    1  0.837766D+00         -0.076877         -0.177017
 Vib (Bot)    2  0.539393D+00         -0.268095         -0.617311
 Vib (Bot)    3  0.385209D+00         -0.414304         -0.953971
 Vib (V=0)       0.214050D+01          0.330515          0.761040
 Vib (V=0)    1  0.147563D+01          0.168977          0.389084
 Vib (V=0)    2  0.123549D+01          0.091839          0.211467
 Vib (V=0)    3  0.113118D+01          0.053531          0.123260
 Electronic      0.100000D+01          0.000000          0.000000
 Translational   0.196526D+08          7.293420         16.793719
 Rotational      0.247070D+05          4.392820         10.114842
 
                                                                title
                                                             IR Spectrum
 
     3                                                                      1          1                                             
     7                                                                      6          3             9     7          4  3   2       
     8                                                                      7          5             3     7          4  4   3       
     0                                                                      6          1             3     3          6  3   5       
 
     X                                                                      X          X             X     X          X  X   X       
     X                                                                      X          X             X     X          X              
     X                                                                      X          X             X     X          X              
     X                                                                      X          X                   X          X              
     X                                                                      X          X                   X          X              
     X                                                                      X          X                   X          X              
     X                                                                      X          X                   X          X              
     X                                                                      X          X                   X          X              
                                                                            X          X                   X          X              
                                                                            X          X                   X          X              
                                                                            X          X                   X          X              
                                                                            X          X                   X          X              
                                                                            X          X                   X          X              
                                                                            X          X                   X          X              
                                                                                       X                   X          X              
                                                                                                           X          X              
                                                                                                                      X              
                                                                                                                      X              
                                                                                                                      X              
                                                                                                                      X              
 
 ***** Axes restored to original set *****
 -------------------------------------------------------------------
 Center     Atomic                   Forces (Hartrees/Bohr)
 Number     Number              X              Y              Z
 -------------------------------------------------------------------
      1        1           0.001229380   -0.000000000   -0.000354665
      2        8           0.007729682   -0.000000000    0.003081805
      3        8          -0.007761439    0.000000000   -0.002661278
      4        7          -0.001534450    0.000000000    0.000453895
      5        8           0.000336827   -0.000000000   -0.000519757
 -------------------------------------------------------------------
 Cartesian Forces:  Max     0.007761439 RMS     0.003067563
 -----------------------------------------------------------------------------------------------
                       Internal Coordinate Forces (Hartree/Bohr or radian)
  Cent   Atom   N1       Length/X         N2         Alpha/Y        N3         Beta/Z          J
 -----------------------------------------------------------------------------------------------
      1  H 
      2  O        1   0.000355(     1)
      3  O        2  -0.009241(     2)      1  -0.002251(     5)
      4  N        3  -0.000164(     3)      2  -0.001977(     6)      1  -0.000000(     8)     0
      5  O        4   0.000197(     4)      3  -0.001299(     7)      2  -0.000000(     9)     0
 -----------------------------------------------------------------------------------------------
 Internal  Forces:  Max     0.009240910 RMS     0.003270196
 Force constants in Cartesian coordinates: 
                1             2             3             4             5 
      1  0.627702D-01
      2  0.000000D+00 -0.250930D-02
      3  0.420695D-02  0.000000D+00  0.512780D+00
      4 -0.359913D-01  0.000000D+00 -0.155283D-01  0.248620D+00
      5  0.000000D+00  0.358504D-02  0.000000D+00  0.000000D+00  0.416858D-02
      6  0.473417D-01  0.000000D+00 -0.509411D+00  0.271992D-01  0.000000D+00
      7 -0.163312D-01  0.000000D+00  0.127727D-01 -0.197520D+00  0.000000D+00
      8  0.000000D+00  0.519201D-03  0.000000D+00  0.000000D+00 -0.880815D-02
      9 -0.510593D-01  0.000000D+00  0.833793D-04 -0.142962D-01  0.000000D+00
     10 -0.931565D-02  0.000000D+00 -0.470695D-02 -0.160819D-01  0.000000D+00
     11  0.000000D+00 -0.257431D-02  0.000000D+00  0.000000D+00 -0.520798D-02
     12  0.518161D-02  0.000000D+00 -0.490033D-02  0.113035D-01  0.000000D+00
     13 -0.113206D-02  0.000000D+00  0.325561D-02  0.973677D-03  0.000000D+00
     14  0.000000D+00  0.979374D-03  0.000000D+00  0.000000D+00  0.626251D-02
     15 -0.567088D-02  0.000000D+00  0.144841D-02 -0.867811D-02  0.000000D+00
                6             7             8             9            10 
      6  0.593903D+00
      7 -0.162649D-01  0.316330D+00
      8  0.000000D+00  0.000000D+00  0.664126D-02
      9 -0.779007D-01  0.294873D-01  0.000000D+00  0.179683D+00
     10 -0.503170D-01 -0.768881D-01  0.000000D+00  0.174511D+00  0.826433D+00
     11  0.000000D+00  0.000000D+00  0.886942D-02  0.000000D+00  0.000000D+00
     12  0.175494D-01  0.642698D-01  0.000000D+00 -0.813746D-01 -0.194314D-01
     13 -0.795896D-02 -0.255902D-01  0.000000D+00 -0.138643D+00 -0.724148D+00
     14  0.000000D+00  0.000000D+00 -0.722174D-02  0.000000D+00  0.000000D+00
     15 -0.241411D-01 -0.902649D-01  0.000000D+00 -0.204913D-01 -0.100056D+00
               11            12            13            14            15 
     11  0.809930D-02
     12  0.000000D+00  0.185462D+00
     13  0.000000D+00 -0.613234D-01  0.749896D+00
     14 -0.918643D-02  0.000000D+00  0.000000D+00  0.916629D-02
     15  0.000000D+00 -0.116737D+00  0.204670D+00  0.000000D+00  0.159921D+00
 Force constants in internal coordinates: 
                1             2             3             4             5 
      1  0.512780D+00
      2 -0.107769D-01  0.253325D+00
      3  0.355928D-02  0.193674D-02  0.115917D+00
      4 -0.351319D-02  0.502769D-02  0.153248D+00  0.811966D+00
      5  0.893274D-02  0.610801D-01  0.246143D-02  0.458463D-02  0.211114D+00
      6  0.452430D-02  0.549810D-01  0.386727D-01  0.221518D-01  0.312404D-01
      7 -0.131700D-02  0.364830D-01  0.310356D-01  0.838904D-01  0.211179D-01
      8  0.000000D+00  0.000000D+00  0.000000D+00  0.000000D+00  0.000000D+00
      9  0.000000D+00  0.000000D+00  0.000000D+00  0.000000D+00  0.000000D+00
                6             7             8             9 
      6  0.273415D+00
      7  0.946450D-01  0.479375D+00
      8  0.000000D+00  0.000000D+00 -0.733289D-02
      9  0.000000D+00  0.000000D+00 -0.371629D-02  0.408666D-01
 Leave Link  716 at Mon Feb 21 20:11:36 2022, MaxMem= 16106127360 cpu:               0.7 elap:               0.0
 (Enter /sw/contrib/gaussian/g16/B01/g16/l103.exe)

 GradGradGradGradGradGradGradGradGradGradGradGradGradGradGradGradGradGrad
 Berny optimization.
 Search for a local minimum.
 Step number   1 out of a maximum of    2
 All quantities printed in internal units (Hartrees-Bohrs-Radians)
 Second derivative matrix not updated -- analytic derivatives used.
 The second derivative matrix:
                          r1        r2        r3        r4        a1
           r1           0.51278
           r2          -0.01078   0.25332
           r3           0.00356   0.00194   0.11592
           r4          -0.00351   0.00503   0.15325   0.81197
           a1           0.00893   0.06108   0.00246   0.00458   0.21111
           a2           0.00452   0.05498   0.03867   0.02215   0.03124
           a3          -0.00132   0.03648   0.03104   0.08389   0.02112
           d1          -0.00000   0.00000  -0.00000  -0.00000   0.00000
           d2           0.00000   0.00000  -0.00000  -0.00000   0.00000
                          a2        a3        d1        d2
           a2           0.27342
           a3           0.09464   0.47937
           d1           0.00000   0.00000  -0.00733
           d2           0.00000   0.00000  -0.00372   0.04087
 ITU=  0
     Eigenvalues ---   -0.00762   0.04115   0.07749   0.16657   0.21553
     Eigenvalues ---    0.30540   0.50956   0.51349   0.86986
 Eigenvalue     1 is  -7.62D-03 should be greater than     0.000000 Eigenvector:
                          d1        d2        r3        a2        a3
   1                    0.99708   0.07643   0.00000  -0.00000  -0.00000
                          r4        a1        r2        r1
   1                   -0.00000   0.00000  -0.00000  -0.00000
 Angle between quadratic step and forces=  19.87 degrees.
 Linear search not attempted -- first point.
 Variable       Old X    -DE/DX   Delta X   Delta X   Delta X     New X
                                 (Linear)    (Quad)   (Total)
    r1        1.83110   0.00035   0.00000  -0.00006  -0.00006   1.83104
    r2        2.78307  -0.00924   0.00000  -0.03652  -0.03652   2.74655
    r3        2.75670  -0.00016   0.00000  -0.00203  -0.00203   2.75467
    r4        2.21236   0.00020   0.00000   0.00084   0.00084   2.21320
    a1        1.70335  -0.00225   0.00000  -0.00014  -0.00014   1.70321
    a2        1.78543  -0.00198   0.00000   0.00035   0.00035   1.78578
    a3        1.90362  -0.00130   0.00000  -0.00001  -0.00001   1.90361
    d1        3.14159  -0.00000   0.00000   0.00000   0.00000   3.14159
    d2        3.14159  -0.00000   0.00000  -0.00000   0.00000   3.14159
         Item               Value     Threshold  Converged?
 Maximum Force            0.009241     0.000450     NO 
 RMS     Force            0.003270     0.000300     NO 
 Maximum Displacement     0.036524     0.001800     NO 
 RMS     Displacement     0.012197     0.001200     NO 
 Predicted change in Energy=-1.688102D-04
                       ----------------------------
                       ! Non-Optimized Parameters !
                       ! (Angstroms and Degrees)  !
 ----------------------                            ----------------------
 !      Name          Value   Derivative information (Atomic Units)     !
 ------------------------------------------------------------------------
 !       r1          0.9689   -DE/DX =    0.0004                        !
 !       r2          1.4534   -DE/DX =   -0.0092                        !
 !       r3          1.4577   -DE/DX =   -0.0002                        !
 !       r4          1.1712   -DE/DX =    0.0002                        !
 !       a1         97.587    -DE/DX =   -0.0023                        !
 !       a2        102.3178   -DE/DX =   -0.002                         !
 !       a3        109.069    -DE/DX =   -0.0013                        !
 !       d1        180.0      -DE/DX =    0.0                           !
 !       d2        180.0      -DE/DX =    0.0                           !
 ------------------------------------------------------------------------
 GradGradGradGradGradGradGradGradGradGradGradGradGradGradGradGradGradGrad

 Leave Link  103 at Mon Feb 21 20:11:36 2022, MaxMem= 16106127360 cpu:               0.5 elap:               0.0
 (Enter /sw/contrib/gaussian/g16/B01/g16/l9999.exe)

 ----------------------------------------------------------------------

 Electric dipole moment (input orientation):
 (Debye = 10**-18 statcoulomb cm , SI units = C m)
                  (au)            (Debye)         (10**-30 SI)
   Tot        0.566141D+00      0.143899D+01      0.479995D+01
   x         -0.144292D+00     -0.366753D+00     -0.122336D+01
   y          0.000000D+00      0.000000D+00      0.000000D+00
   z         -0.547445D+00     -0.139147D+01     -0.464143D+01

 Dipole polarizability, Alpha (input orientation).
 (esu units = cm**3 , SI units = C**2 m**2 J**-1)
 Alpha(0;0):
               (au)            (10**-24 esu)      (10**-40 SI)
   iso        0.275347D+02      0.408022D+01      0.453986D+01
   aniso      0.221225D+02      0.327822D+01      0.364751D+01
   xx         0.323955D+02      0.480052D+01      0.534130D+01
   yx         0.000000D+00      0.000000D+00      0.000000D+00
   yy         0.179867D+02      0.266536D+01      0.296561D+01
   zx         0.973419D+01      0.144246D+01      0.160495D+01
   zy         0.000000D+00      0.000000D+00      0.000000D+00
   zz         0.322219D+02      0.477480D+01      0.531268D+01

 ----------------------------------------------------------------------

 Dipole orientation:
     1         -0.00000000          0.00000000          0.00000000
     8         -0.46668955         -0.00000000         -1.77062766
     8          2.10711225          0.00000000         -2.82941011
     7          1.62542041          0.00000000         -5.54370207
     8          3.55790058          0.00000000         -6.62075518

 Electric dipole moment (dipole orientation):
 (Debye = 10**-18 statcoulomb cm , SI units = C m)
                  (au)            (Debye)         (10**-30 SI)
   Tot        0.566141D+00      0.143899D+01      0.479995D+01
   x          0.000000D+00      0.000000D+00      0.000000D+00
   y          0.000000D+00      0.000000D+00      0.000000D+00
   z          0.566141D+00      0.143899D+01      0.479995D+01

 Dipole polarizability, Alpha (dipole orientation).
 (esu units = cm**3 , SI units = C**2 m**2 J**-1)
 Alpha(0;0):
               (au)            (10**-24 esu)      (10**-40 SI)
   iso        0.275347D+02      0.408022D+01      0.453986D+01
   aniso      0.221225D+02      0.327822D+01      0.364751D+01
   xx         0.275862D+02      0.408785D+01      0.454835D+01
   yx         0.000000D+00      0.000000D+00      0.000000D+00
   yy         0.179867D+02      0.266536D+01      0.296561D+01
   zx        -0.851233D+01     -0.126140D+01     -0.140349D+01
   zy         0.000000D+00      0.000000D+00      0.000000D+00
   zz         0.370312D+02      0.548746D+01      0.610562D+01

 ----------------------------------------------------------------------
 1\1\GINC-N2127\Freq\RMP2-FC\Aug-CC-pVTZ\H1N1O3\CGAVINH\21-Feb-2022\1\\
 #p freq mp2/aug-cc-pvtz density=current\\title\\0,1\H\O,1,r1\O,2,r2,1,
 a1\N,3,r3,2,a2,1,d1,0\O,4,r4,3,a3,2,d2,0\\r1=0.96897556\r2=1.47273697\
 r3=1.45878406\r4=1.17072885\a1=97.59494903\a2=102.29752444\a3=109.0695
 5123\d1=180.\d2=180.\\Version=ES64L-G16RevB.01\State=1-A'\HF=-279.5000
 562\MP2=-280.4465724\RMSD=3.970e-09\RMSF=3.068e-03\ZeroPoint=0.0217304
 \Thermal=0.0258525\Dipole=-0.1442917,0.,-0.547445\DipoleDeriv=0.266008
 5,0.,0.0472581,0.,0.3547904,0.,0.0846252,0.,0.2732281,-0.3278073,0.,-0
 .1990502,0.,-0.313894,0.,-0.11797,0.,-0.2259469,-0.0507187,0.,0.137739
 2,0.,-0.0874902,0.,-0.7521954,0.,-1.3486936,0.8953364,0.,0.909827,0.,0
 .0661922,0.,0.9288007,0.,1.6708719,-0.7828189,0.,-0.8957742,0.,-0.0195
 985,0.,-0.1432605,0.,-0.3694595\Polar=32.3954968,0.,17.9867353,9.73418
 54,0.,32.2219289\Quadrupole=-1.4837071,-0.7478316,2.2315387,0.,2.11925
 39,0.\PG=CS [SG(H1N1O3)]\NImag=1\\0.06277018,0.,-0.00250930,0.00420695
 ,0.,0.51277959,-0.03599131,0.,-0.01552834,0.24861991,0.,0.00358504,0.,
 0.,0.00416858,0.04734166,0.,-0.50941105,0.02719921,0.,0.59390343,-0.01
 633117,0.,0.01277273,-0.19752033,0.,-0.01626488,0.31632978,0.,0.000519
 20,0.,0.,-0.00880815,0.,0.,0.00664126,-0.05105934,0.,0.00008338,-0.014
 29622,0.,-0.07790067,0.02948729,0.,0.17968322,-0.00931565,0.,-0.004706
 95,-0.01608194,0.,-0.05031703,-0.07688807,0.,0.17451116,0.82643344,0.,
 -0.00257431,0.,0.,-0.00520798,0.,0.,0.00886942,0.,0.,0.00809930,0.0051
 8161,0.,-0.00490033,0.01130346,0.,0.01754942,0.06426977,0.,-0.08137458
 ,-0.01943139,0.,0.18546248,-0.00113206,0.,0.00325561,0.00097368,0.,-0.
 00795896,-0.02559021,0.,-0.13864289,-0.72414777,0.,-0.06132345,0.74989
 636,0.,0.00097937,0.,0.,0.00626251,0.,0.,-0.00722174,0.,0.,-0.00918643
 ,0.,0.,0.00916629,-0.00567088,0.,0.00144841,-0.00867811,0.,-0.02414113
 ,-0.09026491,0.,-0.02049134,-0.10005579,0.,-0.11673699,0.20466969,0.,0
 .15992105\\-0.00122938,0.,0.00035467,-0.00772968,0.,-0.00308180,0.0077
 6144,0.,0.00266128,0.00153445,0.,-0.00045390,-0.00033683,0.,0.00051976
 \\\@


 THEREFORE SHALL EVIL COME UPON THEE...
 THOU SHALT NOT KNOW FROM WHENCE IT RISETH...
 AND MISCHIEF SHALL FALL UPON THEE...
 THOU SHALT NOT BE ABLE TO PUT IT OFF...
 AND DESOLATION SHALL COME UPON THEE SUDDENLY...
 WHICH THOU SHALT NOT KNOW...

                                         ISAIAH 47.11
 Job cpu time:       0 days  2 hours  0 minutes 31.1 seconds.
 Elapsed time:       0 days  0 hours  4 minutes 21.4 seconds.
 File lengths (MBytes):  RWF=   7239 Int=      0 D2E=      0 Chk=      8 Scr=      1
 Normal termination of Gaussian 16 at Mon Feb 21 20:11:37 2022.
