 Entering Gaussian System, Link 0=g16
 Input=hoono_r1_0p961918.gjf
 Output=hoono_r1_0p961918.log
 Initial command:
 /sw/contrib/gaussian/g16/B01/g16/l1.exe "/scr/Gau-12947.inp" -scrdir="/scr/"
 Entering Link 1 = /sw/contrib/gaussian/g16/B01/g16/l1.exe PID=     12948.
  
 Copyright (c) 1988-2017, Gaussian, Inc.  All Rights Reserved.
  
 This is part of the Gaussian(R) 16 program.  It is based on
 the Gaussian(R) 09 system (copyright 2009, Gaussian, Inc.),
 the Gaussian(R) 03 system (copyright 2003, Gaussian, Inc.),
 the Gaussian(R) 98 system (copyright 1998, Gaussian, Inc.),
 the Gaussian(R) 94 system (copyright 1995, Gaussian, Inc.),
 the Gaussian 92(TM) system (copyright 1992, Gaussian, Inc.),
 the Gaussian 90(TM) system (copyright 1990, Gaussian, Inc.),
 the Gaussian 88(TM) system (copyright 1988, Gaussian, Inc.),
 the Gaussian 86(TM) system (copyright 1986, Carnegie Mellon
 University), and the Gaussian 82(TM) system (copyright 1983,
 Carnegie Mellon University). Gaussian is a federally registered
 trademark of Gaussian, Inc.
  
 This software contains proprietary and confidential information,
 including trade secrets, belonging to Gaussian, Inc.
  
 This software is provided under written license and may be
 used, copied, transmitted, or stored only in accord with that
 written license.
  
 The following legend is applicable only to US Government
 contracts under FAR:
  
                    RESTRICTED RIGHTS LEGEND
  
 Use, reproduction and disclosure by the US Government is
 subject to restrictions as set forth in subparagraphs (a)
 and (c) of the Commercial Computer Software - Restricted
 Rights clause in FAR 52.227-19.
  
 Gaussian, Inc.
 340 Quinnipiac St., Bldg. 40, Wallingford CT 06492
  
  
 ---------------------------------------------------------------
 Warning -- This program may not be used in any manner that
 competes with the business of Gaussian, Inc. or will provide
 assistance to any competitor of Gaussian, Inc.  The licensee
 of this program is prohibited from giving any competitor of
 Gaussian, Inc. access to this program.  By using this program,
 the user acknowledges that Gaussian, Inc. is engaged in the
 business of creating and licensing software in the field of
 computational chemistry and represents and warrants to the
 licensee that it is not a competitor of Gaussian, Inc. and that
 it will not use this program in any manner prohibited above.
 ---------------------------------------------------------------
  

 Cite this work as:
 Gaussian 16, Revision B.01,
 M. J. Frisch, G. W. Trucks, H. B. Schlegel, G. E. Scuseria, 
 M. A. Robb, J. R. Cheeseman, G. Scalmani, V. Barone, 
 G. A. Petersson, H. Nakatsuji, X. Li, M. Caricato, A. V. Marenich, 
 J. Bloino, B. G. Janesko, R. Gomperts, B. Mennucci, H. P. Hratchian, 
 J. V. Ortiz, A. F. Izmaylov, J. L. Sonnenberg, D. Williams-Young, 
 F. Ding, F. Lipparini, F. Egidi, J. Goings, B. Peng, A. Petrone, 
 T. Henderson, D. Ranasinghe, V. G. Zakrzewski, J. Gao, N. Rega, 
 G. Zheng, W. Liang, M. Hada, M. Ehara, K. Toyota, R. Fukuda, 
 J. Hasegawa, M. Ishida, T. Nakajima, Y. Honda, O. Kitao, H. Nakai, 
 T. Vreven, K. Throssell, J. A. Montgomery, Jr., J. E. Peralta, 
 F. Ogliaro, M. J. Bearpark, J. J. Heyd, E. N. Brothers, K. N. Kudin, 
 V. N. Staroverov, T. A. Keith, R. Kobayashi, J. Normand, 
 K. Raghavachari, A. P. Rendell, J. C. Burant, S. S. Iyengar, 
 J. Tomasi, M. Cossi, J. M. Millam, M. Klene, C. Adamo, R. Cammi, 
 J. W. Ochterski, R. L. Martin, K. Morokuma, O. Farkas, 
 J. B. Foresman, and D. J. Fox, Gaussian, Inc., Wallingford CT, 2016.
 
 ******************************************
 Gaussian 16:  ES64L-G16RevB.01 20-Dec-2017
                21-Feb-2022 
 ******************************************
 %nproc=28
 Will use up to   28 processors via shared memory.
 %mem=120GB
 %chk=hoono_r1_0p961918.chk
 ---------------------------------------
 #p freq mp2/aug-cc-pvtz density=current
 ---------------------------------------
 1/10=4,30=1,38=1/1,3;
 2/12=2,17=6,18=5,40=1/2;
 3/5=16,6=1,7=10,11=9,25=1,30=1,71=2,140=1/1,2,3;
 4//1;
 5/5=2,38=5,98=1/2;
 8/6=3,8=1,10=1,19=11,30=-1/1;
 9/15=3,16=-3/6;
 11/6=1,8=1,15=11,17=12,24=-1,27=1,28=-2,29=300,32=6,42=3/1,2,10;
 10/6=2,21=1/2;
 8/6=4,8=1,10=1,19=11,30=-1/11,4;
 10/5=1,20=4/2;
 11/12=2,14=11,16=1,17=2,28=-2,42=3,76=2/2,10,12;
 6/7=2,8=2,9=2,10=2,22=-1/1;
 7/8=1,10=1,12=2,25=1,44=2/1,2,3,16;
 1/10=4,30=1/3;
 99//99;
 Leave Link    1 at Mon Feb 21 19:59:31 2022, MaxMem= 16106127360 cpu:               3.0 elap:               0.1
 (Enter /sw/contrib/gaussian/g16/B01/g16/l101.exe)
 -----
 title
 -----
 Symbolic Z-matrix:
 Charge =  0 Multiplicity = 1
 H
 O                    1    r1
 O                    2    r2       1    a1
 N                    3    r3       2    a2       1    d1       0
 O                    4    r4       3    a3       2    d2       0
       Variables:
  r1                    0.96192                  
  r2                    1.45492                  
  r3                    1.45878                  
  r4                    1.17073                  
  a1                   97.59495                  
  a2                  102.29752                  
  a3                  109.06955                  
  d1                  180.                       
  d2                  180.                       
 
 ITRead=  0  0  0  0  0
 MicOpt= -1 -1 -1 -1 -1
 NAtoms=      5 NQM=        5 NQMF=       0 NMMI=      0 NMMIF=      0
                NMic=       0 NMicF=      0.
                    Isotopes and Nuclear Properties:
 (Nuclear quadrupole moments (NQMom) in fm**2, nuclear magnetic moments (NMagM)
  in nuclear magnetons)

  Atom         1           2           3           4           5
 IAtWgt=           1          16          16          14          16
 AtmWgt=   1.0078250  15.9949146  15.9949146  14.0030740  15.9949146
 NucSpn=           1           0           0           2           0
 AtZEff=  -0.0000000  -0.0000000  -0.0000000  -0.0000000  -0.0000000
 NQMom=    0.0000000   0.0000000   0.0000000   2.0440000   0.0000000
 NMagM=    2.7928460   0.0000000   0.0000000   0.4037610   0.0000000
 AtZNuc=   1.0000000   8.0000000   8.0000000   7.0000000   8.0000000
 Leave Link  101 at Mon Feb 21 19:59:31 2022, MaxMem= 16106127360 cpu:               3.3 elap:               0.2
 (Enter /sw/contrib/gaussian/g16/B01/g16/l103.exe)

 GradGradGradGradGradGradGradGradGradGradGradGradGradGradGradGradGradGrad
 Berny optimization.
 Initialization pass.
                       ----------------------------
                       !    Initial Parameters    !
                       ! (Angstroms and Degrees)  !
 ----------------------                            ----------------------
 !      Name          Value   Derivative information (Atomic Units)     !
 ------------------------------------------------------------------------
 !       r1          0.9619   calculate D2E/DX2 analytically            !
 !       r2          1.4549   calculate D2E/DX2 analytically            !
 !       r3          1.4588   calculate D2E/DX2 analytically            !
 !       r4          1.1707   calculate D2E/DX2 analytically            !
 !       a1         97.5949   calculate D2E/DX2 analytically            !
 !       a2        102.2975   calculate D2E/DX2 analytically            !
 !       a3        109.0696   calculate D2E/DX2 analytically            !
 !       d1        180.0      calculate D2E/DX2 analytically            !
 !       d2        180.0      calculate D2E/DX2 analytically            !
 ------------------------------------------------------------------------
 Trust Radius=3.00D-01 FncErr=1.00D-07 GrdErr=1.00D-07 EigMax=2.50D+02 EigMin=1.00D-04
 Number of steps in this run=      2 maximum allowed number of steps=      2.
 GradGradGradGradGradGradGradGradGradGradGradGradGradGradGradGradGradGrad

 Leave Link  103 at Mon Feb 21 19:59:31 2022, MaxMem= 16106127360 cpu:               0.5 elap:               0.0
 (Enter /sw/contrib/gaussian/g16/B01/g16/l202.exe)
                          Input orientation:                          
 ---------------------------------------------------------------------
 Center     Atomic      Atomic             Coordinates (Angstroms)
 Number     Number       Type             X           Y           Z
 ---------------------------------------------------------------------
      1          1           0        0.000000    0.000000    0.000000
      2          8           0        0.000000    0.000000    0.961918
      3          8           0        1.442156    0.000000    1.154214
      4          7           0        1.561752    0.000000    2.608087
      5          8           0        2.695867    0.000000    2.898582
 ---------------------------------------------------------------------
                    Distance matrix (angstroms):
                    1          2          3          4          5
     1  H    0.000000
     2  O    0.961918   0.000000
     3  O    1.847166   1.454919   0.000000
     4  N    3.039932   2.269127   1.458784   0.000000
     5  O    3.958469   3.319392   2.148165   1.170729   0.000000
 Stoichiometry    HNO3
 Framework group  CS[SG(HNO3)]
 Deg. of freedom     7
 Full point group                 CS      NOp   2
 Largest Abelian subgroup         CS      NOp   2
 Largest concise Abelian subgroup C1      NOp   1
                         Standard orientation:                         
 ---------------------------------------------------------------------
 Center     Atomic      Atomic             Coordinates (Angstroms)
 Number     Number       Type             X           Y           Z
 ---------------------------------------------------------------------
      1          1           0        1.548387    1.680462    0.000000
      2          8           0        1.454062    0.723179    0.000000
      3          8           0        0.000000    0.673228   -0.000000
      4          7           0       -0.261586   -0.761910   -0.000000
      5          8           0       -1.418722   -0.939794   -0.000000
 ---------------------------------------------------------------------
 Rotational constants (GHZ):          54.9845494           5.0121963           4.5934718
 Leave Link  202 at Mon Feb 21 19:59:31 2022, MaxMem= 16106127360 cpu:               1.0 elap:               0.1
 (Enter /sw/contrib/gaussian/g16/B01/g16/l301.exe)
 Standard basis: Aug-CC-pVTZ (5D, 7F)
 Ernie: Thresh=  0.10000D-02 Tol=  0.10000D-05 Strict=F.
 Ernie:  12 primitive shells out of 131 were deleted.
 There are   166 symmetry adapted cartesian basis functions of A'  symmetry.
 There are    79 symmetry adapted cartesian basis functions of A"  symmetry.
 There are   136 symmetry adapted basis functions of A'  symmetry.
 There are    71 symmetry adapted basis functions of A"  symmetry.
   207 basis functions,   315 primitive gaussians,   245 cartesian basis functions
    16 alpha electrons       16 beta electrons
       nuclear repulsion energy       116.9133516184 Hartrees.
 IExCor=    0 DFT=F Ex=HF Corr=None ExCW=0 ScaHFX=  1.000000
 ScaDFX=  1.000000  1.000000  1.000000  1.000000 ScalE2=  1.000000  1.000000
 IRadAn=      5 IRanWt=     -1 IRanGd=            0 ICorTp=0 IEmpDi=  4
 NAtoms=    5 NActive=    5 NUniq=    5 SFac= 1.00D+00 NAtFMM=   60 NAOKFM=F Big=F
 Integral buffers will be    131072 words long.
 Raffenetti 1 integral format.
 Two-electron integral symmetry is turned on.
 Leave Link  301 at Mon Feb 21 19:59:32 2022, MaxMem= 16106127360 cpu:               3.4 elap:               0.2
 (Enter /sw/contrib/gaussian/g16/B01/g16/l302.exe)
 NPDir=0 NMtPBC=     1 NCelOv=     1 NCel=       1 NClECP=     1 NCelD=      1
         NCelK=      1 NCelE2=     1 NClLst=     1 CellRange=     0.0.
 One-electron integrals computed using PRISM.
 One-electron integral symmetry used in STVInt
 NBasis=   207 RedAO= T EigKep=  1.81D-04  NBF=   136    71
 NBsUse=   207 1.00D-06 EigRej= -1.00D+00 NBFU=   136    71
 Leave Link  302 at Mon Feb 21 19:59:32 2022, MaxMem= 16106127360 cpu:               7.3 elap:               0.3
 (Enter /sw/contrib/gaussian/g16/B01/g16/l303.exe)
 DipDrv:  MaxL=1.
 Leave Link  303 at Mon Feb 21 19:59:32 2022, MaxMem= 16106127360 cpu:               0.7 elap:               0.1
 (Enter /sw/contrib/gaussian/g16/B01/g16/l401.exe)
 ExpMin= 2.53D-02 ExpMax= 1.53D+04 ExpMxC= 5.22D+02 IAcc=3 IRadAn=         5 AccDes= 0.00D+00
 Harris functional with IExCor=  205 and IRadAn=       5 diagonalized for initial guess.
 HarFok:  IExCor=  205 AccDes= 0.00D+00 IRadAn=         5 IDoV= 1 UseB2=F ITyADJ=14
 ICtDFT=  3500011 ScaDFX=  1.000000  1.000000  1.000000  1.000000
 FoFCou: FMM=F IPFlag=           0 FMFlag=      100000 FMFlg1=           0
         NFxFlg=           0 DoJE=T BraDBF=F KetDBF=T FulRan=T
         wScrn=  0.000000 ICntrl=       500 IOpCl=  0 I1Cent=   200000004 NGrid=           0
         NMat0=    1 NMatS0=      1 NMatT0=    0 NMatD0=    1 NMtDS0=    0 NMtDT0=    0
 Petite list used in FoFCou.
 Harris En= -279.628747746313    
 JPrj=0 DoOrth=F DoCkMO=F.
 Initial guess orbital symmetries:
       Occupied  (A') (A') (A') (A') (A') (A') (A') (A') (A') (A')
                 (A") (A') (A') (A") (A") (A')
       Virtual   (A") (A') (A') (A') (A') (A') (A") (A') (A') (A')
                 (A") (A') (A") (A') (A') (A") (A') (A") (A') (A')
                 (A') (A') (A') (A') (A') (A") (A') (A") (A') (A')
                 (A") (A') (A") (A') (A') (A") (A') (A") (A') (A')
                 (A") (A') (A") (A') (A") (A') (A') (A') (A") (A")
                 (A') (A') (A') (A') (A") (A') (A") (A') (A") (A')
                 (A') (A') (A") (A') (A') (A") (A') (A") (A') (A')
                 (A") (A') (A') (A") (A") (A') (A') (A") (A') (A')
                 (A') (A") (A') (A") (A') (A") (A') (A") (A') (A')
                 (A') (A") (A') (A") (A') (A") (A") (A') (A') (A")
                 (A') (A') (A") (A') (A') (A') (A') (A") (A") (A')
                 (A") (A') (A') (A') (A") (A') (A') (A') (A") (A')
                 (A") (A') (A') (A") (A") (A') (A") (A') (A") (A')
                 (A') (A') (A') (A") (A") (A') (A") (A') (A') (A')
                 (A') (A") (A") (A') (A') (A") (A') (A') (A') (A')
                 (A") (A') (A') (A") (A') (A") (A') (A") (A') (A")
                 (A') (A") (A') (A") (A') (A") (A") (A") (A') (A')
                 (A") (A') (A") (A') (A") (A') (A") (A") (A') (A')
                 (A') (A') (A') (A') (A') (A') (A') (A') (A') (A')
                 (A')
 The electronic state of the initial guess is 1-A'.
 Leave Link  401 at Mon Feb 21 19:59:32 2022, MaxMem= 16106127360 cpu:               6.4 elap:               0.3
 (Enter /sw/contrib/gaussian/g16/B01/g16/l502.exe)
 Keep R1 ints in memory in symmetry-blocked form, NReq=348887737.
 FoFCou: FMM=F IPFlag=           0 FMFlag=           0 FMFlg1=           0
         NFxFlg=           0 DoJE=F BraDBF=F KetDBF=F FulRan=T
         wScrn=  0.000000 ICntrl=       600 IOpCl=  0 I1Cent=           0 NGrid=           0
         NMat0=    1 NMatS0=  21528 NMatT0=    0 NMatD0=    1 NMtDS0=    0 NMtDT0=    0
 Petite list used in FoFCou.
 Closed shell SCF:
 Using DIIS extrapolation, IDIIS=  1040.
 NGot= 16106127360 LenX= 15988850015 LenY= 15988789549
 Requested convergence on RMS density matrix=1.00D-08 within 128 cycles.
 Requested convergence on MAX density matrix=1.00D-06.
 Requested convergence on             energy=1.00D-06.
 No special actions if energy rises.

 Cycle   1  Pass 1  IDiag  1:
 E= -279.370303570387    
 DIIS: error= 2.61D-02 at cycle   1 NSaved=   1.
 NSaved= 1 IEnMin= 1 EnMin= -279.370303570387     IErMin= 1 ErrMin= 2.61D-02
 ErrMax= 2.61D-02  0.00D+00 EMaxC= 1.00D-01 BMatC= 4.39D-01 BMatP= 4.39D-01
 IDIUse=3 WtCom= 7.39D-01 WtEn= 2.61D-01
 Coeff-Com:  0.100D+01
 Coeff-En:   0.100D+01
 Coeff:      0.100D+01
 Gap=     0.513 Goal=   None    Shift=    0.000
 GapD=    0.513 DampG=2.000 DampE=0.500 DampFc=1.0000 IDamp=-1.
 RMSDP=1.63D-03 MaxDP=9.92D-02              OVMax= 1.14D-01

 Cycle   2  Pass 1  IDiag  1:
 E= -279.452354460467     Delta-E=       -0.082050890080 Rises=F Damp=F
 DIIS: error= 1.80D-02 at cycle   2 NSaved=   2.
 NSaved= 2 IEnMin= 2 EnMin= -279.452354460467     IErMin= 2 ErrMin= 1.80D-02
 ErrMax= 1.80D-02  0.00D+00 EMaxC= 1.00D-01 BMatC= 7.24D-02 BMatP= 4.39D-01
 IDIUse=3 WtCom= 8.20D-01 WtEn= 1.80D-01
 Coeff-Com:  0.196D+00 0.804D+00
 Coeff-En:   0.000D+00 0.100D+01
 Coeff:      0.161D+00 0.839D+00
 Gap=     0.530 Goal=   None    Shift=    0.000
 RMSDP=9.04D-04 MaxDP=3.73D-02 DE=-8.21D-02 OVMax= 6.93D-02

 Cycle   3  Pass 1  IDiag  1:
 E= -279.481742517881     Delta-E=       -0.029388057414 Rises=F Damp=F
 DIIS: error= 1.04D-02 at cycle   3 NSaved=   3.
 NSaved= 3 IEnMin= 3 EnMin= -279.481742517881     IErMin= 3 ErrMin= 1.04D-02
 ErrMax= 1.04D-02  0.00D+00 EMaxC= 1.00D-01 BMatC= 2.89D-02 BMatP= 7.24D-02
 IDIUse=3 WtCom= 8.96D-01 WtEn= 1.04D-01
 Coeff-Com: -0.329D-01 0.378D+00 0.655D+00
 Coeff-En:   0.000D+00 0.240D+00 0.760D+00
 Coeff:     -0.295D-01 0.363D+00 0.666D+00
 Gap=     0.511 Goal=   None    Shift=    0.000
 RMSDP=3.77D-04 MaxDP=1.54D-02 DE=-2.94D-02 OVMax= 3.83D-02

 Cycle   4  Pass 1  IDiag  1:
 E= -279.500899828404     Delta-E=       -0.019157310523 Rises=F Damp=F
 DIIS: error= 1.31D-03 at cycle   4 NSaved=   4.
 NSaved= 4 IEnMin= 4 EnMin= -279.500899828404     IErMin= 4 ErrMin= 1.31D-03
 ErrMax= 1.31D-03  0.00D+00 EMaxC= 1.00D-01 BMatC= 4.99D-04 BMatP= 2.89D-02
 IDIUse=3 WtCom= 9.87D-01 WtEn= 1.31D-02
 Coeff-Com: -0.118D-01 0.580D-01 0.160D+00 0.794D+00
 Coeff-En:   0.000D+00 0.000D+00 0.000D+00 0.100D+01
 Coeff:     -0.116D-01 0.573D-01 0.158D+00 0.796D+00
 Gap=     0.502 Goal=   None    Shift=    0.000
 RMSDP=9.03D-05 MaxDP=2.78D-03 DE=-1.92D-02 OVMax= 1.12D-02

 Cycle   5  Pass 1  IDiag  1:
 E= -279.501578755067     Delta-E=       -0.000678926663 Rises=F Damp=F
 DIIS: error= 7.35D-04 at cycle   5 NSaved=   5.
 NSaved= 5 IEnMin= 5 EnMin= -279.501578755067     IErMin= 5 ErrMin= 7.35D-04
 ErrMax= 7.35D-04  0.00D+00 EMaxC= 1.00D-01 BMatC= 8.71D-05 BMatP= 4.99D-04
 IDIUse=3 WtCom= 9.93D-01 WtEn= 7.35D-03
 Coeff-Com:  0.613D-02-0.722D-01-0.118D+00 0.166D-01 0.117D+01
 Coeff-En:   0.000D+00 0.000D+00 0.000D+00 0.000D+00 0.100D+01
 Coeff:      0.609D-02-0.717D-01-0.117D+00 0.165D-01 0.117D+01
 Gap=     0.502 Goal=   None    Shift=    0.000
 RMSDP=7.65D-05 MaxDP=2.11D-03 DE=-6.79D-04 OVMax= 1.11D-02

 Cycle   6  Pass 1  IDiag  1:
 E= -279.501894830591     Delta-E=       -0.000316075524 Rises=F Damp=F
 DIIS: error= 2.86D-04 at cycle   6 NSaved=   6.
 NSaved= 6 IEnMin= 6 EnMin= -279.501894830591     IErMin= 6 ErrMin= 2.86D-04
 ErrMax= 2.86D-04  0.00D+00 EMaxC= 1.00D-01 BMatC= 1.67D-05 BMatP= 8.71D-05
 IDIUse=3 WtCom= 9.97D-01 WtEn= 2.86D-03
 Coeff-Com:  0.579D-03 0.180D-02 0.483D-02-0.128D+00-0.236D+00 0.136D+01
 Coeff-En:   0.000D+00 0.000D+00 0.000D+00 0.000D+00 0.000D+00 0.100D+01
 Coeff:      0.577D-03 0.179D-02 0.482D-02-0.128D+00-0.236D+00 0.136D+01
 Gap=     0.503 Goal=   None    Shift=    0.000
 RMSDP=4.54D-05 MaxDP=1.25D-03 DE=-3.16D-04 OVMax= 5.55D-03

 Cycle   7  Pass 1  IDiag  1:
 E= -279.501967640514     Delta-E=       -0.000072809923 Rises=F Damp=F
 DIIS: error= 1.22D-04 at cycle   7 NSaved=   7.
 NSaved= 7 IEnMin= 7 EnMin= -279.501967640514     IErMin= 7 ErrMin= 1.22D-04
 ErrMax= 1.22D-04  0.00D+00 EMaxC= 1.00D-01 BMatC= 4.48D-06 BMatP= 1.67D-05
 IDIUse=3 WtCom= 9.99D-01 WtEn= 1.22D-03
 Coeff-Com: -0.941D-03 0.135D-01 0.265D-01-0.230D-01-0.288D+00 0.389D+00
 Coeff-Com:  0.883D+00
 Coeff-En:   0.000D+00 0.000D+00 0.000D+00 0.000D+00 0.000D+00 0.000D+00
 Coeff-En:   0.100D+01
 Coeff:     -0.940D-03 0.135D-01 0.265D-01-0.230D-01-0.287D+00 0.388D+00
 Coeff:      0.883D+00
 Gap=     0.503 Goal=   None    Shift=    0.000
 RMSDP=1.32D-05 MaxDP=3.79D-04 DE=-7.28D-05 OVMax= 1.54D-03

 Cycle   8  Pass 1  IDiag  1:
 E= -279.501976483604     Delta-E=       -0.000008843090 Rises=F Damp=F
 DIIS: error= 5.78D-05 at cycle   8 NSaved=   8.
 NSaved= 8 IEnMin= 8 EnMin= -279.501976483604     IErMin= 8 ErrMin= 5.78D-05
 ErrMax= 5.78D-05  0.00D+00 EMaxC= 1.00D-01 BMatC= 6.04D-07 BMatP= 4.48D-06
 IDIUse=1 WtCom= 1.00D+00 WtEn= 0.00D+00
 Coeff-Com: -0.447D-03 0.342D-02 0.757D-02 0.272D-01-0.403D-01-0.198D+00
 Coeff-Com:  0.174D+00 0.103D+01
 Coeff:     -0.447D-03 0.342D-02 0.757D-02 0.272D-01-0.403D-01-0.198D+00
 Coeff:      0.174D+00 0.103D+01
 Gap=     0.502 Goal=   None    Shift=    0.000
 RMSDP=6.87D-06 MaxDP=2.02D-04 DE=-8.84D-06 OVMax= 7.44D-04

 Cycle   9  Pass 1  IDiag  1:
 E= -279.501978247001     Delta-E=       -0.000001763397 Rises=F Damp=F
 DIIS: error= 1.59D-05 at cycle   9 NSaved=   9.
 NSaved= 9 IEnMin= 9 EnMin= -279.501978247001     IErMin= 9 ErrMin= 1.59D-05
 ErrMax= 1.59D-05  0.00D+00 EMaxC= 1.00D-01 BMatC= 6.94D-08 BMatP= 6.04D-07
 IDIUse=1 WtCom= 1.00D+00 WtEn= 0.00D+00
 Coeff-Com:  0.123D-03-0.172D-02-0.308D-02-0.214D-02 0.343D-01 0.636D-04
 Coeff-Com: -0.168D+00-0.102D+00 0.124D+01
 Coeff:      0.123D-03-0.172D-02-0.308D-02-0.214D-02 0.343D-01 0.636D-04
 Coeff:     -0.168D+00-0.102D+00 0.124D+01
 Gap=     0.502 Goal=   None    Shift=    0.000
 RMSDP=1.94D-06 MaxDP=6.65D-05 DE=-1.76D-06 OVMax= 1.75D-04

 Cycle  10  Pass 1  IDiag  1:
 E= -279.501978406918     Delta-E=       -0.000000159917 Rises=F Damp=F
 DIIS: error= 4.12D-06 at cycle  10 NSaved=  10.
 NSaved=10 IEnMin=10 EnMin= -279.501978406918     IErMin=10 ErrMin= 4.12D-06
 ErrMax= 4.12D-06  0.00D+00 EMaxC= 1.00D-01 BMatC= 5.51D-09 BMatP= 6.94D-08
 IDIUse=1 WtCom= 1.00D+00 WtEn= 0.00D+00
 Coeff-Com:  0.305D-04-0.236D-03-0.313D-03-0.266D-02 0.148D-02 0.196D-01
 Coeff-Com: -0.129D-01-0.733D-01-0.829D-01 0.115D+01
 Coeff:      0.305D-04-0.236D-03-0.313D-03-0.266D-02 0.148D-02 0.196D-01
 Coeff:     -0.129D-01-0.733D-01-0.829D-01 0.115D+01
 Gap=     0.502 Goal=   None    Shift=    0.000
 RMSDP=5.04D-07 MaxDP=2.10D-05 DE=-1.60D-07 OVMax= 4.17D-05

 Cycle  11  Pass 1  IDiag  1:
 E= -279.501978419390     Delta-E=       -0.000000012471 Rises=F Damp=F
 DIIS: error= 2.03D-06 at cycle  11 NSaved=  11.
 NSaved=11 IEnMin=11 EnMin= -279.501978419390     IErMin=11 ErrMin= 2.03D-06
 ErrMax= 2.03D-06  0.00D+00 EMaxC= 1.00D-01 BMatC= 6.57D-10 BMatP= 5.51D-09
 IDIUse=1 WtCom= 1.00D+00 WtEn= 0.00D+00
 Coeff-Com: -0.212D-04 0.243D-03 0.486D-03 0.533D-03-0.427D-02-0.354D-02
 Coeff-Com:  0.212D-01 0.307D-01-0.139D+00-0.177D+00 0.127D+01
 Coeff:     -0.212D-04 0.243D-03 0.486D-03 0.533D-03-0.427D-02-0.354D-02
 Coeff:      0.212D-01 0.307D-01-0.139D+00-0.177D+00 0.127D+01
 Gap=     0.502 Goal=   None    Shift=    0.000
 RMSDP=1.77D-07 MaxDP=6.51D-06 DE=-1.25D-08 OVMax= 1.73D-05

 Cycle  12  Pass 1  IDiag  1:
 E= -279.501978421189     Delta-E=       -0.000000001799 Rises=F Damp=F
 DIIS: error= 5.87D-07 at cycle  12 NSaved=  12.
 NSaved=12 IEnMin=12 EnMin= -279.501978421189     IErMin=12 ErrMin= 5.87D-07
 ErrMax= 5.87D-07  0.00D+00 EMaxC= 1.00D-01 BMatC= 7.16D-11 BMatP= 6.57D-10
 IDIUse=1 WtCom= 1.00D+00 WtEn= 0.00D+00
 Coeff-Com:  0.125D-05-0.292D-04-0.634D-04 0.179D-03 0.109D-02-0.231D-02
 Coeff-Com: -0.413D-02 0.551D-02 0.418D-01-0.115D+00-0.278D+00 0.135D+01
 Coeff:      0.125D-05-0.292D-04-0.634D-04 0.179D-03 0.109D-02-0.231D-02
 Coeff:     -0.413D-02 0.551D-02 0.418D-01-0.115D+00-0.278D+00 0.135D+01
 Gap=     0.502 Goal=   None    Shift=    0.000
 RMSDP=7.18D-08 MaxDP=2.83D-06 DE=-1.80D-09 OVMax= 6.69D-06

 Cycle  13  Pass 1  IDiag  1:
 E= -279.501978421417     Delta-E=       -0.000000000229 Rises=F Damp=F
 DIIS: error= 1.69D-07 at cycle  13 NSaved=  13.
 NSaved=13 IEnMin=13 EnMin= -279.501978421417     IErMin=13 ErrMin= 1.69D-07
 ErrMax= 1.69D-07  0.00D+00 EMaxC= 1.00D-01 BMatC= 4.01D-12 BMatP= 7.16D-11
 IDIUse=1 WtCom= 1.00D+00 WtEn= 0.00D+00
 Coeff-Com:  0.128D-05-0.139D-04-0.224D-04-0.886D-04 0.120D-03 0.761D-03
 Coeff-Com: -0.853D-03-0.324D-02 0.548D-03 0.413D-01-0.363D-01-0.326D+00
 Coeff-Com:  0.132D+01
 Coeff:      0.128D-05-0.139D-04-0.224D-04-0.886D-04 0.120D-03 0.761D-03
 Coeff:     -0.853D-03-0.324D-02 0.548D-03 0.413D-01-0.363D-01-0.326D+00
 Coeff:      0.132D+01
 Gap=     0.502 Goal=   None    Shift=    0.000
 RMSDP=1.91D-08 MaxDP=5.60D-07 DE=-2.29D-10 OVMax= 1.56D-06

 Cycle  14  Pass 1  IDiag  1:
 E= -279.501978421431     Delta-E=       -0.000000000014 Rises=F Damp=F
 DIIS: error= 2.44D-08 at cycle  14 NSaved=  14.
 NSaved=14 IEnMin=14 EnMin= -279.501978421431     IErMin=14 ErrMin= 2.44D-08
 ErrMax= 2.44D-08  0.00D+00 EMaxC= 1.00D-01 BMatC= 1.95D-13 BMatP= 4.01D-12
 IDIUse=1 WtCom= 1.00D+00 WtEn= 0.00D+00
 Coeff-Com: -0.189D-06 0.310D-05 0.556D-05 0.460D-05-0.824D-04 0.458D-04
 Coeff-Com:  0.282D-03 0.222D-03-0.244D-02 0.147D-02 0.170D-01-0.255D-01
 Coeff-Com: -0.200D+00 0.121D+01
 Coeff:     -0.189D-06 0.310D-05 0.556D-05 0.460D-05-0.824D-04 0.458D-04
 Coeff:      0.282D-03 0.222D-03-0.244D-02 0.147D-02 0.170D-01-0.255D-01
 Coeff:     -0.200D+00 0.121D+01
 Gap=     0.502 Goal=   None    Shift=    0.000
 RMSDP=3.79D-09 MaxDP=9.13D-08 DE=-1.36D-11 OVMax= 3.41D-07

 SCF Done:  E(RHF) =  -279.501978421     A.U. after   14 cycles
            NFock= 14  Conv=0.38D-08     -V/T= 2.0023
 KE= 2.788587432593D+02 PE=-8.951555986387D+02 EE= 2.198815253395D+02
 Leave Link  502 at Mon Feb 21 19:59:36 2022, MaxMem= 16106127360 cpu:              52.6 elap:               3.4
 (Enter /sw/contrib/gaussian/g16/B01/g16/l801.exe)
 ExpMin= 2.53D-02 ExpMax= 1.53D+04 ExpMxC= 5.22D+02 IAcc=3 IRadAn=         5 AccDes= 0.00D+00
 HarFok:  IExCor=  205 AccDes= 0.00D+00 IRadAn=         5 IDoV=-2 UseB2=F ITyADJ=14
 ICtDFT= 12500011 ScaDFX=  1.000000  1.000000  1.000000  1.000000
 Largest valence mixing into a core orbital is  2.08D-04
 Largest core mixing into a valence orbital is  3.63D-05
 Range of M.O.s used for correlation:     5   207
 NBasis=   207 NAE=    16 NBE=    16 NFC=     4 NFV=     0
 NROrb=    203 NOA=    12 NOB=    12 NVA=   191 NVB=   191

 **** Warning!!: The largest alpha MO coefficient is  0.17800047D+02

 Leave Link  801 at Mon Feb 21 19:59:36 2022, MaxMem= 16106127360 cpu:               3.3 elap:               0.2
 (Enter /sw/contrib/gaussian/g16/B01/g16/l906.exe)
 Frozen-core derivative calculation, NFC=   4 NFV=   0.
 FulOut=F Deriv=T AODrv=T NAtomX=     5
   MMem=           0  MDisk=          12 MDiskD=          12
  W3Min=      811440 MinDsk=     2425030 NBas6D=         245
 NBas2D=       30762    NTT=       30135    LW2=     7400000
    MDV= 16105574283 MDiskM=      328644 NBas2p=       30702
 Disk-based method using ON**2 memory for 12 occupieds at a time.
 Permanent disk used for amplitudes=    11516536 words.
 Estimated scratch disk usage=   321251614 words.
 IMap=   1   2   3   4   5   6   7   8   9  10  11  12  13  14  15  16
 Actual    scratch disk usage=   310331678 words.
 JobTyp=1 Pass  1:  I=   5 to  16 NPSUse= 28 ParTrn=T ParDer=T DoDerP=T.
 (rs|ai) integrals will be sorted in core.
 Spin components of T(2) and E(2):
     alpha-alpha T2 =       0.3399100879D-01 E2=     -0.1223607524D+00
     alpha-beta  T2 =       0.1866444476D+00 E2=     -0.6999885536D+00
     beta-beta   T2 =       0.3399100879D-01 E2=     -0.1223607524D+00
 The integrals were generated   1 times.
 ANorm=    0.1120101096D+01
 E2 =    -0.9447100584D+00 EUMP2 =    -0.28044668847979D+03
 Leave Link  906 at Mon Feb 21 20:01:13 2022, MaxMem= 16106127360 cpu:            2702.8 elap:              96.7
 (Enter /sw/contrib/gaussian/g16/B01/g16/l1101.exe)
 Using compressed Sx but separate Hx and Fx, NAtomX=     5.
 Will process      6 centers per pass.
 Leave Link 1101 at Mon Feb 21 20:01:13 2022, MaxMem= 16106127360 cpu:               5.4 elap:               0.2
 (Enter /sw/contrib/gaussian/g16/B01/g16/l1102.exe)
 Leave Link 1102 at Mon Feb 21 20:01:13 2022, MaxMem= 16106127360 cpu:               1.0 elap:               0.1
 (Enter /sw/contrib/gaussian/g16/B01/g16/l1110.exe)
 Forming Gx(P) for the SCF density, NAtomX=     5.
 Integral derivatives from FoFJK, PRISM(SPDF).
 Do as many integral derivatives as possible in FoFJK.
 G2DrvN: MDV=   16106126844.
 G2DrvN: will do     6 centers at a time, making    1 passes.
 Calling FoFCou, ICntrl=  3107 FMM=F I1Cent=   0 AccDes= 0.00D+00.
 FoFJK:  IHMeth= 1 ICntrl=    3107 DoSepK=F KAlg= 0 I1Cent=           0 FoldK=F
 IRaf=         0 NMat=       1 IRICut=       1 DoRegI=T DoRafI=F ISym2E= 1 IDoP0=0 IntGTp=1.
 FoFCou: FMM=F IPFlag=           0 FMFlag=      100000 FMFlg1=           0
         NFxFlg=           0 DoJE=F BraDBF=F KetDBF=F FulRan=T
         wScrn=  0.000000 ICntrl=      3107 IOpCl=  0 I1Cent=           0 NGrid=           0
         NMat0=    1 NMatS0=      1 NMatT0=    0 NMatD0=    1 NMtDS0=    0 NMtDT0=    0
 Petite list used in FoFCou.
 End of G2Drv F.D. properties file   721 does not exist.
 End of G2Drv F.D. properties file   722 does not exist.
 End of G2Drv F.D. properties file   788 does not exist.
 Leave Link 1110 at Mon Feb 21 20:01:16 2022, MaxMem= 16106127360 cpu:              83.1 elap:               3.0
 (Enter /sw/contrib/gaussian/g16/B01/g16/l1002.exe)
 Minotr:  Closed shell wavefunction.
          IDoAtm=11111
          Frozen-core window.
          Direct CPHF calculation.
          Differentiating once with respect to electric field.
                with respect to dipole field.
          Differentiating once with respect to nuclear coordinates.
          Requested convergence is 1.0D-08 RMS, and 1.0D-07 maximum.
          Secondary convergence is 1.0D-12 RMS, and 1.0D-12 maximum.
          NewPWx=T KeepS1=T KeepF1=T KeepIn=T MapXYZ=F SortEE=F KeepMc=T.
 Keep R1 ints in memory in symmetry-blocked form, NReq=348888983.
 FoFCou: FMM=F IPFlag=           0 FMFlag=           0 FMFlg1=           0
         NFxFlg=           0 DoJE=F BraDBF=F KetDBF=F FulRan=T
         wScrn=  0.000000 ICntrl=       600 IOpCl=  0 I1Cent=           0 NGrid=           0
         NMat0=    1 NMatS0=  21528 NMatT0=    0 NMatD0=    1 NMtDS0=    0 NMtDT0=    0
 Petite list used in FoFCou.
          MDV=   16106127360 using IRadAn=       1.
          Solving linear equations simultaneously, MaxMat=       0.
          There are    18 degrees of freedom in the 1st order CPHF.  IDoFFX=6 NUNeed=    18.
     15 vectors produced by pass  0 Test12= 1.70D-14 5.56D-09 XBig12= 8.28D+00 1.06D+00.
 AX will form    15 AO Fock derivatives at one time.
     15 vectors produced by pass  1 Test12= 1.70D-14 5.56D-09 XBig12= 1.34D+00 2.64D-01.
     15 vectors produced by pass  2 Test12= 1.70D-14 5.56D-09 XBig12= 1.41D-01 9.80D-02.
     15 vectors produced by pass  3 Test12= 1.70D-14 5.56D-09 XBig12= 4.98D-03 1.11D-02.
     15 vectors produced by pass  4 Test12= 1.70D-14 5.56D-09 XBig12= 1.00D-04 1.94D-03.
     15 vectors produced by pass  5 Test12= 1.70D-14 5.56D-09 XBig12= 1.41D-06 1.79D-04.
     15 vectors produced by pass  6 Test12= 1.70D-14 5.56D-09 XBig12= 1.12D-08 1.45D-05.
     13 vectors produced by pass  7 Test12= 1.70D-14 5.56D-09 XBig12= 8.24D-11 1.28D-06.
      3 vectors produced by pass  8 Test12= 1.70D-14 5.56D-09 XBig12= 5.72D-13 1.22D-07.
      2 vectors produced by pass  9 Test12= 1.70D-14 5.56D-09 XBig12= 3.71D-15 9.87D-09.
 InvSVY:  IOpt=1 It=  1 EMax= 1.78D-15
 Solved reduced A of dimension   123 with    15 vectors.
 FullF1:  Do perturbations      1 to      18.
 Saving first derivative matrices.
 End of Minotr F.D. properties file   721 does not exist.
 End of Minotr F.D. properties file   722 does not exist.
 End of Minotr F.D. properties file   788 does not exist.
 Leave Link 1002 at Mon Feb 21 20:01:19 2022, MaxMem= 16106127360 cpu:              78.9 elap:               2.8
 (Enter /sw/contrib/gaussian/g16/B01/g16/l811.exe)
 MDV= 16106127360.
 Form MO integral derivatives with frozen-active canonical formalism.
 MOERI=1 MOERIx=1 NAtoms=     5 NAtomX=     5.
 Discarding MO integrals.
 MO basis two electron integral derivatives will not be stored on disk.
 IAlg= 3 DoFC=T DoPWx=T Debug=F.
 Frozen-core window:  NFC=   4 NFV=   0.
 Reordered first order wavefunction length =     18678272
 In DefCFB: NBatch=  1 ICI= 16 ICA=191 LFMax= 96
            Large arrays: LIAPS=   619940160 LIARS=   288257200 words.
 In StABat: MaxSiz= 55 MinSiz= 25 NAtomB=  5
 DoIAMN: NPSUse= 28.
 Leave Link  811 at Mon Feb 21 20:02:39 2022, MaxMem= 16106127360 cpu:            2235.8 elap:              80.0
 (Enter /sw/contrib/gaussian/g16/B01/g16/l804.exe)
 Frozen-core window:  NFC=   4 NFV=   0.
 Closed-shell transformation, MDV= 16106127360 ITran=4 ISComp=1.
 Semi-Direct transformation.
 ModeAB=           2 MOrb=            16 LenV=   16104923051
 LASXX=     67341636 LTotXX=    67341636 LenRXX=    67341636
 LTotAB=    68301760 MaxLAS=    99807120 LenRXY=    99807120
 NonZer=   134683272 LenScr=   202817536 LnRSAI=           0
 LnScr1=           0 LExtra=           0 Total=    369966292
 MaxDsk=          -1 SrtSym=           F ITran=            4
 DoSDTr:  NPSUse= 28
 JobTyp=0 Pass  1:  I=   1 to  16.
 (rs|ai) integrals will be sorted in core.
 Complete sort for first half transformation.
 First half transformation complete.
 Begin second half transformation for I=  10.
 Begin second half transformation for I=  10.
 Complete sort for second half transformation.
 Second half transformation complete.
 Spin components of T(2) and E(2):
     alpha-alpha T2 =       0.3399100879D-01 E2=     -0.1223607524D+00
     alpha-beta  T2 =       0.1866444476D+00 E2=     -0.6999885536D+00
     beta-beta   T2 =       0.3399100879D-01 E2=     -0.1223607524D+00
 ANorm=    0.1584062161D+01
 E2 =    -0.9447100584D+00 EUMP2 =    -0.28044668847979D+03
 Leave Link  804 at Mon Feb 21 20:02:54 2022, MaxMem= 16106127360 cpu:             432.3 elap:              15.5
 (Enter /sw/contrib/gaussian/g16/B01/g16/l1002.exe)
 Minotr:  Closed shell wavefunction.
          Computing MP2/KS-MP2 derivatives.
          Using Z-Vector for PSCF gradient.
          Skipping F1 and S1 gradient terms here.
          IDoAtm=11111
          Frozen-core window.
          Using MO integrals in the linear equations.
          Forming densities via direct SCF.
          Differentiating once with respect to electric field.
                with respect to dipole field.
          Differentiating once with respect to nuclear coordinates.
          Using symmetry in CPHF.
          Requested convergence is 1.0D-10 RMS, and 1.0D-09 maximum.
          NewPWx=F KeepS1=T KeepF1=T KeepIn=T MapXYZ=F SortEE=F KeepMc=T.
          MDV=   16106127360 using IRadAn=       5.
          Solving linear equations separately, MaxMat=       0.
          There are     1 degrees of freedom in the 1st order CPHF.  IDoFFX=0 NUNeed=     1.
 FoFJK:  IHMeth= 1 ICntrl=       0 DoSepK=F KAlg= 0 I1Cent=           0 FoldK=F
 IRaf=         0 NMat=       1 IRICut=       1 DoRegI=T DoRafI=F ISym2E= 0 IDoP0=0 IntGTp=1.
 FoFCou: FMM=F IPFlag=           0 FMFlag=      100000 FMFlg1=           0
         NFxFlg=           0 DoJE=F BraDBF=F KetDBF=F FulRan=T
         wScrn=  0.000000 ICntrl=         0 IOpCl=  0 I1Cent=           0 NGrid=           0
         NMat0=    1 NMatS0=      1 NMatT0=    0 NMatD0=    1 NMtDS0=    0 NMtDT0=    0
 Symmetry not used in FoFCou.
 LinEq1:  Iter=  0 NonCon=     1 RMS=5.95D-03 Max=1.33D-01 NDo=     1
 LinEq1:  Iter=  1 NonCon=     1 RMS=1.90D-03 Max=3.83D-02 NDo=     1
 LinEq1:  Iter=  2 NonCon=     1 RMS=8.67D-04 Max=1.42D-02 NDo=     1
 LinEq1:  Iter=  3 NonCon=     1 RMS=3.87D-04 Max=7.82D-03 NDo=     1
 LinEq1:  Iter=  4 NonCon=     1 RMS=1.19D-04 Max=1.90D-03 NDo=     1
 LinEq1:  Iter=  5 NonCon=     1 RMS=4.56D-05 Max=7.26D-04 NDo=     1
 LinEq1:  Iter=  6 NonCon=     1 RMS=2.04D-05 Max=2.33D-04 NDo=     1
 LinEq1:  Iter=  7 NonCon=     1 RMS=8.16D-06 Max=1.60D-04 NDo=     1
 LinEq1:  Iter=  8 NonCon=     1 RMS=3.46D-06 Max=3.42D-05 NDo=     1
 LinEq1:  Iter=  9 NonCon=     1 RMS=9.40D-07 Max=1.31D-05 NDo=     1
 LinEq1:  Iter= 10 NonCon=     1 RMS=1.85D-07 Max=2.01D-06 NDo=     1
 LinEq1:  Iter= 11 NonCon=     1 RMS=3.43D-08 Max=3.56D-07 NDo=     1
 LinEq1:  Iter= 12 NonCon=     1 RMS=8.28D-09 Max=1.28D-07 NDo=     1
 LinEq1:  Iter= 13 NonCon=     1 RMS=1.50D-09 Max=2.57D-08 NDo=     1
 LinEq1:  Iter= 14 NonCon=     1 RMS=2.71D-10 Max=3.81D-09 NDo=     1
 LinEq1:  Iter= 15 NonCon=     0 RMS=4.88D-11 Max=5.50D-10 NDo=     1
 Linear equations converged to 1.000D-10 1.000D-09 after    15 iterations.
 End of Minotr F.D. properties file   721 does not exist.
 End of Minotr F.D. properties file   722 does not exist.
 End of Minotr F.D. properties file   788 does not exist.
 Leave Link 1002 at Mon Feb 21 20:02:57 2022, MaxMem= 16106127360 cpu:              65.2 elap:               2.4
 (Enter /sw/contrib/gaussian/g16/B01/g16/l1102.exe)
 Use density number 2.
 Symmetrizing basis deriv contribution to polar:
 IMax=3 JMax=2 DiffMx= 0.00D+00
 Leave Link 1102 at Mon Feb 21 20:02:57 2022, MaxMem= 16106127360 cpu:               0.6 elap:               0.0
 (Enter /sw/contrib/gaussian/g16/B01/g16/l1110.exe)
 Forming Gx(P) for generalized density number  2 NAtomX=     5.
 Integral derivatives from FoFJK, PRISM(SPDF).
 Do as many integral derivatives as possible in FoFJK.
 G2DrvN: MDV=   16106126844.
 G2DrvN: will do     6 centers at a time, making    1 passes.
 Calling FoFCou, ICntrl=  3107 FMM=F I1Cent=   0 AccDes= 0.00D+00.
 FoFJK:  IHMeth= 1 ICntrl=    3107 DoSepK=F KAlg= 0 I1Cent=           0 FoldK=F
 IRaf=         0 NMat=       1 IRICut=       1 DoRegI=T DoRafI=F ISym2E= 1 IDoP0=0 IntGTp=1.
 FoFCou: FMM=F IPFlag=           0 FMFlag=      100000 FMFlg1=           0
         NFxFlg=           0 DoJE=F BraDBF=F KetDBF=F FulRan=T
         wScrn=  0.000000 ICntrl=      3107 IOpCl=  0 I1Cent=           0 NGrid=           0
         NMat0=    1 NMatS0=      1 NMatT0=    0 NMatD0=    1 NMtDS0=    0 NMtDT0=    0
 Petite list used in FoFCou.
 End of G2Drv F.D. properties file   721 does not exist.
 End of G2Drv F.D. properties file   722 does not exist.
 End of G2Drv F.D. properties file   788 does not exist.
 Leave Link 1110 at Mon Feb 21 20:03:00 2022, MaxMem= 16106127360 cpu:              84.4 elap:               3.1
 (Enter /sw/contrib/gaussian/g16/B01/g16/l1112.exe)
 MP22nd: MDV=   16106127360
 This link is doing NAtomX=     5 total of    18 degrees of freedom.
 Using ON3 I/O method in MakUI.
 Frozen-core window:  NFC=   4 NFV=   0.
 Using Ix for Sx.
 Use MO integrals over full window.
 Using OV2 memory method for fx*t*t/D, MaxI=    16 DoOO2=F NP=  28.
 R2 and R3 integrals will be kept in memory, NReq=   915591705.
 FoFCou: FMM=F IPFlag=           0 FMFlag=           0 FMFlg1=           0
         NFxFlg=           0 DoJE=F BraDBF=F KetDBF=F FulRan=T
         wScrn=  0.000000 ICntrl=       600 IOpCl=  0 I1Cent=           0 NGrid=           0
         NMat0=    1 NMatS0=      1 NMatT0=    0 NMatD0=    1 NMtDS0=    0 NMtDT0=    0
 Symmetry not used in FoFCou.
 DD1Dir will call FoFMem   1 times, MxPair=       272
 NAB=   136 NAA=     0 NBB=     0.
 Symmetry is being used.
 FoFJK:  IHMeth= 1 ICntrl=       0 DoSepK=F KAlg= 0 I1Cent=           0 FoldK=F
 IRaf=         0 NMat=      18 IRICut=      45 DoRegI=T DoRafI=T ISym2E= 2 IDoP0=3 IntGTp=3.
 Discarding MO integrals.
 Leave Link 1112 at Mon Feb 21 20:03:37 2022, MaxMem= 16106127360 cpu:            1030.5 elap:              37.3
 (Enter /sw/contrib/gaussian/g16/B01/g16/l601.exe)
 Copying SCF densities to generalized density rwf, IOpCl= 0 IROHF=0.

 **********************************************************************

            Population analysis using the MP2 Density.

 **********************************************************************

 Orbital symmetries:
       Occupied  (A') (A') (A') (A') (A') (A') (A') (A') (A') (A')
                 (A") (A') (A") (A') (A") (A')
       Virtual   (A') (A") (A') (A') (A") (A') (A') (A') (A") (A')
                 (A") (A') (A') (A') (A") (A') (A') (A") (A') (A')
                 (A') (A') (A') (A') (A") (A') (A') (A") (A') (A')
                 (A") (A') (A") (A') (A') (A") (A') (A') (A") (A')
                 (A") (A') (A") (A') (A') (A") (A') (A') (A") (A')
                 (A") (A') (A') (A') (A") (A') (A") (A') (A") (A')
                 (A') (A') (A") (A') (A') (A") (A') (A") (A') (A')
                 (A") (A') (A') (A") (A") (A') (A') (A") (A') (A')
                 (A') (A") (A') (A") (A') (A") (A') (A") (A') (A')
                 (A") (A') (A') (A") (A') (A") (A') (A") (A') (A')
                 (A") (A') (A") (A') (A') (A") (A') (A') (A") (A')
                 (A") (A') (A') (A') (A") (A') (A') (A') (A") (A')
                 (A") (A') (A") (A') (A') (A") (A") (A') (A") (A')
                 (A') (A') (A') (A") (A") (A") (A') (A') (A') (A')
                 (A") (A') (A") (A') (A') (A") (A') (A') (A') (A')
                 (A") (A') (A') (A") (A') (A") (A') (A") (A') (A")
                 (A') (A") (A') (A") (A') (A") (A") (A') (A") (A')
                 (A") (A') (A") (A') (A") (A') (A") (A") (A') (A')
                 (A') (A') (A') (A') (A') (A') (A') (A') (A') (A')
                 (A')
 The electronic state is 1-A'.
 Alpha  occ. eigenvalues --  -20.69107 -20.68443 -20.65943 -15.81298  -1.62420
 Alpha  occ. eigenvalues --   -1.49663  -1.25580  -0.94823  -0.77338  -0.75975
 Alpha  occ. eigenvalues --   -0.71196  -0.68045  -0.62067  -0.58977  -0.48547
 Alpha  occ. eigenvalues --   -0.47269
 Alpha virt. eigenvalues --    0.02976   0.07156   0.08591   0.10170   0.13390
 Alpha virt. eigenvalues --    0.13394   0.14437   0.15480   0.17816   0.19416
 Alpha virt. eigenvalues --    0.19978   0.20637   0.22079   0.23523   0.23731
 Alpha virt. eigenvalues --    0.26622   0.29356   0.30420   0.31073   0.34338
 Alpha virt. eigenvalues --    0.34935   0.38731   0.42284   0.43262   0.52728
 Alpha virt. eigenvalues --    0.52915   0.55848   0.58154   0.62587   0.63828
 Alpha virt. eigenvalues --    0.67437   0.68511   0.70636   0.71141   0.72469
 Alpha virt. eigenvalues --    0.72943   0.74481   0.79136   0.79214   0.81042
 Alpha virt. eigenvalues --    0.81263   0.83069   0.86813   0.90817   0.92228
 Alpha virt. eigenvalues --    0.92642   0.95719   0.97668   0.98559   1.01790
 Alpha virt. eigenvalues --    1.05167   1.05484   1.08301   1.11875   1.14203
 Alpha virt. eigenvalues --    1.18925   1.22121   1.23403   1.33864   1.35008
 Alpha virt. eigenvalues --    1.38613   1.45545   1.48975   1.51017   1.53784
 Alpha virt. eigenvalues --    1.56696   1.57929   1.61408   1.66356   1.66926
 Alpha virt. eigenvalues --    1.70334   1.79338   1.83151   1.83455   1.87806
 Alpha virt. eigenvalues --    1.91088   1.95993   1.99241   2.00707   2.07777
 Alpha virt. eigenvalues --    2.12183   2.13193   2.14983   2.22482   2.26383
 Alpha virt. eigenvalues --    2.26513   2.28959   2.31505   2.34446   2.38751
 Alpha virt. eigenvalues --    2.42449   2.42943   2.45411   2.46295   2.47706
 Alpha virt. eigenvalues --    2.50180   2.58687   2.59687   2.62063   2.62557
 Alpha virt. eigenvalues --    2.63437   2.66645   2.75753   2.82257   2.85593
 Alpha virt. eigenvalues --    2.88460   2.89374   2.92480   2.95789   3.02633
 Alpha virt. eigenvalues --    3.06860   3.12067   3.20448   3.22721   3.31765
 Alpha virt. eigenvalues --    3.34235   3.51677   3.64622   3.83852   3.85225
 Alpha virt. eigenvalues --    4.15504   4.16549   4.18539   4.25831   4.35775
 Alpha virt. eigenvalues --    4.39477   4.46561   4.52181   4.66255   4.71337
 Alpha virt. eigenvalues --    4.80598   4.82451   4.84092   4.89589   5.02322
 Alpha virt. eigenvalues --    5.07753   5.10983   5.14889   5.18297   5.25262
 Alpha virt. eigenvalues --    5.27446   5.30975   5.34668   5.35697   5.61015
 Alpha virt. eigenvalues --    5.67363   5.77142   5.83282   5.95817   6.16706
 Alpha virt. eigenvalues --    6.30890   6.33716   6.39616   6.49360   6.50540
 Alpha virt. eigenvalues --    6.61487   6.66731   6.69965   6.75740   6.76322
 Alpha virt. eigenvalues --    6.83286   6.89826   7.01773   7.05735   7.05767
 Alpha virt. eigenvalues --    7.09087   7.12588   7.15125   7.18180   7.22684
 Alpha virt. eigenvalues --    7.25396   7.31434   7.32538   7.34954   7.39908
 Alpha virt. eigenvalues --    7.43275   7.48448   7.60847   7.61940   7.62829
 Alpha virt. eigenvalues --    7.66802   7.79736   7.88703   8.09596   8.31679
 Alpha virt. eigenvalues --    8.41821   8.54678  13.39302  14.40056  15.26571
 Alpha virt. eigenvalues --   16.15238
          Condensed to atoms (all electrons):
               1          2          3          4          5
     1  H    0.597284   0.125638   0.020868   0.012591  -0.000673
     2  O    0.125638   8.319867  -0.174474  -0.090987   0.015584
     3  O    0.020868  -0.174474   8.470096  -0.130151  -0.038719
     4  N    0.012591  -0.090987  -0.130151   6.972073  -0.055747
     5  O   -0.000673   0.015584  -0.038719  -0.055747   8.272817
 Mulliken charges:
               1
     1  H    0.244291
     2  O   -0.195628
     3  O   -0.147620
     4  N    0.292220
     5  O   -0.193263
 Sum of Mulliken charges =  -0.00000
 Mulliken charges with hydrogens summed into heavy atoms:
               1
     2  O    0.048663
     3  O   -0.147620
     4  N    0.292220
     5  O   -0.193263
 APT charges:
               1
     1  H    0.299528
     2  O   -0.289358
     3  O   -0.495214
     4  N    0.876756
     5  O   -0.391712
 Sum of APT charges =  -0.00000
 APT charges with hydrogens summed into heavy atoms:
               1
     2  O    0.010171
     3  O   -0.495214
     4  N    0.876756
     5  O   -0.391712
 Electronic spatial extent (au):  <R**2>=            252.8145
 Charge=              0.0000 electrons
 Dipole moment (field-independent basis, Debye):
    X=              0.5045    Y=              1.3517    Z=             -0.0000  Tot=              1.4428
 Quadrupole moment (field-independent basis, Debye-Ang):
   XX=            -22.4659   YY=            -18.6431   ZZ=            -22.0014
   XY=              3.2420   XZ=             -0.0000   YZ=              0.0000
 Traceless Quadrupole moment (field-independent basis, Debye-Ang):
   XX=             -1.4291   YY=              2.3937   ZZ=             -0.9646
   XY=              3.2420   XZ=             -0.0000   YZ=              0.0000
 Octapole moment (field-independent basis, Debye-Ang**2):
  XXX=              2.8745  YYY=             11.2158  ZZZ=             -0.0000  XYY=              7.8603
  XXY=              6.5618  XXZ=              0.0000  XZZ=             -1.5664  YZZ=             -0.8448
  YYZ=              0.0000  XYZ=              0.0000
 Hexadecapole moment (field-independent basis, Debye-Ang**3):
 XXXX=           -158.3617 YYYY=            -89.8329 ZZZZ=            -18.2264 XXXY=            -36.6625
 XXXZ=             -0.0000 YYYX=            -30.8404 YYYZ=             -0.0000 ZZZX=             -0.0000
 ZZZY=             -0.0000 XXYY=            -34.0101 XXZZ=            -30.8449 YYZZ=            -20.6391
 XXYZ=             -0.0000 YYXZ=             -0.0000 ZZXY=            -15.0357
 N-N= 1.169133516184D+02 E-N=-8.959390361117D+02  KE= 2.802097051201D+02
 Symmetry A'   KE= 2.662377821701D+02
 Symmetry A"   KE= 1.397192294998D+01
  Exact polarizability:  33.969   9.439  30.155   0.000  -0.000  17.910
 Approx polarizability:  28.988   5.096  23.447   0.000   0.000  15.510
 No NMR shielding tensors so no spin-rotation constants.
 Leave Link  601 at Mon Feb 21 20:03:37 2022, MaxMem= 16106127360 cpu:               4.2 elap:               0.2
 (Enter /sw/contrib/gaussian/g16/B01/g16/l701.exe)
 ... and contract with generalized density number  2.
 Compute integral second derivatives.
 Leave Link  701 at Mon Feb 21 20:03:38 2022, MaxMem= 16106127360 cpu:               6.1 elap:               0.2
 (Enter /sw/contrib/gaussian/g16/B01/g16/l702.exe)
 L702 exits ... SP integral derivatives will be done elsewhere.
 Leave Link  702 at Mon Feb 21 20:03:38 2022, MaxMem= 16106127360 cpu:               0.5 elap:               0.0
 (Enter /sw/contrib/gaussian/g16/B01/g16/l703.exe)
 Integral derivatives from FoFJK, PRISM(SPDF).
 Compute integral second derivatives, UseDBF=F ICtDFT=           0.
 Calling FoFJK, ICntrl=  10100127 FMM=F ISym2X=1 I1Cent= 0 IOpClX= 0 NMat=1 NMatS=1 NMatT=0.
 FoFJK:  IHMeth= 1 ICntrl=10100127 DoSepK=F KAlg= 0 I1Cent=           0 FoldK=F
 IRaf=         0 NMat=       1 IRICut=       1 DoRegI=T DoRafI=F ISym2E= 1 IDoP0=0 IntGTp=1.
 FoFCou: FMM=F IPFlag=           0 FMFlag=      100000 FMFlg1=         800
         NFxFlg=           0 DoJE=F BraDBF=F KetDBF=F FulRan=T
         wScrn=  0.000000 ICntrl=  10100127 IOpCl=  0 I1Cent=           0 NGrid=           0
         NMat0=    1 NMatS0=      1 NMatT0=    0 NMatD0=    1 NMtDS0=    0 NMtDT0=    0
 Petite list used in FoFCou.
 Leave Link  703 at Mon Feb 21 20:03:53 2022, MaxMem= 16106127360 cpu:             421.7 elap:              15.1
 (Enter /sw/contrib/gaussian/g16/B01/g16/l716.exe)
 Dipole        = 1.98490582D-01 5.31816678D-01-8.70119616D-34
 Polarizability= 3.39686790D+01 9.43872500D+00 3.01547077D+01
                 7.26781437D-31-1.16201747D-31 1.79101958D+01
 Full mass-weighted force constant matrix:
 Low frequencies --- -421.6147  -49.6252  -30.2050   -0.0007   -0.0005    0.0019
 Low frequencies ---    6.3536  228.4611  334.4364
 ******    1 imaginary frequencies (negative Signs) ****** 
 Diagonal vibrational polarizability:
       14.0042721      25.2709646      19.5914529
 Harmonic frequencies (cm**-1), IR intensities (KM/Mole), Raman scattering
 activities (A**4/AMU), depolarization ratios for plane and unpolarized
 incident light, reduced masses (AMU), force constants (mDyne/A),
 and normal coordinates:
                      1                      2                      3
                     A"                     A"                     A'
 Frequencies --   -417.3200               228.3693               334.3875
 Red. masses --      1.1249                11.7967                 8.3029
 Frc consts  --      0.1154                 0.3625                 0.5470
 IR Inten    --    126.0635                 0.2164                 5.1617
  Atom  AN      X      Y      Z        X      Y      Z        X      Y      Z
     1   1    -0.00   0.00   1.00    -0.00   0.00  -0.49     0.56  -0.43  -0.00
     2   8     0.00   0.00  -0.06    -0.00   0.00  -0.33    -0.09  -0.37  -0.00
     3   8    -0.00  -0.00  -0.04     0.00  -0.00   0.34    -0.14   0.43   0.00
     4   7     0.00  -0.00   0.05     0.00  -0.00   0.56     0.04   0.25   0.00
     5   8    -0.00   0.00  -0.00    -0.00   0.00  -0.47     0.16  -0.25  -0.00
                      4                      5                      6
                     A'                     A'                     A'
 Frequencies --    451.7745               782.7058               966.8022
 Red. masses --     12.3077                12.5764                15.5370
 Frc consts  --      1.4800                 4.5394                 8.5564
 IR Inten    --    199.2646               165.5250                24.2455
  Atom  AN      X      Y      Z        X      Y      Z        X      Y      Z
     1   1     0.41   0.20  -0.00    -0.38   0.18   0.00    -0.14  -0.04  -0.00
     2   8     0.32   0.21  -0.00     0.42   0.08  -0.00    -0.52   0.03   0.00
     3   8     0.18   0.44   0.00    -0.07  -0.25   0.00     0.75  -0.03  -0.00
     4   7    -0.35  -0.41   0.00    -0.14   0.61   0.00    -0.12   0.25  -0.00
     5   8    -0.22  -0.30  -0.00    -0.21  -0.37  -0.00    -0.12  -0.22   0.00
                      7                      8                      9
                     A'                     A'                     A'
 Frequencies --   1347.7724              1677.1888              3871.0472
 Red. masses --      1.1397                13.3629                 1.0675
 Frc consts  --      1.2197                22.1470                 9.4251
 IR Inten    --    154.1556               141.7985                83.4071
  Atom  AN      X      Y      Z        X      Y      Z        X      Y      Z
     1   1     0.99  -0.05  -0.00    -0.33   0.00   0.00     0.10   0.99   0.00
     2   8    -0.03   0.06  -0.00    -0.00  -0.04   0.00    -0.01  -0.06  -0.00
     3   8    -0.02  -0.05   0.00     0.00   0.15  -0.00     0.00   0.00  -0.00
     4   7     0.02   0.01   0.00     0.71  -0.05  -0.00    -0.00  -0.00   0.00
     5   8    -0.03  -0.01  -0.00    -0.60  -0.07   0.00     0.00   0.00   0.00

 -------------------
 - Thermochemistry -
 -------------------
 Temperature   298.150 Kelvin.  Pressure   1.00000 Atm.
 Atom     1 has atomic number  1 and mass   1.00783
 Atom     2 has atomic number  8 and mass  15.99491
 Atom     3 has atomic number  8 and mass  15.99491
 Atom     4 has atomic number  7 and mass  14.00307
 Atom     5 has atomic number  8 and mass  15.99491
 Molecular mass:    62.99564 amu.
 Principal axes and moments of inertia in atomic units:
                           1         2         3
     Eigenvalues --    32.82270 360.06993 392.89263
           X            0.81023  -0.58612   0.00000
           Y            0.58612   0.81023   0.00000
           Z           -0.00000   0.00000   1.00000
 This molecule is an asymmetric top.
 Rotational symmetry number  1.
 Rotational temperatures (Kelvin)      2.63884     0.24055     0.22045
 Rotational constants (GHZ):          54.98455     5.01220     4.59347
    1 imaginary frequencies ignored.
 Zero-point vibrational energy      57779.9 (Joules/Mol)
                                   13.80973 (Kcal/Mol)
 Warning -- explicit consideration of   3 degrees of freedom as
           vibrations may cause significant error
 Vibrational temperatures:    328.57   481.11   650.00  1126.14  1391.01
          (Kelvin)           1939.14  2413.10  5569.57
 
 Zero-point correction=                           0.022007 (Hartree/Particle)
 Thermal correction to Energy=                    0.026136
 Thermal correction to Enthalpy=                  0.027080
 Thermal correction to Gibbs Free Energy=        -0.004124
 Sum of electronic and zero-point Energies=           -280.424681
 Sum of electronic and thermal Energies=              -280.420553
 Sum of electronic and thermal Enthalpies=            -280.419609
 Sum of electronic and thermal Free Energies=         -280.450813
 
                     E (Thermal)             CV                S
                      KCal/Mol        Cal/Mol-Kelvin    Cal/Mol-Kelvin
 Total                   16.400             11.984             65.674
 Electronic               0.000              0.000              0.000
 Translational            0.889              2.981             38.341
 Rotational               0.889              2.981             23.056
 Vibrational             14.623              6.022              4.278
 Vibration     1          0.651              1.798              1.892
 Vibration     2          0.716              1.607              1.239
 Vibration     3          0.810              1.357              0.790
                       Q            Log10(Q)             Ln(Q)
 Total Bot       0.788715D+02          1.896920          4.367820
 Total V=0       0.104598D+13         12.019524         27.675977
 Vib (Bot)       0.164527D-09         -9.783763        -22.527946
 Vib (Bot)    1  0.863068D+00         -0.063955         -0.147262
 Vib (Bot)    2  0.557256D+00         -0.253945         -0.584730
 Vib (Bot)    3  0.379038D+00         -0.421317         -0.970118
 Vib (V=0)       0.218193D+01          0.338842          0.780211
 Vib (V=0)    1  0.149744D+01          0.175349          0.403757
 Vib (V=0)    2  0.124869D+01          0.096454          0.222094
 Vib (V=0)    3  0.112743D+01          0.052090          0.119942
 Electronic      0.100000D+01          0.000000          0.000000
 Translational   0.196526D+08          7.293420         16.793719
 Rotational      0.243929D+05          4.387263         10.102047
 
                                                                title
                                                             IR Spectrum
 
     3                                                                       1          1                                            
     8                                                                       6          3            9     7          4   3  2       
     7                                                                       7          4            6     8          5   3  2       
     1                                                                       7          8            7     3          2   4  8       
 
     X                                                                       X          X            X     X          X   X  X       
     X                                                                       X          X            X     X          X              
     X                                                                       X          X                  X          X              
     X                                                                       X          X                  X          X              
     X                                                                       X          X                  X          X              
     X                                                                       X          X                  X          X              
     X                                                                       X          X                  X          X              
     X                                                                       X          X                  X          X              
                                                                             X          X                  X          X              
                                                                             X          X                  X          X              
                                                                             X          X                  X          X              
                                                                             X          X                  X          X              
                                                                             X          X                  X          X              
                                                                             X          X                  X          X              
                                                                                        X                  X          X              
                                                                                                           X          X              
                                                                                                           X          X              
                                                                                                                      X              
                                                                                                                      X              
                                                                                                                      X              
 
 ***** Axes restored to original set *****
 -------------------------------------------------------------------
 Center     Atomic                   Forces (Hartrees/Bohr)
 Number     Number              X              Y              Z
 -------------------------------------------------------------------
      1        1          -0.000003744   -0.000000000   -0.006998638
      2        8           0.000387290    0.000000000    0.007044964
      3        8          -0.000358649    0.000000000   -0.000004980
      4        7          -0.000355230    0.000000000   -0.000095455
      5        8           0.000330333   -0.000000000    0.000054110
 -------------------------------------------------------------------
 Cartesian Forces:  Max     0.007044964 RMS     0.002570842
 -----------------------------------------------------------------------------------------------
                       Internal Coordinate Forces (Hartree/Bohr or radian)
  Cent   Atom   N1       Length/X         N2         Alpha/Y        N3         Beta/Z          J
 -----------------------------------------------------------------------------------------------
      1  H 
      2  O        1   0.006999(     1)
      3  O        2  -0.000386(     2)      1   0.000007(     5)
      4  N        3  -0.000043(     3)      2   0.000006(     6)      1  -0.000000(     8)     0
      5  O        4   0.000333(     4)      3  -0.000065(     7)      2  -0.000000(     9)     0
 -----------------------------------------------------------------------------------------------
 Internal  Forces:  Max     0.006998638 RMS     0.002339221
 Force constants in Cartesian coordinates: 
                1             2             3             4             5 
      1  0.619493D-01
      2  0.000000D+00 -0.624404D-02
      3  0.537373D-02  0.000000D+00  0.537705D+00
      4 -0.327238D-01  0.000000D+00 -0.165436D-01  0.269482D+00
      5  0.000000D+00  0.691617D-02  0.000000D+00  0.000000D+00 -0.167113D-02
      6  0.487673D-01  0.000000D+00 -0.533902D+00  0.333301D-01  0.000000D+00
      7 -0.186167D-01  0.000000D+00  0.127021D-01 -0.220082D+00  0.000000D+00
      8  0.000000D+00  0.102981D-02  0.000000D+00  0.000000D+00 -0.668434D-02
      9 -0.537315D-01  0.000000D+00 -0.410573D-03 -0.191120D-01  0.000000D+00
     10 -0.935222D-02  0.000000D+00 -0.487841D-02 -0.170948D-01  0.000000D+00
     11  0.000000D+00 -0.273799D-02  0.000000D+00  0.000000D+00 -0.489790D-02
     12  0.538686D-02  0.000000D+00 -0.481706D-02  0.115967D-01  0.000000D+00
     13 -0.125656D-02  0.000000D+00  0.334614D-02  0.418606D-03  0.000000D+00
     14  0.000000D+00  0.103606D-02  0.000000D+00  0.000000D+00  0.633720D-02
     15 -0.579633D-02  0.000000D+00  0.142449D-02 -0.927123D-02  0.000000D+00
                6             7             8             9            10 
      6  0.620296D+00
      7 -0.214138D-01  0.341698D+00
      8  0.000000D+00  0.000000D+00  0.428740D-02
      9 -0.788636D-01  0.361134D-01  0.000000D+00  0.181380D+00
     10 -0.525612D-01 -0.780979D-01  0.000000D+00  0.174991D+00  0.828511D+00
     11  0.000000D+00  0.000000D+00  0.853438D-02  0.000000D+00  0.000000D+00
     12  0.171539D-01  0.629431D-01  0.000000D+00 -0.818310D-01 -0.178614D-01
     13 -0.812240D-02 -0.249009D-01  0.000000D+00 -0.138261D+00 -0.723966D+00
     14  0.000000D+00  0.000000D+00 -0.716725D-02  0.000000D+00  0.000000D+00
     15 -0.246838D-01 -0.903448D-01  0.000000D+00 -0.202754D-01 -0.996902D-01
               11            12            13            14            15 
     11  0.855076D-02
     12  0.000000D+00  0.186777D+00
     13  0.000000D+00 -0.620653D-01  0.749705D+00
     14 -0.944925D-02  0.000000D+00  0.000000D+00  0.924323D-02
     15  0.000000D+00 -0.117283D+00  0.205103D+00  0.000000D+00  0.160818D+00
 Force constants in internal coordinates: 
                1             2             3             4             5 
      1  0.537705D+00
      2 -0.105692D-01  0.281497D+00
      3  0.350676D-02  0.243739D-02  0.117310D+00
      4 -0.359496D-02  0.588490D-02  0.153052D+00  0.812049D+00
      5  0.976447D-02  0.656664D-01  0.232294D-02  0.482709D-02  0.217419D+00
      6  0.465910D-02  0.592059D-01  0.411256D-01  0.218575D-01  0.314855D-01
      7 -0.121604D-02  0.377950D-01  0.320944D-01  0.847511D-01  0.213286D-01
      8  0.000000D+00  0.000000D+00  0.000000D+00  0.000000D+00  0.000000D+00
      9  0.000000D+00  0.000000D+00  0.000000D+00  0.000000D+00  0.000000D+00
                6             7             8             9 
      6  0.283091D+00
      7  0.958101D-01  0.482718D+00
      8  0.000000D+00  0.000000D+00 -0.777209D-02
      9  0.000000D+00  0.000000D+00 -0.390268D-02  0.410911D-01
 Leave Link  716 at Mon Feb 21 20:03:53 2022, MaxMem= 16106127360 cpu:               0.7 elap:               0.0
 (Enter /sw/contrib/gaussian/g16/B01/g16/l103.exe)

 GradGradGradGradGradGradGradGradGradGradGradGradGradGradGradGradGradGrad
 Berny optimization.
 Search for a local minimum.
 Step number   1 out of a maximum of    2
 All quantities printed in internal units (Hartrees-Bohrs-Radians)
 Second derivative matrix not updated -- analytic derivatives used.
 The second derivative matrix:
                          r1        r2        r3        r4        a1
           r1           0.53771
           r2          -0.01057   0.28150
           r3           0.00351   0.00244   0.11731
           r4          -0.00359   0.00588   0.15305   0.81205
           a1           0.00976   0.06567   0.00232   0.00483   0.21742
           a2           0.00466   0.05921   0.04113   0.02186   0.03149
           a3          -0.00122   0.03779   0.03209   0.08475   0.02133
           d1           0.00000   0.00000   0.00000   0.00000   0.00000
           d2           0.00000  -0.00000  -0.00000  -0.00000  -0.00000
                          a2        a3        d1        d2
           a2           0.28309
           a3           0.09581   0.48272
           d1           0.00000   0.00000  -0.00777
           d2          -0.00000  -0.00000  -0.00390   0.04109
 ITU=  0
     Eigenvalues ---   -0.00808   0.04140   0.07832   0.17558   0.22560
     Eigenvalues ---    0.32557   0.51734   0.53839   0.87099
 Eigenvalue     1 is  -8.08D-03 should be greater than     0.000000 Eigenvector:
                          d1        d2        r3        a2        a3
   1                    0.99687   0.07912  -0.00000  -0.00000   0.00000
                          a1        r4        r2        r1
   1                    0.00000  -0.00000  -0.00000  -0.00000
 Angle between quadratic step and forces=   8.16 degrees.
 Linear search not attempted -- first point.
 Variable       Old X    -DE/DX   Delta X   Delta X   Delta X     New X
                                 (Linear)    (Quad)   (Total)
    r1        1.81776   0.00700   0.00000   0.01302   0.01302   1.83078
    r2        2.74940  -0.00039   0.00000  -0.00085  -0.00085   2.74855
    r3        2.75670  -0.00004   0.00000  -0.00189  -0.00189   2.75481
    r4        2.21236   0.00033   0.00000   0.00084   0.00084   2.21319
    a1        1.70335   0.00001   0.00000  -0.00032  -0.00032   1.70303
    a2        1.78543   0.00001   0.00000   0.00026   0.00026   1.78569
    a3        1.90362  -0.00007   0.00000  -0.00010  -0.00010   1.90353
    d1        3.14159  -0.00000   0.00000  -0.00000   0.00000   3.14159
    d2        3.14159  -0.00000   0.00000  -0.00000   0.00000   3.14159
         Item               Value     Threshold  Converged?
 Maximum Force            0.006999     0.000450     NO 
 RMS     Force            0.002339     0.000300     NO 
 Maximum Displacement     0.013020     0.001800     NO 
 RMS     Displacement     0.004406     0.001200     NO 
 Predicted change in Energy=-4.590970D-05
                       ----------------------------
                       ! Non-Optimized Parameters !
                       ! (Angstroms and Degrees)  !
 ----------------------                            ----------------------
 !      Name          Value   Derivative information (Atomic Units)     !
 ------------------------------------------------------------------------
 !       r1          0.9688   -DE/DX =    0.007                         !
 !       r2          1.4545   -DE/DX =   -0.0004                        !
 !       r3          1.4578   -DE/DX =    0.0                           !
 !       r4          1.1712   -DE/DX =    0.0003                        !
 !       a1         97.5764   -DE/DX =    0.0                           !
 !       a2        102.3127   -DE/DX =    0.0                           !
 !       a3        109.0641   -DE/DX =   -0.0001                        !
 !       d1        180.0      -DE/DX =    0.0                           !
 !       d2        180.0      -DE/DX =    0.0                           !
 ------------------------------------------------------------------------
 GradGradGradGradGradGradGradGradGradGradGradGradGradGradGradGradGradGrad

 Leave Link  103 at Mon Feb 21 20:03:53 2022, MaxMem= 16106127360 cpu:               0.5 elap:               0.0
 (Enter /sw/contrib/gaussian/g16/B01/g16/l9999.exe)

 ----------------------------------------------------------------------

 Electric dipole moment (input orientation):
 (Debye = 10**-18 statcoulomb cm , SI units = C m)
                  (au)            (Debye)         (10**-30 SI)
   Tot        0.567651D+00      0.144282D+01      0.481274D+01
   x         -0.145384D+00     -0.369529D+00     -0.123262D+01
   y          0.000000D+00      0.000000D+00      0.000000D+00
   z         -0.548718D+00     -0.139470D+01     -0.465222D+01

 Dipole polarizability, Alpha (input orientation).
 (esu units = cm**3 , SI units = C**2 m**2 J**-1)
 Alpha(0;0):
               (au)            (10**-24 esu)      (10**-40 SI)
   iso        0.273445D+02      0.405204D+01      0.450850D+01
   aniso      0.218733D+02      0.324130D+01      0.360643D+01
   xx         0.320898D+02      0.475522D+01      0.529089D+01
   yx         0.000000D+00      0.000000D+00      0.000000D+00
   yy         0.179102D+02      0.265402D+01      0.295299D+01
   zx         0.962940D+01      0.142693D+01      0.158767D+01
   zy         0.000000D+00      0.000000D+00      0.000000D+00
   zz         0.320336D+02      0.474689D+01      0.528162D+01

 ----------------------------------------------------------------------

 Dipole orientation:
     1         -0.00000000         -0.00000000          0.00000000
     8         -0.46555676         -0.00000000         -1.75713294
     8          2.07575544          0.00000000         -2.80638378
     7          1.59056392          0.00000000         -5.52005233
     8          3.52165363          0.00000000         -6.59959648

 Electric dipole moment (dipole orientation):
 (Debye = 10**-18 statcoulomb cm , SI units = C m)
                  (au)            (Debye)         (10**-30 SI)
   Tot        0.567651D+00      0.144282D+01      0.481274D+01
   x          0.000000D+00      0.000000D+00      0.000000D+00
   y          0.000000D+00      0.000000D+00      0.000000D+00
   z          0.567651D+00      0.144282D+01      0.481274D+01

 Dipole polarizability, Alpha (dipole orientation).
 (esu units = cm**3 , SI units = C**2 m**2 J**-1)
 Alpha(0;0):
               (au)            (10**-24 esu)      (10**-40 SI)
   iso        0.273445D+02      0.405204D+01      0.450850D+01
   aniso      0.218733D+02      0.324130D+01      0.360643D+01
   xx         0.273182D+02      0.404813D+01      0.450416D+01
   yx         0.000000D+00      0.000000D+00      0.000000D+00
   yy         0.179102D+02      0.265402D+01      0.295299D+01
   zx        -0.838004D+01     -0.124179D+01     -0.138168D+01
   zy         0.000000D+00      0.000000D+00      0.000000D+00
   zz         0.368052D+02      0.545397D+01      0.606836D+01

 ----------------------------------------------------------------------
 1\1\GINC-N2228\Freq\RMP2-FC\Aug-CC-pVTZ\H1N1O3\CGAVINH\21-Feb-2022\1\\
 #p freq mp2/aug-cc-pvtz density=current\\title\\0,1\H\O,1,r1\O,2,r2,1,
 a1\N,3,r3,2,a2,1,d1,0\O,4,r4,3,a3,2,d2,0\\r1=0.96191831\r2=1.45491931\
 r3=1.45878406\r4=1.17072885\a1=97.59494903\a2=102.29752444\a3=109.0695
 5123\d1=180.\d2=180.\\Version=ES64L-G16RevB.01\State=1-A'\HF=-279.5019
 784\MP2=-280.4466885\RMSD=3.789e-09\RMSF=2.571e-03\ZeroPoint=0.0220072
 \Thermal=0.0261355\Dipole=-0.1453841,0.,-0.5487176\DipoleDeriv=0.26549
 41,0.,0.0484862,0.,0.3565404,0.,0.0835287,0.,0.2765509,-0.3280974,0.,-
 0.206072,0.,-0.3155434,0.,-0.1138483,0.,-0.2244327,-0.0464038,0.,0.145
 948,0.,-0.0866949,0.,-0.7509908,0.,-1.352543,0.8953957,0.,0.9097503,0.
 ,0.0662207,0.,0.9224796,0.,1.6686507,-0.7863886,0.,-0.8981125,0.,-0.02
 05227,0.,-0.1411693,0.,-0.3682259\Polar=32.0898061,0.,17.9101958,9.629
 3994,0.,32.0335806\Quadrupole=-1.5055867,-0.7171863,2.222773,0.,2.0866
 662,0.\PG=CS [SG(H1N1O3)]\NImag=1\\0.06194929,0.,-0.00624404,0.0053737
 3,0.,0.53770533,-0.03272380,0.,-0.01654358,0.26948211,0.,0.00691617,0.
 ,0.,-0.00167113,0.04876729,0.,-0.53390219,0.03333012,0.,0.62029572,-0.
 01861671,0.,0.01270212,-0.22008208,0.,-0.02141379,0.34169754,0.,0.0010
 2981,0.,0.,-0.00668434,0.,0.,0.00428740,-0.05373155,0.,-0.00041057,-0.
 01911203,0.,-0.07886356,0.03611337,0.,0.18138045,-0.00935222,0.,-0.004
 87841,-0.01709483,0.,-0.05256122,-0.07809785,0.,0.17499123,0.82851118,
 0.,-0.00273799,0.,0.,-0.00489790,0.,0.,0.00853438,0.,0.,0.00855076,0.0
 0538686,0.,-0.00481706,0.01159672,0.,0.01715387,0.06294313,0.,-0.08183
 096,-0.01786142,0.,0.18677705,-0.00125656,0.,0.00334614,0.00041861,0.,
 -0.00812240,-0.02490090,0.,-0.13826102,-0.72396627,0.,-0.06206529,0.74
 970513,0.,0.00103606,0.,0.,0.00633720,0.,0.,-0.00716725,0.,0.,-0.00944
 925,0.,0.,0.00924323,-0.00579633,0.,0.00142449,-0.00927123,0.,-0.02468
 385,-0.09034482,0.,-0.02027536,-0.09969018,0.,-0.11728290,0.20510257,0
 .,0.16081762\\0.00000374,0.,0.00699864,-0.00038729,0.,-0.00704496,0.00
 035865,0.,0.00000498,0.00035523,0.,0.00009546,-0.00033033,0.,-0.000054
 11\\\@


 A successful marriage requires falling in love
 many times, always with the same person.
                           -- Mignon McLaughlin
 Job cpu time:       0 days  2 hours  0 minutes 36.8 seconds.
 Elapsed time:       0 days  0 hours  4 minutes 21.7 seconds.
 File lengths (MBytes):  RWF=   7239 Int=      0 D2E=      0 Chk=      8 Scr=      1
 Normal termination of Gaussian 16 at Mon Feb 21 20:03:54 2022.
