 Entering Gaussian System, Link 0=g16
 Input=hoono_r3_1p469217.gjf
 Output=hoono_r3_1p469217.log
 Initial command:
 /sw/contrib/gaussian/g16/B01/g16/l1.exe "/scr/Gau-16734.inp" -scrdir="/scr/"
 Entering Link 1 = /sw/contrib/gaussian/g16/B01/g16/l1.exe PID=     16735.
  
 Copyright (c) 1988-2017, Gaussian, Inc.  All Rights Reserved.
  
 This is part of the Gaussian(R) 16 program.  It is based on
 the Gaussian(R) 09 system (copyright 2009, Gaussian, Inc.),
 the Gaussian(R) 03 system (copyright 2003, Gaussian, Inc.),
 the Gaussian(R) 98 system (copyright 1998, Gaussian, Inc.),
 the Gaussian(R) 94 system (copyright 1995, Gaussian, Inc.),
 the Gaussian 92(TM) system (copyright 1992, Gaussian, Inc.),
 the Gaussian 90(TM) system (copyright 1990, Gaussian, Inc.),
 the Gaussian 88(TM) system (copyright 1988, Gaussian, Inc.),
 the Gaussian 86(TM) system (copyright 1986, Carnegie Mellon
 University), and the Gaussian 82(TM) system (copyright 1983,
 Carnegie Mellon University). Gaussian is a federally registered
 trademark of Gaussian, Inc.
  
 This software contains proprietary and confidential information,
 including trade secrets, belonging to Gaussian, Inc.
  
 This software is provided under written license and may be
 used, copied, transmitted, or stored only in accord with that
 written license.
  
 The following legend is applicable only to US Government
 contracts under FAR:
  
                    RESTRICTED RIGHTS LEGEND
  
 Use, reproduction and disclosure by the US Government is
 subject to restrictions as set forth in subparagraphs (a)
 and (c) of the Commercial Computer Software - Restricted
 Rights clause in FAR 52.227-19.
  
 Gaussian, Inc.
 340 Quinnipiac St., Bldg. 40, Wallingford CT 06492
  
  
 ---------------------------------------------------------------
 Warning -- This program may not be used in any manner that
 competes with the business of Gaussian, Inc. or will provide
 assistance to any competitor of Gaussian, Inc.  The licensee
 of this program is prohibited from giving any competitor of
 Gaussian, Inc. access to this program.  By using this program,
 the user acknowledges that Gaussian, Inc. is engaged in the
 business of creating and licensing software in the field of
 computational chemistry and represents and warrants to the
 licensee that it is not a competitor of Gaussian, Inc. and that
 it will not use this program in any manner prohibited above.
 ---------------------------------------------------------------
  

 Cite this work as:
 Gaussian 16, Revision B.01,
 M. J. Frisch, G. W. Trucks, H. B. Schlegel, G. E. Scuseria, 
 M. A. Robb, J. R. Cheeseman, G. Scalmani, V. Barone, 
 G. A. Petersson, H. Nakatsuji, X. Li, M. Caricato, A. V. Marenich, 
 J. Bloino, B. G. Janesko, R. Gomperts, B. Mennucci, H. P. Hratchian, 
 J. V. Ortiz, A. F. Izmaylov, J. L. Sonnenberg, D. Williams-Young, 
 F. Ding, F. Lipparini, F. Egidi, J. Goings, B. Peng, A. Petrone, 
 T. Henderson, D. Ranasinghe, V. G. Zakrzewski, J. Gao, N. Rega, 
 G. Zheng, W. Liang, M. Hada, M. Ehara, K. Toyota, R. Fukuda, 
 J. Hasegawa, M. Ishida, T. Nakajima, Y. Honda, O. Kitao, H. Nakai, 
 T. Vreven, K. Throssell, J. A. Montgomery, Jr., J. E. Peralta, 
 F. Ogliaro, M. J. Bearpark, J. J. Heyd, E. N. Brothers, K. N. Kudin, 
 V. N. Staroverov, T. A. Keith, R. Kobayashi, J. Normand, 
 K. Raghavachari, A. P. Rendell, J. C. Burant, S. S. Iyengar, 
 J. Tomasi, M. Cossi, J. M. Millam, M. Klene, C. Adamo, R. Cammi, 
 J. W. Ochterski, R. L. Martin, K. Morokuma, O. Farkas, 
 J. B. Foresman, and D. J. Fox, Gaussian, Inc., Wallingford CT, 2016.
 
 ******************************************
 Gaussian 16:  ES64L-G16RevB.01 20-Dec-2017
                21-Feb-2022 
 ******************************************
 %nproc=28
 Will use up to   28 processors via shared memory.
 %mem=120GB
 %chk=hoono_r3_1p469217.chk
 ---------------------------------------
 #p freq mp2/aug-cc-pvtz density=current
 ---------------------------------------
 1/10=4,30=1,38=1/1,3;
 2/12=2,17=6,18=5,40=1/2;
 3/5=16,6=1,7=10,11=9,25=1,30=1,71=2,140=1/1,2,3;
 4//1;
 5/5=2,38=5,98=1/2;
 8/6=3,8=1,10=1,19=11,30=-1/1;
 9/15=3,16=-3/6;
 11/6=1,8=1,15=11,17=12,24=-1,27=1,28=-2,29=300,32=6,42=3/1,2,10;
 10/6=2,21=1/2;
 8/6=4,8=1,10=1,19=11,30=-1/11,4;
 10/5=1,20=4/2;
 11/12=2,14=11,16=1,17=2,28=-2,42=3,76=2/2,10,12;
 6/7=2,8=2,9=2,10=2,22=-1/1;
 7/8=1,10=1,12=2,25=1,44=2/1,2,3,16;
 1/10=4,30=1/3;
 99//99;
 Leave Link    1 at Mon Feb 21 20:15:10 2022, MaxMem= 16106127360 cpu:               2.6 elap:               0.1
 (Enter /sw/contrib/gaussian/g16/B01/g16/l101.exe)
 -----
 title
 -----
 Symbolic Z-matrix:
 Charge =  0 Multiplicity = 1
 H
 O                    1    r1
 O                    2    r2       1    a1
 N                    3    r3       2    a2       1    d1       0
 O                    4    r4       3    a3       2    d2       0
       Variables:
  r1                    0.96898                  
  r2                    1.45492                  
  r3                    1.46922                  
  r4                    1.17073                  
  a1                   97.59495                  
  a2                  102.29752                  
  a3                  109.06955                  
  d1                  180.                       
  d2                  180.                       
 
 ITRead=  0  0  0  0  0
 MicOpt= -1 -1 -1 -1 -1
 NAtoms=      5 NQM=        5 NQMF=       0 NMMI=      0 NMMIF=      0
                NMic=       0 NMicF=      0.
                    Isotopes and Nuclear Properties:
 (Nuclear quadrupole moments (NQMom) in fm**2, nuclear magnetic moments (NMagM)
  in nuclear magnetons)

  Atom         1           2           3           4           5
 IAtWgt=           1          16          16          14          16
 AtmWgt=   1.0078250  15.9949146  15.9949146  14.0030740  15.9949146
 NucSpn=           1           0           0           2           0
 AtZEff=  -0.0000000  -0.0000000  -0.0000000  -0.0000000  -0.0000000
 NQMom=    0.0000000   0.0000000   0.0000000   2.0440000   0.0000000
 NMagM=    2.7928460   0.0000000   0.0000000   0.4037610   0.0000000
 AtZNuc=   1.0000000   8.0000000   8.0000000   7.0000000   8.0000000
 Leave Link  101 at Mon Feb 21 20:15:10 2022, MaxMem= 16106127360 cpu:               2.6 elap:               0.1
 (Enter /sw/contrib/gaussian/g16/B01/g16/l103.exe)

 GradGradGradGradGradGradGradGradGradGradGradGradGradGradGradGradGradGrad
 Berny optimization.
 Initialization pass.
                       ----------------------------
                       !    Initial Parameters    !
                       ! (Angstroms and Degrees)  !
 ----------------------                            ----------------------
 !      Name          Value   Derivative information (Atomic Units)     !
 ------------------------------------------------------------------------
 !       r1          0.969    calculate D2E/DX2 analytically            !
 !       r2          1.4549   calculate D2E/DX2 analytically            !
 !       r3          1.4692   calculate D2E/DX2 analytically            !
 !       r4          1.1707   calculate D2E/DX2 analytically            !
 !       a1         97.5949   calculate D2E/DX2 analytically            !
 !       a2        102.2975   calculate D2E/DX2 analytically            !
 !       a3        109.0696   calculate D2E/DX2 analytically            !
 !       d1        180.0      calculate D2E/DX2 analytically            !
 !       d2        180.0      calculate D2E/DX2 analytically            !
 ------------------------------------------------------------------------
 Trust Radius=3.00D-01 FncErr=1.00D-07 GrdErr=1.00D-07 EigMax=2.50D+02 EigMin=1.00D-04
 Number of steps in this run=      2 maximum allowed number of steps=      2.
 GradGradGradGradGradGradGradGradGradGradGradGradGradGradGradGradGradGrad

 Leave Link  103 at Mon Feb 21 20:15:10 2022, MaxMem= 16106127360 cpu:               1.2 elap:               0.1
 (Enter /sw/contrib/gaussian/g16/B01/g16/l202.exe)
                          Input orientation:                          
 ---------------------------------------------------------------------
 Center     Atomic      Atomic             Coordinates (Angstroms)
 Number     Number       Type             X           Y           Z
 ---------------------------------------------------------------------
      1          1           0        0.000000    0.000000    0.000000
      2          8           0        0.000000    0.000000    0.968976
      3          8           0        1.442156    0.000000    1.161271
      4          7           0        1.562607    0.000000    2.625543
      5          8           0        2.696723    0.000000    2.916037
 ---------------------------------------------------------------------
                    Distance matrix (angstroms):
                    1          2          3          4          5
     1  H    0.000000
     2  O    0.968976   0.000000
     3  O    1.851584   1.454919   0.000000
     4  N    3.055358   2.277269   1.469218   0.000000
     5  O    3.971849   3.326163   2.157115   1.170729   0.000000
 Stoichiometry    HNO3
 Framework group  CS[SG(HNO3)]
 Deg. of freedom     7
 Full point group                 CS      NOp   2
 Largest Abelian subgroup         CS      NOp   2
 Largest concise Abelian subgroup C1      NOp   1
                         Standard orientation:                         
 ---------------------------------------------------------------------
 Center     Atomic      Atomic             Coordinates (Angstroms)
 Number     Number       Type             X           Y           Z
 ---------------------------------------------------------------------
      1          1           0        1.547798    1.694031    0.000000
      2          8           0        1.453997    0.729607    0.000000
      3          8           0        0.000000    0.677821    0.000000
      4          7           0       -0.261633   -0.767914   -0.000000
      5          8           0       -1.418543   -0.947257   -0.000000
 ---------------------------------------------------------------------
 Rotational constants (GHZ):          54.5143842           4.9847065           4.5670985
 Leave Link  202 at Mon Feb 21 20:15:10 2022, MaxMem= 16106127360 cpu:               0.4 elap:               0.0
 (Enter /sw/contrib/gaussian/g16/B01/g16/l301.exe)
 Standard basis: Aug-CC-pVTZ (5D, 7F)
 Ernie: Thresh=  0.10000D-02 Tol=  0.10000D-05 Strict=F.
 Ernie:  12 primitive shells out of 131 were deleted.
 There are   166 symmetry adapted cartesian basis functions of A'  symmetry.
 There are    79 symmetry adapted cartesian basis functions of A"  symmetry.
 There are   136 symmetry adapted basis functions of A'  symmetry.
 There are    71 symmetry adapted basis functions of A"  symmetry.
   207 basis functions,   315 primitive gaussians,   245 cartesian basis functions
    16 alpha electrons       16 beta electrons
       nuclear repulsion energy       116.5889455466 Hartrees.
 IExCor=    0 DFT=F Ex=HF Corr=None ExCW=0 ScaHFX=  1.000000
 ScaDFX=  1.000000  1.000000  1.000000  1.000000 ScalE2=  1.000000  1.000000
 IRadAn=      5 IRanWt=     -1 IRanGd=            0 ICorTp=0 IEmpDi=  4
 NAtoms=    5 NActive=    5 NUniq=    5 SFac= 1.00D+00 NAtFMM=   60 NAOKFM=F Big=F
 Integral buffers will be    131072 words long.
 Raffenetti 1 integral format.
 Two-electron integral symmetry is turned on.
 Leave Link  301 at Mon Feb 21 20:15:10 2022, MaxMem= 16106127360 cpu:               2.4 elap:               0.1
 (Enter /sw/contrib/gaussian/g16/B01/g16/l302.exe)
 NPDir=0 NMtPBC=     1 NCelOv=     1 NCel=       1 NClECP=     1 NCelD=      1
         NCelK=      1 NCelE2=     1 NClLst=     1 CellRange=     0.0.
 One-electron integrals computed using PRISM.
 One-electron integral symmetry used in STVInt
 NBasis=   207 RedAO= T EigKep=  1.83D-04  NBF=   136    71
 NBsUse=   207 1.00D-06 EigRej= -1.00D+00 NBFU=   136    71
 Leave Link  302 at Mon Feb 21 20:15:11 2022, MaxMem= 16106127360 cpu:               7.4 elap:               0.3
 (Enter /sw/contrib/gaussian/g16/B01/g16/l303.exe)
 DipDrv:  MaxL=1.
 Leave Link  303 at Mon Feb 21 20:15:11 2022, MaxMem= 16106127360 cpu:               0.8 elap:               0.1
 (Enter /sw/contrib/gaussian/g16/B01/g16/l401.exe)
 ExpMin= 2.53D-02 ExpMax= 1.53D+04 ExpMxC= 5.22D+02 IAcc=3 IRadAn=         5 AccDes= 0.00D+00
 Harris functional with IExCor=  205 and IRadAn=       5 diagonalized for initial guess.
 HarFok:  IExCor=  205 AccDes= 0.00D+00 IRadAn=         5 IDoV= 1 UseB2=F ITyADJ=14
 ICtDFT=  3500011 ScaDFX=  1.000000  1.000000  1.000000  1.000000
 FoFCou: FMM=F IPFlag=           0 FMFlag=      100000 FMFlg1=           0
         NFxFlg=           0 DoJE=T BraDBF=F KetDBF=T FulRan=T
         wScrn=  0.000000 ICntrl=       500 IOpCl=  0 I1Cent=   200000004 NGrid=           0
         NMat0=    1 NMatS0=      1 NMatT0=    0 NMatD0=    1 NMtDS0=    0 NMtDT0=    0
 Petite list used in FoFCou.
 Harris En= -279.628286389716    
 JPrj=0 DoOrth=F DoCkMO=F.
 Initial guess orbital symmetries:
       Occupied  (A') (A') (A') (A') (A') (A') (A') (A') (A') (A')
                 (A") (A') (A') (A") (A") (A')
       Virtual   (A") (A') (A') (A') (A') (A') (A") (A') (A') (A')
                 (A") (A') (A") (A') (A') (A") (A') (A") (A') (A')
                 (A') (A') (A') (A') (A') (A") (A') (A") (A') (A')
                 (A") (A') (A") (A') (A') (A") (A') (A") (A') (A')
                 (A") (A') (A") (A') (A") (A') (A') (A') (A") (A")
                 (A') (A') (A') (A') (A") (A') (A") (A') (A") (A')
                 (A') (A') (A") (A') (A') (A") (A') (A") (A') (A')
                 (A") (A') (A') (A") (A") (A') (A') (A") (A') (A')
                 (A') (A") (A') (A") (A') (A") (A') (A") (A') (A')
                 (A') (A") (A') (A") (A') (A") (A") (A') (A') (A')
                 (A") (A') (A") (A') (A') (A') (A') (A") (A") (A')
                 (A") (A') (A') (A') (A") (A') (A') (A') (A") (A')
                 (A") (A') (A') (A") (A") (A') (A') (A") (A") (A')
                 (A') (A') (A') (A") (A") (A') (A") (A') (A') (A')
                 (A') (A") (A") (A') (A') (A") (A') (A') (A') (A')
                 (A") (A') (A') (A") (A') (A") (A') (A") (A") (A')
                 (A') (A") (A') (A") (A') (A") (A") (A") (A') (A')
                 (A") (A') (A") (A') (A") (A') (A") (A") (A') (A')
                 (A') (A') (A') (A') (A') (A') (A') (A') (A') (A')
                 (A')
 The electronic state of the initial guess is 1-A'.
 Leave Link  401 at Mon Feb 21 20:15:11 2022, MaxMem= 16106127360 cpu:               6.8 elap:               0.3
 (Enter /sw/contrib/gaussian/g16/B01/g16/l502.exe)
 Keep R1 ints in memory in symmetry-blocked form, NReq=348887737.
 FoFCou: FMM=F IPFlag=           0 FMFlag=           0 FMFlg1=           0
         NFxFlg=           0 DoJE=F BraDBF=F KetDBF=F FulRan=T
         wScrn=  0.000000 ICntrl=       600 IOpCl=  0 I1Cent=           0 NGrid=           0
         NMat0=    1 NMatS0=  21528 NMatT0=    0 NMatD0=    1 NMtDS0=    0 NMtDT0=    0
 Petite list used in FoFCou.
 Closed shell SCF:
 Using DIIS extrapolation, IDIIS=  1040.
 NGot= 16106127360 LenX= 15988850015 LenY= 15988789549
 Requested convergence on RMS density matrix=1.00D-08 within 128 cycles.
 Requested convergence on MAX density matrix=1.00D-06.
 Requested convergence on             energy=1.00D-06.
 No special actions if energy rises.

 Cycle   1  Pass 1  IDiag  1:
 E= -279.370528151621    
 DIIS: error= 2.71D-02 at cycle   1 NSaved=   1.
 NSaved= 1 IEnMin= 1 EnMin= -279.370528151621     IErMin= 1 ErrMin= 2.71D-02
 ErrMax= 2.71D-02  0.00D+00 EMaxC= 1.00D-01 BMatC= 4.37D-01 BMatP= 4.37D-01
 IDIUse=3 WtCom= 7.29D-01 WtEn= 2.71D-01
 Coeff-Com:  0.100D+01
 Coeff-En:   0.100D+01
 Coeff:      0.100D+01
 Gap=     0.508 Goal=   None    Shift=    0.000
 GapD=    0.508 DampG=2.000 DampE=0.500 DampFc=1.0000 IDamp=-1.
 RMSDP=1.61D-03 MaxDP=1.00D-01              OVMax= 1.11D-01

 Cycle   2  Pass 1  IDiag  1:
 E= -279.452647389113     Delta-E=       -0.082119237492 Rises=F Damp=F
 DIIS: error= 1.78D-02 at cycle   2 NSaved=   2.
 NSaved= 2 IEnMin= 2 EnMin= -279.452647389113     IErMin= 2 ErrMin= 1.78D-02
 ErrMax= 1.78D-02  0.00D+00 EMaxC= 1.00D-01 BMatC= 6.97D-02 BMatP= 4.37D-01
 IDIUse=3 WtCom= 8.22D-01 WtEn= 1.78D-01
 Coeff-Com:  0.191D+00 0.809D+00
 Coeff-En:   0.000D+00 0.100D+01
 Coeff:      0.157D+00 0.843D+00
 Gap=     0.528 Goal=   None    Shift=    0.000
 RMSDP=8.90D-04 MaxDP=3.70D-02 DE=-8.21D-02 OVMax= 7.01D-02

 Cycle   3  Pass 1  IDiag  1:
 E= -279.480790392188     Delta-E=       -0.028143003074 Rises=F Damp=F
 DIIS: error= 1.05D-02 at cycle   3 NSaved=   3.
 NSaved= 3 IEnMin= 3 EnMin= -279.480790392188     IErMin= 3 ErrMin= 1.05D-02
 ErrMax= 1.05D-02  0.00D+00 EMaxC= 1.00D-01 BMatC= 2.83D-02 BMatP= 6.97D-02
 IDIUse=3 WtCom= 8.95D-01 WtEn= 1.05D-01
 Coeff-Com: -0.327D-01 0.380D+00 0.653D+00
 Coeff-En:   0.000D+00 0.243D+00 0.757D+00
 Coeff:     -0.293D-01 0.365D+00 0.664D+00
 Gap=     0.510 Goal=   None    Shift=    0.000
 RMSDP=3.74D-04 MaxDP=1.56D-02 DE=-2.81D-02 OVMax= 3.72D-02

 Cycle   4  Pass 1  IDiag  1:
 E= -279.499552879822     Delta-E=       -0.018762487634 Rises=F Damp=F
 DIIS: error= 1.31D-03 at cycle   4 NSaved=   4.
 NSaved= 4 IEnMin= 4 EnMin= -279.499552879822     IErMin= 4 ErrMin= 1.31D-03
 ErrMax= 1.31D-03  0.00D+00 EMaxC= 1.00D-01 BMatC= 5.05D-04 BMatP= 2.83D-02
 IDIUse=3 WtCom= 9.87D-01 WtEn= 1.31D-02
 Coeff-Com: -0.119D-01 0.609D-01 0.164D+00 0.787D+00
 Coeff-En:   0.000D+00 0.000D+00 0.000D+00 0.100D+01
 Coeff:     -0.117D-01 0.601D-01 0.162D+00 0.790D+00
 Gap=     0.502 Goal=   None    Shift=    0.000
 RMSDP=9.04D-05 MaxDP=2.81D-03 DE=-1.88D-02 OVMax= 1.14D-02

 Cycle   5  Pass 1  IDiag  1:
 E= -279.500240515309     Delta-E=       -0.000687635487 Rises=F Damp=F
 DIIS: error= 7.55D-04 at cycle   5 NSaved=   5.
 NSaved= 5 IEnMin= 5 EnMin= -279.500240515309     IErMin= 5 ErrMin= 7.55D-04
 ErrMax= 7.55D-04  0.00D+00 EMaxC= 1.00D-01 BMatC= 8.91D-05 BMatP= 5.05D-04
 IDIUse=3 WtCom= 9.92D-01 WtEn= 7.55D-03
 Coeff-Com:  0.620D-02-0.737D-01-0.120D+00 0.159D-01 0.117D+01
 Coeff-En:   0.000D+00 0.000D+00 0.000D+00 0.000D+00 0.100D+01
 Coeff:      0.616D-02-0.732D-01-0.119D+00 0.158D-01 0.117D+01
 Gap=     0.502 Goal=   None    Shift=    0.000
 RMSDP=7.77D-05 MaxDP=2.13D-03 DE=-6.88D-04 OVMax= 1.13D-02

 Cycle   6  Pass 1  IDiag  1:
 E= -279.500566720193     Delta-E=       -0.000326204884 Rises=F Damp=F
 DIIS: error= 2.85D-04 at cycle   6 NSaved=   6.
 NSaved= 6 IEnMin= 6 EnMin= -279.500566720193     IErMin= 6 ErrMin= 2.85D-04
 ErrMax= 2.85D-04  0.00D+00 EMaxC= 1.00D-01 BMatC= 1.70D-05 BMatP= 8.91D-05
 IDIUse=3 WtCom= 9.97D-01 WtEn= 2.85D-03
 Coeff-Com:  0.628D-03 0.130D-02 0.415D-02-0.127D+00-0.236D+00 0.136D+01
 Coeff-En:   0.000D+00 0.000D+00 0.000D+00 0.000D+00 0.000D+00 0.100D+01
 Coeff:      0.626D-03 0.129D-02 0.414D-02-0.127D+00-0.235D+00 0.136D+01
 Gap=     0.502 Goal=   None    Shift=    0.000
 RMSDP=4.63D-05 MaxDP=1.28D-03 DE=-3.26D-04 OVMax= 5.63D-03

 Cycle   7  Pass 1  IDiag  1:
 E= -279.500642296950     Delta-E=       -0.000075576757 Rises=F Damp=F
 DIIS: error= 1.31D-04 at cycle   7 NSaved=   7.
 NSaved= 7 IEnMin= 7 EnMin= -279.500642296950     IErMin= 7 ErrMin= 1.31D-04
 ErrMax= 1.31D-04  0.00D+00 EMaxC= 1.00D-01 BMatC= 4.79D-06 BMatP= 1.70D-05
 IDIUse=3 WtCom= 9.99D-01 WtEn= 1.31D-03
 Coeff-Com: -0.953D-03 0.139D-01 0.273D-01-0.244D-01-0.296D+00 0.409D+00
 Coeff-Com:  0.871D+00
 Coeff-En:   0.000D+00 0.000D+00 0.000D+00 0.000D+00 0.000D+00 0.000D+00
 Coeff-En:   0.100D+01
 Coeff:     -0.951D-03 0.139D-01 0.272D-01-0.243D-01-0.295D+00 0.409D+00
 Coeff:      0.871D+00
 Gap=     0.502 Goal=   None    Shift=    0.000
 RMSDP=1.36D-05 MaxDP=3.88D-04 DE=-7.56D-05 OVMax= 1.58D-03

 Cycle   8  Pass 1  IDiag  1:
 E= -279.500651658849     Delta-E=       -0.000009361898 Rises=F Damp=F
 DIIS: error= 5.79D-05 at cycle   8 NSaved=   8.
 NSaved= 8 IEnMin= 8 EnMin= -279.500651658849     IErMin= 8 ErrMin= 5.79D-05
 ErrMax= 5.79D-05  0.00D+00 EMaxC= 1.00D-01 BMatC= 6.30D-07 BMatP= 4.79D-06
 IDIUse=1 WtCom= 1.00D+00 WtEn= 0.00D+00
 Coeff-Com: -0.464D-03 0.359D-02 0.792D-02 0.276D-01-0.407D-01-0.200D+00
 Coeff-Com:  0.160D+00 0.104D+01
 Coeff:     -0.464D-03 0.359D-02 0.792D-02 0.276D-01-0.407D-01-0.200D+00
 Coeff:      0.160D+00 0.104D+01
 Gap=     0.502 Goal=   None    Shift=    0.000
 RMSDP=7.20D-06 MaxDP=2.09D-04 DE=-9.36D-06 OVMax= 7.93D-04

 Cycle   9  Pass 1  IDiag  1:
 E= -279.500653544618     Delta-E=       -0.000001885770 Rises=F Damp=F
 DIIS: error= 1.58D-05 at cycle   9 NSaved=   9.
 NSaved= 9 IEnMin= 9 EnMin= -279.500653544618     IErMin= 9 ErrMin= 1.58D-05
 ErrMax= 1.58D-05  0.00D+00 EMaxC= 1.00D-01 BMatC= 6.99D-08 BMatP= 6.30D-07
 IDIUse=1 WtCom= 1.00D+00 WtEn= 0.00D+00
 Coeff-Com:  0.129D-03-0.179D-02-0.321D-02-0.250D-02 0.347D-01 0.208D-02
 Coeff-Com: -0.163D+00-0.119D+00 0.125D+01
 Coeff:      0.129D-03-0.179D-02-0.321D-02-0.250D-02 0.347D-01 0.208D-02
 Coeff:     -0.163D+00-0.119D+00 0.125D+01
 Gap=     0.502 Goal=   None    Shift=    0.000
 RMSDP=1.97D-06 MaxDP=6.75D-05 DE=-1.89D-06 OVMax= 1.76D-04

 Cycle  10  Pass 1  IDiag  1:
 E= -279.500653708041     Delta-E=       -0.000000163423 Rises=F Damp=F
 DIIS: error= 4.16D-06 at cycle  10 NSaved=  10.
 NSaved=10 IEnMin=10 EnMin= -279.500653708041     IErMin=10 ErrMin= 4.16D-06
 ErrMax= 4.16D-06  0.00D+00 EMaxC= 1.00D-01 BMatC= 5.49D-09 BMatP= 6.99D-08
 IDIUse=1 WtCom= 1.00D+00 WtEn= 0.00D+00
 Coeff-Com:  0.299D-04-0.231D-03-0.299D-03-0.261D-02 0.130D-02 0.191D-01
 Coeff-Com: -0.105D-01-0.724D-01-0.858D-01 0.115D+01
 Coeff:      0.299D-04-0.231D-03-0.299D-03-0.261D-02 0.130D-02 0.191D-01
 Coeff:     -0.105D-01-0.724D-01-0.858D-01 0.115D+01
 Gap=     0.502 Goal=   None    Shift=    0.000
 RMSDP=5.01D-07 MaxDP=2.09D-05 DE=-1.63D-07 OVMax= 4.05D-05

 Cycle  11  Pass 1  IDiag  1:
 E= -279.500653720336     Delta-E=       -0.000000012295 Rises=F Damp=F
 DIIS: error= 2.03D-06 at cycle  11 NSaved=  11.
 NSaved=11 IEnMin=11 EnMin= -279.500653720336     IErMin=11 ErrMin= 2.03D-06
 ErrMax= 2.03D-06  0.00D+00 EMaxC= 1.00D-01 BMatC= 6.51D-10 BMatP= 5.49D-09
 IDIUse=1 WtCom= 1.00D+00 WtEn= 0.00D+00
 Coeff-Com: -0.213D-04 0.246D-03 0.492D-03 0.534D-03-0.421D-02-0.357D-02
 Coeff-Com:  0.201D-01 0.314D-01-0.138D+00-0.168D+00 0.126D+01
 Coeff:     -0.213D-04 0.246D-03 0.492D-03 0.534D-03-0.421D-02-0.357D-02
 Coeff:      0.201D-01 0.314D-01-0.138D+00-0.168D+00 0.126D+01
 Gap=     0.502 Goal=   None    Shift=    0.000
 RMSDP=1.74D-07 MaxDP=6.30D-06 DE=-1.23D-08 OVMax= 1.73D-05

 Cycle  12  Pass 1  IDiag  1:
 E= -279.500653722104     Delta-E=       -0.000000001768 Rises=F Damp=F
 DIIS: error= 5.99D-07 at cycle  12 NSaved=  12.
 NSaved=12 IEnMin=12 EnMin= -279.500653722104     IErMin=12 ErrMin= 5.99D-07
 ErrMax= 5.99D-07  0.00D+00 EMaxC= 1.00D-01 BMatC= 7.36D-11 BMatP= 6.51D-10
 IDIUse=1 WtCom= 1.00D+00 WtEn= 0.00D+00
 Coeff-Com:  0.133D-05-0.303D-04-0.657D-04 0.168D-03 0.111D-02-0.227D-02
 Coeff-Com: -0.413D-02 0.521D-02 0.419D-01-0.118D+00-0.276D+00 0.135D+01
 Coeff:      0.133D-05-0.303D-04-0.657D-04 0.168D-03 0.111D-02-0.227D-02
 Coeff:     -0.413D-02 0.521D-02 0.419D-01-0.118D+00-0.276D+00 0.135D+01
 Gap=     0.502 Goal=   None    Shift=    0.000
 RMSDP=7.18D-08 MaxDP=2.82D-06 DE=-1.77D-09 OVMax= 6.88D-06

 Cycle  13  Pass 1  IDiag  1:
 E= -279.500653722338     Delta-E=       -0.000000000234 Rises=F Damp=F
 DIIS: error= 1.73D-07 at cycle  13 NSaved=  13.
 NSaved=13 IEnMin=13 EnMin= -279.500653722338     IErMin=13 ErrMin= 1.73D-07
 ErrMax= 1.73D-07  0.00D+00 EMaxC= 1.00D-01 BMatC= 4.30D-12 BMatP= 7.36D-11
 IDIUse=1 WtCom= 1.00D+00 WtEn= 0.00D+00
 Coeff-Com:  0.131D-05-0.143D-04-0.229D-04-0.897D-04 0.116D-03 0.781D-03
 Coeff-Com: -0.785D-03-0.336D-02 0.523D-03 0.427D-01-0.376D-01-0.336D+00
 Coeff-Com:  0.133D+01
 Coeff:      0.131D-05-0.143D-04-0.229D-04-0.897D-04 0.116D-03 0.781D-03
 Coeff:     -0.785D-03-0.336D-02 0.523D-03 0.427D-01-0.376D-01-0.336D+00
 Coeff:      0.133D+01
 Gap=     0.502 Goal=   None    Shift=    0.000
 RMSDP=1.97D-08 MaxDP=5.94D-07 DE=-2.34D-10 OVMax= 1.68D-06

 Cycle  14  Pass 1  IDiag  1:
 E= -279.500653722352     Delta-E=       -0.000000000013 Rises=F Damp=F
 DIIS: error= 2.57D-08 at cycle  14 NSaved=  14.
 NSaved=14 IEnMin=14 EnMin= -279.500653722352     IErMin=14 ErrMin= 2.57D-08
 ErrMax= 2.57D-08  0.00D+00 EMaxC= 1.00D-01 BMatC= 2.13D-13 BMatP= 4.30D-12
 IDIUse=1 WtCom= 1.00D+00 WtEn= 0.00D+00
 Coeff-Com: -0.204D-06 0.331D-05 0.597D-05 0.529D-05-0.854D-04 0.442D-04
 Coeff-Com:  0.279D-03 0.256D-03-0.252D-02 0.158D-02 0.175D-01-0.252D-01
 Coeff-Com: -0.205D+00 0.121D+01
 Coeff:     -0.204D-06 0.331D-05 0.597D-05 0.529D-05-0.854D-04 0.442D-04
 Coeff:      0.279D-03 0.256D-03-0.252D-02 0.158D-02 0.175D-01-0.252D-01
 Coeff:     -0.205D+00 0.121D+01
 Gap=     0.502 Goal=   None    Shift=    0.000
 RMSDP=3.94D-09 MaxDP=9.58D-08 DE=-1.32D-11 OVMax= 3.59D-07

 SCF Done:  E(RHF) =  -279.500653722     A.U. after   14 cycles
            NFock= 14  Conv=0.39D-08     -V/T= 2.0024
 KE= 2.788286527198D+02 PE=-8.945018433482D+02 EE= 2.195835913594D+02
 Leave Link  502 at Mon Feb 21 20:15:15 2022, MaxMem= 16106127360 cpu:              56.6 elap:               3.8
 (Enter /sw/contrib/gaussian/g16/B01/g16/l801.exe)
 ExpMin= 2.53D-02 ExpMax= 1.53D+04 ExpMxC= 5.22D+02 IAcc=3 IRadAn=         5 AccDes= 0.00D+00
 HarFok:  IExCor=  205 AccDes= 0.00D+00 IRadAn=         5 IDoV=-2 UseB2=F ITyADJ=14
 ICtDFT= 12500011 ScaDFX=  1.000000  1.000000  1.000000  1.000000
 DSYEVD-2 returned Info=          93 IAlg= 4 N=    46 NDim=    46 NE2=   350130240 trying  DSYEV.
 Largest valence mixing into a core orbital is  2.09D-04
 Largest core mixing into a valence orbital is  3.66D-05
 Range of M.O.s used for correlation:     5   207
 NBasis=   207 NAE=    16 NBE=    16 NFC=     4 NFV=     0
 NROrb=    203 NOA=    12 NOB=    12 NVA=   191 NVB=   191

 **** Warning!!: The largest alpha MO coefficient is  0.17482316D+02

 Leave Link  801 at Mon Feb 21 20:15:15 2022, MaxMem= 16106127360 cpu:               2.3 elap:               0.1
 (Enter /sw/contrib/gaussian/g16/B01/g16/l906.exe)
 Frozen-core derivative calculation, NFC=   4 NFV=   0.
 FulOut=F Deriv=T AODrv=T NAtomX=     5
   MMem=           0  MDisk=          12 MDiskD=          12
  W3Min=      811440 MinDsk=     2425030 NBas6D=         245
 NBas2D=       30762    NTT=       30135    LW2=     7400000
    MDV= 16105574325 MDiskM=      328644 NBas2p=       30702
 Disk-based method using ON**2 memory for 12 occupieds at a time.
 Permanent disk used for amplitudes=    11516536 words.
 Estimated scratch disk usage=   321251614 words.
 IMap=   1   2   3   4   5   6   7   8   9  10  11  12  13  14  15  16
 Actual    scratch disk usage=   310331678 words.
 JobTyp=1 Pass  1:  I=   5 to  16 NPSUse= 28 ParTrn=T ParDer=T DoDerP=T.
 (rs|ai) integrals will be sorted in core.
 Spin components of T(2) and E(2):
     alpha-alpha T2 =       0.3415048601D-01 E2=     -0.1225245532D+00
     alpha-beta  T2 =       0.1875867382D+00 E2=     -0.7010079753D+00
     beta-beta   T2 =       0.3415048601D-01 E2=     -0.1225245532D+00
 The integrals were generated   1 times.
 ANorm=    0.1120663960D+01
 E2 =    -0.9460570818D+00 EUMP2 =    -0.28044671080414D+03
 Leave Link  906 at Mon Feb 21 20:16:52 2022, MaxMem= 16106127360 cpu:            2704.4 elap:              96.7
 (Enter /sw/contrib/gaussian/g16/B01/g16/l1101.exe)
 Using compressed Sx but separate Hx and Fx, NAtomX=     5.
 Will process      6 centers per pass.
 Leave Link 1101 at Mon Feb 21 20:16:52 2022, MaxMem= 16106127360 cpu:               5.2 elap:               0.2
 (Enter /sw/contrib/gaussian/g16/B01/g16/l1102.exe)
 Leave Link 1102 at Mon Feb 21 20:16:52 2022, MaxMem= 16106127360 cpu:               1.0 elap:               0.1
 (Enter /sw/contrib/gaussian/g16/B01/g16/l1110.exe)
 Forming Gx(P) for the SCF density, NAtomX=     5.
 Integral derivatives from FoFJK, PRISM(SPDF).
 Do as many integral derivatives as possible in FoFJK.
 G2DrvN: MDV=   16106126844.
 G2DrvN: will do     6 centers at a time, making    1 passes.
 Calling FoFCou, ICntrl=  3107 FMM=F I1Cent=   0 AccDes= 0.00D+00.
 FoFJK:  IHMeth= 1 ICntrl=    3107 DoSepK=F KAlg= 0 I1Cent=           0 FoldK=F
 IRaf=         0 NMat=       1 IRICut=       1 DoRegI=T DoRafI=F ISym2E= 1 IDoP0=0 IntGTp=1.
 FoFCou: FMM=F IPFlag=           0 FMFlag=      100000 FMFlg1=           0
         NFxFlg=           0 DoJE=F BraDBF=F KetDBF=F FulRan=T
         wScrn=  0.000000 ICntrl=      3107 IOpCl=  0 I1Cent=           0 NGrid=           0
         NMat0=    1 NMatS0=      1 NMatT0=    0 NMatD0=    1 NMtDS0=    0 NMtDT0=    0
 Petite list used in FoFCou.
 End of G2Drv F.D. properties file   721 does not exist.
 End of G2Drv F.D. properties file   722 does not exist.
 End of G2Drv F.D. properties file   788 does not exist.
 Leave Link 1110 at Mon Feb 21 20:16:55 2022, MaxMem= 16106127360 cpu:              83.7 elap:               3.0
 (Enter /sw/contrib/gaussian/g16/B01/g16/l1002.exe)
 Minotr:  Closed shell wavefunction.
          IDoAtm=11111
          Frozen-core window.
          Direct CPHF calculation.
          Differentiating once with respect to electric field.
                with respect to dipole field.
          Differentiating once with respect to nuclear coordinates.
          Requested convergence is 1.0D-08 RMS, and 1.0D-07 maximum.
          Secondary convergence is 1.0D-12 RMS, and 1.0D-12 maximum.
          NewPWx=T KeepS1=T KeepF1=T KeepIn=T MapXYZ=F SortEE=F KeepMc=T.
 Keep R1 ints in memory in symmetry-blocked form, NReq=348888983.
 FoFCou: FMM=F IPFlag=           0 FMFlag=           0 FMFlg1=           0
         NFxFlg=           0 DoJE=F BraDBF=F KetDBF=F FulRan=T
         wScrn=  0.000000 ICntrl=       600 IOpCl=  0 I1Cent=           0 NGrid=           0
         NMat0=    1 NMatS0=  21528 NMatT0=    0 NMatD0=    1 NMtDS0=    0 NMtDT0=    0
 Petite list used in FoFCou.
          MDV=   16106127360 using IRadAn=       1.
          Solving linear equations simultaneously, MaxMat=       0.
          There are    18 degrees of freedom in the 1st order CPHF.  IDoFFX=6 NUNeed=    18.
     15 vectors produced by pass  0 Test12= 1.70D-14 5.56D-09 XBig12= 8.31D+00 1.08D+00.
 AX will form    15 AO Fock derivatives at one time.
     15 vectors produced by pass  1 Test12= 1.70D-14 5.56D-09 XBig12= 1.35D+00 2.66D-01.
     15 vectors produced by pass  2 Test12= 1.70D-14 5.56D-09 XBig12= 1.44D-01 9.95D-02.
     15 vectors produced by pass  3 Test12= 1.70D-14 5.56D-09 XBig12= 5.06D-03 1.12D-02.
     15 vectors produced by pass  4 Test12= 1.70D-14 5.56D-09 XBig12= 1.00D-04 1.95D-03.
     15 vectors produced by pass  5 Test12= 1.70D-14 5.56D-09 XBig12= 1.44D-06 1.82D-04.
     15 vectors produced by pass  6 Test12= 1.70D-14 5.56D-09 XBig12= 1.14D-08 1.50D-05.
     13 vectors produced by pass  7 Test12= 1.70D-14 5.56D-09 XBig12= 8.41D-11 1.29D-06.
      3 vectors produced by pass  8 Test12= 1.70D-14 5.56D-09 XBig12= 5.82D-13 1.19D-07.
      2 vectors produced by pass  9 Test12= 1.70D-14 5.56D-09 XBig12= 3.73D-15 9.85D-09.
 InvSVY:  IOpt=1 It=  1 EMax= 8.88D-16
 Solved reduced A of dimension   123 with    15 vectors.
 FullF1:  Do perturbations      1 to      18.
 Saving first derivative matrices.
 End of Minotr F.D. properties file   721 does not exist.
 End of Minotr F.D. properties file   722 does not exist.
 End of Minotr F.D. properties file   788 does not exist.
 Leave Link 1002 at Mon Feb 21 20:16:58 2022, MaxMem= 16106127360 cpu:              80.0 elap:               2.9
 (Enter /sw/contrib/gaussian/g16/B01/g16/l811.exe)
 MDV= 16106127360.
 Form MO integral derivatives with frozen-active canonical formalism.
 MOERI=1 MOERIx=1 NAtoms=     5 NAtomX=     5.
 Discarding MO integrals.
 MO basis two electron integral derivatives will not be stored on disk.
 IAlg= 3 DoFC=T DoPWx=T Debug=F.
 Frozen-core window:  NFC=   4 NFV=   0.
 Reordered first order wavefunction length =     18678272
 In DefCFB: NBatch=  1 ICI= 16 ICA=191 LFMax= 96
            Large arrays: LIAPS=   619940160 LIARS=   288257200 words.
 In StABat: MaxSiz= 55 MinSiz= 25 NAtomB=  5
 DoIAMN: NPSUse= 28.
 Leave Link  811 at Mon Feb 21 20:18:16 2022, MaxMem= 16106127360 cpu:            2188.3 elap:              78.3
 (Enter /sw/contrib/gaussian/g16/B01/g16/l804.exe)
 Frozen-core window:  NFC=   4 NFV=   0.
 Closed-shell transformation, MDV= 16106127360 ITran=4 ISComp=1.
 Semi-Direct transformation.
 ModeAB=           2 MOrb=            16 LenV=   16104923093
 LASXX=     67341636 LTotXX=    67341636 LenRXX=    67341636
 LTotAB=    68301760 MaxLAS=    99807120 LenRXY=    99807120
 NonZer=   134683272 LenScr=   202817536 LnRSAI=           0
 LnScr1=           0 LExtra=           0 Total=    369966292
 MaxDsk=          -1 SrtSym=           F ITran=            4
 DoSDTr:  NPSUse= 28
 JobTyp=0 Pass  1:  I=   1 to  16.
 (rs|ai) integrals will be sorted in core.
 Complete sort for first half transformation.
 First half transformation complete.
 Begin second half transformation for I=  10.
 Begin second half transformation for I=  10.
 Complete sort for second half transformation.
 Second half transformation complete.
 Spin components of T(2) and E(2):
     alpha-alpha T2 =       0.3415048601D-01 E2=     -0.1225245532D+00
     alpha-beta  T2 =       0.1875867382D+00 E2=     -0.7010079753D+00
     beta-beta   T2 =       0.3415048601D-01 E2=     -0.1225245532D+00
 ANorm=    0.1584858170D+01
 E2 =    -0.9460570818D+00 EUMP2 =    -0.28044671080414D+03
 Leave Link  804 at Mon Feb 21 20:18:33 2022, MaxMem= 16106127360 cpu:             467.9 elap:              16.8
 (Enter /sw/contrib/gaussian/g16/B01/g16/l1002.exe)
 Minotr:  Closed shell wavefunction.
          Computing MP2/KS-MP2 derivatives.
          Using Z-Vector for PSCF gradient.
          Skipping F1 and S1 gradient terms here.
          IDoAtm=11111
          Frozen-core window.
          Using MO integrals in the linear equations.
          Forming densities via direct SCF.
          Differentiating once with respect to electric field.
                with respect to dipole field.
          Differentiating once with respect to nuclear coordinates.
          Using symmetry in CPHF.
          Requested convergence is 1.0D-10 RMS, and 1.0D-09 maximum.
          NewPWx=F KeepS1=T KeepF1=T KeepIn=T MapXYZ=F SortEE=F KeepMc=T.
          MDV=   16106127360 using IRadAn=       5.
          Solving linear equations separately, MaxMat=       0.
          There are     1 degrees of freedom in the 1st order CPHF.  IDoFFX=0 NUNeed=     1.
 FoFJK:  IHMeth= 1 ICntrl=       0 DoSepK=F KAlg= 0 I1Cent=           0 FoldK=F
 IRaf=         0 NMat=       1 IRICut=       1 DoRegI=T DoRafI=F ISym2E= 0 IDoP0=0 IntGTp=1.
 FoFCou: FMM=F IPFlag=           0 FMFlag=      100000 FMFlg1=           0
         NFxFlg=           0 DoJE=F BraDBF=F KetDBF=F FulRan=T
         wScrn=  0.000000 ICntrl=         0 IOpCl=  0 I1Cent=           0 NGrid=           0
         NMat0=    1 NMatS0=      1 NMatT0=    0 NMatD0=    1 NMtDS0=    0 NMtDT0=    0
 Symmetry not used in FoFCou.
 LinEq1:  Iter=  0 NonCon=     1 RMS=6.00D-03 Max=1.32D-01 NDo=     1
 LinEq1:  Iter=  1 NonCon=     1 RMS=1.94D-03 Max=3.90D-02 NDo=     1
 LinEq1:  Iter=  2 NonCon=     1 RMS=8.84D-04 Max=1.46D-02 NDo=     1
 LinEq1:  Iter=  3 NonCon=     1 RMS=3.94D-04 Max=7.82D-03 NDo=     1
 LinEq1:  Iter=  4 NonCon=     1 RMS=1.22D-04 Max=1.94D-03 NDo=     1
 LinEq1:  Iter=  5 NonCon=     1 RMS=4.62D-05 Max=7.34D-04 NDo=     1
 LinEq1:  Iter=  6 NonCon=     1 RMS=2.06D-05 Max=2.40D-04 NDo=     1
 LinEq1:  Iter=  7 NonCon=     1 RMS=8.33D-06 Max=1.66D-04 NDo=     1
 LinEq1:  Iter=  8 NonCon=     1 RMS=3.54D-06 Max=3.57D-05 NDo=     1
 LinEq1:  Iter=  9 NonCon=     1 RMS=9.65D-07 Max=1.39D-05 NDo=     1
 LinEq1:  Iter= 10 NonCon=     1 RMS=1.92D-07 Max=2.16D-06 NDo=     1
 LinEq1:  Iter= 11 NonCon=     1 RMS=3.60D-08 Max=3.89D-07 NDo=     1
 LinEq1:  Iter= 12 NonCon=     1 RMS=8.68D-09 Max=1.35D-07 NDo=     1
 LinEq1:  Iter= 13 NonCon=     1 RMS=1.56D-09 Max=2.73D-08 NDo=     1
 LinEq1:  Iter= 14 NonCon=     1 RMS=2.84D-10 Max=4.09D-09 NDo=     1
 LinEq1:  Iter= 15 NonCon=     0 RMS=5.10D-11 Max=5.90D-10 NDo=     1
 Linear equations converged to 1.000D-10 1.000D-09 after    15 iterations.
 End of Minotr F.D. properties file   721 does not exist.
 End of Minotr F.D. properties file   722 does not exist.
 End of Minotr F.D. properties file   788 does not exist.
 Leave Link 1002 at Mon Feb 21 20:18:35 2022, MaxMem= 16106127360 cpu:              65.1 elap:               2.4
 (Enter /sw/contrib/gaussian/g16/B01/g16/l1102.exe)
 Use density number 2.
 Symmetrizing basis deriv contribution to polar:
 IMax=3 JMax=2 DiffMx= 0.00D+00
 Leave Link 1102 at Mon Feb 21 20:18:36 2022, MaxMem= 16106127360 cpu:               1.4 elap:               0.1
 (Enter /sw/contrib/gaussian/g16/B01/g16/l1110.exe)
 Forming Gx(P) for generalized density number  2 NAtomX=     5.
 Integral derivatives from FoFJK, PRISM(SPDF).
 Do as many integral derivatives as possible in FoFJK.
 G2DrvN: MDV=   16106126844.
 G2DrvN: will do     6 centers at a time, making    1 passes.
 Calling FoFCou, ICntrl=  3107 FMM=F I1Cent=   0 AccDes= 0.00D+00.
 FoFJK:  IHMeth= 1 ICntrl=    3107 DoSepK=F KAlg= 0 I1Cent=           0 FoldK=F
 IRaf=         0 NMat=       1 IRICut=       1 DoRegI=T DoRafI=F ISym2E= 1 IDoP0=0 IntGTp=1.
 FoFCou: FMM=F IPFlag=           0 FMFlag=      100000 FMFlg1=           0
         NFxFlg=           0 DoJE=F BraDBF=F KetDBF=F FulRan=T
         wScrn=  0.000000 ICntrl=      3107 IOpCl=  0 I1Cent=           0 NGrid=           0
         NMat0=    1 NMatS0=      1 NMatT0=    0 NMatD0=    1 NMtDS0=    0 NMtDT0=    0
 Petite list used in FoFCou.
 End of G2Drv F.D. properties file   721 does not exist.
 End of G2Drv F.D. properties file   722 does not exist.
 End of G2Drv F.D. properties file   788 does not exist.
 Leave Link 1110 at Mon Feb 21 20:18:39 2022, MaxMem= 16106127360 cpu:              83.2 elap:               3.0
 (Enter /sw/contrib/gaussian/g16/B01/g16/l1112.exe)
 MP22nd: MDV=   16106127360
 This link is doing NAtomX=     5 total of    18 degrees of freedom.
 Using ON3 I/O method in MakUI.
 Frozen-core window:  NFC=   4 NFV=   0.
 Using Ix for Sx.
 Use MO integrals over full window.
 Using OV2 memory method for fx*t*t/D, MaxI=    16 DoOO2=F NP=  28.
 R2 and R3 integrals will be kept in memory, NReq=   915591705.
 FoFCou: FMM=F IPFlag=           0 FMFlag=           0 FMFlg1=           0
         NFxFlg=           0 DoJE=F BraDBF=F KetDBF=F FulRan=T
         wScrn=  0.000000 ICntrl=       600 IOpCl=  0 I1Cent=           0 NGrid=           0
         NMat0=    1 NMatS0=      1 NMatT0=    0 NMatD0=    1 NMtDS0=    0 NMtDT0=    0
 Symmetry not used in FoFCou.
 DD1Dir will call FoFMem   1 times, MxPair=       272
 NAB=   136 NAA=     0 NBB=     0.
 Symmetry is being used.
 FoFJK:  IHMeth= 1 ICntrl=       0 DoSepK=F KAlg= 0 I1Cent=           0 FoldK=F
 IRaf=         0 NMat=      18 IRICut=      45 DoRegI=T DoRafI=T ISym2E= 2 IDoP0=3 IntGTp=3.
 Discarding MO integrals.
 Leave Link 1112 at Mon Feb 21 20:19:15 2022, MaxMem= 16106127360 cpu:            1011.1 elap:              36.5
 (Enter /sw/contrib/gaussian/g16/B01/g16/l601.exe)
 Copying SCF densities to generalized density rwf, IOpCl= 0 IROHF=0.

 **********************************************************************

            Population analysis using the MP2 Density.

 **********************************************************************

 Orbital symmetries:
       Occupied  (A') (A') (A') (A') (A') (A') (A') (A') (A') (A')
                 (A") (A') (A") (A') (A") (A')
       Virtual   (A') (A") (A') (A') (A") (A') (A') (A') (A") (A')
                 (A") (A') (A') (A') (A") (A') (A') (A") (A') (A')
                 (A') (A') (A') (A') (A") (A') (A') (A") (A') (A')
                 (A") (A') (A") (A') (A') (A") (A') (A') (A") (A')
                 (A") (A') (A") (A') (A') (A") (A') (A') (A") (A')
                 (A") (A') (A') (A') (A") (A') (A") (A') (A") (A')
                 (A') (A') (A") (A') (A') (A") (A') (A") (A') (A')
                 (A") (A') (A') (A") (A") (A') (A') (A") (A') (A')
                 (A') (A") (A') (A") (A') (A") (A') (A") (A') (A')
                 (A") (A') (A') (A") (A') (A") (A') (A") (A') (A')
                 (A") (A') (A") (A') (A') (A") (A') (A') (A") (A')
                 (A") (A') (A') (A') (A") (A') (A') (A') (A") (A')
                 (A") (A') (A") (A') (A') (A") (A") (A') (A") (A')
                 (A') (A') (A') (A") (A") (A") (A') (A') (A') (A')
                 (A") (A') (A") (A') (A') (A") (A') (A') (A') (A')
                 (A") (A') (A') (A") (A') (A") (A') (A") (A') (A")
                 (A') (A") (A') (A') (A") (A") (A") (A') (A") (A')
                 (A") (A') (A") (A') (A") (A') (A") (A") (A') (A')
                 (A') (A') (A') (A') (A') (A') (A') (A') (A') (A')
                 (A')
 The electronic state is 1-A'.
 Alpha  occ. eigenvalues --  -20.68912 -20.68677 -20.65870 -15.81452  -1.62358
 Alpha  occ. eigenvalues --   -1.49425  -1.25128  -0.94888  -0.77196  -0.75798
 Alpha  occ. eigenvalues --   -0.71006  -0.67991  -0.62098  -0.58887  -0.48413
 Alpha  occ. eigenvalues --   -0.47203
 Alpha virt. eigenvalues --    0.02991   0.07033   0.08575   0.10160   0.13390
 Alpha virt. eigenvalues --    0.13403   0.14430   0.15474   0.17849   0.19413
 Alpha virt. eigenvalues --    0.19975   0.20491   0.22110   0.23588   0.23726
 Alpha virt. eigenvalues --    0.26586   0.28938   0.30411   0.31003   0.34265
 Alpha virt. eigenvalues --    0.34936   0.38698   0.42238   0.43200   0.52682
 Alpha virt. eigenvalues --    0.52879   0.55737   0.58108   0.62519   0.63769
 Alpha virt. eigenvalues --    0.67410   0.68449   0.70675   0.71136   0.72423
 Alpha virt. eigenvalues --    0.73013   0.74504   0.79090   0.79242   0.80990
 Alpha virt. eigenvalues --    0.81345   0.83011   0.86744   0.90826   0.92234
 Alpha virt. eigenvalues --    0.92555   0.95759   0.97606   0.98505   1.01734
 Alpha virt. eigenvalues --    1.05156   1.05428   1.08142   1.11686   1.14016
 Alpha virt. eigenvalues --    1.18896   1.22046   1.23241   1.33768   1.34850
 Alpha virt. eigenvalues --    1.38735   1.45186   1.48772   1.50939   1.53735
 Alpha virt. eigenvalues --    1.56568   1.57777   1.61273   1.66335   1.66960
 Alpha virt. eigenvalues --    1.70228   1.79308   1.83072   1.83293   1.87857
 Alpha virt. eigenvalues --    1.90885   1.95608   1.99008   2.00455   2.07442
 Alpha virt. eigenvalues --    2.11978   2.13058   2.15124   2.22242   2.26389
 Alpha virt. eigenvalues --    2.26548   2.28831   2.31405   2.34147   2.38616
 Alpha virt. eigenvalues --    2.42287   2.42637   2.45305   2.46170   2.47494
 Alpha virt. eigenvalues --    2.49973   2.59045   2.59580   2.61841   2.62383
 Alpha virt. eigenvalues --    2.63543   2.66648   2.75579   2.81996   2.85099
 Alpha virt. eigenvalues --    2.88043   2.89462   2.91540   2.95751   3.02131
 Alpha virt. eigenvalues --    3.06392   3.11863   3.20561   3.22510   3.31485
 Alpha virt. eigenvalues --    3.33877   3.51536   3.63958   3.83345   3.84211
 Alpha virt. eigenvalues --    4.14858   4.16564   4.18242   4.25311   4.35174
 Alpha virt. eigenvalues --    4.39301   4.46401   4.51787   4.65809   4.70901
 Alpha virt. eigenvalues --    4.80285   4.81748   4.83026   4.89465   5.01974
 Alpha virt. eigenvalues --    5.07442   5.09909   5.14489   5.17601   5.23991
 Alpha virt. eigenvalues --    5.26840   5.30615   5.32891   5.35085   5.60337
 Alpha virt. eigenvalues --    5.67173   5.76318   5.82973   5.95302   6.16411
 Alpha virt. eigenvalues --    6.30862   6.33404   6.39271   6.49111   6.50319
 Alpha virt. eigenvalues --    6.61333   6.66845   6.69620   6.75919   6.76347
 Alpha virt. eigenvalues --    6.82954   6.89502   7.01089   7.05491   7.05792
 Alpha virt. eigenvalues --    7.09023   7.12122   7.14686   7.18115   7.22001
 Alpha virt. eigenvalues --    7.24238   7.30918   7.32344   7.34432   7.39622
 Alpha virt. eigenvalues --    7.42628   7.48176   7.60619   7.61218   7.61936
 Alpha virt. eigenvalues --    7.66069   7.78516   7.88429   8.08081   8.30994
 Alpha virt. eigenvalues --    8.40905   8.53938  13.36844  14.33754  15.15340
 Alpha virt. eigenvalues --   16.13265
          Condensed to atoms (all electrons):
               1          2          3          4          5
     1  H    0.589727   0.128458   0.019979   0.012330  -0.000658
     2  O    0.128458   8.321748  -0.174468  -0.088675   0.015242
     3  O    0.019979  -0.174468   8.472238  -0.126942  -0.036871
     4  N    0.012330  -0.088675  -0.126942   6.962745  -0.054238
     5  O   -0.000658   0.015242  -0.036871  -0.054238   8.265230
 Mulliken charges:
               1
     1  H    0.250164
     2  O   -0.202305
     3  O   -0.153936
     4  N    0.294781
     5  O   -0.188705
 Sum of Mulliken charges =  -0.00000
 Mulliken charges with hydrogens summed into heavy atoms:
               1
     2  O    0.047859
     3  O   -0.153936
     4  N    0.294781
     5  O   -0.188705
 APT charges:
               1
     1  H    0.298780
     2  O   -0.290533
     3  O   -0.500863
     4  N    0.882239
     5  O   -0.389623
 Sum of APT charges =  -0.00000
 APT charges with hydrogens summed into heavy atoms:
               1
     2  O    0.008247
     3  O   -0.500863
     4  N    0.882239
     5  O   -0.389623
 Electronic spatial extent (au):  <R**2>=            253.9816
 Charge=             -0.0000 electrons
 Dipole moment (field-independent basis, Debye):
    X=              0.4610    Y=              1.3004    Z=              0.0000  Tot=              1.3797
 Quadrupole moment (field-independent basis, Debye-Ang):
   XX=            -22.4512   YY=            -18.5712   ZZ=            -22.0253
   XY=              3.2757   XZ=             -0.0000   YZ=              0.0000
 Traceless Quadrupole moment (field-independent basis, Debye-Ang):
   XX=             -1.4353   YY=              2.4447   ZZ=             -1.0094
   XY=              3.2757   XZ=             -0.0000   YZ=              0.0000
 Octapole moment (field-independent basis, Debye-Ang**2):
  XXX=              2.6573  YYY=             11.2773  ZZZ=             -0.0000  XYY=              7.8925
  XXY=              6.4938  XXZ=              0.0000  XZZ=             -1.5957  YZZ=             -0.8945
  YYZ=              0.0000  XYZ=              0.0000
 Hexadecapole moment (field-independent basis, Debye-Ang**3):
 XXXX=           -158.4044 YYYY=            -90.7598 ZZZZ=            -18.2728 XXXY=            -37.0203
 XXXZ=             -0.0000 YYYX=            -30.9011 YYYZ=             -0.0000 ZZZX=             -0.0000
 ZZZY=             -0.0000 XXYY=            -34.0900 XXZZ=            -30.8659 YYZZ=            -20.8920
 XXYZ=             -0.0000 YYXZ=             -0.0000 ZZXY=            -15.1711
 N-N= 1.165889455466D+02 E-N=-8.952941491154D+02  KE= 2.801847488957D+02
 Symmetry A'   KE= 2.662168862413D+02
 Symmetry A"   KE= 1.396786265446D+01
  Exact polarizability:  33.995   9.530  30.469   0.000   0.000  17.963
 Approx polarizability:  29.057   5.176  23.758   0.000   0.000  15.538
 No NMR shielding tensors so no spin-rotation constants.
 Leave Link  601 at Mon Feb 21 20:19:15 2022, MaxMem= 16106127360 cpu:               4.2 elap:               0.2
 (Enter /sw/contrib/gaussian/g16/B01/g16/l701.exe)
 ... and contract with generalized density number  2.
 Compute integral second derivatives.
 Leave Link  701 at Mon Feb 21 20:19:16 2022, MaxMem= 16106127360 cpu:               5.5 elap:               0.2
 (Enter /sw/contrib/gaussian/g16/B01/g16/l702.exe)
 L702 exits ... SP integral derivatives will be done elsewhere.
 Leave Link  702 at Mon Feb 21 20:19:16 2022, MaxMem= 16106127360 cpu:               0.5 elap:               0.0
 (Enter /sw/contrib/gaussian/g16/B01/g16/l703.exe)
 Integral derivatives from FoFJK, PRISM(SPDF).
 Compute integral second derivatives, UseDBF=F ICtDFT=           0.
 Calling FoFJK, ICntrl=  10100127 FMM=F ISym2X=1 I1Cent= 0 IOpClX= 0 NMat=1 NMatS=1 NMatT=0.
 FoFJK:  IHMeth= 1 ICntrl=10100127 DoSepK=F KAlg= 0 I1Cent=           0 FoldK=F
 IRaf=         0 NMat=       1 IRICut=       1 DoRegI=T DoRafI=F ISym2E= 1 IDoP0=0 IntGTp=1.
 FoFCou: FMM=F IPFlag=           0 FMFlag=      100000 FMFlg1=         800
         NFxFlg=           0 DoJE=F BraDBF=F KetDBF=F FulRan=T
         wScrn=  0.000000 ICntrl=  10100127 IOpCl=  0 I1Cent=           0 NGrid=           0
         NMat0=    1 NMatS0=      1 NMatT0=    0 NMatD0=    1 NMtDS0=    0 NMtDT0=    0
 Petite list used in FoFCou.
 Leave Link  703 at Mon Feb 21 20:19:31 2022, MaxMem= 16106127360 cpu:             422.6 elap:              15.1
 (Enter /sw/contrib/gaussian/g16/B01/g16/l716.exe)
 Dipole        = 1.81368562D-01 5.11602105D-01 7.59709165D-33
 Polarizability= 3.39950491D+01 9.53045382D+00 3.04692635D+01
                 3.29514113D-31 3.36214375D-31 1.79631164D+01
 Full mass-weighted force constant matrix:
 Low frequencies --- -272.0798   -0.0004    0.0012    0.0013   26.3403   29.5187
 Low frequencies ---   48.9388  233.4641  337.7965
 ******    1 imaginary frequencies (negative Signs) ****** 
 Diagonal vibrational polarizability:
       15.1723309      27.9182021      45.7999035
 Harmonic frequencies (cm**-1), IR intensities (KM/Mole), Raman scattering
 activities (A**4/AMU), depolarization ratios for plane and unpolarized
 incident light, reduced masses (AMU), force constants (mDyne/A),
 and normal coordinates:
                      1                      2                      3
                     A"                     A"                     A'
 Frequencies --   -272.0639               233.3197               337.7892
 Red. masses --      1.1366                10.6587                 8.5814
 Frc consts  --      0.0496                 0.3419                 0.5769
 IR Inten    --    124.9815                 0.7283                 6.3090
  Atom  AN      X      Y      Z        X      Y      Z        X      Y      Z
     1   1     0.00  -0.00   1.00     0.00  -0.00  -0.56     0.54  -0.44   0.00
     2   8    -0.00  -0.00  -0.06    -0.00  -0.00  -0.31    -0.09  -0.37   0.00
     3   8     0.00   0.00  -0.04    -0.00   0.00   0.33    -0.14   0.44  -0.00
     4   7     0.00   0.00   0.06     0.00   0.00   0.53     0.04   0.25  -0.00
     5   8     0.00  -0.00  -0.01     0.00  -0.00  -0.44     0.16  -0.25   0.00
                      4                      5                      6
                     A'                     A'                     A'
 Frequencies --    431.4015               778.9217               965.6149
 Red. masses --     12.3734                13.0256                15.4474
 Frc consts  --      1.3568                 4.6562                 8.4862
 IR Inten    --    207.6447               162.9732                21.5595
  Atom  AN      X      Y      Z        X      Y      Z        X      Y      Z
     1   1     0.40   0.20  -0.00    -0.33   0.19  -0.00    -0.16  -0.04   0.00
     2   8     0.31   0.21   0.00     0.42   0.09  -0.00    -0.53   0.03  -0.00
     3   8     0.18   0.43  -0.00    -0.05  -0.26   0.00     0.75  -0.02   0.00
     4   7    -0.35  -0.43  -0.00    -0.15   0.62   0.00    -0.12   0.24   0.00
     5   8    -0.22  -0.29   0.00    -0.22  -0.38  -0.00    -0.11  -0.22  -0.00
                      7                      8                      9
                     A'                     A'                     A'
 Frequencies --   1369.2864              1672.6585              3778.4669
 Red. masses --      1.1320                13.2507                 1.0676
 Frc consts  --      1.2505                21.8426                 8.9799
 IR Inten    --    151.1743               145.5829                82.7058
  Atom  AN      X      Y      Z        X      Y      Z        X      Y      Z
     1   1     0.99  -0.05   0.00    -0.34   0.00  -0.00     0.10   0.99  -0.00
     2   8    -0.03   0.05   0.00    -0.00  -0.04  -0.00    -0.01  -0.06   0.00
     3   8    -0.02  -0.05  -0.00     0.00   0.15   0.00     0.00   0.00   0.00
     4   7     0.02   0.01  -0.00     0.71  -0.05   0.00    -0.00  -0.00  -0.00
     5   8    -0.03  -0.01   0.00    -0.60  -0.07  -0.00     0.00   0.00  -0.00

 -------------------
 - Thermochemistry -
 -------------------
 Temperature   298.150 Kelvin.  Pressure   1.00000 Atm.
 Atom     1 has atomic number  1 and mass   1.00783
 Atom     2 has atomic number  8 and mass  15.99491
 Atom     3 has atomic number  8 and mass  15.99491
 Atom     4 has atomic number  7 and mass  14.00307
 Atom     5 has atomic number  8 and mass  15.99491
 Molecular mass:    62.99564 amu.
 Principal axes and moments of inertia in atomic units:
                           1         2         3
     Eigenvalues --    33.10578 362.05566 395.16144
           X            0.80751  -0.58985   0.00000
           Y            0.58985   0.80751   0.00000
           Z            0.00000  -0.00000   1.00000
 This molecule is an asymmetric top.
 Rotational symmetry number  1.
 Rotational temperatures (Kelvin)      2.61628     0.23923     0.21919
 Rotational constants (GHZ):          54.51438     4.98471     4.56710
    1 imaginary frequencies ignored.
 Zero-point vibrational energy      57226.1 (Joules/Mol)
                                   13.67737 (Kcal/Mol)
 Warning -- explicit consideration of   3 degrees of freedom as
           vibrations may cause significant error
 Vibrational temperatures:    335.69   486.00   620.69  1120.69  1389.30
          (Kelvin)           1970.10  2406.58  5436.37
 
 Zero-point correction=                           0.021796 (Hartree/Particle)
 Thermal correction to Energy=                    0.025932
 Thermal correction to Enthalpy=                  0.026876
 Thermal correction to Gibbs Free Energy=        -0.004342
 Sum of electronic and zero-point Energies=           -280.424915
 Sum of electronic and thermal Energies=              -280.420779
 Sum of electronic and thermal Enthalpies=            -280.419835
 Sum of electronic and thermal Free Energies=         -280.451053
 
                     E (Thermal)             CV                S
                      KCal/Mol        Cal/Mol-Kelvin    Cal/Mol-Kelvin
 Total                   16.272             12.014             65.704
 Electronic               0.000              0.000              0.000
 Translational            0.889              2.981             38.341
 Rotational               0.889              2.981             23.075
 Vibrational             14.495              6.052              4.289
 Vibration     1          0.654              1.790              1.853
 Vibration     2          0.718              1.600              1.223
 Vibration     3          0.792              1.402              0.854
                       Q            Log10(Q)             Ln(Q)
 Total Bot       0.993877D+02          1.997333          4.599028
 Total V=0       0.105418D+13         12.022914         27.683783
 Vib (Bot)       0.205277D-09         -9.687660        -22.306660
 Vib (Bot)    1  0.842922D+00         -0.074212         -0.170880
 Vib (Bot)    2  0.550472D+00         -0.259265         -0.596979
 Vib (Bot)    3  0.403447D+00         -0.394213         -0.907709
 Vib (V=0)       0.217732D+01          0.337922          0.778094
 Vib (V=0)    1  0.148006D+01          0.170279          0.392083
 Vib (V=0)    2  0.124365D+01          0.094699          0.218053
 Vib (V=0)    3  0.114247D+01          0.057845          0.133194
 Electronic      0.100000D+01          0.000000          0.000000
 Translational   0.196526D+08          7.293420         16.793719
 Rotational      0.246361D+05          4.391572         10.111969
 
                                                                title
                                                             IR Spectrum
 
     3                                                                      1         1                                              
     7                                                                      6         3             9     7           4  3   2       
     7                                                                      7         6             6     7           3  3   3       
     8                                                                      3         9             6     9           1  8   3       
 
     X                                                                      X         X             X     X           X  X   X       
     X                                                                      X         X             X     X           X              
     X                                                                      X         X                   X           X              
     X                                                                      X         X                   X           X              
     X                                                                      X         X                   X           X              
     X                                                                      X         X                   X           X              
     X                                                                      X         X                   X           X              
     X                                                                      X         X                   X           X              
                                                                            X         X                   X           X              
                                                                            X         X                   X           X              
                                                                            X         X                   X           X              
                                                                            X         X                   X           X              
                                                                            X         X                   X           X              
                                                                            X         X                   X           X              
                                                                                      X                   X           X              
                                                                                                          X           X              
                                                                                                                      X              
                                                                                                                      X              
                                                                                                                      X              
                                                                                                                      X              
 
 ***** Axes restored to original set *****
 -------------------------------------------------------------------
 Center     Atomic                   Forces (Hartrees/Bohr)
 Number     Number              X              Y              Z
 -------------------------------------------------------------------
      1        1           0.000090223    0.000000000    0.000068868
      2        8           0.000146896    0.000000000    0.000332743
      3        8           0.000491665    0.000000000    0.001856716
      4        7           0.001729923    0.000000000   -0.001320865
      5        8          -0.002458707   -0.000000000   -0.000937462
 -------------------------------------------------------------------
 Cartesian Forces:  Max     0.002458707 RMS     0.001016389
 -----------------------------------------------------------------------------------------------
                       Internal Coordinate Forces (Hartree/Bohr or radian)
  Cent   Atom   N1       Length/X         N2         Alpha/Y        N3         Beta/Z          J
 -----------------------------------------------------------------------------------------------
      1  H 
      2  O        1  -0.000069(     1)
      3  O        2  -0.000288(     2)      1  -0.000165(     5)
      4  N        3  -0.002310(     3)      2  -0.000843(     6)      1   0.000000(     8)     0
      5  O        4  -0.002614(     4)      3  -0.000659(     7)      2  -0.000000(     9)     0
 -----------------------------------------------------------------------------------------------
 Internal  Forces:  Max     0.002614428 RMS     0.001221760
 Force constants in Cartesian coordinates: 
                1             2             3             4             5 
      1  0.644771D-01
      2  0.000000D+00 -0.242000D-02
      3  0.525814D-02  0.000000D+00  0.512292D+00
      4 -0.355410D-01  0.000000D+00 -0.161786D-01  0.272255D+00
      5  0.000000D+00  0.311899D-02  0.000000D+00  0.000000D+00  0.191436D-02
      6  0.480477D-01  0.000000D+00 -0.508564D+00  0.332019D-01  0.000000D+00
      7 -0.186516D-01  0.000000D+00  0.124002D-01 -0.220586D+00  0.000000D+00
      8  0.000000D+00  0.104015D-02  0.000000D+00  0.000000D+00 -0.641102D-02
      9 -0.530841D-01  0.000000D+00 -0.526417D-03 -0.196467D-01  0.000000D+00
     10 -0.899503D-02  0.000000D+00 -0.482516D-02 -0.163773D-01  0.000000D+00
     11  0.000000D+00 -0.277074D-02  0.000000D+00  0.000000D+00 -0.480797D-02
     12  0.554153D-02  0.000000D+00 -0.454493D-02  0.116281D-01  0.000000D+00
     13 -0.128941D-02  0.000000D+00  0.334538D-02  0.249925D-03  0.000000D+00
     14  0.000000D+00  0.103160D-02  0.000000D+00  0.000000D+00  0.618564D-02
     15 -0.576332D-02  0.000000D+00  0.134359D-02 -0.900468D-02  0.000000D+00
                6             7             8             9            10 
      6  0.593481D+00
      7 -0.220876D-01  0.340047D+00
      8  0.000000D+00  0.000000D+00  0.464332D-02
      9 -0.780901D-01  0.350489D-01  0.000000D+00  0.172884D+00
     10 -0.509983D-01 -0.767753D-01  0.000000D+00  0.174033D+00  0.823086D+00
     11  0.000000D+00  0.000000D+00  0.786393D-02  0.000000D+00  0.000000D+00
     12  0.178384D-01  0.632101D-01  0.000000D+00 -0.754923D-01 -0.183713D-01
     13 -0.816368D-02 -0.240342D-01  0.000000D+00 -0.136351D+00 -0.720938D+00
     14  0.000000D+00  0.000000D+00 -0.713638D-02  0.000000D+00  0.000000D+00
     15 -0.246654D-01 -0.885717D-01  0.000000D+00 -0.187748D-01 -0.998385D-01
               11            12            13            14            15 
     11  0.101287D-01
     12  0.000000D+00  0.180016D+00
     13  0.000000D+00 -0.620084D-01  0.746012D+00
     14 -0.104139D-01  0.000000D+00  0.000000D+00  0.103331D-01
     15  0.000000D+00 -0.117817D+00  0.203178D+00  0.000000D+00  0.159914D+00
 Force constants in internal coordinates: 
                1             2             3             4             5 
      1  0.512292D+00
      2 -0.103319D-01  0.280985D+00
      3  0.331188D-02  0.175188D-02  0.108202D+00
      4 -0.357415D-02  0.601216D-02  0.150798D+00  0.807603D+00
      5  0.971845D-02  0.654208D-01  0.194877D-02  0.490575D-02  0.216061D+00
      6  0.440904D-02  0.577967D-01  0.389213D-01  0.218881D-01  0.306945D-01
      7 -0.104307D-02  0.370636D-01  0.297102D-01  0.827699D-01  0.213225D-01
      8  0.000000D+00  0.000000D+00  0.000000D+00  0.000000D+00  0.000000D+00
      9  0.000000D+00  0.000000D+00  0.000000D+00  0.000000D+00  0.000000D+00
                6             7             8             9 
      6  0.275917D+00
      7  0.963916D-01  0.475461D+00
      8  0.000000D+00  0.000000D+00 -0.807391D-02
      9  0.000000D+00  0.000000D+00 -0.391437D-02  0.402138D-01
 Leave Link  716 at Mon Feb 21 20:19:31 2022, MaxMem= 16106127360 cpu:               0.7 elap:               0.0
 (Enter /sw/contrib/gaussian/g16/B01/g16/l103.exe)

 GradGradGradGradGradGradGradGradGradGradGradGradGradGradGradGradGradGrad
 Berny optimization.
 Search for a local minimum.
 Step number   1 out of a maximum of    2
 All quantities printed in internal units (Hartrees-Bohrs-Radians)
 Second derivative matrix not updated -- analytic derivatives used.
 The second derivative matrix:
                          r1        r2        r3        r4        a1
           r1           0.51229
           r2          -0.01033   0.28099
           r3           0.00331   0.00175   0.10820
           r4          -0.00357   0.00601   0.15080   0.80760
           a1           0.00972   0.06542   0.00195   0.00491   0.21606
           a2           0.00441   0.05780   0.03892   0.02189   0.03069
           a3          -0.00104   0.03706   0.02971   0.08277   0.02132
           d1           0.00000  -0.00000  -0.00000  -0.00000  -0.00000
           d2          -0.00000   0.00000   0.00000   0.00000   0.00000
                          a2        a3        d1        d2
           a2           0.27592
           a3           0.09639   0.47546
           d1          -0.00000  -0.00000  -0.00807
           d2          -0.00000  -0.00000  -0.00391   0.04021
 ITU=  0
     Eigenvalues ---   -0.00839   0.04053   0.07103   0.17465   0.22018
     Eigenvalues ---    0.32222   0.51123   0.51318   0.86404
 Eigenvalue     1 is  -8.39D-03 should be greater than     0.000000 Eigenvector:
                          d1        d2        a3        a2        r3
   1                    0.99677   0.08028   0.00000   0.00000  -0.00000
                          r4        a1        r2        r1
   1                    0.00000  -0.00000   0.00000  -0.00000
 Angle between quadratic step and forces=  53.30 degrees.
 Linear search not attempted -- first point.
 Variable       Old X    -DE/DX   Delta X   Delta X   Delta X     New X
                                 (Linear)    (Quad)   (Total)
    r1        1.83110  -0.00007   0.00000   0.00001   0.00001   1.83110
    r2        2.74940  -0.00029   0.00000  -0.00088  -0.00088   2.74852
    r3        2.77642  -0.00231   0.00000  -0.02289  -0.02289   2.75353
    r4        2.21236  -0.00261   0.00000   0.00105   0.00105   2.21341
    a1        1.70335  -0.00017   0.00000  -0.00035  -0.00035   1.70300
    a2        1.78543  -0.00084   0.00000   0.00036   0.00036   1.78579
    a3        1.90362  -0.00066   0.00000  -0.00013  -0.00013   1.90350
    d1        3.14159   0.00000   0.00000  -0.00000   0.00000   3.14159
    d2        3.14159  -0.00000   0.00000  -0.00000   0.00000   3.14159
         Item               Value     Threshold  Converged?
 Maximum Force            0.002614     0.000450     NO 
 RMS     Force            0.001222     0.000300     NO 
 Maximum Displacement     0.022888     0.001800     NO 
 RMS     Displacement     0.007645     0.001200     NO 
 Predicted change in Energy=-2.511732D-05
                       ----------------------------
                       ! Non-Optimized Parameters !
                       ! (Angstroms and Degrees)  !
 ----------------------                            ----------------------
 !      Name          Value   Derivative information (Atomic Units)     !
 ------------------------------------------------------------------------
 !       r1          0.969    -DE/DX =   -0.0001                        !
 !       r2          1.4545   -DE/DX =   -0.0003                        !
 !       r3          1.4571   -DE/DX =   -0.0023                        !
 !       r4          1.1713   -DE/DX =   -0.0026                        !
 !       a1         97.5746   -DE/DX =   -0.0002                        !
 !       a2        102.318    -DE/DX =   -0.0008                        !
 !       a3        109.0623   -DE/DX =   -0.0007                        !
 !       d1        180.0      -DE/DX =    0.0                           !
 !       d2        180.0      -DE/DX =    0.0                           !
 ------------------------------------------------------------------------
 GradGradGradGradGradGradGradGradGradGradGradGradGradGradGradGradGradGrad

 Leave Link  103 at Mon Feb 21 20:19:31 2022, MaxMem= 16106127360 cpu:               0.6 elap:               0.0
 (Enter /sw/contrib/gaussian/g16/B01/g16/l9999.exe)

 ----------------------------------------------------------------------

 Electric dipole moment (input orientation):
 (Debye = 10**-18 statcoulomb cm , SI units = C m)
                  (au)            (Debye)         (10**-30 SI)
   Tot        0.542799D+00      0.137966D+01      0.460205D+01
   x         -0.130992D+00     -0.332948D+00     -0.111059D+01
   y          0.000000D+00      0.000000D+00      0.000000D+00
   z         -0.526757D+00     -0.133888D+01     -0.446603D+01

 Dipole polarizability, Alpha (input orientation).
 (esu units = cm**3 , SI units = C**2 m**2 J**-1)
 Alpha(0;0):
               (au)            (10**-24 esu)      (10**-40 SI)
   iso        0.274758D+02      0.407149D+01      0.453015D+01
   aniso      0.220322D+02      0.326483D+01      0.363262D+01
   xx         0.321255D+02      0.476051D+01      0.529678D+01
   yx         0.000000D+00      0.000000D+00      0.000000D+00
   yy         0.179631D+02      0.266186D+01      0.296172D+01
   zx         0.969154D+01      0.143614D+01      0.159792D+01
   zy         0.000000D+00      0.000000D+00      0.000000D+00
   zz         0.323388D+02      0.479212D+01      0.533195D+01

 ----------------------------------------------------------------------

 Dipole orientation:
     1          0.00000000          0.00000000         -0.00000000
     8         -0.44189177          0.00000000         -1.77697865
     8          2.11514486          0.00000000         -2.78730468
     7          1.66827063          0.00000000         -5.52752445
     8          3.61561844          0.00000000         -6.57745756

 Electric dipole moment (dipole orientation):
 (Debye = 10**-18 statcoulomb cm , SI units = C m)
                  (au)            (Debye)         (10**-30 SI)
   Tot        0.542799D+00      0.137966D+01      0.460205D+01
   x          0.000000D+00      0.000000D+00      0.000000D+00
   y          0.000000D+00      0.000000D+00      0.000000D+00
   z          0.542799D+00      0.137966D+01      0.460205D+01

 Dipole polarizability, Alpha (dipole orientation).
 (esu units = cm**3 , SI units = C**2 m**2 J**-1)
 Alpha(0;0):
               (au)            (10**-24 esu)      (10**-40 SI)
   iso        0.274758D+02      0.407149D+01      0.453015D+01
   aniso      0.220322D+02      0.326483D+01      0.363262D+01
   xx         0.275985D+02      0.408968D+01      0.455038D+01
   yx         0.000000D+00      0.000000D+00      0.000000D+00
   yy         0.179631D+02      0.266186D+01      0.296172D+01
   zx        -0.851275D+01     -0.126146D+01     -0.140356D+01
   zy         0.000000D+00      0.000000D+00      0.000000D+00
   zz         0.368658D+02      0.546294D+01      0.607835D+01

 ----------------------------------------------------------------------
 1\1\GINC-N2108\Freq\RMP2-FC\Aug-CC-pVTZ\H1N1O3\CGAVINH\21-Feb-2022\1\\
 #p freq mp2/aug-cc-pvtz density=current\\title\\0,1\H\O,1,r1\O,2,r2,1,
 a1\N,3,r3,2,a2,1,d1,0\O,4,r4,3,a3,2,d2,0\\r1=0.96897556\r2=1.45491931\
 r3=1.46921752\r4=1.17072885\a1=97.59494903\a2=102.29752444\a3=109.0695
 5123\d1=180.\d2=180.\\Version=ES64L-G16RevB.01\State=1-A'\HF=-279.5006
 537\MP2=-280.4467108\RMSD=3.939e-09\RMSF=1.016e-03\ZeroPoint=0.0217963
 \Thermal=0.0259318\Dipole=-0.1309917,0.,-0.5267565\DipoleDeriv=0.26546
 31,0.,0.0473032,0.,0.3552449,0.,0.0821433,0.,0.2756329,-0.3300153,0.,-
 0.2063477,0.,-0.3153431,0.,-0.1118796,0.,-0.2262408,-0.0530521,0.,0.14
 34764,0.,-0.0930366,0.,-0.7475359,0.,-1.3565014,0.906898,0.,0.9254758,
 0.,0.069159,0.,0.918047,0.,1.6706607,-0.7892937,0.,-0.9099077,0.,-0.01
 60242,0.,-0.1407748,0.,-0.3635513\Polar=32.1255039,0.,17.9631164,9.691
 541,0.,32.3388087\Quadrupole=-1.5093483,-0.7504562,2.2598045,0.,2.1118
 065,0.\PG=CS [SG(H1N1O3)]\NImag=1\\0.06447709,0.,-0.00242000,0.0052581
 4,0.,0.51229186,-0.03554101,0.,-0.01617856,0.27225460,0.,0.00311899,0.
 ,0.,0.00191436,0.04804774,0.,-0.50856410,0.03320186,0.,0.59348124,-0.0
 1865164,0.,0.01240019,-0.22058625,0.,-0.02208758,0.34004743,0.,0.00104
 015,0.,0.,-0.00641102,0.,0.,0.00464332,-0.05308410,0.,-0.00052642,-0.0
 1964669,0.,-0.07809011,0.03504890,0.,0.17288361,-0.00899503,0.,-0.0048
 2516,-0.01637726,0.,-0.05099834,-0.07677530,0.,0.17403332,0.82308560,0
 .,-0.00277074,0.,0.,-0.00480797,0.,0.,0.00786393,0.,0.,0.01012870,0.00
 554153,0.,-0.00454493,0.01162807,0.,0.01783837,0.06321015,0.,-0.075492
 25,-0.01837133,0.,0.18001615,-0.00128941,0.,0.00334538,0.00024992,0.,-
 0.00816368,-0.02403423,0.,-0.13635144,-0.72093801,0.,-0.06200841,0.746
 01172,0.,0.00103160,0.,0.,0.00618564,0.,0.,-0.00713638,0.,0.,-0.010413
 92,0.,0.,0.01033306,-0.00576332,0.,0.00134359,-0.00900468,0.,-0.024665
 39,-0.08857165,0.,-0.01877483,-0.09983850,0.,-0.11781734,0.20317815,0.
 ,0.15991397\\-0.00009022,0.,-0.00006887,-0.00014690,0.,-0.00033274,-0.
 00049167,0.,-0.00185672,-0.00172992,0.,0.00132086,0.00245871,0.,0.0009
 3746\\\@


 MICRO CREDO - NEVER TRUST A COMPUTER BIGGER
               BIGGER THAN YOU CAN LIFT.
 Job cpu time:       0 days  2 hours  0 minutes 10.1 seconds.
 Elapsed time:       0 days  0 hours  4 minutes 20.8 seconds.
 File lengths (MBytes):  RWF=   7239 Int=      0 D2E=      0 Chk=      8 Scr=      1
 Normal termination of Gaussian 16 at Mon Feb 21 20:19:32 2022.
