 Entering Gaussian System, Link 0=g16
 Input=hoono_a3_108p2822.gjf
 Output=hoono_a3_108p2822.log
 Initial command:
 /sw/contrib/gaussian/g16/B01/g16/l1.exe "/scr/Gau-412.inp" -scrdir="/scr/"
 Entering Link 1 = /sw/contrib/gaussian/g16/B01/g16/l1.exe PID=       413.
  
 Copyright (c) 1988-2017, Gaussian, Inc.  All Rights Reserved.
  
 This is part of the Gaussian(R) 16 program.  It is based on
 the Gaussian(R) 09 system (copyright 2009, Gaussian, Inc.),
 the Gaussian(R) 03 system (copyright 2003, Gaussian, Inc.),
 the Gaussian(R) 98 system (copyright 1998, Gaussian, Inc.),
 the Gaussian(R) 94 system (copyright 1995, Gaussian, Inc.),
 the Gaussian 92(TM) system (copyright 1992, Gaussian, Inc.),
 the Gaussian 90(TM) system (copyright 1990, Gaussian, Inc.),
 the Gaussian 88(TM) system (copyright 1988, Gaussian, Inc.),
 the Gaussian 86(TM) system (copyright 1986, Carnegie Mellon
 University), and the Gaussian 82(TM) system (copyright 1983,
 Carnegie Mellon University). Gaussian is a federally registered
 trademark of Gaussian, Inc.
  
 This software contains proprietary and confidential information,
 including trade secrets, belonging to Gaussian, Inc.
  
 This software is provided under written license and may be
 used, copied, transmitted, or stored only in accord with that
 written license.
  
 The following legend is applicable only to US Government
 contracts under FAR:
  
                    RESTRICTED RIGHTS LEGEND
  
 Use, reproduction and disclosure by the US Government is
 subject to restrictions as set forth in subparagraphs (a)
 and (c) of the Commercial Computer Software - Restricted
 Rights clause in FAR 52.227-19.
  
 Gaussian, Inc.
 340 Quinnipiac St., Bldg. 40, Wallingford CT 06492
  
  
 ---------------------------------------------------------------
 Warning -- This program may not be used in any manner that
 competes with the business of Gaussian, Inc. or will provide
 assistance to any competitor of Gaussian, Inc.  The licensee
 of this program is prohibited from giving any competitor of
 Gaussian, Inc. access to this program.  By using this program,
 the user acknowledges that Gaussian, Inc. is engaged in the
 business of creating and licensing software in the field of
 computational chemistry and represents and warrants to the
 licensee that it is not a competitor of Gaussian, Inc. and that
 it will not use this program in any manner prohibited above.
 ---------------------------------------------------------------
  

 Cite this work as:
 Gaussian 16, Revision B.01,
 M. J. Frisch, G. W. Trucks, H. B. Schlegel, G. E. Scuseria, 
 M. A. Robb, J. R. Cheeseman, G. Scalmani, V. Barone, 
 G. A. Petersson, H. Nakatsuji, X. Li, M. Caricato, A. V. Marenich, 
 J. Bloino, B. G. Janesko, R. Gomperts, B. Mennucci, H. P. Hratchian, 
 J. V. Ortiz, A. F. Izmaylov, J. L. Sonnenberg, D. Williams-Young, 
 F. Ding, F. Lipparini, F. Egidi, J. Goings, B. Peng, A. Petrone, 
 T. Henderson, D. Ranasinghe, V. G. Zakrzewski, J. Gao, N. Rega, 
 G. Zheng, W. Liang, M. Hada, M. Ehara, K. Toyota, R. Fukuda, 
 J. Hasegawa, M. Ishida, T. Nakajima, Y. Honda, O. Kitao, H. Nakai, 
 T. Vreven, K. Throssell, J. A. Montgomery, Jr., J. E. Peralta, 
 F. Ogliaro, M. J. Bearpark, J. J. Heyd, E. N. Brothers, K. N. Kudin, 
 V. N. Staroverov, T. A. Keith, R. Kobayashi, J. Normand, 
 K. Raghavachari, A. P. Rendell, J. C. Burant, S. S. Iyengar, 
 J. Tomasi, M. Cossi, J. M. Millam, M. Klene, C. Adamo, R. Cammi, 
 J. W. Ochterski, R. L. Martin, K. Morokuma, O. Farkas, 
 J. B. Foresman, and D. J. Fox, Gaussian, Inc., Wallingford CT, 2016.
 
 ******************************************
 Gaussian 16:  ES64L-G16RevB.01 20-Dec-2017
                21-Feb-2022 
 ******************************************
 %nproc=28
 Will use up to   28 processors via shared memory.
 %mem=120GB
 %chk=hoono_a3_108p2822.chk
 ---------------------------------------
 #p freq mp2/aug-cc-pvtz density=current
 ---------------------------------------
 1/10=4,30=1,38=1/1,3;
 2/12=2,17=6,18=5,40=1/2;
 3/5=16,6=1,7=10,11=9,25=1,30=1,71=2,140=1/1,2,3;
 4//1;
 5/5=2,38=5,98=1/2;
 8/6=3,8=1,10=1,19=11,30=-1/1;
 9/15=3,16=-3/6;
 11/6=1,8=1,15=11,17=12,24=-1,27=1,28=-2,29=300,32=6,42=3/1,2,10;
 10/6=2,21=1/2;
 8/6=4,8=1,10=1,19=11,30=-1/11,4;
 10/5=1,20=4/2;
 11/12=2,14=11,16=1,17=2,28=-2,42=3,76=2/2,10,12;
 6/7=2,8=2,9=2,10=2,22=-1/1;
 7/8=1,10=1,12=2,25=1,44=2/1,2,3,16;
 1/10=4,30=1/3;
 99//99;
 Leave Link    1 at Mon Feb 21 20:51:25 2022, MaxMem= 16106127360 cpu:               2.3 elap:               0.1
 (Enter /sw/contrib/gaussian/g16/B01/g16/l101.exe)
 -----
 title
 -----
 Symbolic Z-matrix:
 Charge =  0 Multiplicity = 1
 H
 O                    1    r1
 O                    2    r2       1    a1
 N                    3    r3       2    a2       1    d1       0
 O                    4    r4       3    a3       2    d2       0
       Variables:
  r1                    0.96898                  
  r2                    1.45492                  
  r3                    1.45878                  
  r4                    1.17073                  
  a1                   97.59495                  
  a2                  102.29752                  
  a3                  108.28229                  
  d1                  180.                       
  d2                  180.                       
 
 ITRead=  0  0  0  0  0
 MicOpt= -1 -1 -1 -1 -1
 NAtoms=      5 NQM=        5 NQMF=       0 NMMI=      0 NMMIF=      0
                NMic=       0 NMicF=      0.
                    Isotopes and Nuclear Properties:
 (Nuclear quadrupole moments (NQMom) in fm**2, nuclear magnetic moments (NMagM)
  in nuclear magnetons)

  Atom         1           2           3           4           5
 IAtWgt=           1          16          16          14          16
 AtmWgt=   1.0078250  15.9949146  15.9949146  14.0030740  15.9949146
 NucSpn=           1           0           0           2           0
 AtZEff=  -0.0000000  -0.0000000  -0.0000000  -0.0000000  -0.0000000
 NQMom=    0.0000000   0.0000000   0.0000000   2.0440000   0.0000000
 NMagM=    2.7928460   0.0000000   0.0000000   0.4037610   0.0000000
 AtZNuc=   1.0000000   8.0000000   8.0000000   7.0000000   8.0000000
 Leave Link  101 at Mon Feb 21 20:51:25 2022, MaxMem= 16106127360 cpu:               3.8 elap:               0.4
 (Enter /sw/contrib/gaussian/g16/B01/g16/l103.exe)

 GradGradGradGradGradGradGradGradGradGradGradGradGradGradGradGradGradGrad
 Berny optimization.
 Initialization pass.
                       ----------------------------
                       !    Initial Parameters    !
                       ! (Angstroms and Degrees)  !
 ----------------------                            ----------------------
 !      Name          Value   Derivative information (Atomic Units)     !
 ------------------------------------------------------------------------
 !       r1          0.969    calculate D2E/DX2 analytically            !
 !       r2          1.4549   calculate D2E/DX2 analytically            !
 !       r3          1.4588   calculate D2E/DX2 analytically            !
 !       r4          1.1707   calculate D2E/DX2 analytically            !
 !       a1         97.5949   calculate D2E/DX2 analytically            !
 !       a2        102.2975   calculate D2E/DX2 analytically            !
 !       a3        108.2823   calculate D2E/DX2 analytically            !
 !       d1        180.0      calculate D2E/DX2 analytically            !
 !       d2        180.0      calculate D2E/DX2 analytically            !
 ------------------------------------------------------------------------
 Trust Radius=3.00D-01 FncErr=1.00D-07 GrdErr=1.00D-07 EigMax=2.50D+02 EigMin=1.00D-04
 Number of steps in this run=      2 maximum allowed number of steps=      2.
 GradGradGradGradGradGradGradGradGradGradGradGradGradGradGradGradGradGrad

 Leave Link  103 at Mon Feb 21 20:51:25 2022, MaxMem= 16106127360 cpu:               0.6 elap:               0.0
 (Enter /sw/contrib/gaussian/g16/B01/g16/l202.exe)
                          Input orientation:                          
 ---------------------------------------------------------------------
 Center     Atomic      Atomic             Coordinates (Angstroms)
 Number     Number       Type             X           Y           Z
 ---------------------------------------------------------------------
      1          1           0        0.000000    0.000000    0.000000
      2          8           0        0.000000    0.000000    0.968976
      3          8           0        1.442156    0.000000    1.161271
      4          7           0        1.561752    0.000000    2.615144
      5          8           0        2.699752    0.000000    2.890029
 ---------------------------------------------------------------------
                    Distance matrix (angstroms):
                    1          2          3          4          5
     1  H    0.000000
     2  O    0.968976   0.000000
     3  O    1.851584   1.454919   0.000000
     4  N    3.045989   2.269127   1.458784   0.000000
     5  O    3.954861   3.313473   2.137792   1.170729   0.000000
 Stoichiometry    HNO3
 Framework group  CS[SG(HNO3)]
 Deg. of freedom     7
 Full point group                 CS      NOp   2
 Largest Abelian subgroup         CS      NOp   2
 Largest concise Abelian subgroup C1      NOp   1
                         Standard orientation:                         
 ---------------------------------------------------------------------
 Center     Atomic      Atomic             Coordinates (Angstroms)
 Number     Number       Type             X           Y           Z
 ---------------------------------------------------------------------
      1          1           0        1.548227    1.684588    0.000000
      2          8           0        1.454019    0.720203    0.000000
      3          8           0       -0.000000    0.669030    0.000000
      4          7           0       -0.260380   -0.766328   -0.000000
      5          8           0       -1.419715   -0.929270   -0.000000
 ---------------------------------------------------------------------
 Rotational constants (GHZ):          54.7390886           5.0307869           4.6073493
 Leave Link  202 at Mon Feb 21 20:51:25 2022, MaxMem= 16106127360 cpu:               0.4 elap:               0.0
 (Enter /sw/contrib/gaussian/g16/B01/g16/l301.exe)
 Standard basis: Aug-CC-pVTZ (5D, 7F)
 Ernie: Thresh=  0.10000D-02 Tol=  0.10000D-05 Strict=F.
 Ernie:  12 primitive shells out of 131 were deleted.
 There are   166 symmetry adapted cartesian basis functions of A'  symmetry.
 There are    79 symmetry adapted cartesian basis functions of A"  symmetry.
 There are   136 symmetry adapted basis functions of A'  symmetry.
 There are    71 symmetry adapted basis functions of A"  symmetry.
   207 basis functions,   315 primitive gaussians,   245 cartesian basis functions
    16 alpha electrons       16 beta electrons
       nuclear repulsion energy       116.9691111629 Hartrees.
 IExCor=    0 DFT=F Ex=HF Corr=None ExCW=0 ScaHFX=  1.000000
 ScaDFX=  1.000000  1.000000  1.000000  1.000000 ScalE2=  1.000000  1.000000
 IRadAn=      5 IRanWt=     -1 IRanGd=            0 ICorTp=0 IEmpDi=  4
 NAtoms=    5 NActive=    5 NUniq=    5 SFac= 1.00D+00 NAtFMM=   60 NAOKFM=F Big=F
 Integral buffers will be    131072 words long.
 Raffenetti 1 integral format.
 Two-electron integral symmetry is turned on.
 Leave Link  301 at Mon Feb 21 20:51:25 2022, MaxMem= 16106127360 cpu:               1.9 elap:               0.1
 (Enter /sw/contrib/gaussian/g16/B01/g16/l302.exe)
 NPDir=0 NMtPBC=     1 NCelOv=     1 NCel=       1 NClECP=     1 NCelD=      1
         NCelK=      1 NCelE2=     1 NClLst=     1 CellRange=     0.0.
 One-electron integrals computed using PRISM.
 One-electron integral symmetry used in STVInt
 NBasis=   207 RedAO= T EigKep=  1.82D-04  NBF=   136    71
 NBsUse=   207 1.00D-06 EigRej= -1.00D+00 NBFU=   136    71
 Leave Link  302 at Mon Feb 21 20:51:25 2022, MaxMem= 16106127360 cpu:               4.3 elap:               0.2
 (Enter /sw/contrib/gaussian/g16/B01/g16/l303.exe)
 DipDrv:  MaxL=1.
 Leave Link  303 at Mon Feb 21 20:51:25 2022, MaxMem= 16106127360 cpu:               1.7 elap:               0.1
 (Enter /sw/contrib/gaussian/g16/B01/g16/l401.exe)
 ExpMin= 2.53D-02 ExpMax= 1.53D+04 ExpMxC= 5.22D+02 IAcc=3 IRadAn=         5 AccDes= 0.00D+00
 Harris functional with IExCor=  205 and IRadAn=       5 diagonalized for initial guess.
 HarFok:  IExCor=  205 AccDes= 0.00D+00 IRadAn=         5 IDoV= 1 UseB2=F ITyADJ=14
 ICtDFT=  3500011 ScaDFX=  1.000000  1.000000  1.000000  1.000000
 FoFCou: FMM=F IPFlag=           0 FMFlag=      100000 FMFlg1=           0
         NFxFlg=           0 DoJE=T BraDBF=F KetDBF=T FulRan=T
         wScrn=  0.000000 ICntrl=       500 IOpCl=  0 I1Cent=   200000004 NGrid=           0
         NMat0=    1 NMatS0=      1 NMatT0=    0 NMatD0=    1 NMtDS0=    0 NMtDT0=    0
 Petite list used in FoFCou.
 Harris En= -279.628676804372    
 JPrj=0 DoOrth=F DoCkMO=F.
 Initial guess orbital symmetries:
       Occupied  (A') (A') (A') (A') (A') (A') (A') (A') (A') (A')
                 (A") (A') (A') (A") (A") (A')
       Virtual   (A") (A') (A') (A') (A') (A') (A") (A') (A') (A')
                 (A") (A') (A") (A') (A') (A") (A') (A") (A') (A')
                 (A') (A') (A') (A') (A') (A") (A') (A") (A') (A')
                 (A") (A') (A") (A') (A') (A") (A') (A") (A') (A')
                 (A") (A') (A") (A') (A") (A') (A') (A') (A") (A")
                 (A') (A') (A') (A') (A") (A') (A") (A') (A") (A')
                 (A') (A') (A") (A') (A') (A") (A') (A") (A') (A')
                 (A") (A') (A') (A") (A") (A') (A') (A") (A') (A')
                 (A') (A") (A') (A") (A') (A") (A') (A") (A') (A')
                 (A') (A") (A') (A") (A') (A") (A") (A') (A') (A')
                 (A") (A') (A") (A') (A') (A') (A") (A') (A") (A')
                 (A") (A') (A') (A') (A") (A') (A') (A') (A") (A')
                 (A") (A') (A') (A") (A") (A') (A') (A") (A") (A')
                 (A') (A') (A') (A") (A") (A') (A") (A') (A') (A')
                 (A') (A") (A") (A') (A') (A") (A') (A') (A') (A')
                 (A") (A') (A') (A") (A') (A") (A') (A") (A') (A")
                 (A') (A") (A') (A") (A') (A") (A") (A") (A') (A')
                 (A") (A') (A") (A') (A") (A') (A") (A") (A') (A')
                 (A') (A') (A') (A') (A') (A') (A') (A') (A') (A')
                 (A')
 The electronic state of the initial guess is 1-A'.
 Leave Link  401 at Mon Feb 21 20:51:26 2022, MaxMem= 16106127360 cpu:               6.2 elap:               0.3
 (Enter /sw/contrib/gaussian/g16/B01/g16/l502.exe)
 Keep R1 ints in memory in symmetry-blocked form, NReq=348887737.
 FoFCou: FMM=F IPFlag=           0 FMFlag=           0 FMFlg1=           0
         NFxFlg=           0 DoJE=F BraDBF=F KetDBF=F FulRan=T
         wScrn=  0.000000 ICntrl=       600 IOpCl=  0 I1Cent=           0 NGrid=           0
         NMat0=    1 NMatS0=  21528 NMatT0=    0 NMatD0=    1 NMtDS0=    0 NMtDT0=    0
 Petite list used in FoFCou.
 Closed shell SCF:
 Using DIIS extrapolation, IDIIS=  1040.
 NGot= 16106127360 LenX= 15988850015 LenY= 15988789549
 Requested convergence on RMS density matrix=1.00D-08 within 128 cycles.
 Requested convergence on MAX density matrix=1.00D-06.
 Requested convergence on             energy=1.00D-06.
 No special actions if energy rises.

 Cycle   1  Pass 1  IDiag  1:
 E= -279.370196269904    
 DIIS: error= 2.57D-02 at cycle   1 NSaved=   1.
 NSaved= 1 IEnMin= 1 EnMin= -279.370196269904     IErMin= 1 ErrMin= 2.57D-02
 ErrMax= 2.57D-02  0.00D+00 EMaxC= 1.00D-01 BMatC= 4.39D-01 BMatP= 4.39D-01
 IDIUse=3 WtCom= 7.43D-01 WtEn= 2.57D-01
 Coeff-Com:  0.100D+01
 Coeff-En:   0.100D+01
 Coeff:      0.100D+01
 Gap=     0.512 Goal=   None    Shift=    0.000
 GapD=    0.512 DampG=2.000 DampE=0.500 DampFc=1.0000 IDamp=-1.
 RMSDP=1.63D-03 MaxDP=1.00D-01              OVMax= 1.13D-01

 Cycle   2  Pass 1  IDiag  1:
 E= -279.452328351551     Delta-E=       -0.082132081646 Rises=F Damp=F
 DIIS: error= 1.80D-02 at cycle   2 NSaved=   2.
 NSaved= 2 IEnMin= 2 EnMin= -279.452328351551     IErMin= 2 ErrMin= 1.80D-02
 ErrMax= 1.80D-02  0.00D+00 EMaxC= 1.00D-01 BMatC= 7.20D-02 BMatP= 4.39D-01
 IDIUse=3 WtCom= 8.20D-01 WtEn= 1.80D-01
 Coeff-Com:  0.195D+00 0.805D+00
 Coeff-En:   0.000D+00 0.100D+01
 Coeff:      0.160D+00 0.840D+00
 Gap=     0.531 Goal=   None    Shift=    0.000
 RMSDP=9.00D-04 MaxDP=3.75D-02 DE=-8.21D-02 OVMax= 6.95D-02

 Cycle   3  Pass 1  IDiag  1:
 E= -279.481612403464     Delta-E=       -0.029284051913 Rises=F Damp=F
 DIIS: error= 1.05D-02 at cycle   3 NSaved=   3.
 NSaved= 3 IEnMin= 3 EnMin= -279.481612403464     IErMin= 3 ErrMin= 1.05D-02
 ErrMax= 1.05D-02  0.00D+00 EMaxC= 1.00D-01 BMatC= 2.86D-02 BMatP= 7.20D-02
 IDIUse=3 WtCom= 8.95D-01 WtEn= 1.05D-01
 Coeff-Com: -0.330D-01 0.377D+00 0.656D+00
 Coeff-En:   0.000D+00 0.239D+00 0.761D+00
 Coeff:     -0.295D-01 0.363D+00 0.667D+00
 Gap=     0.511 Goal=   None    Shift=    0.000
 RMSDP=3.76D-04 MaxDP=1.55D-02 DE=-2.93D-02 OVMax= 3.81D-02

 Cycle   4  Pass 1  IDiag  1:
 E= -279.500613692329     Delta-E=       -0.019001288865 Rises=F Damp=F
 DIIS: error= 1.28D-03 at cycle   4 NSaved=   4.
 NSaved= 4 IEnMin= 4 EnMin= -279.500613692329     IErMin= 4 ErrMin= 1.28D-03
 ErrMax= 1.28D-03  0.00D+00 EMaxC= 1.00D-01 BMatC= 4.96D-04 BMatP= 2.86D-02
 IDIUse=3 WtCom= 9.87D-01 WtEn= 1.28D-02
 Coeff-Com: -0.117D-01 0.573D-01 0.159D+00 0.795D+00
 Coeff-En:   0.000D+00 0.000D+00 0.000D+00 0.100D+01
 Coeff:     -0.115D-01 0.566D-01 0.157D+00 0.798D+00
 Gap=     0.503 Goal=   None    Shift=    0.000
 RMSDP=9.01D-05 MaxDP=2.76D-03 DE=-1.90D-02 OVMax= 1.12D-02

 Cycle   5  Pass 1  IDiag  1:
 E= -279.501291345714     Delta-E=       -0.000677653385 Rises=F Damp=F
 DIIS: error= 7.34D-04 at cycle   5 NSaved=   5.
 NSaved= 5 IEnMin= 5 EnMin= -279.501291345714     IErMin= 5 ErrMin= 7.34D-04
 ErrMax= 7.34D-04  0.00D+00 EMaxC= 1.00D-01 BMatC= 8.71D-05 BMatP= 4.96D-04
 IDIUse=3 WtCom= 9.93D-01 WtEn= 7.34D-03
 Coeff-Com:  0.616D-02-0.725D-01-0.118D+00 0.182D-01 0.117D+01
 Coeff-En:   0.000D+00 0.000D+00 0.000D+00 0.000D+00 0.100D+01
 Coeff:      0.611D-02-0.720D-01-0.118D+00 0.181D-01 0.117D+01
 Gap=     0.503 Goal=   None    Shift=    0.000
 RMSDP=7.65D-05 MaxDP=2.11D-03 DE=-6.78D-04 OVMax= 1.11D-02

 Cycle   6  Pass 1  IDiag  1:
 E= -279.501607264273     Delta-E=       -0.000315918558 Rises=F Damp=F
 DIIS: error= 2.80D-04 at cycle   6 NSaved=   6.
 NSaved= 6 IEnMin= 6 EnMin= -279.501607264273     IErMin= 6 ErrMin= 2.80D-04
 ErrMax= 2.80D-04  0.00D+00 EMaxC= 1.00D-01 BMatC= 1.67D-05 BMatP= 8.71D-05
 IDIUse=3 WtCom= 9.97D-01 WtEn= 2.80D-03
 Coeff-Com:  0.572D-03 0.188D-02 0.499D-02-0.129D+00-0.234D+00 0.136D+01
 Coeff-En:   0.000D+00 0.000D+00 0.000D+00 0.000D+00 0.000D+00 0.100D+01
 Coeff:      0.570D-03 0.187D-02 0.498D-02-0.129D+00-0.233D+00 0.135D+01
 Gap=     0.503 Goal=   None    Shift=    0.000
 RMSDP=4.52D-05 MaxDP=1.24D-03 DE=-3.16D-04 OVMax= 5.56D-03

 Cycle   7  Pass 1  IDiag  1:
 E= -279.501679809760     Delta-E=       -0.000072545487 Rises=F Damp=F
 DIIS: error= 1.23D-04 at cycle   7 NSaved=   7.
 NSaved= 7 IEnMin= 7 EnMin= -279.501679809760     IErMin= 7 ErrMin= 1.23D-04
 ErrMax= 1.23D-04  0.00D+00 EMaxC= 1.00D-01 BMatC= 4.45D-06 BMatP= 1.67D-05
 IDIUse=3 WtCom= 9.99D-01 WtEn= 1.23D-03
 Coeff-Com: -0.940D-03 0.135D-01 0.265D-01-0.236D-01-0.285D+00 0.386D+00
 Coeff-Com:  0.884D+00
 Coeff-En:   0.000D+00 0.000D+00 0.000D+00 0.000D+00 0.000D+00 0.000D+00
 Coeff-En:   0.100D+01
 Coeff:     -0.939D-03 0.135D-01 0.264D-01-0.236D-01-0.285D+00 0.386D+00
 Coeff:      0.884D+00
 Gap=     0.503 Goal=   None    Shift=    0.000
 RMSDP=1.32D-05 MaxDP=3.74D-04 DE=-7.25D-05 OVMax= 1.55D-03

 Cycle   8  Pass 1  IDiag  1:
 E= -279.501688603530     Delta-E=       -0.000008793770 Rises=F Damp=F
 DIIS: error= 5.65D-05 at cycle   8 NSaved=   8.
 NSaved= 8 IEnMin= 8 EnMin= -279.501688603530     IErMin= 8 ErrMin= 5.65D-05
 ErrMax= 5.65D-05  0.00D+00 EMaxC= 1.00D-01 BMatC= 6.07D-07 BMatP= 4.45D-06
 IDIUse=1 WtCom= 1.00D+00 WtEn= 0.00D+00
 Coeff-Com: -0.448D-03 0.343D-02 0.760D-02 0.273D-01-0.405D-01-0.198D+00
 Coeff-Com:  0.177D+00 0.102D+01
 Coeff:     -0.448D-03 0.343D-02 0.760D-02 0.273D-01-0.405D-01-0.198D+00
 Coeff:      0.177D+00 0.102D+01
 Gap=     0.503 Goal=   None    Shift=    0.000
 RMSDP=6.85D-06 MaxDP=2.03D-04 DE=-8.79D-06 OVMax= 7.37D-04

 Cycle   9  Pass 1  IDiag  1:
 E= -279.501690363943     Delta-E=       -0.000001760414 Rises=F Damp=F
 DIIS: error= 1.61D-05 at cycle   9 NSaved=   9.
 NSaved= 9 IEnMin= 9 EnMin= -279.501690363943     IErMin= 9 ErrMin= 1.61D-05
 ErrMax= 1.61D-05  0.00D+00 EMaxC= 1.00D-01 BMatC= 6.96D-08 BMatP= 6.07D-07
 IDIUse=1 WtCom= 1.00D+00 WtEn= 0.00D+00
 Coeff-Com:  0.124D-03-0.173D-02-0.310D-02-0.210D-02 0.343D-01 0.959D-04
 Coeff-Com: -0.169D+00-0.101D+00 0.124D+01
 Coeff:      0.124D-03-0.173D-02-0.310D-02-0.210D-02 0.343D-01 0.959D-04
 Coeff:     -0.169D+00-0.101D+00 0.124D+01
 Gap=     0.503 Goal=   None    Shift=    0.000
 RMSDP=1.93D-06 MaxDP=6.66D-05 DE=-1.76D-06 OVMax= 1.75D-04

 Cycle  10  Pass 1  IDiag  1:
 E= -279.501690524015     Delta-E=       -0.000000160072 Rises=F Damp=F
 DIIS: error= 4.16D-06 at cycle  10 NSaved=  10.
 NSaved=10 IEnMin=10 EnMin= -279.501690524015     IErMin=10 ErrMin= 4.16D-06
 ErrMax= 4.16D-06  0.00D+00 EMaxC= 1.00D-01 BMatC= 5.50D-09 BMatP= 6.96D-08
 IDIUse=1 WtCom= 1.00D+00 WtEn= 0.00D+00
 Coeff-Com:  0.306D-04-0.238D-03-0.318D-03-0.268D-02 0.157D-02 0.196D-01
 Coeff-Com: -0.132D-01-0.735D-01-0.806D-01 0.115D+01
 Coeff:      0.306D-04-0.238D-03-0.318D-03-0.268D-02 0.157D-02 0.196D-01
 Coeff:     -0.132D-01-0.735D-01-0.806D-01 0.115D+01
 Gap=     0.503 Goal=   None    Shift=    0.000
 RMSDP=4.99D-07 MaxDP=2.10D-05 DE=-1.60D-07 OVMax= 4.14D-05

 Cycle  11  Pass 1  IDiag  1:
 E= -279.501690536413     Delta-E=       -0.000000012398 Rises=F Damp=F
 DIIS: error= 2.02D-06 at cycle  11 NSaved=  11.
 NSaved=11 IEnMin=11 EnMin= -279.501690536413     IErMin=11 ErrMin= 2.02D-06
 ErrMax= 2.02D-06  0.00D+00 EMaxC= 1.00D-01 BMatC= 6.55D-10 BMatP= 5.50D-09
 IDIUse=1 WtCom= 1.00D+00 WtEn= 0.00D+00
 Coeff-Com: -0.213D-04 0.244D-03 0.488D-03 0.526D-03-0.428D-02-0.354D-02
 Coeff-Com:  0.213D-01 0.304D-01-0.139D+00-0.176D+00 0.127D+01
 Coeff:     -0.213D-04 0.244D-03 0.488D-03 0.526D-03-0.428D-02-0.354D-02
 Coeff:      0.213D-01 0.304D-01-0.139D+00-0.176D+00 0.127D+01
 Gap=     0.503 Goal=   None    Shift=    0.000
 RMSDP=1.76D-07 MaxDP=6.38D-06 DE=-1.24D-08 OVMax= 1.74D-05

 Cycle  12  Pass 1  IDiag  1:
 E= -279.501690538201     Delta-E=       -0.000000001788 Rises=F Damp=F
 DIIS: error= 5.81D-07 at cycle  12 NSaved=  12.
 NSaved=12 IEnMin=12 EnMin= -279.501690538201     IErMin=12 ErrMin= 5.81D-07
 ErrMax= 5.81D-07  0.00D+00 EMaxC= 1.00D-01 BMatC= 7.15D-11 BMatP= 6.55D-10
 IDIUse=1 WtCom= 1.00D+00 WtEn= 0.00D+00
 Coeff-Com:  0.124D-05-0.291D-04-0.631D-04 0.182D-03 0.108D-02-0.232D-02
 Coeff-Com: -0.409D-02 0.555D-02 0.415D-01-0.115D+00-0.278D+00 0.135D+01
 Coeff:      0.124D-05-0.291D-04-0.631D-04 0.182D-03 0.108D-02-0.232D-02
 Coeff:     -0.409D-02 0.555D-02 0.415D-01-0.115D+00-0.278D+00 0.135D+01
 Gap=     0.503 Goal=   None    Shift=    0.000
 RMSDP=7.14D-08 MaxDP=2.76D-06 DE=-1.79D-09 OVMax= 6.74D-06

 Cycle  13  Pass 1  IDiag  1:
 E= -279.501690538429     Delta-E=       -0.000000000228 Rises=F Damp=F
 DIIS: error= 1.67D-07 at cycle  13 NSaved=  13.
 NSaved=13 IEnMin=13 EnMin= -279.501690538429     IErMin=13 ErrMin= 1.67D-07
 ErrMax= 1.67D-07  0.00D+00 EMaxC= 1.00D-01 BMatC= 3.98D-12 BMatP= 7.15D-11
 IDIUse=1 WtCom= 1.00D+00 WtEn= 0.00D+00
 Coeff-Com:  0.128D-05-0.140D-04-0.227D-04-0.882D-04 0.124D-03 0.756D-03
 Coeff-Com: -0.872D-03-0.323D-02 0.678D-03 0.410D-01-0.366D-01-0.323D+00
 Coeff-Com:  0.132D+01
 Coeff:      0.128D-05-0.140D-04-0.227D-04-0.882D-04 0.124D-03 0.756D-03
 Coeff:     -0.872D-03-0.323D-02 0.678D-03 0.410D-01-0.366D-01-0.323D+00
 Coeff:      0.132D+01
 Gap=     0.503 Goal=   None    Shift=    0.000
 RMSDP=1.90D-08 MaxDP=5.60D-07 DE=-2.28D-10 OVMax= 1.56D-06

 Cycle  14  Pass 1  IDiag  1:
 E= -279.501690538444     Delta-E=       -0.000000000015 Rises=F Damp=F
 DIIS: error= 2.47D-08 at cycle  14 NSaved=  14.
 NSaved=14 IEnMin=14 EnMin= -279.501690538444     IErMin=14 ErrMin= 2.47D-08
 ErrMax= 2.47D-08  0.00D+00 EMaxC= 1.00D-01 BMatC= 1.93D-13 BMatP= 3.98D-12
 IDIUse=1 WtCom= 1.00D+00 WtEn= 0.00D+00
 Coeff-Com: -0.188D-06 0.308D-05 0.555D-05 0.438D-05-0.819D-04 0.468D-04
 Coeff-Com:  0.282D-03 0.216D-03-0.244D-02 0.153D-02 0.170D-01-0.260D-01
 Coeff-Com: -0.198D+00 0.121D+01
 Coeff:     -0.188D-06 0.308D-05 0.555D-05 0.438D-05-0.819D-04 0.468D-04
 Coeff:      0.282D-03 0.216D-03-0.244D-02 0.153D-02 0.170D-01-0.260D-01
 Coeff:     -0.198D+00 0.121D+01
 Gap=     0.503 Goal=   None    Shift=    0.000
 RMSDP=3.76D-09 MaxDP=9.00D-08 DE=-1.46D-11 OVMax= 3.38D-07

 SCF Done:  E(RHF) =  -279.501690538     A.U. after   14 cycles
            NFock= 14  Conv=0.38D-08     -V/T= 2.0023
 KE= 2.788508410408D+02 PE=-8.952741869008D+02 EE= 2.199525441585D+02
 Leave Link  502 at Mon Feb 21 20:51:29 2022, MaxMem= 16106127360 cpu:              51.6 elap:               3.3
 (Enter /sw/contrib/gaussian/g16/B01/g16/l801.exe)
 ExpMin= 2.53D-02 ExpMax= 1.53D+04 ExpMxC= 5.22D+02 IAcc=3 IRadAn=         5 AccDes= 0.00D+00
 HarFok:  IExCor=  205 AccDes= 0.00D+00 IRadAn=         5 IDoV=-2 UseB2=F ITyADJ=14
 ICtDFT= 12500011 ScaDFX=  1.000000  1.000000  1.000000  1.000000
 Largest valence mixing into a core orbital is  2.08D-04
 Largest core mixing into a valence orbital is  3.64D-05
 Range of M.O.s used for correlation:     5   207
 NBasis=   207 NAE=    16 NBE=    16 NFC=     4 NFV=     0
 NROrb=    203 NOA=    12 NOB=    12 NVA=   191 NVB=   191

 **** Warning!!: The largest alpha MO coefficient is  0.17601653D+02

 Leave Link  801 at Mon Feb 21 20:51:29 2022, MaxMem= 16106127360 cpu:               2.0 elap:               0.1
 (Enter /sw/contrib/gaussian/g16/B01/g16/l906.exe)
 Frozen-core derivative calculation, NFC=   4 NFV=   0.
 FulOut=F Deriv=T AODrv=T NAtomX=     5
   MMem=           0  MDisk=          12 MDiskD=          12
  W3Min=      811440 MinDsk=     2425030 NBas6D=         245
 NBas2D=       30762    NTT=       30135    LW2=     7400000
    MDV= 16105574283 MDiskM=      328644 NBas2p=       30702
 Disk-based method using ON**2 memory for 12 occupieds at a time.
 Permanent disk used for amplitudes=    11516536 words.
 Estimated scratch disk usage=   321251614 words.
 IMap=   1   2   3   4   5   6   7   8   9  10  11  12  13  14  15  16
 Actual    scratch disk usage=   310331678 words.
 JobTyp=1 Pass  1:  I=   5 to  16 NPSUse= 28 ParTrn=T ParDer=T DoDerP=T.
 (rs|ai) integrals will be sorted in core.
 Spin components of T(2) and E(2):
     alpha-alpha T2 =       0.3400662177D-01 E2=     -0.1223915606D+00
     alpha-beta  T2 =       0.1868109926D+00 E2=     -0.7002158709D+00
     beta-beta   T2 =       0.3400662177D-01 E2=     -0.1223915606D+00
 The integrals were generated   1 times.
 ANorm=    0.1120189375D+01
 E2 =    -0.9449989921D+00 EUMP2 =    -0.28044668953053D+03
 Leave Link  906 at Mon Feb 21 20:53:06 2022, MaxMem= 16106127360 cpu:            2699.1 elap:              96.5
 (Enter /sw/contrib/gaussian/g16/B01/g16/l1101.exe)
 Using compressed Sx but separate Hx and Fx, NAtomX=     5.
 Will process      6 centers per pass.
 Leave Link 1101 at Mon Feb 21 20:53:06 2022, MaxMem= 16106127360 cpu:               5.3 elap:               0.2
 (Enter /sw/contrib/gaussian/g16/B01/g16/l1102.exe)
 Leave Link 1102 at Mon Feb 21 20:53:06 2022, MaxMem= 16106127360 cpu:               1.3 elap:               0.1
 (Enter /sw/contrib/gaussian/g16/B01/g16/l1110.exe)
 Forming Gx(P) for the SCF density, NAtomX=     5.
 Integral derivatives from FoFJK, PRISM(SPDF).
 Do as many integral derivatives as possible in FoFJK.
 G2DrvN: MDV=   16106126844.
 G2DrvN: will do     6 centers at a time, making    1 passes.
 Calling FoFCou, ICntrl=  3107 FMM=F I1Cent=   0 AccDes= 0.00D+00.
 FoFJK:  IHMeth= 1 ICntrl=    3107 DoSepK=F KAlg= 0 I1Cent=           0 FoldK=F
 IRaf=         0 NMat=       1 IRICut=       1 DoRegI=T DoRafI=F ISym2E= 1 IDoP0=0 IntGTp=1.
 FoFCou: FMM=F IPFlag=           0 FMFlag=      100000 FMFlg1=           0
         NFxFlg=           0 DoJE=F BraDBF=F KetDBF=F FulRan=T
         wScrn=  0.000000 ICntrl=      3107 IOpCl=  0 I1Cent=           0 NGrid=           0
         NMat0=    1 NMatS0=      1 NMatT0=    0 NMatD0=    1 NMtDS0=    0 NMtDT0=    0
 Petite list used in FoFCou.
 End of G2Drv F.D. properties file   721 does not exist.
 End of G2Drv F.D. properties file   722 does not exist.
 End of G2Drv F.D. properties file   788 does not exist.
 Leave Link 1110 at Mon Feb 21 20:53:09 2022, MaxMem= 16106127360 cpu:              84.1 elap:               3.0
 (Enter /sw/contrib/gaussian/g16/B01/g16/l1002.exe)
 Minotr:  Closed shell wavefunction.
          IDoAtm=11111
          Frozen-core window.
          Direct CPHF calculation.
          Differentiating once with respect to electric field.
                with respect to dipole field.
          Differentiating once with respect to nuclear coordinates.
          Requested convergence is 1.0D-08 RMS, and 1.0D-07 maximum.
          Secondary convergence is 1.0D-12 RMS, and 1.0D-12 maximum.
          NewPWx=T KeepS1=T KeepF1=T KeepIn=T MapXYZ=F SortEE=F KeepMc=T.
 Keep R1 ints in memory in symmetry-blocked form, NReq=348888983.
 FoFCou: FMM=F IPFlag=           0 FMFlag=           0 FMFlg1=           0
         NFxFlg=           0 DoJE=F BraDBF=F KetDBF=F FulRan=T
         wScrn=  0.000000 ICntrl=       600 IOpCl=  0 I1Cent=           0 NGrid=           0
         NMat0=    1 NMatS0=  21528 NMatT0=    0 NMatD0=    1 NMtDS0=    0 NMtDT0=    0
 Petite list used in FoFCou.
          MDV=   16106127360 using IRadAn=       1.
          Solving linear equations simultaneously, MaxMat=       0.
          There are    18 degrees of freedom in the 1st order CPHF.  IDoFFX=6 NUNeed=    18.
     15 vectors produced by pass  0 Test12= 1.70D-14 5.56D-09 XBig12= 8.30D+00 1.08D+00.
 AX will form    15 AO Fock derivatives at one time.
     15 vectors produced by pass  1 Test12= 1.70D-14 5.56D-09 XBig12= 1.34D+00 2.63D-01.
     15 vectors produced by pass  2 Test12= 1.70D-14 5.56D-09 XBig12= 1.41D-01 9.81D-02.
     15 vectors produced by pass  3 Test12= 1.70D-14 5.56D-09 XBig12= 4.93D-03 1.09D-02.
     15 vectors produced by pass  4 Test12= 1.70D-14 5.56D-09 XBig12= 9.83D-05 1.93D-03.
     15 vectors produced by pass  5 Test12= 1.70D-14 5.56D-09 XBig12= 1.40D-06 1.80D-04.
     15 vectors produced by pass  6 Test12= 1.70D-14 5.56D-09 XBig12= 1.12D-08 1.51D-05.
     12 vectors produced by pass  7 Test12= 1.70D-14 5.56D-09 XBig12= 8.27D-11 1.31D-06.
      3 vectors produced by pass  8 Test12= 1.70D-14 5.56D-09 XBig12= 5.80D-13 1.21D-07.
      2 vectors produced by pass  9 Test12= 1.70D-14 5.56D-09 XBig12= 3.77D-15 1.03D-08.
 InvSVY:  IOpt=1 It=  1 EMax= 1.78D-15
 Solved reduced A of dimension   122 with    15 vectors.
 FullF1:  Do perturbations      1 to      18.
 Saving first derivative matrices.
 End of Minotr F.D. properties file   721 does not exist.
 End of Minotr F.D. properties file   722 does not exist.
 End of Minotr F.D. properties file   788 does not exist.
 Leave Link 1002 at Mon Feb 21 20:53:12 2022, MaxMem= 16106127360 cpu:              80.0 elap:               2.9
 (Enter /sw/contrib/gaussian/g16/B01/g16/l811.exe)
 MDV= 16106127360.
 Form MO integral derivatives with frozen-active canonical formalism.
 MOERI=1 MOERIx=1 NAtoms=     5 NAtomX=     5.
 Discarding MO integrals.
 MO basis two electron integral derivatives will not be stored on disk.
 IAlg= 3 DoFC=T DoPWx=T Debug=F.
 Frozen-core window:  NFC=   4 NFV=   0.
 Reordered first order wavefunction length =     18678272
 In DefCFB: NBatch=  1 ICI= 16 ICA=191 LFMax= 96
            Large arrays: LIAPS=   619940160 LIARS=   288257200 words.
 In StABat: MaxSiz= 55 MinSiz= 25 NAtomB=  5
 DoIAMN: NPSUse= 28.
 Leave Link  811 at Mon Feb 21 20:54:32 2022, MaxMem= 16106127360 cpu:            2244.6 elap:              80.3
 (Enter /sw/contrib/gaussian/g16/B01/g16/l804.exe)
 Frozen-core window:  NFC=   4 NFV=   0.
 Closed-shell transformation, MDV= 16106127360 ITran=4 ISComp=1.
 Semi-Direct transformation.
 ModeAB=           2 MOrb=            16 LenV=   16104923037
 LASXX=     67341636 LTotXX=    67341636 LenRXX=    67341636
 LTotAB=    68301760 MaxLAS=    99807120 LenRXY=    99807120
 NonZer=   134683272 LenScr=   202817536 LnRSAI=           0
 LnScr1=           0 LExtra=           0 Total=    369966292
 MaxDsk=          -1 SrtSym=           F ITran=            4
 DoSDTr:  NPSUse= 28
 JobTyp=0 Pass  1:  I=   1 to  16.
 (rs|ai) integrals will be sorted in core.
 Complete sort for first half transformation.
 First half transformation complete.
 Begin second half transformation for I=  10.
 Begin second half transformation for I=  10.
 Complete sort for second half transformation.
 Second half transformation complete.
 Spin components of T(2) and E(2):
     alpha-alpha T2 =       0.3400662177D-01 E2=     -0.1223915606D+00
     alpha-beta  T2 =       0.1868109926D+00 E2=     -0.7002158709D+00
     beta-beta   T2 =       0.3400662177D-01 E2=     -0.1223915606D+00
 ANorm=    0.1584187007D+01
 E2 =    -0.9449989921D+00 EUMP2 =    -0.28044668953053D+03
 Leave Link  804 at Mon Feb 21 20:54:48 2022, MaxMem= 16106127360 cpu:             438.9 elap:              15.7
 (Enter /sw/contrib/gaussian/g16/B01/g16/l1002.exe)
 Minotr:  Closed shell wavefunction.
          Computing MP2/KS-MP2 derivatives.
          Using Z-Vector for PSCF gradient.
          Skipping F1 and S1 gradient terms here.
          IDoAtm=11111
          Frozen-core window.
          Using MO integrals in the linear equations.
          Forming densities via direct SCF.
          Differentiating once with respect to electric field.
                with respect to dipole field.
          Differentiating once with respect to nuclear coordinates.
          Using symmetry in CPHF.
          Requested convergence is 1.0D-10 RMS, and 1.0D-09 maximum.
          NewPWx=F KeepS1=T KeepF1=T KeepIn=T MapXYZ=F SortEE=F KeepMc=T.
          MDV=   16106127360 using IRadAn=       5.
          Solving linear equations separately, MaxMat=       0.
          There are     1 degrees of freedom in the 1st order CPHF.  IDoFFX=0 NUNeed=     1.
 FoFJK:  IHMeth= 1 ICntrl=       0 DoSepK=F KAlg= 0 I1Cent=           0 FoldK=F
 IRaf=         0 NMat=       1 IRICut=       1 DoRegI=T DoRafI=F ISym2E= 0 IDoP0=0 IntGTp=1.
 FoFCou: FMM=F IPFlag=           0 FMFlag=      100000 FMFlg1=           0
         NFxFlg=           0 DoJE=F BraDBF=F KetDBF=F FulRan=T
         wScrn=  0.000000 ICntrl=         0 IOpCl=  0 I1Cent=           0 NGrid=           0
         NMat0=    1 NMatS0=      1 NMatT0=    0 NMatD0=    1 NMtDS0=    0 NMtDT0=    0
 Symmetry not used in FoFCou.
 LinEq1:  Iter=  0 NonCon=     1 RMS=5.94D-03 Max=1.32D-01 NDo=     1
 LinEq1:  Iter=  1 NonCon=     1 RMS=1.90D-03 Max=3.82D-02 NDo=     1
 LinEq1:  Iter=  2 NonCon=     1 RMS=8.65D-04 Max=1.41D-02 NDo=     1
 LinEq1:  Iter=  3 NonCon=     1 RMS=3.86D-04 Max=7.80D-03 NDo=     1
 LinEq1:  Iter=  4 NonCon=     1 RMS=1.19D-04 Max=1.87D-03 NDo=     1
 LinEq1:  Iter=  5 NonCon=     1 RMS=4.44D-05 Max=7.06D-04 NDo=     1
 LinEq1:  Iter=  6 NonCon=     1 RMS=1.99D-05 Max=2.34D-04 NDo=     1
 LinEq1:  Iter=  7 NonCon=     1 RMS=8.02D-06 Max=1.59D-04 NDo=     1
 LinEq1:  Iter=  8 NonCon=     1 RMS=3.44D-06 Max=3.41D-05 NDo=     1
 LinEq1:  Iter=  9 NonCon=     1 RMS=9.43D-07 Max=1.31D-05 NDo=     1
 LinEq1:  Iter= 10 NonCon=     1 RMS=1.85D-07 Max=2.02D-06 NDo=     1
 LinEq1:  Iter= 11 NonCon=     1 RMS=3.47D-08 Max=3.62D-07 NDo=     1
 LinEq1:  Iter= 12 NonCon=     1 RMS=8.34D-09 Max=1.32D-07 NDo=     1
 LinEq1:  Iter= 13 NonCon=     1 RMS=1.50D-09 Max=2.60D-08 NDo=     1
 LinEq1:  Iter= 14 NonCon=     1 RMS=2.72D-10 Max=3.82D-09 NDo=     1
 LinEq1:  Iter= 15 NonCon=     0 RMS=4.94D-11 Max=5.50D-10 NDo=     1
 Linear equations converged to 1.000D-10 1.000D-09 after    15 iterations.
 End of Minotr F.D. properties file   721 does not exist.
 End of Minotr F.D. properties file   722 does not exist.
 End of Minotr F.D. properties file   788 does not exist.
 Leave Link 1002 at Mon Feb 21 20:54:50 2022, MaxMem= 16106127360 cpu:              64.3 elap:               2.4
 (Enter /sw/contrib/gaussian/g16/B01/g16/l1102.exe)
 Use density number 2.
 Symmetrizing basis deriv contribution to polar:
 IMax=3 JMax=2 DiffMx= 0.00D+00
 Leave Link 1102 at Mon Feb 21 20:54:51 2022, MaxMem= 16106127360 cpu:               2.1 elap:               0.1
 (Enter /sw/contrib/gaussian/g16/B01/g16/l1110.exe)
 Forming Gx(P) for generalized density number  2 NAtomX=     5.
 Integral derivatives from FoFJK, PRISM(SPDF).
 Do as many integral derivatives as possible in FoFJK.
 G2DrvN: MDV=   16106126844.
 G2DrvN: will do     6 centers at a time, making    1 passes.
 Calling FoFCou, ICntrl=  3107 FMM=F I1Cent=   0 AccDes= 0.00D+00.
 FoFJK:  IHMeth= 1 ICntrl=    3107 DoSepK=F KAlg= 0 I1Cent=           0 FoldK=F
 IRaf=         0 NMat=       1 IRICut=       1 DoRegI=T DoRafI=F ISym2E= 1 IDoP0=0 IntGTp=1.
 FoFCou: FMM=F IPFlag=           0 FMFlag=      100000 FMFlg1=           0
         NFxFlg=           0 DoJE=F BraDBF=F KetDBF=F FulRan=T
         wScrn=  0.000000 ICntrl=      3107 IOpCl=  0 I1Cent=           0 NGrid=           0
         NMat0=    1 NMatS0=      1 NMatT0=    0 NMatD0=    1 NMtDS0=    0 NMtDT0=    0
 Petite list used in FoFCou.
 End of G2Drv F.D. properties file   721 does not exist.
 End of G2Drv F.D. properties file   722 does not exist.
 End of G2Drv F.D. properties file   788 does not exist.
 Leave Link 1110 at Mon Feb 21 20:54:54 2022, MaxMem= 16106127360 cpu:              83.1 elap:               3.0
 (Enter /sw/contrib/gaussian/g16/B01/g16/l1112.exe)
 MP22nd: MDV=   16106127360
 This link is doing NAtomX=     5 total of    18 degrees of freedom.
 Using ON3 I/O method in MakUI.
 Frozen-core window:  NFC=   4 NFV=   0.
 Using Ix for Sx.
 Use MO integrals over full window.
 Using OV2 memory method for fx*t*t/D, MaxI=    16 DoOO2=F NP=  28.
 R2 and R3 integrals will be kept in memory, NReq=   915591705.
 FoFCou: FMM=F IPFlag=           0 FMFlag=           0 FMFlg1=           0
         NFxFlg=           0 DoJE=F BraDBF=F KetDBF=F FulRan=T
         wScrn=  0.000000 ICntrl=       600 IOpCl=  0 I1Cent=           0 NGrid=           0
         NMat0=    1 NMatS0=      1 NMatT0=    0 NMatD0=    1 NMtDS0=    0 NMtDT0=    0
 Symmetry not used in FoFCou.
 DD1Dir will call FoFMem   1 times, MxPair=       272
 NAB=   136 NAA=     0 NBB=     0.
 Symmetry is being used.
 FoFJK:  IHMeth= 1 ICntrl=       0 DoSepK=F KAlg= 0 I1Cent=           0 FoldK=F
 IRaf=         0 NMat=      18 IRICut=      45 DoRegI=T DoRafI=T ISym2E= 2 IDoP0=3 IntGTp=3.
 Discarding MO integrals.
 Leave Link 1112 at Mon Feb 21 20:55:29 2022, MaxMem= 16106127360 cpu:             981.4 elap:              35.5
 (Enter /sw/contrib/gaussian/g16/B01/g16/l601.exe)
 Copying SCF densities to generalized density rwf, IOpCl= 0 IROHF=0.

 **********************************************************************

            Population analysis using the MP2 Density.

 **********************************************************************

 Orbital symmetries:
       Occupied  (A') (A') (A') (A') (A') (A') (A') (A') (A') (A')
                 (A") (A') (A") (A') (A") (A')
       Virtual   (A') (A") (A') (A') (A') (A") (A') (A') (A") (A')
                 (A") (A') (A') (A') (A") (A') (A') (A") (A') (A')
                 (A') (A') (A') (A') (A") (A') (A') (A") (A') (A')
                 (A") (A') (A") (A') (A') (A") (A') (A") (A') (A')
                 (A") (A') (A") (A') (A') (A") (A') (A') (A") (A')
                 (A") (A') (A') (A') (A") (A') (A") (A') (A") (A')
                 (A') (A') (A") (A') (A') (A") (A') (A") (A') (A')
                 (A") (A') (A') (A") (A") (A') (A') (A") (A') (A')
                 (A') (A") (A') (A") (A") (A') (A') (A") (A') (A')
                 (A") (A') (A') (A") (A') (A") (A') (A") (A') (A')
                 (A") (A') (A") (A') (A') (A") (A') (A') (A") (A')
                 (A") (A') (A') (A') (A") (A') (A') (A') (A") (A')
                 (A") (A') (A") (A') (A') (A") (A") (A') (A") (A')
                 (A') (A') (A') (A") (A") (A") (A') (A') (A') (A')
                 (A") (A') (A") (A') (A') (A") (A') (A') (A') (A')
                 (A") (A') (A') (A") (A') (A") (A') (A") (A') (A")
                 (A') (A") (A') (A") (A') (A") (A") (A') (A") (A')
                 (A") (A') (A") (A') (A") (A') (A") (A") (A') (A')
                 (A') (A') (A') (A') (A') (A') (A') (A') (A') (A')
                 (A')
 The electronic state is 1-A'.
 Alpha  occ. eigenvalues --  -20.69055 -20.68402 -20.65947 -15.81310  -1.62469
 Alpha  occ. eigenvalues --   -1.49516  -1.25377  -0.94828  -0.77235  -0.75945
 Alpha  occ. eigenvalues --   -0.71195  -0.67917  -0.62014  -0.58874  -0.48485
 Alpha  occ. eigenvalues --   -0.47344
 Alpha virt. eigenvalues --    0.02969   0.07134   0.08610   0.10170   0.13391
 Alpha virt. eigenvalues --    0.13391   0.14412   0.15448   0.17834   0.19414
 Alpha virt. eigenvalues --    0.19984   0.20651   0.22080   0.23621   0.23749
 Alpha virt. eigenvalues --    0.26661   0.29280   0.30365   0.31033   0.34368
 Alpha virt. eigenvalues --    0.34963   0.38748   0.42233   0.43192   0.52806
 Alpha virt. eigenvalues --    0.52864   0.55819   0.58087   0.62551   0.63992
 Alpha virt. eigenvalues --    0.67467   0.68459   0.70526   0.71145   0.72377
 Alpha virt. eigenvalues --    0.72925   0.74390   0.79244   0.79292   0.81076
 Alpha virt. eigenvalues --    0.81301   0.83095   0.86819   0.90882   0.92220
 Alpha virt. eigenvalues --    0.92798   0.95649   0.97602   0.98482   1.01677
 Alpha virt. eigenvalues --    1.05195   1.05493   1.08279   1.11741   1.14167
 Alpha virt. eigenvalues --    1.18999   1.21925   1.23307   1.33924   1.35165
 Alpha virt. eigenvalues --    1.38742   1.45472   1.48766   1.50812   1.53775
 Alpha virt. eigenvalues --    1.56771   1.57956   1.61280   1.66450   1.67075
 Alpha virt. eigenvalues --    1.70248   1.79266   1.83036   1.83502   1.87984
 Alpha virt. eigenvalues --    1.90881   1.95654   1.99302   2.00389   2.07963
 Alpha virt. eigenvalues --    2.12221   2.13111   2.15086   2.22559   2.26527
 Alpha virt. eigenvalues --    2.26659   2.28949   2.31450   2.34606   2.38625
 Alpha virt. eigenvalues --    2.42596   2.42862   2.45235   2.46045   2.47779
 Alpha virt. eigenvalues --    2.50090   2.58904   2.59803   2.62242   2.62397
 Alpha virt. eigenvalues --    2.63435   2.66991   2.75486   2.81946   2.85173
 Alpha virt. eigenvalues --    2.88951   2.89362   2.93368   2.95463   3.02638
 Alpha virt. eigenvalues --    3.06562   3.12482   3.20488   3.22487   3.31828
 Alpha virt. eigenvalues --    3.33914   3.52277   3.64022   3.83843   3.84428
 Alpha virt. eigenvalues --    4.14925   4.16603   4.18442   4.25789   4.34965
 Alpha virt. eigenvalues --    4.39344   4.46335   4.51997   4.65849   4.71156
 Alpha virt. eigenvalues --    4.80319   4.82763   4.83026   4.89622   5.02419
 Alpha virt. eigenvalues --    5.07681   5.10575   5.14548   5.17570   5.24367
 Alpha virt. eigenvalues --    5.27356   5.30591   5.33040   5.35316   5.60422
 Alpha virt. eigenvalues --    5.67357   5.77868   5.82907   5.95694   6.16922
 Alpha virt. eigenvalues --    6.31009   6.33698   6.39472   6.49526   6.50761
 Alpha virt. eigenvalues --    6.61466   6.66811   6.70313   6.75800   6.76447
 Alpha virt. eigenvalues --    6.83528   6.89511   7.01554   7.05699   7.05791
 Alpha virt. eigenvalues --    7.09127   7.12355   7.15102   7.18213   7.22576
 Alpha virt. eigenvalues --    7.24232   7.30756   7.32538   7.34736   7.39900
 Alpha virt. eigenvalues --    7.43116   7.48352   7.60892   7.61475   7.62948
 Alpha virt. eigenvalues --    7.66821   7.79517   7.88263   8.09373   8.31517
 Alpha virt. eigenvalues --    8.40919   8.54372  13.39756  14.38419  15.16647
 Alpha virt. eigenvalues --   16.15562
          Condensed to atoms (all electrons):
               1          2          3          4          5
     1  H    0.589610   0.128143   0.020181   0.012474  -0.000626
     2  O    0.128143   8.324190  -0.175001  -0.089734   0.015707
     3  O    0.020181  -0.175001   8.469600  -0.126938  -0.041811
     4  N    0.012474  -0.089734  -0.126938   6.965988  -0.054444
     5  O   -0.000626   0.015707  -0.041811  -0.054444   8.274711
 Mulliken charges:
               1
     1  H    0.250218
     2  O   -0.203304
     3  O   -0.146031
     4  N    0.292655
     5  O   -0.193538
 Sum of Mulliken charges =   0.00000
 Mulliken charges with hydrogens summed into heavy atoms:
               1
     2  O    0.046914
     3  O   -0.146031
     4  N    0.292655
     5  O   -0.193538
 APT charges:
               1
     1  H    0.298558
     2  O   -0.289281
     3  O   -0.489615
     4  N    0.871172
     5  O   -0.390833
 Sum of APT charges =   0.00000
 APT charges with hydrogens summed into heavy atoms:
               1
     2  O    0.009277
     3  O   -0.489615
     4  N    0.871172
     5  O   -0.390833
 Electronic spatial extent (au):  <R**2>=            252.2473
 Charge=              0.0000 electrons
 Dipole moment (field-independent basis, Debye):
    X=              0.5103    Y=              1.3503    Z=              0.0000  Tot=              1.4435
 Quadrupole moment (field-independent basis, Debye-Ang):
   XX=            -22.4942   YY=            -18.6108   ZZ=            -22.0064
   XY=              3.2366   XZ=             -0.0000   YZ=              0.0000
 Traceless Quadrupole moment (field-independent basis, Debye-Ang):
   XX=             -1.4570   YY=              2.4263   ZZ=             -0.9693
   XY=              3.2366   XZ=             -0.0000   YZ=              0.0000
 Octapole moment (field-independent basis, Debye-Ang**2):
  XXX=              2.8219  YYY=             11.2815  ZZZ=             -0.0000  XYY=              7.8856
  XXY=              6.5711  XXZ=              0.0000  XZZ=             -1.5835  YZZ=             -0.8502
  YYZ=              0.0000  XYZ=              0.0000
 Hexadecapole moment (field-independent basis, Debye-Ang**3):
 XXXX=           -158.5733 YYYY=            -89.0658 ZZZZ=            -18.2298 XXXY=            -36.5009
 XXXZ=             -0.0000 YYYX=            -30.5531 YYYZ=             -0.0000 ZZZX=             -0.0000
 ZZZY=             -0.0000 XXYY=            -33.9569 XXZZ=            -30.8797 YYZZ=            -20.5440
 XXYZ=             -0.0000 YYXZ=             -0.0000 ZZXY=            -14.9712
 N-N= 1.169691111629D+02 E-N=-8.960568519944D+02  KE= 2.802027194872D+02
 Symmetry A'   KE= 2.662292881738D+02
 Symmetry A"   KE= 1.397343131337D+01
  Exact polarizability:  33.982   9.398  30.133   0.000  -0.000  17.913
 Approx polarizability:  29.029   5.003  23.441   0.000   0.000  15.515
 No NMR shielding tensors so no spin-rotation constants.
 Leave Link  601 at Mon Feb 21 20:55:29 2022, MaxMem= 16106127360 cpu:               7.2 elap:               0.3
 (Enter /sw/contrib/gaussian/g16/B01/g16/l701.exe)
 ... and contract with generalized density number  2.
 Compute integral second derivatives.
 Leave Link  701 at Mon Feb 21 20:55:30 2022, MaxMem= 16106127360 cpu:               5.7 elap:               0.2
 (Enter /sw/contrib/gaussian/g16/B01/g16/l702.exe)
 L702 exits ... SP integral derivatives will be done elsewhere.
 Leave Link  702 at Mon Feb 21 20:55:30 2022, MaxMem= 16106127360 cpu:               0.6 elap:               0.0
 (Enter /sw/contrib/gaussian/g16/B01/g16/l703.exe)
 Integral derivatives from FoFJK, PRISM(SPDF).
 Compute integral second derivatives, UseDBF=F ICtDFT=           0.
 Calling FoFJK, ICntrl=  10100127 FMM=F ISym2X=1 I1Cent= 0 IOpClX= 0 NMat=1 NMatS=1 NMatT=0.
 FoFJK:  IHMeth= 1 ICntrl=10100127 DoSepK=F KAlg= 0 I1Cent=           0 FoldK=F
 IRaf=         0 NMat=       1 IRICut=       1 DoRegI=T DoRafI=F ISym2E= 1 IDoP0=0 IntGTp=1.
 FoFCou: FMM=F IPFlag=           0 FMFlag=      100000 FMFlg1=         800
         NFxFlg=           0 DoJE=F BraDBF=F KetDBF=F FulRan=T
         wScrn=  0.000000 ICntrl=  10100127 IOpCl=  0 I1Cent=           0 NGrid=           0
         NMat0=    1 NMatS0=      1 NMatT0=    0 NMatD0=    1 NMtDS0=    0 NMtDT0=    0
 Petite list used in FoFCou.
 Leave Link  703 at Mon Feb 21 20:55:45 2022, MaxMem= 16106127360 cpu:             422.7 elap:              15.2
 (Enter /sw/contrib/gaussian/g16/B01/g16/l716.exe)
 Dipole        = 2.00765169D-01 5.31236823D-01 3.24196813D-33
 Polarizability= 3.39816402D+01 9.39807148D+00 3.01333752D+01
                 1.14406748D-31-3.82294958D-32 1.79130129D+01
 Full mass-weighted force constant matrix:
 Low frequencies --- -266.7622  -29.1905  -19.1477   -0.0019   -0.0015    0.0006
 Low frequencies ---   68.0200  229.9183  341.5493
 ******    1 imaginary frequencies (negative Signs) ****** 
 Diagonal vibrational polarizability:
       13.7111548      24.3601537      47.5482276
 Harmonic frequencies (cm**-1), IR intensities (KM/Mole), Raman scattering
 activities (A**4/AMU), depolarization ratios for plane and unpolarized
 incident light, reduced masses (AMU), force constants (mDyne/A),
 and normal coordinates:
                      1                      2                      3
                     A"                     A"                     A'
 Frequencies --   -266.7421               229.5161               341.5458
 Red. masses --      1.1361                10.8286                 8.6389
 Frc consts  --      0.0476                 0.3361                 0.5938
 IR Inten    --    124.9138                 0.5926                 3.7040
  Atom  AN      X      Y      Z        X      Y      Z        X      Y      Z
     1   1     0.00   0.00   1.00     0.00  -0.00  -0.55     0.53  -0.44   0.00
     2   8    -0.00   0.00  -0.06     0.00  -0.00  -0.32    -0.09  -0.38   0.00
     3   8     0.00   0.00  -0.04     0.00   0.00   0.34    -0.15   0.42  -0.00
     4   7    -0.00  -0.00   0.06    -0.00  -0.00   0.53     0.05   0.26  -0.00
     5   8    -0.00  -0.00  -0.01    -0.00  -0.00  -0.45     0.17  -0.25   0.00
                      4                      5                      6
                     A'                     A'                     A'
 Frequencies --    458.1361               784.3117               967.9895
 Red. masses --     12.2159                12.9341                15.4482
 Frc consts  --      1.5107                 4.6877                 8.5285
 IR Inten    --    200.0184               167.1772                21.3489
  Atom  AN      X      Y      Z        X      Y      Z        X      Y      Z
     1   1     0.43   0.18   0.00    -0.34   0.19  -0.00    -0.16  -0.04   0.00
     2   8     0.32   0.19   0.00     0.42   0.08   0.00    -0.52   0.03   0.00
     3   8     0.17   0.45  -0.00    -0.06  -0.26  -0.00     0.75  -0.01  -0.00
     4   7    -0.35  -0.40  -0.00    -0.14   0.62  -0.00    -0.12   0.24  -0.00
     5   8    -0.21  -0.30   0.00    -0.22  -0.37   0.00    -0.12  -0.22   0.00
                      7                      8                      9
                     A'                     A'                     A'
 Frequencies --   1371.3653              1677.5428              3778.5626
 Red. masses --      1.1332                13.2433                 1.0675
 Frc consts  --      1.2557                21.9580                 8.9802
 IR Inten    --    151.5401               138.1930                81.9099
  Atom  AN      X      Y      Z        X      Y      Z        X      Y      Z
     1   1     0.99  -0.05   0.00    -0.34   0.00  -0.00     0.10   0.99  -0.00
     2   8    -0.03   0.05   0.00    -0.00  -0.04  -0.00    -0.01  -0.06   0.00
     3   8    -0.02  -0.05  -0.00     0.00   0.15   0.00     0.00   0.00   0.00
     4   7     0.02   0.01  -0.00     0.70  -0.06   0.00    -0.00  -0.00  -0.00
     5   8    -0.03  -0.01   0.00    -0.60  -0.06  -0.00     0.00   0.00  -0.00

 -------------------
 - Thermochemistry -
 -------------------
 Temperature   298.150 Kelvin.  Pressure   1.00000 Atm.
 Atom     1 has atomic number  1 and mass   1.00783
 Atom     2 has atomic number  8 and mass  15.99491
 Atom     3 has atomic number  8 and mass  15.99491
 Atom     4 has atomic number  7 and mass  14.00307
 Atom     5 has atomic number  8 and mass  15.99491
 Molecular mass:    62.99564 amu.
 Principal axes and moments of inertia in atomic units:
                           1         2         3
     Eigenvalues --    32.96988 358.73934 391.70922
           X            0.81201  -0.58364   0.00000
           Y            0.58364   0.81201   0.00000
           Z           -0.00000   0.00000   1.00000
 This molecule is an asymmetric top.
 Rotational symmetry number  1.
 Rotational temperatures (Kelvin)      2.62706     0.24144     0.22112
 Rotational constants (GHZ):          54.73909     5.03079     4.60735
    1 imaginary frequencies ignored.
 Zero-point vibrational energy      57474.4 (Joules/Mol)
                                   13.73671 (Kcal/Mol)
 Warning -- explicit consideration of   3 degrees of freedom as
           vibrations may cause significant error
 Vibrational temperatures:    330.22   491.41   659.16  1128.45  1392.72
          (Kelvin)           1973.09  2413.61  5436.51
 
 Zero-point correction=                           0.021891 (Hartree/Particle)
 Thermal correction to Energy=                    0.026002
 Thermal correction to Enthalpy=                  0.026947
 Thermal correction to Gibbs Free Energy=        -0.004225
 Sum of electronic and zero-point Energies=           -280.424799
 Sum of electronic and thermal Energies=              -280.420687
 Sum of electronic and thermal Enthalpies=            -280.419743
 Sum of electronic and thermal Free Energies=         -280.450914
 
                     E (Thermal)             CV                S
                      KCal/Mol        Cal/Mol-Kelvin    Cal/Mol-Kelvin
 Total                   16.317             11.940             65.606
 Electronic               0.000              0.000              0.000
 Translational            0.889              2.981             38.341
 Rotational               0.889              2.981             23.053
 Vibrational             14.539              5.978              4.212
 Vibration     1          0.652              1.796              1.883
 Vibration     2          0.721              1.592              1.205
 Vibration     3          0.816              1.343              0.772
                       Q            Log10(Q)             Ln(Q)
 Total Bot       0.877549D+02          1.943271          4.474548
 Total V=0       0.102885D+13         12.012352         27.659463
 Vib (Bot)       0.183264D-09         -9.736924        -22.420096
 Vib (Bot)    1  0.858327D+00         -0.066347         -0.152770
 Vib (Bot)    2  0.543128D+00         -0.265098         -0.610410
 Vib (Bot)    3  0.371832D+00         -0.429653         -0.989313
 Vib (V=0)       0.214861D+01          0.332157          0.764819
 Vib (V=0)    1  0.149334D+01          0.174159          0.401015
 Vib (V=0)    2  0.123823D+01          0.092802          0.213685
 Vib (V=0)    3  0.112310D+01          0.050420          0.116097
 Electronic      0.100000D+01          0.000000          0.000000
 Translational   0.196526D+08          7.293420         16.793719
 Rotational      0.243655D+05          4.386776         10.100924
 
                                                                title
                                                             IR Spectrum
 
     3                                                                      1         1                                              
     7                                                                      6         3             9     7          4   3   2       
     7                                                                      7         7             6     8          5   4   3       
     9                                                                      8         1             8     4          8   2   0       
 
     X                                                                      X         X             X     X          X   X   X       
     X                                                                      X         X             X     X          X               
     X                                                                      X         X                   X          X               
     X                                                                      X         X                   X          X               
     X                                                                      X         X                   X          X               
     X                                                                      X         X                   X          X               
     X                                                                      X         X                   X          X               
     X                                                                      X         X                   X          X               
                                                                            X         X                   X          X               
                                                                            X         X                   X          X               
                                                                            X         X                   X          X               
                                                                            X         X                   X          X               
                                                                            X         X                   X          X               
                                                                            X         X                   X          X               
                                                                                      X                   X          X               
                                                                                                          X          X               
                                                                                                          X          X               
                                                                                                                     X               
                                                                                                                     X               
                                                                                                                     X               
 
 ***** Axes restored to original set *****
 -------------------------------------------------------------------
 Center     Atomic                   Forces (Hartrees/Bohr)
 Number     Number              X              Y              Z
 -------------------------------------------------------------------
      1        1          -0.000093360   -0.000000000    0.000018001
      2        8          -0.000116280   -0.000000000   -0.000574624
      3        8          -0.002688202   -0.000000000    0.000406359
      4        7           0.002069303   -0.000000000   -0.003145800
      5        8           0.000828538    0.000000000    0.003296063
 -------------------------------------------------------------------
 Cartesian Forces:  Max     0.003296063 RMS     0.001493829
 -----------------------------------------------------------------------------------------------
                       Internal Coordinate Forces (Hartree/Bohr or radian)
  Cent   Atom   N1       Length/X         N2         Alpha/Y        N3         Beta/Z          J
 -----------------------------------------------------------------------------------------------
      1  H 
      2  O        1  -0.000018(     1)
      3  O        2   0.000281(     2)      1   0.000171(     5)
      4  N        3   0.000387(     3)      2   0.001270(     6)      1  -0.000000(     8)     0
      5  O        4   0.001579(     4)      3   0.006658(     7)      2   0.000000(     9)     0
 -----------------------------------------------------------------------------------------------
 Internal  Forces:  Max     0.006657823 RMS     0.002325986
 Force constants in Cartesian coordinates: 
                1             2             3             4             5 
      1  0.646458D-01
      2  0.000000D+00 -0.232772D-02
      3  0.539528D-02  0.000000D+00  0.512322D+00
      4 -0.357584D-01  0.000000D+00 -0.163331D-01  0.273120D+00
      5  0.000000D+00  0.297159D-02  0.000000D+00  0.000000D+00  0.211570D-02
      6  0.481713D-01  0.000000D+00 -0.508504D+00  0.340412D-01  0.000000D+00
      7 -0.183384D-01  0.000000D+00  0.124638D-01 -0.219963D+00  0.000000D+00
      8  0.000000D+00  0.102452D-02  0.000000D+00  0.000000D+00 -0.675384D-02
      9 -0.531867D-01  0.000000D+00 -0.567649D-03 -0.195029D-01  0.000000D+00
     10 -0.913618D-02  0.000000D+00 -0.485211D-02 -0.175964D-01  0.000000D+00
     11  0.000000D+00 -0.270324D-02  0.000000D+00  0.000000D+00 -0.465938D-02
     12  0.543215D-02  0.000000D+00 -0.458172D-02  0.116507D-01  0.000000D+00
     13 -0.141280D-02  0.000000D+00  0.332610D-02  0.197927D-03  0.000000D+00
     14  0.000000D+00  0.103485D-02  0.000000D+00  0.000000D+00  0.632593D-02
     15 -0.581204D-02  0.000000D+00  0.133146D-02 -0.985599D-02  0.000000D+00
                6             7             8             9            10 
      6  0.594546D+00
      7 -0.213221D-01  0.342657D+00
      8  0.000000D+00  0.000000D+00  0.479745D-02
      9 -0.785370D-01  0.384530D-01  0.000000D+00  0.182590D+00
     10 -0.520584D-01 -0.766798D-01  0.000000D+00  0.173046D+00  0.829007D+00
     11  0.000000D+00  0.000000D+00  0.704045D-02  0.000000D+00  0.000000D+00
     12  0.174480D-01  0.624555D-01  0.000000D+00 -0.831434D-01 -0.239017D-01
     13 -0.883201D-02 -0.276750D-01  0.000000D+00 -0.138809D+00 -0.725594D+00
     14  0.000000D+00  0.000000D+00 -0.610857D-02  0.000000D+00  0.000000D+00
     15 -0.249526D-01 -0.920501D-01  0.000000D+00 -0.203418D-01 -0.922337D-01
               11            12            13            14            15 
     11  0.106485D-01
     12  0.000000D+00  0.184887D+00
     13  0.000000D+00 -0.556366D-01  0.754484D+00
     14 -0.103264D-01  0.000000D+00  0.000000D+00  0.907414D-02
     15  0.000000D+00 -0.114610D+00  0.199952D+00  0.000000D+00  0.158573D+00
 Force constants in internal coordinates: 
                1             2             3             4             5 
      1  0.512322D+00
      2 -0.103372D-01  0.281843D+00
      3  0.336443D-02  0.296643D-02  0.118966D+00
      4 -0.354574D-02  0.625751D-02  0.154472D+00  0.812903D+00
      5  0.978596D-02  0.653955D-01  0.227701D-02  0.501345D-02  0.216720D+00
      6  0.459356D-02  0.596615D-01  0.405596D-01  0.229212D-01  0.313690D-01
      7 -0.113554D-02  0.391090D-01  0.372722D-01  0.896835D-01  0.215440D-01
      8  0.000000D+00  0.000000D+00  0.000000D+00  0.000000D+00  0.000000D+00
      9  0.000000D+00  0.000000D+00  0.000000D+00  0.000000D+00  0.000000D+00
                6             7             8             9 
      6  0.282703D+00
      7  0.970843D-01  0.493698D+00
      8  0.000000D+00  0.000000D+00 -0.772241D-02
      9  0.000000D+00  0.000000D+00 -0.394508D-02  0.412100D-01
 Leave Link  716 at Mon Feb 21 20:55:45 2022, MaxMem= 16106127360 cpu:               1.7 elap:               0.1
 (Enter /sw/contrib/gaussian/g16/B01/g16/l103.exe)

 GradGradGradGradGradGradGradGradGradGradGradGradGradGradGradGradGradGrad
 Berny optimization.
 Search for a local minimum.
 Step number   1 out of a maximum of    2
 All quantities printed in internal units (Hartrees-Bohrs-Radians)
 Second derivative matrix not updated -- analytic derivatives used.
 The second derivative matrix:
                          r1        r2        r3        r4        a1
           r1           0.51232
           r2          -0.01034   0.28184
           r3           0.00336   0.00297   0.11897
           r4          -0.00355   0.00626   0.15447   0.81290
           a1           0.00979   0.06540   0.00228   0.00501   0.21672
           a2           0.00459   0.05966   0.04056   0.02292   0.03137
           a3          -0.00114   0.03911   0.03727   0.08968   0.02154
           d1           0.00000  -0.00000  -0.00000  -0.00000  -0.00000
           d2          -0.00000   0.00000   0.00000   0.00000   0.00000
                          a2        a3        d1        d2
           a2           0.28270
           a3           0.09708   0.49370
           d1          -0.00000  -0.00000  -0.00772
           d2          -0.00000  -0.00000  -0.00395   0.04121
 ITU=  0
     Eigenvalues ---   -0.00804   0.04153   0.07963   0.17536   0.22483
     Eigenvalues ---    0.32624   0.51299   0.52371   0.87639
 Eigenvalue     1 is  -8.04D-03 should be greater than     0.000000 Eigenvector:
                          d1        d2        a3        a2        r3
   1                    0.99681   0.07985   0.00000   0.00000  -0.00000
                          r4        a1        r2        r1
   1                    0.00000  -0.00000   0.00000  -0.00000
 Angle between quadratic step and forces=  19.24 degrees.
 Linear search not attempted -- first point.
 Variable       Old X    -DE/DX   Delta X   Delta X   Delta X     New X
                                 (Linear)    (Quad)   (Total)
    r1        1.83110  -0.00002   0.00000   0.00000   0.00000   1.83110
    r2        2.74940   0.00028   0.00000  -0.00086  -0.00086   2.74854
    r3        2.75670   0.00039   0.00000  -0.00218  -0.00218   2.75452
    r4        2.21236   0.00158   0.00000   0.00087   0.00087   2.21322
    a1        1.70335   0.00017   0.00000  -0.00034  -0.00034   1.70302
    a2        1.78543   0.00127   0.00000   0.00031   0.00031   1.78574
    a3        1.88988   0.00666   0.00000   0.01351   0.01351   1.90340
    d1        3.14159  -0.00000   0.00000  -0.00000   0.00000   3.14159
    d2        3.14159   0.00000   0.00000  -0.00000   0.00000   3.14159
         Item               Value     Threshold  Converged?
 Maximum Force            0.006658     0.000450     NO 
 RMS     Force            0.002326     0.000300     NO 
 Maximum Displacement     0.013514     0.001800     NO 
 RMS     Displacement     0.004584     0.001200     NO 
 Predicted change in Energy=-4.529836D-05
                       ----------------------------
                       ! Non-Optimized Parameters !
                       ! (Angstroms and Degrees)  !
 ----------------------                            ----------------------
 !      Name          Value   Derivative information (Atomic Units)     !
 ------------------------------------------------------------------------
 !       r1          0.969    -DE/DX =    0.0                           !
 !       r2          1.4545   -DE/DX =    0.0003                        !
 !       r3          1.4576   -DE/DX =    0.0004                        !
 !       r4          1.1712   -DE/DX =    0.0016                        !
 !       a1         97.5756   -DE/DX =    0.0002                        !
 !       a2        102.3154   -DE/DX =    0.0013                        !
 !       a3        109.0566   -DE/DX =    0.0067                        !
 !       d1        180.0      -DE/DX =    0.0                           !
 !       d2        180.0      -DE/DX =    0.0                           !
 ------------------------------------------------------------------------
 GradGradGradGradGradGradGradGradGradGradGradGradGradGradGradGradGradGrad

 Leave Link  103 at Mon Feb 21 20:55:45 2022, MaxMem= 16106127360 cpu:               0.5 elap:               0.0
 (Enter /sw/contrib/gaussian/g16/B01/g16/l9999.exe)

 ----------------------------------------------------------------------

 Electric dipole moment (input orientation):
 (Debye = 10**-18 statcoulomb cm , SI units = C m)
                  (au)            (Debye)         (10**-30 SI)
   Tot        0.567908D+00      0.144348D+01      0.481492D+01
   x         -0.148165D+00     -0.376598D+00     -0.125620D+01
   y          0.000000D+00      0.000000D+00      0.000000D+00
   z         -0.548239D+00     -0.139349D+01     -0.464817D+01

 Dipole polarizability, Alpha (input orientation).
 (esu units = cm**3 , SI units = C**2 m**2 J**-1)
 Alpha(0;0):
               (au)            (10**-24 esu)      (10**-40 SI)
   iso        0.273427D+02      0.405177D+01      0.450820D+01
   aniso      0.218207D+02      0.323350D+01      0.359775D+01
   xx         0.321265D+02      0.476065D+01      0.529694D+01
   yx         0.000000D+00      0.000000D+00      0.000000D+00
   yy         0.179130D+02      0.265443D+01      0.295346D+01
   zx         0.959277D+01      0.142150D+01      0.158163D+01
   zy         0.000000D+00      0.000000D+00      0.000000D+00
   zz         0.319885D+02      0.474021D+01      0.527420D+01

 ----------------------------------------------------------------------

 Dipole orientation:
     1          0.00000000          0.00000000          0.00000000
     8         -0.47772745          0.00000000         -1.76768152
     8          2.05836032          0.00000000         -2.82949783
     7          1.55974333          0.00000000         -5.54073167
     8          3.50024824          0.00000000         -6.60325872

 Electric dipole moment (dipole orientation):
 (Debye = 10**-18 statcoulomb cm , SI units = C m)
                  (au)            (Debye)         (10**-30 SI)
   Tot        0.567908D+00      0.144348D+01      0.481492D+01
   x          0.000000D+00      0.000000D+00      0.000000D+00
   y          0.000000D+00      0.000000D+00      0.000000D+00
   z          0.567908D+00      0.144348D+01      0.481492D+01

 Dipole polarizability, Alpha (dipole orientation).
 (esu units = cm**3 , SI units = C**2 m**2 J**-1)
 Alpha(0;0):
               (au)            (10**-24 esu)      (10**-40 SI)
   iso        0.273427D+02      0.405177D+01      0.450820D+01
   aniso      0.218207D+02      0.323350D+01      0.359775D+01
   xx         0.272850D+02      0.404322D+01      0.449869D+01
   yx         0.000000D+00      0.000000D+00      0.000000D+00
   yy         0.179130D+02      0.265443D+01      0.295346D+01
   zx        -0.832162D+01     -0.123314D+01     -0.137205D+01
   zy         0.000000D+00      0.000000D+00      0.000000D+00
   zz         0.368300D+02      0.545764D+01      0.607245D+01

 ----------------------------------------------------------------------
 1\1\GINC-N2228\Freq\RMP2-FC\Aug-CC-pVTZ\H1N1O3\CGAVINH\21-Feb-2022\1\\
 #p freq mp2/aug-cc-pvtz density=current\\title\\0,1\H\O,1,r1\O,2,r2,1,
 a1\N,3,r3,2,a2,1,d1,0\O,4,r4,3,a3,2,d2,0\\r1=0.96897556\r2=1.45491931\
 r3=1.45878406\r4=1.17072885\a1=97.59494903\a2=102.29752444\a3=108.2822
 9308\d1=180.\d2=180.\\Version=ES64L-G16RevB.01\State=1-A'\HF=-279.5016
 905\MP2=-280.4466895\RMSD=3.756e-09\RMSF=1.494e-03\ZeroPoint=0.0218908
 \Thermal=0.0260024\Dipole=-0.1481652,0.,-0.5482393\DipoleDeriv=0.26590
 89,0.,0.0480586,0.,0.3554,0.,0.0814743,0.,0.2743659,-0.3299165,0.,-0.2
 075018,0.,-0.3143972,0.,-0.1122595,0.,-0.2235296,-0.041843,0.,0.151210
 1,0.,-0.0878793,0.,-0.7483668,0.,-1.3391241,0.8964776,0.,0.9052958,0.,
 0.0687388,0.,0.9164572,0.,1.6482986,-0.790627,0.,-0.8970628,0.,-0.0218
 624,0.,-0.1373051,0.,-0.3600109\Polar=32.126491,0.,17.9130129,9.592772
 ,0.,31.9885245\Quadrupole=-1.5216713,-0.7206504,2.2423218,0.,2.0814703
 ,0.\PG=CS [SG(H1N1O3)]\NImag=1\\0.06464581,0.,-0.00232772,0.00539528,0
 .,0.51232225,-0.03575839,0.,-0.01633306,0.27312033,0.,0.00297159,0.,0.
 ,0.00211570,0.04817128,0.,-0.50850434,0.03404120,0.,0.59454591,-0.0183
 3842,0.,0.01246378,-0.21996347,0.,-0.02132212,0.34265672,0.,0.00102452
 ,0.,0.,-0.00675384,0.,0.,0.00479745,-0.05318666,0.,-0.00056765,-0.0195
 0287,0.,-0.07853698,0.03845301,0.,0.18258975,-0.00913618,0.,-0.0048521
 1,-0.01759639,0.,-0.05205835,-0.07667983,0.,0.17304588,0.82900670,0.,-
 0.00270324,0.,0.,-0.00465938,0.,0.,0.00704045,0.,0.,0.01064852,0.00543
 215,0.,-0.00458172,0.01165071,0.,0.01744804,0.06245545,0.,-0.08314337,
 -0.02390169,0.,0.18488664,-0.00141280,0.,0.00332610,0.00019793,0.,-0.0
 0883201,-0.02767500,0.,-0.13880936,-0.72559430,0.,-0.05563662,0.754484
 18,0.,0.00103485,0.,0.,0.00632593,0.,0.,-0.00610857,0.,0.,-0.01032635,
 0.,0.,0.00907414,-0.00581204,0.,0.00133146,-0.00985599,0.,-0.02495264,
 -0.09205013,0.,-0.02034175,-0.09223372,0.,-0.11460959,0.19995189,0.,0.
 15857253\\0.00009336,0.,-0.00001800,0.00011628,0.,0.00057462,0.0026882
 0,0.,-0.00040636,-0.00206930,0.,0.00314580,-0.00082854,0.,-0.00329606\
 \\@


 THERE ARE TWO THINGS THAT EVERYBODY THINKS THEY CAN DO BETTER THAN
 ANYONE ELSE - PUNCH THE FIRE, AND EDIT A DAILY PAPER.
 -- UNCLE ESEK, "CENTURY MAGAZINE", 1885
 Job cpu time:       0 days  1 hours 59 minutes 59.0 seconds.
 Elapsed time:       0 days  0 hours  4 minutes 20.2 seconds.
 File lengths (MBytes):  RWF=   7239 Int=      0 D2E=      0 Chk=      8 Scr=      1
 Normal termination of Gaussian 16 at Mon Feb 21 20:55:46 2022.
