title                                                                   
Freq      RMP2-FC                                                     Aug-CC-pVTZ         
Number of atoms                            I                5
Info1-9                                    I   N=           9
          33          24           0           0           0         100
           6           2           1
Full Title                                 C   N=           1
title       
Route                                      C   N=           4
#p freq mp2/aug-cc-pvtz density=current         
Charge                                     I                0
Multiplicity                               I                1
Number of electrons                        I               32
Number of alpha electrons                  I               16
Number of beta electrons                   I               16
Number of basis functions                  I              207
Number of independent functions            I              207
Number of point charges in /Mol/           I                0
Number of translation vectors              I                0
Atomic numbers                             I   N=           5
           1           8           8           7           8
Nuclear charges                            R   N=           5
  1.00000000E+00  8.00000000E+00  8.00000000E+00  7.00000000E+00  8.00000000E+00
Current cartesian coordinates              R   N=          15
  2.92991039E+00  3.17544004E+00  1.97356345E-31  2.74790263E+00  1.35340968E+00
  1.57847019E-32 -8.66984698E-17  1.26271155E+00  2.57227805E-32 -4.94411410E-01
 -1.42924861E+00 -1.03164591E-31 -2.68153145E+00 -1.76245871E+00 -1.00309649E-31
Number of symbols in /Mol/                 I                0
Force Field                                I                0
Atom Types                                 C   N=           5
                                                            
Int Atom Types                             I   N=           5
           0           0           0           0           0
MM charges                                 R   N=           5
  0.00000000E+00  0.00000000E+00  0.00000000E+00  0.00000000E+00  0.00000000E+00
Integer atomic weights                     I   N=           5
           1          16          16          14          16
Real atomic weights                        R   N=           5
  1.00782504E+00  1.59949146E+01  1.59949146E+01  1.40030740E+01  1.59949146E+01
Atom fragment info                         I   N=           5
           0           0           0           0           0
Atom residue num                           I   N=           5
           0           0           0           0           0
Nuclear spins                              I   N=           5
           1           0           0           2           0
Nuclear ZEff                               R   N=           5
 -1.00000000E+00 -5.60000000E+00 -5.60000000E+00 -4.55000000E+00 -5.60000000E+00
Nuclear ZNuc                               R   N=           5
  1.00000000E+00  8.00000000E+00  8.00000000E+00  7.00000000E+00  8.00000000E+00
Nuclear QMom                               R   N=           5
  0.00000000E+00  0.00000000E+00  0.00000000E+00  2.04400000E+00  0.00000000E+00
Nuclear GFac                               R   N=           5
  2.79284600E+00  0.00000000E+00  0.00000000E+00  4.03761000E-01  0.00000000E+00
MicOpt                                     I   N=           5
          -1          -1          -1          -1          -1
Number of residues                         I                0
Number of secondary structures             I                0
SymInf integers                            I   N=          26
           1           2           1           1           1           1
           1          -1           0           0           0           0
           0           0           0           0           0           0
           0           0           0           0           0           0
           0           0
RotTr to input orientation                 R   N=          12
 -9.95047744E-01 -9.87601993E-17 -9.93981273E-02  9.93981273E-02 -7.24156120E-17
 -9.95047744E-01  9.10731373E-17 -1.00000000E+00  8.18735702E-17  2.59976793E+00
  0.00000000E+00  3.45094205E+00
Number of contracted shells                I               65
Number of primitive shells                 I              119
Pure/Cartesian d shells                    I                0
Pure/Cartesian f shells                    I                0
Highest angular momentum                   I                3
Largest degree of contraction              I                7
Shell types                                I   N=          65
           0           0           0           0           1           1
           1          -2          -2           0           0           0
           0           0           1           1           1           1
          -2          -2          -2          -3          -3           0
           0           0           0           0           1           1
           1           1          -2          -2          -2          -3
          -3           0           0           0           0           0
           1           1           1           1          -2          -2
          -2          -3          -3           0           0           0
           0           0           1           1           1           1
          -2          -2          -2          -3          -3
Number of primitives per shell             I   N=          65
           3           1           1           1           1           1
           1           1           1           7           6           1
           1           1           3           1           1           1
           1           1           1           1           1           7
           6           1           1           1           3           1
           1           1           1           1           1           1
           1           7           6           1           1           1
           3           1           1           1           1           1
           1           1           1           7           6           1
           1           1           3           1           1           1
           1           1           1           1           1
Shell to atom map                          I   N=          65
           1           1           1           1           1           1
           1           1           1           2           2           2
           2           2           2           2           2           2
           2           2           2           2           2           3
           3           3           3           3           3           3
           3           3           3           3           3           3
           3           4           4           4           4           4
           4           4           4           4           4           4
           4           4           4           5           5           5
           5           5           5           5           5           5
           5           5           5           5           5
Primitive exponents                        R   N=         119
  3.38700000E+01  5.09500000E+00  1.15900000E+00  3.25800000E-01  1.02700000E-01
  2.52600000E-02  1.40700000E+00  3.88000000E-01  1.02000000E-01  1.05700000E+00
  2.47000000E-01  1.53300000E+04  2.29900000E+03  5.22400000E+02  1.47300000E+02
  4.75500000E+01  1.67600000E+01  6.20700000E+00  5.22400000E+02  1.47300000E+02
  4.75500000E+01  1.67600000E+01  6.20700000E+00  6.88200000E-01  1.75200000E+00
  2.38400000E-01  7.37600000E-02  3.44600000E+01  7.74900000E+00  2.28000000E+00
  7.15600000E-01  2.14000000E-01  5.97400000E-02  2.31400000E+00  6.45000000E-01
  2.14000000E-01  1.42800000E+00  5.00000000E-01  1.53300000E+04  2.29900000E+03
  5.22400000E+02  1.47300000E+02  4.75500000E+01  1.67600000E+01  6.20700000E+00
  5.22400000E+02  1.47300000E+02  4.75500000E+01  1.67600000E+01  6.20700000E+00
  6.88200000E-01  1.75200000E+00  2.38400000E-01  7.37600000E-02  3.44600000E+01
  7.74900000E+00  2.28000000E+00  7.15600000E-01  2.14000000E-01  5.97400000E-02
  2.31400000E+00  6.45000000E-01  2.14000000E-01  1.42800000E+00  5.00000000E-01
  1.14200000E+04  1.71200000E+03  3.89300000E+02  1.10000000E+02  3.55700000E+01
  1.25400000E+01  4.64400000E+00  3.89300000E+02  1.10000000E+02  3.55700000E+01
  1.25400000E+01  4.64400000E+00  5.11800000E-01  1.29300000E+00  1.78700000E-01
  5.76000000E-02  2.66300000E+01  5.94800000E+00  1.74200000E+00  5.55000000E-01
  1.72500000E-01  4.91000000E-02  1.65400000E+00  4.69000000E-01  1.51000000E-01
  1.09300000E+00  3.64000000E-01  1.53300000E+04  2.29900000E+03  5.22400000E+02
  1.47300000E+02  4.75500000E+01  1.67600000E+01  6.20700000E+00  5.22400000E+02
  1.47300000E+02  4.75500000E+01  1.67600000E+01  6.20700000E+00  6.88200000E-01
  1.75200000E+00  2.38400000E-01  7.37600000E-02  3.44600000E+01  7.74900000E+00
  2.28000000E+00  7.15600000E-01  2.14000000E-01  5.97400000E-02  2.31400000E+00
  6.45000000E-01  2.14000000E-01  1.42800000E+00  5.00000000E-01
Contraction coefficients                   R   N=         119
  2.54948632E-02  1.90362766E-01  8.52162022E-01  1.00000000E+00  1.00000000E+00
  1.00000000E+00  1.00000000E+00  1.00000000E+00  1.00000000E+00  1.00000000E+00
  1.00000000E+00  5.19808943E-04  4.02025621E-03  2.07128267E-02  8.10105536E-02
  2.35962985E-01  4.42653446E-01  3.57064423E-01 -4.42115008E-05 -1.22591041E-03
 -1.05517725E-02 -6.74452633E-02 -1.71198607E-01  1.07329856E+00  1.00000000E+00
  1.00000000E+00  1.00000000E+00  4.11634896E-02  2.57762836E-01  8.02419274E-01
  1.00000000E+00  1.00000000E+00  1.00000000E+00  1.00000000E+00  1.00000000E+00
  1.00000000E+00  1.00000000E+00  1.00000000E+00  5.19808943E-04  4.02025621E-03
  2.07128267E-02  8.10105536E-02  2.35962985E-01  4.42653446E-01  3.57064423E-01
 -4.42115008E-05 -1.22591041E-03 -1.05517725E-02 -6.74452633E-02 -1.71198607E-01
  1.07329856E+00  1.00000000E+00  1.00000000E+00  1.00000000E+00  4.11634896E-02
  2.57762836E-01  8.02419274E-01  1.00000000E+00  1.00000000E+00  1.00000000E+00
  1.00000000E+00  1.00000000E+00  1.00000000E+00  1.00000000E+00  1.00000000E+00
  5.34563860E-04  4.13435660E-03  2.12335358E-02  8.25006224E-02  2.38138871E-01
  4.42551547E-01  3.53757422E-01 -4.89867350E-05 -1.19527323E-03 -1.03490714E-02
 -6.48680190E-02 -1.71552477E-01  1.07289568E+00  1.00000000E+00  1.00000000E+00
  1.00000000E+00  3.98072123E-02  2.49002660E-01  8.10479727E-01  1.00000000E+00
  1.00000000E+00  1.00000000E+00  1.00000000E+00  1.00000000E+00  1.00000000E+00
  1.00000000E+00  1.00000000E+00  5.19808943E-04  4.02025621E-03  2.07128267E-02
  8.10105536E-02  2.35962985E-01  4.42653446E-01  3.57064423E-01 -4.42115008E-05
 -1.22591041E-03 -1.05517725E-02 -6.74452633E-02 -1.71198607E-01  1.07329856E+00
  1.00000000E+00  1.00000000E+00  1.00000000E+00  4.11634896E-02  2.57762836E-01
  8.02419274E-01  1.00000000E+00  1.00000000E+00  1.00000000E+00  1.00000000E+00
  1.00000000E+00  1.00000000E+00  1.00000000E+00  1.00000000E+00
Coordinates of each shell                  R   N=         195
  2.92991039E+00  3.17544004E+00  8.18611842E-32  2.92991039E+00  3.17544004E+00
  8.18611842E-32  2.92991039E+00  3.17544004E+00  8.18611842E-32  2.92991039E+00
  3.17544004E+00  8.18611842E-32  2.92991039E+00  3.17544004E+00  8.18611842E-32
  2.92991039E+00  3.17544004E+00  8.18611842E-32  2.92991039E+00  3.17544004E+00
  8.18611842E-32  2.92991039E+00  3.17544004E+00  8.18611842E-32  2.92991039E+00
  3.17544004E+00  8.18611842E-32  2.74790263E+00  1.35340968E+00  4.68844288E-32
  2.74790263E+00  1.35340968E+00  4.68844288E-32  2.74790263E+00  1.35340968E+00
  4.68844288E-32  2.74790263E+00  1.35340968E+00  4.68844288E-32  2.74790263E+00
  1.35340968E+00  4.68844288E-32  2.74790263E+00  1.35340968E+00  4.68844288E-32
  2.74790263E+00  1.35340968E+00  4.68844288E-32  2.74790263E+00  1.35340968E+00
  4.68844288E-32  2.74790263E+00  1.35340968E+00  4.68844288E-32  2.74790263E+00
  1.35340968E+00  4.68844288E-32  2.74790263E+00  1.35340968E+00  4.68844288E-32
  2.74790263E+00  1.35340968E+00  4.68844288E-32  2.74790263E+00  1.35340968E+00
  4.68844288E-32  2.74790263E+00  1.35340968E+00  4.68844288E-32 -2.57564114E-18
  1.26271155E+00  2.32305660E-32 -2.57564114E-18  1.26271155E+00  2.32305660E-32
 -2.57564114E-18  1.26271155E+00  2.32305660E-32 -2.57564114E-18  1.26271155E+00
  2.32305660E-32 -2.57564114E-18  1.26271155E+00  2.32305660E-32 -2.57564114E-18
  1.26271155E+00  2.32305660E-32 -2.57564114E-18  1.26271155E+00  2.32305660E-32
 -2.57564114E-18  1.26271155E+00  2.32305660E-32 -2.57564114E-18  1.26271155E+00
  2.32305660E-32 -2.57564114E-18  1.26271155E+00  2.32305660E-32 -2.57564114E-18
  1.26271155E+00  2.32305660E-32 -2.57564114E-18  1.26271155E+00  2.32305660E-32
 -2.57564114E-18  1.26271155E+00  2.32305660E-32 -2.57564114E-18  1.26271155E+00
  2.32305660E-32 -4.94411410E-01 -1.42924861E+00 -3.02500665E-32 -4.94411410E-01
 -1.42924861E+00 -3.02500665E-32 -4.94411410E-01 -1.42924861E+00 -3.02500665E-32
 -4.94411410E-01 -1.42924861E+00 -3.02500665E-32 -4.94411410E-01 -1.42924861E+00
 -3.02500665E-32 -4.94411410E-01 -1.42924861E+00 -3.02500665E-32 -4.94411410E-01
 -1.42924861E+00 -3.02500665E-32 -4.94411410E-01 -1.42924861E+00 -3.02500665E-32
 -4.94411410E-01 -1.42924861E+00 -3.02500665E-32 -4.94411410E-01 -1.42924861E+00
 -3.02500665E-32 -4.94411410E-01 -1.42924861E+00 -3.02500665E-32 -4.94411410E-01
 -1.42924861E+00 -3.02500665E-32 -4.94411410E-01 -1.42924861E+00 -3.02500665E-32
 -4.94411410E-01 -1.42924861E+00 -3.02500665E-32 -2.68153145E+00 -1.76245871E+00
 -5.38788346E-32 -2.68153145E+00 -1.76245871E+00 -5.38788346E-32 -2.68153145E+00
 -1.76245871E+00 -5.38788346E-32 -2.68153145E+00 -1.76245871E+00 -5.38788346E-32
 -2.68153145E+00 -1.76245871E+00 -5.38788346E-32 -2.68153145E+00 -1.76245871E+00
 -5.38788346E-32 -2.68153145E+00 -1.76245871E+00 -5.38788346E-32 -2.68153145E+00
 -1.76245871E+00 -5.38788346E-32 -2.68153145E+00 -1.76245871E+00 -5.38788346E-32
 -2.68153145E+00 -1.76245871E+00 -5.38788346E-32 -2.68153145E+00 -1.76245871E+00
 -5.38788346E-32 -2.68153145E+00 -1.76245871E+00 -5.38788346E-32 -2.68153145E+00
 -1.76245871E+00 -5.38788346E-32 -2.68153145E+00 -1.76245871E+00 -5.38788346E-32
Num ILSW                                   I              100
ILSW                                       I   N=         100
           0           0           0           0           2           0
           0           0           0           0           0          -1
           5           0           0           0           2           0
           0           0           0           0           1           0
           1           0           0           0           0           0
           0           0      100000           0          -1           0
           0           0           0           0           0           0
           0           0           0           1           1           0
           0 -2000000000           1           0           0           0
           0           0           4          52           0           0
           0           0           0           0           0           0
           0           0           0           5           4           1
           0           0           0           0           0           0
           0           0           0           0           0           0
           0           0           0           0           0           0
           0           0           0           0           0           0
           0           0           0           0
Num RLSW                                   I               52
RLSW                                       R   N=          52
  1.00000000E+00  1.00000000E+00  1.00000000E+00  1.00000000E+00  1.00000000E+00
  0.00000000E+00  0.00000000E+00  1.00000000E+00  0.00000000E+00  0.00000000E+00
  0.00000000E+00  0.00000000E+00  1.00000000E+00  0.00000000E+00  0.00000000E+00
  0.00000000E+00  0.00000000E+00  1.00000000E+00  0.00000000E+00  0.00000000E+00
  0.00000000E+00  0.00000000E+00  1.00000000E+00  0.00000000E+00  0.00000000E+00
  0.00000000E+00  0.00000000E+00  1.00000000E+00  0.00000000E+00  0.00000000E+00
  0.00000000E+00  0.00000000E+00  1.00000000E+00  0.00000000E+00  0.00000000E+00
  0.00000000E+00  0.00000000E+00  0.00000000E+00  1.00000000E+00  1.00000000E+00
  0.00000000E+00  1.00000000E+00  0.00000000E+00  0.00000000E+00  0.00000000E+00
  0.00000000E+00  0.00000000E+00  0.00000000E+00  0.00000000E+00  0.00000000E+00
  0.00000000E+00  0.00000000E+00
MxBond                                     I                2
NBond                                      I   N=           5
           1           2           2           2           1
IBond                                      I   N=          10
           2           0           1           3           2           4
           3           5           4           0
RBond                                      R   N=          10
  1.00000000E+00  0.00000000E+00  1.00000000E+00  1.00000000E+00  1.00000000E+00
  1.00000000E+00  1.00000000E+00  2.00000000E+00  2.00000000E+00  0.00000000E+00
Virial Ratio                               R      2.002295295837817E+00
SCF Energy                                 R     -2.795026657923185E+02
MP2 Energy                                 R     -2.804467131200387E+02
Total Energy                               R     -2.804467131200387E+02
Post-SCF wavefunction norm                 R      1.583617881625291E+00
RMS Force                                  R      1.282600721461028E-03
RMS Density                                R      3.651966173116865E-09
NImag                                      I                1
Job Status                                 I                1
Nuclear derivative order                   I                2
External E-field                           R   N=          35
  0.00000000E+00  0.00000000E+00  0.00000000E+00  0.00000000E+00  0.00000000E+00
  0.00000000E+00  0.00000000E+00  0.00000000E+00  0.00000000E+00  0.00000000E+00
  0.00000000E+00  0.00000000E+00  0.00000000E+00  0.00000000E+00  0.00000000E+00
  0.00000000E+00  0.00000000E+00  0.00000000E+00  0.00000000E+00  0.00000000E+00
  0.00000000E+00  0.00000000E+00  0.00000000E+00  0.00000000E+00  0.00000000E+00
  0.00000000E+00  0.00000000E+00  0.00000000E+00  0.00000000E+00  0.00000000E+00
  0.00000000E+00  0.00000000E+00  0.00000000E+00  0.00000000E+00  0.00000000E+00
IOpCl                                      I                0
IROHF                                      I                0
Alpha Orbital Energies                     R   N=         207
 -2.06926487E+01 -2.06818129E+01 -2.06612561E+01 -1.58111613E+01 -1.62465046E+00
 -1.49718812E+00 -1.25755590E+00 -9.47295164E-01 -7.73627078E-01 -7.60432205E-01
 -7.13623139E-01 -6.78834386E-01 -6.19915314E-01 -5.89975742E-01 -4.86289125E-01
 -4.72914864E-01  2.93403864E-02  7.30211078E-02  8.61329111E-02  1.01832151E-01
  1.33866894E-01  1.34006109E-01  1.43864955E-01  1.54327521E-01  1.78028689E-01
  1.94197306E-01  1.99861602E-01  2.07694319E-01  2.20509801E-01  2.34955115E-01
  2.37507671E-01  2.66130423E-01  2.97290871E-01  3.03657059E-01  3.11252123E-01
  3.44222935E-01  3.50175821E-01  3.87653704E-01  4.21607609E-01  4.31296564E-01
  5.27841387E-01  5.29685849E-01  5.59659974E-01  5.82215308E-01  6.26709222E-01
  6.38908490E-01  6.74786636E-01  6.84426859E-01  7.06007806E-01  7.10908480E-01
  7.23989244E-01  7.28686402E-01  7.44313163E-01  7.91669765E-01  7.92227688E-01
  8.10729216E-01  8.11984237E-01  8.31109193E-01  8.69010285E-01  9.08333922E-01
  9.21559553E-01  9.27084519E-01  9.55616333E-01  9.78991420E-01  9.84219243E-01
  1.01560571E+00  1.05246912E+00  1.05534610E+00  1.08334416E+00  1.11845845E+00
  1.14226580E+00  1.19003484E+00  1.22106725E+00  1.23294118E+00  1.34003269E+00
  1.35242343E+00  1.38506967E+00  1.45508099E+00  1.48785821E+00  1.50850735E+00
  1.53872250E+00  1.56816593E+00  1.58174253E+00  1.61378895E+00  1.66495776E+00
  1.66976080E+00  1.70427341E+00  1.79323936E+00  1.83185151E+00  1.83649963E+00
  1.87805054E+00  1.91144135E+00  1.95630107E+00  1.99426057E+00  2.00668577E+00
  2.08106310E+00  2.12215067E+00  2.13347751E+00  2.14851244E+00  2.22648858E+00
  2.26388037E+00  2.26486178E+00  2.29120916E+00  2.31463163E+00  2.34668662E+00
  2.38607947E+00  2.42597249E+00  2.43127003E+00  2.45544608E+00  2.46405981E+00
  2.47840949E+00  2.50290096E+00  2.58853387E+00  2.59743884E+00  2.62350911E+00
  2.62558581E+00  2.63378451E+00  2.66873671E+00  2.75927414E+00  2.82961564E+00
  2.86023374E+00  2.88810848E+00  2.89331362E+00  2.93271013E+00  2.95857399E+00
  3.02910196E+00  3.07220258E+00  3.12493283E+00  3.20332400E+00  3.22884151E+00
  3.31852366E+00  3.34464112E+00  3.51871177E+00  3.64736439E+00  3.84338812E+00
  3.84713284E+00  4.14877474E+00  4.16074677E+00  4.18536474E+00  4.26223686E+00
  4.35154677E+00  4.39360451E+00  4.46268817E+00  4.52047694E+00  4.66557981E+00
  4.71207267E+00  4.80717028E+00  4.82749014E+00  4.83284306E+00  4.89682556E+00
  5.02675400E+00  5.08061847E+00  5.10746242E+00  5.14393576E+00  5.18203882E+00
  5.24520988E+00  5.27587025E+00  5.31049852E+00  5.33057969E+00  5.35955367E+00
  5.60903433E+00  5.67554688E+00  5.77556652E+00  5.82826343E+00  5.96074472E+00
  6.17308364E+00  6.30888800E+00  6.34251159E+00  6.39657824E+00  6.49609687E+00
  6.50763020E+00  6.61416168E+00  6.66748437E+00  6.70325683E+00  6.75656813E+00
  6.76325276E+00  6.83564206E+00  6.90176108E+00  7.01627108E+00  7.05603068E+00
  7.05802531E+00  7.08996573E+00  7.12761420E+00  7.15263790E+00  7.18197298E+00
  7.22983270E+00  7.24109651E+00  7.30541201E+00  7.32694105E+00  7.35030772E+00
  7.40256393E+00  7.43650587E+00  7.48733174E+00  7.60982493E+00  7.62246965E+00
  7.63605508E+00  7.67145148E+00  7.79334271E+00  7.88968055E+00  8.10528428E+00
  8.31925348E+00  8.40920230E+00  8.54937738E+00  1.34177240E+01  1.44512595E+01
  1.51707132E+01  1.61729899E+01
Alpha MO coefficients                      R   N=       42849
  9.13174514E-05 -6.24927319E-04 -7.10526246E-04 -4.33434769E-06 -2.07431793E-05
 -2.69839319E-05  0.00000000E+00 -4.08840306E-05  5.55994892E-05  0.00000000E+00
  8.63447609E-05  3.08696190E-05  0.00000000E+00  3.15327338E-05  0.00000000E+00
  0.00000000E+00 -5.02006135E-05  2.05581994E-05 -5.48691229E-06  0.00000000E+00
  0.00000000E+00 -1.38094827E-04  1.18192039E-04  4.51138276E-03 -2.83009309E-04
  1.18220723E-05  1.56467815E-03  1.82249009E-03  1.06256607E-04  7.22327395E-06
  0.00000000E+00 -6.18179113E-04 -3.58044734E-05  0.00000000E+00 -1.12144833E-03
  7.85164351E-04  0.00000000E+00 -4.05296943E-04  6.23376887E-05  0.00000000E+00
  2.88917220E-05  0.00000000E+00  0.00000000E+00 -5.38928995E-05  6.29897325E-06
 -3.78194599E-04  0.00000000E+00  0.00000000E+00  7.40155517E-04 -3.68445004E-05
 -4.46157539E-04  0.00000000E+00  0.00000000E+00  2.49792478E-04 -2.01390529E-05
  0.00000000E+00  7.99655888E-05  1.25844575E-05  0.00000000E+00  0.00000000E+00
 -1.09487904E-04 -2.95507968E-06  0.00000000E+00  2.54896781E-04 -2.80429841E-05
  0.00000000E+00  0.00000000E+00 -3.50759764E-04  5.32309066E-05  9.76907073E-01
 -9.22271274E-03  4.33325322E-02  1.95340927E-03 -9.57389197E-04  1.48706732E-03
 -1.37935252E-03  0.00000000E+00 -1.42346519E-03  1.42012868E-03  0.00000000E+00
  6.72869053E-05 -1.13320102E-03  0.00000000E+00 -1.34696774E-04 -5.98256450E-06
  0.00000000E+00  4.34121524E-05  0.00000000E+00  0.00000000E+00 -3.79810540E-05
  2.23172737E-05  7.56708112E-04  0.00000000E+00  0.00000000E+00 -2.17369215E-04
 -3.96505580E-04 -3.51928598E-04  0.00000000E+00  0.00000000E+00 -3.13161647E-04
 -3.77291588E-04  0.00000000E+00  4.64894326E-05 -5.00512398E-05  0.00000000E+00
  0.00000000E+00 -3.95639004E-05 -1.61929942E-05  0.00000000E+00  2.49597869E-05
  1.74035728E-05  0.00000000E+00  0.00000000E+00 -3.08163279E-04 -1.45693699E-04
  4.33575234E-05  7.25563155E-05 -2.73432274E-04 -6.74344106E-04 -1.32001648E-04
 -2.72129975E-05 -9.91627324E-05  0.00000000E+00  2.75896626E-04  7.60423763E-04
  0.00000000E+00 -8.23702621E-04 -4.21999450E-04  0.00000000E+00 -1.24740408E-04
 -2.21417611E-05  0.00000000E+00 -2.25113281E-05  0.00000000E+00  0.00000000E+00
 -3.73785884E-05  1.75801371E-05 -3.39893991E-04  0.00000000E+00  0.00000000E+00
 -8.45369192E-04  1.30768367E-04 -4.05593037E-05  0.00000000E+00  0.00000000E+00
  9.06318032E-05 -1.22104652E-04  0.00000000E+00 -2.10355002E-05 -1.21559446E-04
  0.00000000E+00  0.00000000E+00 -6.49667099E-05 -1.38080015E-04  0.00000000E+00
 -5.53899972E-08 -1.56885478E-04  0.00000000E+00  0.00000000E+00  3.41803211E-05
 -4.13680939E-04 -1.57738629E-03  1.08824235E-04 -7.81462490E-05 -2.24539474E-04
  1.50354843E-04 -6.08964721E-06 -2.60026216E-05  0.00000000E+00  6.84691989E-05
  1.57166383E-04  0.00000000E+00  2.47933719E-04  1.82441479E-04  0.00000000E+00
  1.31433600E-04  2.42245617E-05  0.00000000E+00 -3.13886603E-06  0.00000000E+00
  0.00000000E+00 -1.80161091E-05  1.61633491E-06 -5.23391598E-07  0.00000000E+00
  0.00000000E+00  8.29054443E-05  8.11463814E-05 -1.02698333E-04  0.00000000E+00
  0.00000000E+00  1.70668216E-04  1.54965766E-04  0.00000000E+00  1.62729859E-05
 -2.74655986E-06  0.00000000E+00  0.00000000E+00 -2.94686562E-06 -1.28642297E-05
  0.00000000E+00 -3.54567147E-05  4.44948459E-05  0.00000000E+00  0.00000000E+00
  8.36897079E-05  8.76678689E-05  3.94391151E-05 -9.94339074E-04 -4.86141184E-04
 -9.94987193E-06 -2.17751609E-05  1.58066093E-05  0.00000000E+00 -1.29044831E-06
  2.74366302E-04  0.00000000E+00 -4.29817614E-05  1.33469538E-04  0.00000000E+00
  2.60507497E-05  0.00000000E+00  0.00000000E+00  1.21745872E-05  1.12519524E-05
 -2.88703597E-05  0.00000000E+00  0.00000000E+00  1.27462591E-05  3.63787289E-05
  1.25002431E-04  8.40971427E-05 -2.75173330E-05  7.66474243E-04  6.58419996E-04
  1.03741183E-05  2.55952274E-06  0.00000000E+00 -7.43768238E-05  1.47315527E-05
  0.00000000E+00  3.32725412E-04  9.17006779E-04  0.00000000E+00  2.65514533E-06
  8.31527996E-05  0.00000000E+00 -2.30804324E-06  0.00000000E+00  0.00000000E+00
 -1.52286578E-07 -5.70059076E-06 -3.58264048E-05  0.00000000E+00  0.00000000E+00
 -1.87109942E-05  8.21483708E-05 -2.29899151E-05  0.00000000E+00  0.00000000E+00
 -2.69401774E-04 -1.69647639E-04  0.00000000E+00  9.20576037E-06  6.16389235E-06
  0.00000000E+00  0.00000000E+00  2.53121812E-06 -1.88386725E-05  0.00000000E+00
 -4.05285454E-05 -3.90456300E-05  0.00000000E+00  0.00000000E+00 -7.75068951E-05
  2.25303275E-05  1.61536124E-03  4.86229497E-05  4.73782811E-05 -5.87147068E-05
 -4.58092070E-04  4.89265801E-06  1.71028277E-05  0.00000000E+00 -5.87622440E-05
 -5.88150773E-05  0.00000000E+00  2.25428364E-04 -2.29037426E-04  0.00000000E+00
 -1.92946521E-04 -7.14312713E-05  0.00000000E+00 -8.98128771E-06  0.00000000E+00
  0.00000000E+00  2.33281296E-05  2.05462051E-05  3.97591726E-06  0.00000000E+00
  0.00000000E+00 -1.24513312E-04 -5.11414465E-05 -5.75743900E-06  0.00000000E+00
  0.00000000E+00 -2.38440950E-04 -2.13551697E-04  0.00000000E+00  2.22126178E-06
 -1.16808697E-06  0.00000000E+00  0.00000000E+00  3.96809650E-07 -1.17780981E-05
  0.00000000E+00 -4.52613947E-05  5.79824914E-06  0.00000000E+00  0.00000000E+00
 -7.60555377E-05  1.89307715E-04  2.57912649E-04  1.46350292E-03 -7.58226861E-05
 -1.57724181E-03  3.82395400E-04 -1.43658036E-04  8.76935293E-07  0.00000000E+00
 -2.10128831E-03 -4.09627696E-04  0.00000000E+00  1.04800454E-03  7.56177390E-04
  0.00000000E+00 -1.69234820E-04  5.45573690E-05  0.00000000E+00 -1.23263072E-04
  0.00000000E+00  0.00000000E+00  2.44252961E-04  9.39602267E-05 -4.40207823E-04
  0.00000000E+00  0.00000000E+00  9.01982393E-04 -7.89267335E-05  1.44635139E-05
  0.00000000E+00  0.00000000E+00 -3.40474584E-04 -1.27631259E-04  0.00000000E+00
 -6.80200368E-07  1.56850161E-05  0.00000000E+00  0.00000000E+00  1.97619438E-05
  1.35503022E-05  0.00000000E+00  1.62797399E-04 -7.34040672E-05  0.00000000E+00
  0.00000000E+00 -2.36665479E-04  4.82693479E-05  9.76648968E-01 -9.84615096E-03
  4.35739638E-02  4.51443791E-03 -4.42812953E-04  2.15056696E-03  4.80167692E-04
  0.00000000E+00 -2.38545821E-03 -6.04373249E-04  0.00000000E+00  1.13704392E-03
 -9.46178549E-06  0.00000000E+00  4.78447291E-06 -4.37617166E-05  0.00000000E+00
 -2.32472575E-04  0.00000000E+00  0.00000000E+00  1.02141761E-04  3.21939077E-05
  3.92462961E-04  0.00000000E+00  0.00000000E+00 -8.37295489E-04 -4.20435123E-04
 -1.51847051E-04  0.00000000E+00  0.00000000E+00  2.52735938E-04  1.31527241E-05
  0.00000000E+00  5.24204122E-05  1.77113455E-05  0.00000000E+00  0.00000000E+00
 -2.19498275E-05 -1.31428012E-05  0.00000000E+00  1.39663703E-04  9.22582064E-06
  0.00000000E+00  0.00000000E+00 -1.91075503E-04 -1.41821949E-04  4.74654141E-04
  2.07795735E-03  1.28475194E-04  1.55314480E-05 -4.12089324E-05 -2.47267664E-04
  0.00000000E+00  1.08593304E-04 -1.28113278E-03  0.00000000E+00  3.11333287E-04
 -3.43645909E-04  0.00000000E+00 -3.10596307E-06  0.00000000E+00  0.00000000E+00
  7.56465470E-05  1.53329220E-05 -1.60448997E-04  0.00000000E+00  0.00000000E+00
 -5.37502599E-04 -2.20805623E-05  9.76830366E-01 -9.16495621E-03  4.34501896E-02
  1.52239423E-04 -1.15796325E-03 -1.56134891E-03  1.44622582E-03  0.00000000E+00
  1.57429855E-03 -1.29006443E-03  0.00000000E+00 -5.73709122E-04 -8.79866616E-04
  0.00000000E+00  5.64402229E-05 -3.50406660E-05  0.00000000E+00  2.95802740E-05
  0.00000000E+00  0.00000000E+00 -1.18391115E-04 -2.30644662E-06  7.59038905E-04
  0.00000000E+00  0.00000000E+00 -2.03392608E-04 -2.35208825E-04 -2.64028312E-04
  0.00000000E+00  0.00000000E+00  1.70447120E-04  1.27793919E-04  0.00000000E+00
 -6.41269790E-05  1.38405602E-06  0.00000000E+00  0.00000000E+00  1.88348196E-05