 Entering Gaussian System, Link 0=g16
 Input=hoono_a2_104p0791.gjf
 Output=hoono_a2_104p0791.log
 Initial command:
 /sw/contrib/gaussian/g16/B01/g16/l1.exe "/scr/Gau-24084.inp" -scrdir="/scr/"
 Entering Link 1 = /sw/contrib/gaussian/g16/B01/g16/l1.exe PID=     24085.
  
 Copyright (c) 1988-2017, Gaussian, Inc.  All Rights Reserved.
  
 This is part of the Gaussian(R) 16 program.  It is based on
 the Gaussian(R) 09 system (copyright 2009, Gaussian, Inc.),
 the Gaussian(R) 03 system (copyright 2003, Gaussian, Inc.),
 the Gaussian(R) 98 system (copyright 1998, Gaussian, Inc.),
 the Gaussian(R) 94 system (copyright 1995, Gaussian, Inc.),
 the Gaussian 92(TM) system (copyright 1992, Gaussian, Inc.),
 the Gaussian 90(TM) system (copyright 1990, Gaussian, Inc.),
 the Gaussian 88(TM) system (copyright 1988, Gaussian, Inc.),
 the Gaussian 86(TM) system (copyright 1986, Carnegie Mellon
 University), and the Gaussian 82(TM) system (copyright 1983,
 Carnegie Mellon University). Gaussian is a federally registered
 trademark of Gaussian, Inc.
  
 This software contains proprietary and confidential information,
 including trade secrets, belonging to Gaussian, Inc.
  
 This software is provided under written license and may be
 used, copied, transmitted, or stored only in accord with that
 written license.
  
 The following legend is applicable only to US Government
 contracts under FAR:
  
                    RESTRICTED RIGHTS LEGEND
  
 Use, reproduction and disclosure by the US Government is
 subject to restrictions as set forth in subparagraphs (a)
 and (c) of the Commercial Computer Software - Restricted
 Rights clause in FAR 52.227-19.
  
 Gaussian, Inc.
 340 Quinnipiac St., Bldg. 40, Wallingford CT 06492
  
  
 ---------------------------------------------------------------
 Warning -- This program may not be used in any manner that
 competes with the business of Gaussian, Inc. or will provide
 assistance to any competitor of Gaussian, Inc.  The licensee
 of this program is prohibited from giving any competitor of
 Gaussian, Inc. access to this program.  By using this program,
 the user acknowledges that Gaussian, Inc. is engaged in the
 business of creating and licensing software in the field of
 computational chemistry and represents and warrants to the
 licensee that it is not a competitor of Gaussian, Inc. and that
 it will not use this program in any manner prohibited above.
 ---------------------------------------------------------------
  

 Cite this work as:
 Gaussian 16, Revision B.01,
 M. J. Frisch, G. W. Trucks, H. B. Schlegel, G. E. Scuseria, 
 M. A. Robb, J. R. Cheeseman, G. Scalmani, V. Barone, 
 G. A. Petersson, H. Nakatsuji, X. Li, M. Caricato, A. V. Marenich, 
 J. Bloino, B. G. Janesko, R. Gomperts, B. Mennucci, H. P. Hratchian, 
 J. V. Ortiz, A. F. Izmaylov, J. L. Sonnenberg, D. Williams-Young, 
 F. Ding, F. Lipparini, F. Egidi, J. Goings, B. Peng, A. Petrone, 
 T. Henderson, D. Ranasinghe, V. G. Zakrzewski, J. Gao, N. Rega, 
 G. Zheng, W. Liang, M. Hada, M. Ehara, K. Toyota, R. Fukuda, 
 J. Hasegawa, M. Ishida, T. Nakajima, Y. Honda, O. Kitao, H. Nakai, 
 T. Vreven, K. Throssell, J. A. Montgomery, Jr., J. E. Peralta, 
 F. Ogliaro, M. J. Bearpark, J. J. Heyd, E. N. Brothers, K. N. Kudin, 
 V. N. Staroverov, T. A. Keith, R. Kobayashi, J. Normand, 
 K. Raghavachari, A. P. Rendell, J. C. Burant, S. S. Iyengar, 
 J. Tomasi, M. Cossi, J. M. Millam, M. Klene, C. Adamo, R. Cammi, 
 J. W. Ochterski, R. L. Martin, K. Morokuma, O. Farkas, 
 J. B. Foresman, and D. J. Fox, Gaussian, Inc., Wallingford CT, 2016.
 
 ******************************************
 Gaussian 16:  ES64L-G16RevB.01 20-Dec-2017
                21-Feb-2022 
 ******************************************
 %nproc=28
 Will use up to   28 processors via shared memory.
 %mem=120GB
 %chk=hoono_a2_104p0791.chk
 ---------------------------------------
 #p freq mp2/aug-cc-pvtz density=current
 ---------------------------------------
 1/10=4,30=1,38=1/1,3;
 2/12=2,17=6,18=5,40=1/2;
 3/5=16,6=1,7=10,11=9,25=1,30=1,71=2,140=1/1,2,3;
 4//1;
 5/5=2,38=5,98=1/2;
 8/6=3,8=1,10=1,19=11,30=-1/1;
 9/15=3,16=-3/6;
 11/6=1,8=1,15=11,17=12,24=-1,27=1,28=-2,29=300,32=6,42=3/1,2,10;
 10/6=2,21=1/2;
 8/6=4,8=1,10=1,19=11,30=-1/11,4;
 10/5=1,20=4/2;
 11/12=2,14=11,16=1,17=2,28=-2,42=3,76=2/2,10,12;
 6/7=2,8=2,9=2,10=2,22=-1/1;
 7/8=1,10=1,12=2,25=1,44=2/1,2,3,16;
 1/10=4,30=1/3;
 99//99;
 Leave Link    1 at Mon Feb 21 20:41:51 2022, MaxMem= 16106127360 cpu:               2.3 elap:               0.1
 (Enter /sw/contrib/gaussian/g16/B01/g16/l101.exe)
 -----
 title
 -----
 Symbolic Z-matrix:
 Charge =  0 Multiplicity = 1
 H
 O                    1    r1
 O                    2    r2       1    a1
 N                    3    r3       2    a2       1    d1       0
 O                    4    r4       3    a3       2    d2       0
       Variables:
  r1                    0.96898                  
  r2                    1.45492                  
  r3                    1.45878                  
  r4                    1.17073                  
  a1                   97.59495                  
  a2                  104.07916                  
  a3                  109.06955                  
  d1                  180.                       
  d2                  180.                       
 
 ITRead=  0  0  0  0  0
 MicOpt= -1 -1 -1 -1 -1
 NAtoms=      5 NQM=        5 NQMF=       0 NMMI=      0 NMMIF=      0
                NMic=       0 NMicF=      0.
                    Isotopes and Nuclear Properties:
 (Nuclear quadrupole moments (NQMom) in fm**2, nuclear magnetic moments (NMagM)
  in nuclear magnetons)

  Atom         1           2           3           4           5
 IAtWgt=           1          16          16          14          16
 AtmWgt=   1.0078250  15.9949146  15.9949146  14.0030740  15.9949146
 NucSpn=           1           0           0           2           0
 AtZEff=  -0.0000000  -0.0000000  -0.0000000  -0.0000000  -0.0000000
 NQMom=    0.0000000   0.0000000   0.0000000   2.0440000   0.0000000
 NMagM=    2.7928460   0.0000000   0.0000000   0.4037610   0.0000000
 AtZNuc=   1.0000000   8.0000000   8.0000000   7.0000000   8.0000000
 Leave Link  101 at Mon Feb 21 20:41:51 2022, MaxMem= 16106127360 cpu:               2.9 elap:               0.1
 (Enter /sw/contrib/gaussian/g16/B01/g16/l103.exe)

 GradGradGradGradGradGradGradGradGradGradGradGradGradGradGradGradGradGrad
 Berny optimization.
 Initialization pass.
                       ----------------------------
                       !    Initial Parameters    !
                       ! (Angstroms and Degrees)  !
 ----------------------                            ----------------------
 !      Name          Value   Derivative information (Atomic Units)     !
 ------------------------------------------------------------------------
 !       r1          0.969    calculate D2E/DX2 analytically            !
 !       r2          1.4549   calculate D2E/DX2 analytically            !
 !       r3          1.4588   calculate D2E/DX2 analytically            !
 !       r4          1.1707   calculate D2E/DX2 analytically            !
 !       a1         97.5949   calculate D2E/DX2 analytically            !
 !       a2        104.0792   calculate D2E/DX2 analytically            !
 !       a3        109.0696   calculate D2E/DX2 analytically            !
 !       d1        180.0      calculate D2E/DX2 analytically            !
 !       d2        180.0      calculate D2E/DX2 analytically            !
 ------------------------------------------------------------------------
 Trust Radius=3.00D-01 FncErr=1.00D-07 GrdErr=1.00D-07 EigMax=2.50D+02 EigMin=1.00D-04
 Number of steps in this run=      2 maximum allowed number of steps=      2.
 GradGradGradGradGradGradGradGradGradGradGradGradGradGradGradGradGradGrad

 Leave Link  103 at Mon Feb 21 20:41:51 2022, MaxMem= 16106127360 cpu:               0.5 elap:               0.0
 (Enter /sw/contrib/gaussian/g16/B01/g16/l202.exe)
                          Input orientation:                          
 ---------------------------------------------------------------------
 Center     Atomic      Atomic             Coordinates (Angstroms)
 Number     Number       Type             X           Y           Z
 ---------------------------------------------------------------------
      1          1           0        0.000000    0.000000    0.000000
      2          8           0        0.000000    0.000000    0.968976
      3          8           0        1.442156    0.000000    1.161271
      4          7           0        1.606895    0.000000    2.610723
      5          8           0        2.749494    0.000000    2.865817
 ---------------------------------------------------------------------
                    Distance matrix (angstroms):
                    1          2          3          4          5
     1  H    0.000000
     2  O    0.968976   0.000000
     3  O    1.851584   1.454919   0.000000
     4  N    3.065614   2.297270   1.458784   0.000000
     5  O    3.971477   3.340319   2.148165   1.170729   0.000000
 Stoichiometry    HNO3
 Framework group  CS[SG(HNO3)]
 Deg. of freedom     7
 Full point group                 CS      NOp   2
 Largest Abelian subgroup         CS      NOp   2
 Largest concise Abelian subgroup C1      NOp   1
                         Standard orientation:                         
 ---------------------------------------------------------------------
 Center     Atomic      Atomic             Coordinates (Angstroms)
 Number     Number       Type             X           Y           Z
 ---------------------------------------------------------------------
      1          1           0        1.514298    1.725714   -0.000000
      2          8           0        1.451578    0.758770   -0.000000
      3          8           0        0.000000    0.660225    0.000000
      4          7           0       -0.258214   -0.775524   -0.000000
      5          8           0       -1.414928   -0.956126    0.000000
 ---------------------------------------------------------------------
 Rotational constants (GHZ):          56.5089041           4.9464587           4.5483250
 Leave Link  202 at Mon Feb 21 20:41:51 2022, MaxMem= 16106127360 cpu:               0.3 elap:               0.0
 (Enter /sw/contrib/gaussian/g16/B01/g16/l301.exe)
 Standard basis: Aug-CC-pVTZ (5D, 7F)
 Ernie: Thresh=  0.10000D-02 Tol=  0.10000D-05 Strict=F.
 Ernie:  12 primitive shells out of 131 were deleted.
 There are   166 symmetry adapted cartesian basis functions of A'  symmetry.
 There are    79 symmetry adapted cartesian basis functions of A"  symmetry.
 There are   136 symmetry adapted basis functions of A'  symmetry.
 There are    71 symmetry adapted basis functions of A"  symmetry.
   207 basis functions,   315 primitive gaussians,   245 cartesian basis functions
    16 alpha electrons       16 beta electrons
       nuclear repulsion energy       116.6382169167 Hartrees.
 IExCor=    0 DFT=F Ex=HF Corr=None ExCW=0 ScaHFX=  1.000000
 ScaDFX=  1.000000  1.000000  1.000000  1.000000 ScalE2=  1.000000  1.000000
 IRadAn=      5 IRanWt=     -1 IRanGd=            0 ICorTp=0 IEmpDi=  4
 NAtoms=    5 NActive=    5 NUniq=    5 SFac= 1.00D+00 NAtFMM=   60 NAOKFM=F Big=F
 Integral buffers will be    131072 words long.
 Raffenetti 1 integral format.
 Two-electron integral symmetry is turned on.
 Leave Link  301 at Mon Feb 21 20:41:51 2022, MaxMem= 16106127360 cpu:               1.7 elap:               0.1
 (Enter /sw/contrib/gaussian/g16/B01/g16/l302.exe)
 NPDir=0 NMtPBC=     1 NCelOv=     1 NCel=       1 NClECP=     1 NCelD=      1
         NCelK=      1 NCelE2=     1 NClLst=     1 CellRange=     0.0.
 One-electron integrals computed using PRISM.
 One-electron integral symmetry used in STVInt
 NBasis=   207 RedAO= T EigKep=  1.81D-04  NBF=   136    71
 NBsUse=   207 1.00D-06 EigRej= -1.00D+00 NBFU=   136    71
 Leave Link  302 at Mon Feb 21 20:41:51 2022, MaxMem= 16106127360 cpu:               4.7 elap:               0.2
 (Enter /sw/contrib/gaussian/g16/B01/g16/l303.exe)
 DipDrv:  MaxL=1.
 Leave Link  303 at Mon Feb 21 20:41:51 2022, MaxMem= 16106127360 cpu:               1.6 elap:               0.1
 (Enter /sw/contrib/gaussian/g16/B01/g16/l401.exe)
 ExpMin= 2.53D-02 ExpMax= 1.53D+04 ExpMxC= 5.22D+02 IAcc=3 IRadAn=         5 AccDes= 0.00D+00
 Harris functional with IExCor=  205 and IRadAn=       5 diagonalized for initial guess.
 HarFok:  IExCor=  205 AccDes= 0.00D+00 IRadAn=         5 IDoV= 1 UseB2=F ITyADJ=14
 ICtDFT=  3500011 ScaDFX=  1.000000  1.000000  1.000000  1.000000
 FoFCou: FMM=F IPFlag=           0 FMFlag=      100000 FMFlg1=           0
         NFxFlg=           0 DoJE=T BraDBF=F KetDBF=T FulRan=T
         wScrn=  0.000000 ICntrl=       500 IOpCl=  0 I1Cent=   200000004 NGrid=           0
         NMat0=    1 NMatS0=      1 NMatT0=    0 NMatD0=    1 NMtDS0=    0 NMtDT0=    0
 Petite list used in FoFCou.
 Harris En= -279.628881962976    
 JPrj=0 DoOrth=F DoCkMO=F.
 Initial guess orbital symmetries:
       Occupied  (A') (A') (A') (A') (A') (A') (A') (A') (A') (A')
                 (A") (A') (A') (A") (A") (A')
       Virtual   (A") (A') (A') (A') (A') (A') (A") (A') (A') (A')
                 (A") (A') (A") (A') (A') (A") (A') (A") (A') (A')
                 (A') (A') (A') (A') (A') (A") (A') (A") (A') (A')
                 (A") (A') (A") (A') (A') (A") (A') (A") (A') (A')
                 (A") (A') (A") (A') (A") (A') (A') (A') (A") (A")
                 (A') (A') (A') (A') (A") (A') (A") (A') (A") (A')
                 (A') (A') (A") (A') (A') (A") (A') (A") (A') (A')
                 (A") (A') (A') (A") (A") (A') (A') (A") (A') (A')
                 (A') (A") (A') (A") (A') (A") (A') (A") (A') (A')
                 (A') (A") (A') (A") (A') (A") (A") (A') (A') (A')
                 (A") (A') (A") (A') (A') (A") (A') (A') (A") (A')
                 (A") (A') (A') (A') (A") (A') (A') (A') (A") (A')
                 (A") (A') (A') (A") (A") (A') (A") (A') (A") (A')
                 (A') (A') (A') (A") (A") (A') (A") (A') (A') (A')
                 (A') (A") (A") (A') (A') (A") (A') (A') (A') (A')
                 (A") (A') (A') (A") (A') (A") (A') (A") (A') (A")
                 (A') (A") (A') (A") (A') (A") (A") (A") (A') (A')
                 (A") (A') (A") (A') (A") (A') (A") (A") (A') (A')
                 (A') (A') (A') (A') (A') (A') (A') (A') (A') (A')
                 (A')
 The electronic state of the initial guess is 1-A'.
 Leave Link  401 at Mon Feb 21 20:41:52 2022, MaxMem= 16106127360 cpu:               7.0 elap:               0.3
 (Enter /sw/contrib/gaussian/g16/B01/g16/l502.exe)
 Keep R1 ints in memory in symmetry-blocked form, NReq=348887737.
 FoFCou: FMM=F IPFlag=           0 FMFlag=           0 FMFlg1=           0
         NFxFlg=           0 DoJE=F BraDBF=F KetDBF=F FulRan=T
         wScrn=  0.000000 ICntrl=       600 IOpCl=  0 I1Cent=           0 NGrid=           0
         NMat0=    1 NMatS0=  21528 NMatT0=    0 NMatD0=    1 NMtDS0=    0 NMtDT0=    0
 Petite list used in FoFCou.
 Closed shell SCF:
 Using DIIS extrapolation, IDIIS=  1040.
 NGot= 16106127360 LenX= 15988850015 LenY= 15988789549
 Requested convergence on RMS density matrix=1.00D-08 within 128 cycles.
 Requested convergence on MAX density matrix=1.00D-06.
 Requested convergence on             energy=1.00D-06.
 No special actions if energy rises.

 Cycle   1  Pass 1  IDiag  1:
 E= -279.370694011286    
 DIIS: error= 2.47D-02 at cycle   1 NSaved=   1.
 NSaved= 1 IEnMin= 1 EnMin= -279.370694011286     IErMin= 1 ErrMin= 2.47D-02
 ErrMax= 2.47D-02  0.00D+00 EMaxC= 1.00D-01 BMatC= 4.38D-01 BMatP= 4.38D-01
 IDIUse=3 WtCom= 7.53D-01 WtEn= 2.47D-01
 Coeff-Com:  0.100D+01
 Coeff-En:   0.100D+01
 Coeff:      0.100D+01
 Gap=     0.512 Goal=   None    Shift=    0.000
 GapD=    0.512 DampG=2.000 DampE=0.500 DampFc=1.0000 IDamp=-1.
 RMSDP=1.62D-03 MaxDP=9.96D-02              OVMax= 1.12D-01

 Cycle   2  Pass 1  IDiag  1:
 E= -279.452599449970     Delta-E=       -0.081905438684 Rises=F Damp=F
 DIIS: error= 1.77D-02 at cycle   2 NSaved=   2.
 NSaved= 2 IEnMin= 2 EnMin= -279.452599449970     IErMin= 2 ErrMin= 1.77D-02
 ErrMax= 1.77D-02  0.00D+00 EMaxC= 1.00D-01 BMatC= 7.14D-02 BMatP= 4.38D-01
 IDIUse=3 WtCom= 8.23D-01 WtEn= 1.77D-01
 Coeff-Com:  0.194D+00 0.806D+00
 Coeff-En:   0.000D+00 0.100D+01
 Coeff:      0.160D+00 0.840D+00
 Gap=     0.529 Goal=   None    Shift=    0.000
 RMSDP=8.99D-04 MaxDP=3.73D-02 DE=-8.19D-02 OVMax= 6.93D-02

 Cycle   3  Pass 1  IDiag  1:
 E= -279.481517786753     Delta-E=       -0.028918336782 Rises=F Damp=F
 DIIS: error= 1.04D-02 at cycle   3 NSaved=   3.
 NSaved= 3 IEnMin= 3 EnMin= -279.481517786753     IErMin= 3 ErrMin= 1.04D-02
 ErrMax= 1.04D-02  0.00D+00 EMaxC= 1.00D-01 BMatC= 2.87D-02 BMatP= 7.14D-02
 IDIUse=3 WtCom= 8.96D-01 WtEn= 1.04D-01
 Coeff-Com: -0.331D-01 0.379D+00 0.654D+00
 Coeff-En:   0.000D+00 0.242D+00 0.758D+00
 Coeff:     -0.296D-01 0.365D+00 0.665D+00
 Gap=     0.510 Goal=   None    Shift=    0.000
 RMSDP=3.77D-04 MaxDP=1.55D-02 DE=-2.89D-02 OVMax= 3.81D-02

 Cycle   4  Pass 1  IDiag  1:
 E= -279.500589254581     Delta-E=       -0.019071467828 Rises=F Damp=F
 DIIS: error= 1.35D-03 at cycle   4 NSaved=   4.
 NSaved= 4 IEnMin= 4 EnMin= -279.500589254581     IErMin= 4 ErrMin= 1.35D-03
 ErrMax= 1.35D-03  0.00D+00 EMaxC= 1.00D-01 BMatC= 4.95D-04 BMatP= 2.87D-02
 IDIUse=3 WtCom= 9.86D-01 WtEn= 1.35D-02
 Coeff-Com: -0.117D-01 0.578D-01 0.159D+00 0.795D+00
 Coeff-En:   0.000D+00 0.000D+00 0.000D+00 0.100D+01
 Coeff:     -0.115D-01 0.570D-01 0.156D+00 0.798D+00
 Gap=     0.502 Goal=   None    Shift=    0.000
 RMSDP=9.05D-05 MaxDP=2.78D-03 DE=-1.91D-02 OVMax= 1.12D-02

 Cycle   5  Pass 1  IDiag  1:
 E= -279.501268336793     Delta-E=       -0.000679082212 Rises=F Damp=F
 DIIS: error= 7.53D-04 at cycle   5 NSaved=   5.
 NSaved= 5 IEnMin= 5 EnMin= -279.501268336793     IErMin= 5 ErrMin= 7.53D-04
 ErrMax= 7.53D-04  0.00D+00 EMaxC= 1.00D-01 BMatC= 8.77D-05 BMatP= 4.95D-04
 IDIUse=3 WtCom= 9.92D-01 WtEn= 7.53D-03
 Coeff-Com:  0.615D-02-0.728D-01-0.118D+00 0.214D-01 0.116D+01
 Coeff-En:   0.000D+00 0.000D+00 0.000D+00 0.000D+00 0.100D+01
 Coeff:      0.610D-02-0.722D-01-0.117D+00 0.213D-01 0.116D+01
 Gap=     0.502 Goal=   None    Shift=    0.000
 RMSDP=7.67D-05 MaxDP=2.11D-03 DE=-6.79D-04 OVMax= 1.12D-02

 Cycle   6  Pass 1  IDiag  1:
 E= -279.501586418115     Delta-E=       -0.000318081323 Rises=F Damp=F
 DIIS: error= 2.86D-04 at cycle   6 NSaved=   6.
 NSaved= 6 IEnMin= 6 EnMin= -279.501586418115     IErMin= 6 ErrMin= 2.86D-04
 ErrMax= 2.86D-04  0.00D+00 EMaxC= 1.00D-01 BMatC= 1.69D-05 BMatP= 8.77D-05
 IDIUse=3 WtCom= 9.97D-01 WtEn= 2.86D-03
 Coeff-Com:  0.574D-03 0.193D-02 0.505D-02-0.131D+00-0.234D+00 0.136D+01
 Coeff-En:   0.000D+00 0.000D+00 0.000D+00 0.000D+00 0.000D+00 0.100D+01
 Coeff:      0.572D-03 0.192D-02 0.504D-02-0.131D+00-0.233D+00 0.136D+01
 Gap=     0.502 Goal=   None    Shift=    0.000
 RMSDP=4.58D-05 MaxDP=1.26D-03 DE=-3.18D-04 OVMax= 5.61D-03

 Cycle   7  Pass 1  IDiag  1:
 E= -279.501660241488     Delta-E=       -0.000073823372 Rises=F Damp=F
 DIIS: error= 1.24D-04 at cycle   7 NSaved=   7.
 NSaved= 7 IEnMin= 7 EnMin= -279.501660241488     IErMin= 7 ErrMin= 1.24D-04
 ErrMax= 1.24D-04  0.00D+00 EMaxC= 1.00D-01 BMatC= 4.48D-06 BMatP= 1.69D-05
 IDIUse=3 WtCom= 9.99D-01 WtEn= 1.24D-03
 Coeff-Com: -0.951D-03 0.137D-01 0.266D-01-0.236D-01-0.285D+00 0.379D+00
 Coeff-Com:  0.890D+00
 Coeff-En:   0.000D+00 0.000D+00 0.000D+00 0.000D+00 0.000D+00 0.000D+00
 Coeff-En:   0.100D+01
 Coeff:     -0.950D-03 0.137D-01 0.266D-01-0.236D-01-0.285D+00 0.379D+00
 Coeff:      0.890D+00
 Gap=     0.502 Goal=   None    Shift=    0.000
 RMSDP=1.34D-05 MaxDP=3.83D-04 DE=-7.38D-05 OVMax= 1.56D-03

 Cycle   8  Pass 1  IDiag  1:
 E= -279.501669229274     Delta-E=       -0.000008987786 Rises=F Damp=F
 DIIS: error= 5.95D-05 at cycle   8 NSaved=   8.
 NSaved= 8 IEnMin= 8 EnMin= -279.501669229274     IErMin= 8 ErrMin= 5.95D-05
 ErrMax= 5.95D-05  0.00D+00 EMaxC= 1.00D-01 BMatC= 6.16D-07 BMatP= 4.48D-06
 IDIUse=1 WtCom= 1.00D+00 WtEn= 0.00D+00
 Coeff-Com: -0.451D-03 0.348D-02 0.764D-02 0.275D-01-0.412D-01-0.198D+00
 Coeff-Com:  0.179D+00 0.102D+01
 Coeff:     -0.451D-03 0.348D-02 0.764D-02 0.275D-01-0.412D-01-0.198D+00
 Coeff:      0.179D+00 0.102D+01
 Gap=     0.502 Goal=   None    Shift=    0.000
 RMSDP=6.97D-06 MaxDP=2.05D-04 DE=-8.99D-06 OVMax= 7.55D-04

 Cycle   9  Pass 1  IDiag  1:
 E= -279.501671028993     Delta-E=       -0.000001799719 Rises=F Damp=F
 DIIS: error= 1.48D-05 at cycle   9 NSaved=   9.
 NSaved= 9 IEnMin= 9 EnMin= -279.501671028993     IErMin= 9 ErrMin= 1.48D-05
 ErrMax= 1.48D-05  0.00D+00 EMaxC= 1.00D-01 BMatC= 7.16D-08 BMatP= 6.16D-07
 IDIUse=1 WtCom= 1.00D+00 WtEn= 0.00D+00
 Coeff-Com:  0.122D-03-0.173D-02-0.309D-02-0.185D-02 0.342D-01-0.104D-02
 Coeff-Com: -0.170D+00-0.912D-01 0.123D+01
 Coeff:      0.122D-03-0.173D-02-0.309D-02-0.185D-02 0.342D-01-0.104D-02
 Coeff:     -0.170D+00-0.912D-01 0.123D+01
 Gap=     0.502 Goal=   None    Shift=    0.000
 RMSDP=1.97D-06 MaxDP=6.66D-05 DE=-1.80D-06 OVMax= 1.77D-04

 Cycle  10  Pass 1  IDiag  1:
 E= -279.501671193256     Delta-E=       -0.000000164263 Rises=F Damp=F
 DIIS: error= 3.93D-06 at cycle  10 NSaved=  10.
 NSaved=10 IEnMin=10 EnMin= -279.501671193256     IErMin=10 ErrMin= 3.93D-06
 ErrMax= 3.93D-06  0.00D+00 EMaxC= 1.00D-01 BMatC= 5.66D-09 BMatP= 7.16D-08
 IDIUse=1 WtCom= 1.00D+00 WtEn= 0.00D+00
 Coeff-Com:  0.322D-04-0.255D-03-0.348D-03-0.276D-02 0.184D-02 0.200D-01
 Coeff-Com: -0.146D-01-0.750D-01-0.757D-01 0.115D+01
 Coeff:      0.322D-04-0.255D-03-0.348D-03-0.276D-02 0.184D-02 0.200D-01
 Coeff:     -0.146D-01-0.750D-01-0.757D-01 0.115D+01
 Gap=     0.502 Goal=   None    Shift=    0.000
 RMSDP=5.13D-07 MaxDP=2.14D-05 DE=-1.64D-07 OVMax= 4.19D-05

 Cycle  11  Pass 1  IDiag  1:
 E= -279.501671206112     Delta-E=       -0.000000012856 Rises=F Damp=F
 DIIS: error= 2.04D-06 at cycle  11 NSaved=  11.
 NSaved=11 IEnMin=11 EnMin= -279.501671206112     IErMin=11 ErrMin= 2.04D-06
 ErrMax= 2.04D-06  0.00D+00 EMaxC= 1.00D-01 BMatC= 6.74D-10 BMatP= 5.66D-09
 IDIUse=1 WtCom= 1.00D+00 WtEn= 0.00D+00
 Coeff-Com: -0.215D-04 0.247D-03 0.491D-03 0.530D-03-0.429D-02-0.363D-02
 Coeff-Com:  0.216D-01 0.303D-01-0.138D+00-0.183D+00 0.128D+01
 Coeff:     -0.215D-04 0.247D-03 0.491D-03 0.530D-03-0.429D-02-0.363D-02
 Coeff:      0.216D-01 0.303D-01-0.138D+00-0.183D+00 0.128D+01
 Gap=     0.502 Goal=   None    Shift=    0.000
 RMSDP=1.81D-07 MaxDP=6.72D-06 DE=-1.29D-08 OVMax= 1.75D-05

 Cycle  12  Pass 1  IDiag  1:
 E= -279.501671207965     Delta-E=       -0.000000001853 Rises=F Damp=F
 DIIS: error= 6.04D-07 at cycle  12 NSaved=  12.
 NSaved=12 IEnMin=12 EnMin= -279.501671207965     IErMin=12 ErrMin= 6.04D-07
 ErrMax= 6.04D-07  0.00D+00 EMaxC= 1.00D-01 BMatC= 7.34D-11 BMatP= 6.74D-10
 IDIUse=1 WtCom= 1.00D+00 WtEn= 0.00D+00
 Coeff-Com:  0.126D-05-0.296D-04-0.637D-04 0.183D-03 0.109D-02-0.230D-02
 Coeff-Com: -0.418D-02 0.553D-02 0.417D-01-0.110D+00-0.290D+00 0.136D+01
 Coeff:      0.126D-05-0.296D-04-0.637D-04 0.183D-03 0.109D-02-0.230D-02
 Coeff:     -0.418D-02 0.553D-02 0.417D-01-0.110D+00-0.290D+00 0.136D+01
 Gap=     0.502 Goal=   None    Shift=    0.000
 RMSDP=7.34D-08 MaxDP=2.91D-06 DE=-1.85D-09 OVMax= 6.73D-06

 Cycle  13  Pass 1  IDiag  1:
 E= -279.501671208203     Delta-E=       -0.000000000237 Rises=F Damp=F
 DIIS: error= 1.72D-07 at cycle  13 NSaved=  13.
 NSaved=13 IEnMin=13 EnMin= -279.501671208203     IErMin=13 ErrMin= 1.72D-07
 ErrMax= 1.72D-07  0.00D+00 EMaxC= 1.00D-01 BMatC= 4.11D-12 BMatP= 7.34D-11
 IDIUse=1 WtCom= 1.00D+00 WtEn= 0.00D+00
 Coeff-Com:  0.129D-05-0.141D-04-0.226D-04-0.898D-04 0.121D-03 0.770D-03
 Coeff-Com: -0.868D-03-0.324D-02 0.496D-03 0.407D-01-0.332D-01-0.330D+00
 Coeff-Com:  0.132D+01
 Coeff:      0.129D-05-0.141D-04-0.226D-04-0.898D-04 0.121D-03 0.770D-03
 Coeff:     -0.868D-03-0.324D-02 0.496D-03 0.407D-01-0.332D-01-0.330D+00
 Coeff:      0.132D+01
 Gap=     0.502 Goal=   None    Shift=    0.000
 RMSDP=1.95D-08 MaxDP=5.64D-07 DE=-2.37D-10 OVMax= 1.58D-06

 Cycle  14  Pass 1  IDiag  1:
 E= -279.501671208215     Delta-E=       -0.000000000012 Rises=F Damp=F
 DIIS: error= 2.48D-08 at cycle  14 NSaved=  14.
 NSaved=14 IEnMin=14 EnMin= -279.501671208215     IErMin=14 ErrMin= 2.48D-08
 ErrMax= 2.48D-08  0.00D+00 EMaxC= 1.00D-01 BMatC= 1.96D-13 BMatP= 4.11D-12
 IDIUse=1 WtCom= 1.00D+00 WtEn= 0.00D+00
 Coeff-Com: -0.188D-06 0.310D-05 0.554D-05 0.447D-05-0.820D-04 0.454D-04
 Coeff-Com:  0.284D-03 0.210D-03-0.240D-02 0.133D-02 0.172D-01-0.258D-01
 Coeff-Com: -0.198D+00 0.121D+01
 Coeff:     -0.188D-06 0.310D-05 0.554D-05 0.447D-05-0.820D-04 0.454D-04
 Coeff:      0.284D-03 0.210D-03-0.240D-02 0.133D-02 0.172D-01-0.258D-01
 Coeff:     -0.198D+00 0.121D+01
 Gap=     0.502 Goal=   None    Shift=    0.000
 RMSDP=3.81D-09 MaxDP=9.32D-08 DE=-1.19D-11 OVMax= 3.41D-07

 SCF Done:  E(RHF) =  -279.501671208     A.U. after   14 cycles
            NFock= 14  Conv=0.38D-08     -V/T= 2.0024
 KE= 2.788355396101D+02 PE=-8.945908285955D+02 EE= 2.196154008605D+02
 Leave Link  502 at Mon Feb 21 20:41:55 2022, MaxMem= 16106127360 cpu:              54.6 elap:               3.5
 (Enter /sw/contrib/gaussian/g16/B01/g16/l801.exe)
 ExpMin= 2.53D-02 ExpMax= 1.53D+04 ExpMxC= 5.22D+02 IAcc=3 IRadAn=         5 AccDes= 0.00D+00
 HarFok:  IExCor=  205 AccDes= 0.00D+00 IRadAn=         5 IDoV=-2 UseB2=F ITyADJ=14
 ICtDFT= 12500011 ScaDFX=  1.000000  1.000000  1.000000  1.000000
 Largest valence mixing into a core orbital is  2.08D-04
 Largest core mixing into a valence orbital is  3.62D-05
 Range of M.O.s used for correlation:     5   207
 NBasis=   207 NAE=    16 NBE=    16 NFC=     4 NFV=     0
 NROrb=    203 NOA=    12 NOB=    12 NVA=   191 NVB=   191

 **** Warning!!: The largest alpha MO coefficient is  0.17156677D+02

 Leave Link  801 at Mon Feb 21 20:41:55 2022, MaxMem= 16106127360 cpu:               2.1 elap:               0.1
 (Enter /sw/contrib/gaussian/g16/B01/g16/l906.exe)
 Frozen-core derivative calculation, NFC=   4 NFV=   0.
 FulOut=F Deriv=T AODrv=T NAtomX=     5
   MMem=           0  MDisk=          12 MDiskD=          12
  W3Min=      811440 MinDsk=     2425030 NBas6D=         245
 NBas2D=       30762    NTT=       30135    LW2=     7400000
    MDV= 16105574311 MDiskM=      328644 NBas2p=       30702
 Disk-based method using ON**2 memory for 12 occupieds at a time.
 Permanent disk used for amplitudes=    11516536 words.
 Estimated scratch disk usage=   321251614 words.
 IMap=   1   2   3   4   5   6   7   8   9  10  11  12  13  14  15  16
 Actual    scratch disk usage=   310331678 words.
 JobTyp=1 Pass  1:  I=   5 to  16 NPSUse= 28 ParTrn=T ParDer=T DoDerP=T.
 (rs|ai) integrals will be sorted in core.
 Spin components of T(2) and E(2):
     alpha-alpha T2 =       0.3403364445D-01 E2=     -0.1223878387D+00
     alpha-beta  T2 =       0.1868546094D+00 E2=     -0.7001532293D+00
     beta-beta   T2 =       0.3403364445D-01 E2=     -0.1223878387D+00
 The integrals were generated   1 times.
 ANorm=    0.1120232966D+01
 E2 =    -0.9449289068D+00 EUMP2 =    -0.28044660011497D+03
 Leave Link  906 at Mon Feb 21 20:43:33 2022, MaxMem= 16106127360 cpu:            2718.6 elap:              97.2
 (Enter /sw/contrib/gaussian/g16/B01/g16/l1101.exe)
 Using compressed Sx but separate Hx and Fx, NAtomX=     5.
 Will process      6 centers per pass.
 Leave Link 1101 at Mon Feb 21 20:43:33 2022, MaxMem= 16106127360 cpu:               6.3 elap:               0.3
 (Enter /sw/contrib/gaussian/g16/B01/g16/l1102.exe)
 Leave Link 1102 at Mon Feb 21 20:43:33 2022, MaxMem= 16106127360 cpu:               0.6 elap:               0.0
 (Enter /sw/contrib/gaussian/g16/B01/g16/l1110.exe)
 Forming Gx(P) for the SCF density, NAtomX=     5.
 Integral derivatives from FoFJK, PRISM(SPDF).
 Do as many integral derivatives as possible in FoFJK.
 G2DrvN: MDV=   16106126844.
 G2DrvN: will do     6 centers at a time, making    1 passes.
 Calling FoFCou, ICntrl=  3107 FMM=F I1Cent=   0 AccDes= 0.00D+00.
 FoFJK:  IHMeth= 1 ICntrl=    3107 DoSepK=F KAlg= 0 I1Cent=           0 FoldK=F
 IRaf=         0 NMat=       1 IRICut=       1 DoRegI=T DoRafI=F ISym2E= 1 IDoP0=0 IntGTp=1.
 FoFCou: FMM=F IPFlag=           0 FMFlag=      100000 FMFlg1=           0
         NFxFlg=           0 DoJE=F BraDBF=F KetDBF=F FulRan=T
         wScrn=  0.000000 ICntrl=      3107 IOpCl=  0 I1Cent=           0 NGrid=           0
         NMat0=    1 NMatS0=      1 NMatT0=    0 NMatD0=    1 NMtDS0=    0 NMtDT0=    0
 Petite list used in FoFCou.
 End of G2Drv F.D. properties file   721 does not exist.
 End of G2Drv F.D. properties file   722 does not exist.
 End of G2Drv F.D. properties file   788 does not exist.
 Leave Link 1110 at Mon Feb 21 20:43:36 2022, MaxMem= 16106127360 cpu:              83.1 elap:               3.0
 (Enter /sw/contrib/gaussian/g16/B01/g16/l1002.exe)
 Minotr:  Closed shell wavefunction.
          IDoAtm=11111
          Frozen-core window.
          Direct CPHF calculation.
          Differentiating once with respect to electric field.
                with respect to dipole field.
          Differentiating once with respect to nuclear coordinates.
          Requested convergence is 1.0D-08 RMS, and 1.0D-07 maximum.
          Secondary convergence is 1.0D-12 RMS, and 1.0D-12 maximum.
          NewPWx=T KeepS1=T KeepF1=T KeepIn=T MapXYZ=F SortEE=F KeepMc=T.
 Keep R1 ints in memory in symmetry-blocked form, NReq=348888983.
 FoFCou: FMM=F IPFlag=           0 FMFlag=           0 FMFlg1=           0
         NFxFlg=           0 DoJE=F BraDBF=F KetDBF=F FulRan=T
         wScrn=  0.000000 ICntrl=       600 IOpCl=  0 I1Cent=           0 NGrid=           0
         NMat0=    1 NMatS0=  21528 NMatT0=    0 NMatD0=    1 NMtDS0=    0 NMtDT0=    0
 Petite list used in FoFCou.
          MDV=   16106127360 using IRadAn=       1.
          Solving linear equations simultaneously, MaxMat=       0.
          There are    18 degrees of freedom in the 1st order CPHF.  IDoFFX=6 NUNeed=    18.
     15 vectors produced by pass  0 Test12= 1.70D-14 5.56D-09 XBig12= 8.29D+00 1.06D+00.
 AX will form    15 AO Fock derivatives at one time.
     15 vectors produced by pass  1 Test12= 1.70D-14 5.56D-09 XBig12= 1.34D+00 2.48D-01.
     15 vectors produced by pass  2 Test12= 1.70D-14 5.56D-09 XBig12= 1.42D-01 9.93D-02.
     15 vectors produced by pass  3 Test12= 1.70D-14 5.56D-09 XBig12= 5.02D-03 1.11D-02.
     15 vectors produced by pass  4 Test12= 1.70D-14 5.56D-09 XBig12= 9.93D-05 1.90D-03.
     15 vectors produced by pass  5 Test12= 1.70D-14 5.56D-09 XBig12= 1.37D-06 1.75D-04.
     15 vectors produced by pass  6 Test12= 1.70D-14 5.56D-09 XBig12= 1.09D-08 1.51D-05.
     12 vectors produced by pass  7 Test12= 1.70D-14 5.56D-09 XBig12= 8.13D-11 1.28D-06.
      3 vectors produced by pass  8 Test12= 1.70D-14 5.56D-09 XBig12= 5.81D-13 1.19D-07.
      2 vectors produced by pass  9 Test12= 1.70D-14 5.56D-09 XBig12= 3.88D-15 1.01D-08.
 InvSVY:  IOpt=1 It=  1 EMax= 1.11D-15
 Solved reduced A of dimension   122 with    15 vectors.
 FullF1:  Do perturbations      1 to      18.
 Saving first derivative matrices.
 End of Minotr F.D. properties file   721 does not exist.
 End of Minotr F.D. properties file   722 does not exist.
 End of Minotr F.D. properties file   788 does not exist.
 Leave Link 1002 at Mon Feb 21 20:43:39 2022, MaxMem= 16106127360 cpu:              78.9 elap:               2.9
 (Enter /sw/contrib/gaussian/g16/B01/g16/l811.exe)
 MDV= 16106127360.
 Form MO integral derivatives with frozen-active canonical formalism.
 MOERI=1 MOERIx=1 NAtoms=     5 NAtomX=     5.
 Discarding MO integrals.
 MO basis two electron integral derivatives will not be stored on disk.
 IAlg= 3 DoFC=T DoPWx=T Debug=F.
 Frozen-core window:  NFC=   4 NFV=   0.
 Reordered first order wavefunction length =     18678272
 In DefCFB: NBatch=  1 ICI= 16 ICA=191 LFMax= 96
            Large arrays: LIAPS=   619940160 LIARS=   288257200 words.
 In StABat: MaxSiz= 55 MinSiz= 25 NAtomB=  5
 DoIAMN: NPSUse= 28.
 Leave Link  811 at Mon Feb 21 20:44:59 2022, MaxMem= 16106127360 cpu:            2250.9 elap:              80.6
 (Enter /sw/contrib/gaussian/g16/B01/g16/l804.exe)
 Frozen-core window:  NFC=   4 NFV=   0.
 Closed-shell transformation, MDV= 16106127360 ITran=4 ISComp=1.
 Semi-Direct transformation.
 ModeAB=           2 MOrb=            16 LenV=   16104923079
 LASXX=     67341636 LTotXX=    67341636 LenRXX=    67341636
 LTotAB=    68301760 MaxLAS=    99807120 LenRXY=    99807120
 NonZer=   134683272 LenScr=   202817536 LnRSAI=           0
 LnScr1=           0 LExtra=           0 Total=    369966292
 MaxDsk=          -1 SrtSym=           F ITran=            4
 DoSDTr:  NPSUse= 28
 JobTyp=0 Pass  1:  I=   1 to  16.
 (rs|ai) integrals will be sorted in core.
 Complete sort for first half transformation.
 First half transformation complete.
 Begin second half transformation for I=  10.
 Begin second half transformation for I=  10.
 Complete sort for second half transformation.
 Second half transformation complete.
 Spin components of T(2) and E(2):
     alpha-alpha T2 =       0.3403364445D-01 E2=     -0.1223878387D+00
     alpha-beta  T2 =       0.1868546094D+00 E2=     -0.7001532293D+00
     beta-beta   T2 =       0.3403364445D-01 E2=     -0.1223878387D+00
 ANorm=    0.1584248654D+01
 E2 =    -0.9449289068D+00 EUMP2 =    -0.28044660011497D+03
 Leave Link  804 at Mon Feb 21 20:45:15 2022, MaxMem= 16106127360 cpu:             442.8 elap:              15.9
 (Enter /sw/contrib/gaussian/g16/B01/g16/l1002.exe)
 Minotr:  Closed shell wavefunction.
          Computing MP2/KS-MP2 derivatives.
          Using Z-Vector for PSCF gradient.
          Skipping F1 and S1 gradient terms here.
          IDoAtm=11111
          Frozen-core window.
          Using MO integrals in the linear equations.
          Forming densities via direct SCF.
          Differentiating once with respect to electric field.
                with respect to dipole field.
          Differentiating once with respect to nuclear coordinates.
          Using symmetry in CPHF.
          Requested convergence is 1.0D-10 RMS, and 1.0D-09 maximum.
          NewPWx=F KeepS1=T KeepF1=T KeepIn=T MapXYZ=F SortEE=F KeepMc=T.
          MDV=   16106127360 using IRadAn=       5.
          Solving linear equations separately, MaxMat=       0.
          There are     1 degrees of freedom in the 1st order CPHF.  IDoFFX=0 NUNeed=     1.
 FoFJK:  IHMeth= 1 ICntrl=       0 DoSepK=F KAlg= 0 I1Cent=           0 FoldK=F
 IRaf=         0 NMat=       1 IRICut=       1 DoRegI=T DoRafI=F ISym2E= 0 IDoP0=0 IntGTp=1.
 FoFCou: FMM=F IPFlag=           0 FMFlag=      100000 FMFlg1=           0
         NFxFlg=           0 DoJE=F BraDBF=F KetDBF=F FulRan=T
         wScrn=  0.000000 ICntrl=         0 IOpCl=  0 I1Cent=           0 NGrid=           0
         NMat0=    1 NMatS0=      1 NMatT0=    0 NMatD0=    1 NMtDS0=    0 NMtDT0=    0
 Symmetry not used in FoFCou.
 LinEq1:  Iter=  0 NonCon=     1 RMS=5.98D-03 Max=1.33D-01 NDo=     1
 LinEq1:  Iter=  1 NonCon=     1 RMS=1.92D-03 Max=3.83D-02 NDo=     1
 LinEq1:  Iter=  2 NonCon=     1 RMS=8.72D-04 Max=1.35D-02 NDo=     1
 LinEq1:  Iter=  3 NonCon=     1 RMS=3.89D-04 Max=7.89D-03 NDo=     1
 LinEq1:  Iter=  4 NonCon=     1 RMS=1.21D-04 Max=1.93D-03 NDo=     1
 LinEq1:  Iter=  5 NonCon=     1 RMS=4.74D-05 Max=7.49D-04 NDo=     1
 LinEq1:  Iter=  6 NonCon=     1 RMS=2.10D-05 Max=2.53D-04 NDo=     1
 LinEq1:  Iter=  7 NonCon=     1 RMS=8.32D-06 Max=1.58D-04 NDo=     1
 LinEq1:  Iter=  8 NonCon=     1 RMS=3.53D-06 Max=3.48D-05 NDo=     1
 LinEq1:  Iter=  9 NonCon=     1 RMS=9.53D-07 Max=1.30D-05 NDo=     1
 LinEq1:  Iter= 10 NonCon=     1 RMS=1.87D-07 Max=1.99D-06 NDo=     1
 LinEq1:  Iter= 11 NonCon=     1 RMS=3.44D-08 Max=3.43D-07 NDo=     1
 LinEq1:  Iter= 12 NonCon=     1 RMS=8.26D-09 Max=1.21D-07 NDo=     1
 LinEq1:  Iter= 13 NonCon=     1 RMS=1.48D-09 Max=2.55D-08 NDo=     1
 LinEq1:  Iter= 14 NonCon=     1 RMS=2.72D-10 Max=3.62D-09 NDo=     1
 LinEq1:  Iter= 15 NonCon=     0 RMS=4.95D-11 Max=5.69D-10 NDo=     1
 Linear equations converged to 1.000D-10 1.000D-09 after    15 iterations.
 End of Minotr F.D. properties file   721 does not exist.
 End of Minotr F.D. properties file   722 does not exist.
 End of Minotr F.D. properties file   788 does not exist.
 Leave Link 1002 at Mon Feb 21 20:45:18 2022, MaxMem= 16106127360 cpu:              64.8 elap:               2.4
 (Enter /sw/contrib/gaussian/g16/B01/g16/l1102.exe)
 Use density number 2.
 Symmetrizing basis deriv contribution to polar:
 IMax=3 JMax=2 DiffMx= 0.00D+00
 Leave Link 1102 at Mon Feb 21 20:45:18 2022, MaxMem= 16106127360 cpu:               1.5 elap:               0.1
 (Enter /sw/contrib/gaussian/g16/B01/g16/l1110.exe)
 Forming Gx(P) for generalized density number  2 NAtomX=     5.
 Integral derivatives from FoFJK, PRISM(SPDF).
 Do as many integral derivatives as possible in FoFJK.
 G2DrvN: MDV=   16106126844.
 G2DrvN: will do     6 centers at a time, making    1 passes.
 Calling FoFCou, ICntrl=  3107 FMM=F I1Cent=   0 AccDes= 0.00D+00.
 FoFJK:  IHMeth= 1 ICntrl=    3107 DoSepK=F KAlg= 0 I1Cent=           0 FoldK=F
 IRaf=         0 NMat=       1 IRICut=       1 DoRegI=T DoRafI=F ISym2E= 1 IDoP0=0 IntGTp=1.
 FoFCou: FMM=F IPFlag=           0 FMFlag=      100000 FMFlg1=           0
         NFxFlg=           0 DoJE=F BraDBF=F KetDBF=F FulRan=T
         wScrn=  0.000000 ICntrl=      3107 IOpCl=  0 I1Cent=           0 NGrid=           0
         NMat0=    1 NMatS0=      1 NMatT0=    0 NMatD0=    1 NMtDS0=    0 NMtDT0=    0
 Petite list used in FoFCou.
 End of G2Drv F.D. properties file   721 does not exist.
 End of G2Drv F.D. properties file   722 does not exist.
 End of G2Drv F.D. properties file   788 does not exist.
 Leave Link 1110 at Mon Feb 21 20:45:21 2022, MaxMem= 16106127360 cpu:              83.3 elap:               3.0
 (Enter /sw/contrib/gaussian/g16/B01/g16/l1112.exe)
 MP22nd: MDV=   16106127360
 This link is doing NAtomX=     5 total of    18 degrees of freedom.
 Using ON3 I/O method in MakUI.
 Frozen-core window:  NFC=   4 NFV=   0.
 Using Ix for Sx.
 Use MO integrals over full window.
 Using OV2 memory method for fx*t*t/D, MaxI=    16 DoOO2=F NP=  28.
 R2 and R3 integrals will be kept in memory, NReq=   915591705.
 FoFCou: FMM=F IPFlag=           0 FMFlag=           0 FMFlg1=           0
         NFxFlg=           0 DoJE=F BraDBF=F KetDBF=F FulRan=T
         wScrn=  0.000000 ICntrl=       600 IOpCl=  0 I1Cent=           0 NGrid=           0
         NMat0=    1 NMatS0=      1 NMatT0=    0 NMatD0=    1 NMtDS0=    0 NMtDT0=    0
 Symmetry not used in FoFCou.
 DD1Dir will call FoFMem   1 times, MxPair=       272
 NAB=   136 NAA=     0 NBB=     0.
 Symmetry is being used.
 FoFJK:  IHMeth= 1 ICntrl=       0 DoSepK=F KAlg= 0 I1Cent=           0 FoldK=F
 IRaf=         0 NMat=      18 IRICut=      45 DoRegI=T DoRafI=T ISym2E= 2 IDoP0=3 IntGTp=3.
 Discarding MO integrals.
 Leave Link 1112 at Mon Feb 21 20:45:57 2022, MaxMem= 16106127360 cpu:            1001.0 elap:              36.2
 (Enter /sw/contrib/gaussian/g16/B01/g16/l601.exe)
 Copying SCF densities to generalized density rwf, IOpCl= 0 IROHF=0.

 **********************************************************************

            Population analysis using the MP2 Density.

 **********************************************************************

 Orbital symmetries:
       Occupied  (A') (A') (A') (A') (A') (A') (A') (A') (A') (A')
                 (A") (A') (A") (A') (A") (A')
       Virtual   (A') (A") (A') (A') (A") (A') (A') (A') (A") (A')
                 (A") (A') (A') (A') (A") (A') (A') (A") (A') (A')
                 (A') (A') (A') (A') (A") (A') (A') (A") (A') (A')
                 (A") (A') (A") (A') (A') (A") (A') (A") (A') (A')
                 (A") (A') (A") (A') (A') (A") (A') (A') (A") (A')
                 (A") (A') (A') (A') (A") (A') (A") (A') (A") (A')
                 (A') (A') (A") (A') (A') (A") (A') (A") (A') (A')
                 (A") (A') (A') (A") (A") (A') (A') (A") (A') (A')
                 (A') (A") (A') (A") (A") (A') (A') (A") (A') (A')
                 (A") (A') (A') (A") (A') (A") (A') (A") (A') (A')
                 (A") (A') (A") (A') (A') (A") (A') (A') (A") (A')
                 (A") (A') (A') (A') (A") (A') (A') (A') (A") (A')
                 (A") (A') (A") (A') (A') (A") (A") (A') (A") (A')
                 (A') (A') (A') (A") (A") (A") (A') (A') (A') (A')
                 (A") (A') (A") (A') (A') (A") (A') (A') (A') (A')
                 (A") (A') (A') (A") (A') (A") (A') (A") (A') (A")
                 (A') (A") (A') (A") (A') (A") (A") (A') (A") (A')
                 (A") (A') (A") (A') (A") (A') (A") (A") (A') (A')
                 (A') (A') (A') (A') (A') (A') (A') (A') (A') (A')
                 (A')
 The electronic state is 1-A'.
 Alpha  occ. eigenvalues --  -20.69034 -20.68470 -20.66058 -15.81339  -1.62398
 Alpha  occ. eigenvalues --   -1.49523  -1.25524  -0.94774  -0.77144  -0.75989
 Alpha  occ. eigenvalues --   -0.71153  -0.68199  -0.62092  -0.58808  -0.48506
 Alpha  occ. eigenvalues --   -0.47214
 Alpha virt. eigenvalues --    0.02963   0.07146   0.08598   0.10220   0.13375
 Alpha virt. eigenvalues --    0.13376   0.14385   0.15392   0.17833   0.19435
 Alpha virt. eigenvalues --    0.20000   0.20606   0.22064   0.23517   0.23723
 Alpha virt. eigenvalues --    0.26738   0.29368   0.30292   0.31095   0.34389
 Alpha virt. eigenvalues --    0.34915   0.38644   0.42249   0.43302   0.52759
 Alpha virt. eigenvalues --    0.52769   0.55647   0.57895   0.62548   0.63966
 Alpha virt. eigenvalues --    0.67487   0.68459   0.70741   0.71000   0.72468
 Alpha virt. eigenvalues --    0.72844   0.74463   0.79214   0.79348   0.81136
 Alpha virt. eigenvalues --    0.81261   0.82887   0.86821   0.90853   0.92169
 Alpha virt. eigenvalues --    0.92682   0.95372   0.97145   0.98313   1.01636
 Alpha virt. eigenvalues --    1.05059   1.05615   1.07748   1.11333   1.13829
 Alpha virt. eigenvalues --    1.19170   1.21907   1.23502   1.34044   1.35171
 Alpha virt. eigenvalues --    1.38401   1.45503   1.48826   1.50868   1.53596
 Alpha virt. eigenvalues --    1.56517   1.57845   1.61095   1.65973   1.67308
 Alpha virt. eigenvalues --    1.70329   1.79139   1.83641   1.83714   1.87691
 Alpha virt. eigenvalues --    1.90699   1.95323   1.99080   2.00597   2.07871
 Alpha virt. eigenvalues --    2.12517   2.13319   2.14946   2.22293   2.26393
 Alpha virt. eigenvalues --    2.26548   2.29123   2.31180   2.33438   2.38399
 Alpha virt. eigenvalues --    2.42118   2.42961   2.45542   2.46074   2.47657
 Alpha virt. eigenvalues --    2.49628   2.58748   2.59811   2.61879   2.62827
 Alpha virt. eigenvalues --    2.63903   2.66445   2.75322   2.81710   2.83750
 Alpha virt. eigenvalues --    2.87351   2.89541   2.92753   2.96275   3.01397
 Alpha virt. eigenvalues --    3.06372   3.11733   3.20257   3.22265   3.31861
 Alpha virt. eigenvalues --    3.35046   3.52967   3.63312   3.83644   3.84329
 Alpha virt. eigenvalues --    4.14656   4.16383   4.18188   4.25414   4.35651
 Alpha virt. eigenvalues --    4.38947   4.46290   4.52095   4.65125   4.70926
 Alpha virt. eigenvalues --    4.79879   4.82372   4.83177   4.89435   5.02523
 Alpha virt. eigenvalues --    5.07777   5.10391   5.15239   5.17243   5.23822
 Alpha virt. eigenvalues --    5.27353   5.30792   5.32491   5.34683   5.59109
 Alpha virt. eigenvalues --    5.67333   5.76377   5.83192   5.95756   6.16272
 Alpha virt. eigenvalues --    6.30899   6.34012   6.39633   6.49436   6.50698
 Alpha virt. eigenvalues --    6.61031   6.67121   6.70140   6.75173   6.76311
 Alpha virt. eigenvalues --    6.83130   6.90085   7.01793   7.05569   7.06173
 Alpha virt. eigenvalues --    7.08972   7.12265   7.14623   7.18056   7.22703
 Alpha virt. eigenvalues --    7.23943   7.30605   7.32576   7.33643   7.39504
 Alpha virt. eigenvalues --    7.43437   7.48144   7.61380   7.61511   7.61980
 Alpha virt. eigenvalues --    7.66069   7.78617   7.87842   8.09603   8.31381
 Alpha virt. eigenvalues --    8.40954   8.54595  13.37493  14.42803  15.14300
 Alpha virt. eigenvalues --   16.14980
          Condensed to atoms (all electrons):
               1          2          3          4          5
     1  H    0.586308   0.128664   0.021615   0.011296  -0.000513
     2  O    0.128664   8.322826  -0.176998  -0.084276   0.014950
     3  O    0.021615  -0.176998   8.469474  -0.132693  -0.036817
     4  N    0.011296  -0.084276  -0.132693   6.972638  -0.055609
     5  O   -0.000513   0.014950  -0.036817  -0.055609   8.269514
 Mulliken charges:
               1
     1  H    0.252629
     2  O   -0.205167
     3  O   -0.144581
     4  N    0.288645
     5  O   -0.191526
 Sum of Mulliken charges =  -0.00000
 Mulliken charges with hydrogens summed into heavy atoms:
               1
     2  O    0.047462
     3  O   -0.144581
     4  N    0.288645
     5  O   -0.191526
 APT charges:
               1
     1  H    0.299727
     2  O   -0.296631
     3  O   -0.491708
     4  N    0.882346
     5  O   -0.393734
 Sum of APT charges =  -0.00000
 APT charges with hydrogens summed into heavy atoms:
               1
     2  O    0.003096
     3  O   -0.491708
     4  N    0.882346
     5  O   -0.393734
 Electronic spatial extent (au):  <R**2>=            254.8508
 Charge=             -0.0000 electrons
 Dipole moment (field-independent basis, Debye):
    X=              0.4627    Y=              1.3736    Z=              0.0000  Tot=              1.4494
 Quadrupole moment (field-independent basis, Debye-Ang):
   XX=            -22.6567   YY=            -18.4353   ZZ=            -22.0138
   XY=              3.1894   XZ=              0.0000   YZ=             -0.0000
 Traceless Quadrupole moment (field-independent basis, Debye-Ang):
   XX=             -1.6214   YY=              2.6000   ZZ=             -0.9785
   XY=              3.1894   XZ=              0.0000   YZ=             -0.0000
 Octapole moment (field-independent basis, Debye-Ang**2):
  XXX=              2.3509  YYY=             11.9643  ZZZ=              0.0000  XYY=              7.9662
  XXY=              6.2723  XXZ=              0.0000  XZZ=             -1.5738  YZZ=             -0.8733
  YYZ=             -0.0000  XYZ=             -0.0000
 Hexadecapole moment (field-independent basis, Debye-Ang**3):
 XXXX=           -158.5570 YYYY=            -91.3914 ZZZZ=            -18.2481 XXXY=            -38.4633
 XXXZ=              0.0000 YYYX=            -31.2899 YYYZ=             -0.0000 ZZZX=              0.0000
 ZZZY=              0.0000 XXYY=            -34.4983 XXZZ=            -30.7158 YYZZ=            -21.2110
 XXYZ=              0.0000 YYXZ=              0.0000 ZZXY=            -15.4689
 N-N= 1.166382169167D+02 E-N=-8.953726584808D+02  KE= 2.801877735866D+02
 Symmetry A'   KE= 2.662177305393D+02
 Symmetry A"   KE= 1.397004304728D+01
  Exact polarizability:  33.970   9.711  30.615  -0.000   0.000  17.948
 Approx polarizability:  28.982   5.330  23.642  -0.000   0.000  15.530
 No NMR shielding tensors so no spin-rotation constants.
 Leave Link  601 at Mon Feb 21 20:45:57 2022, MaxMem= 16106127360 cpu:               4.2 elap:               0.2
 (Enter /sw/contrib/gaussian/g16/B01/g16/l701.exe)
 ... and contract with generalized density number  2.
 Compute integral second derivatives.
 Leave Link  701 at Mon Feb 21 20:45:57 2022, MaxMem= 16106127360 cpu:               5.4 elap:               0.2
 (Enter /sw/contrib/gaussian/g16/B01/g16/l702.exe)
 L702 exits ... SP integral derivatives will be done elsewhere.
 Leave Link  702 at Mon Feb 21 20:45:57 2022, MaxMem= 16106127360 cpu:               0.7 elap:               0.0
 (Enter /sw/contrib/gaussian/g16/B01/g16/l703.exe)
 Integral derivatives from FoFJK, PRISM(SPDF).
 Compute integral second derivatives, UseDBF=F ICtDFT=           0.
 Calling FoFJK, ICntrl=  10100127 FMM=F ISym2X=1 I1Cent= 0 IOpClX= 0 NMat=1 NMatS=1 NMatT=0.
 FoFJK:  IHMeth= 1 ICntrl=10100127 DoSepK=F KAlg= 0 I1Cent=           0 FoldK=F
 IRaf=         0 NMat=       1 IRICut=       1 DoRegI=T DoRafI=F ISym2E= 1 IDoP0=0 IntGTp=1.
 FoFCou: FMM=F IPFlag=           0 FMFlag=      100000 FMFlg1=         800
         NFxFlg=           0 DoJE=F BraDBF=F KetDBF=F FulRan=T
         wScrn=  0.000000 ICntrl=  10100127 IOpCl=  0 I1Cent=           0 NGrid=           0
         NMat0=    1 NMatS0=      1 NMatT0=    0 NMatD0=    1 NMtDS0=    0 NMtDT0=    0
 Petite list used in FoFCou.
 Leave Link  703 at Mon Feb 21 20:46:13 2022, MaxMem= 16106127360 cpu:             421.1 elap:              15.1
 (Enter /sw/contrib/gaussian/g16/B01/g16/l716.exe)
 Dipole        = 1.82040423D-01 5.40420262D-01 7.86107688D-33
 Polarizability= 3.39703229D+01 9.71145936D+00 3.06145178D+01
                -1.62707339D-31 2.83762384D-31 1.79484962D+01
 Full mass-weighted force constant matrix:
 Low frequencies --- -280.5284  -83.8779   -0.0011   -0.0007    0.0013   25.0667
 Low frequencies ---   36.2494  232.7920  334.9928
 ******    1 imaginary frequencies (negative Signs) ****** 
 Diagonal vibrational polarizability:
       14.5893534      26.0796470      42.9673572
 Harmonic frequencies (cm**-1), IR intensities (KM/Mole), Raman scattering
 activities (A**4/AMU), depolarization ratios for plane and unpolarized
 incident light, reduced masses (AMU), force constants (mDyne/A),
 and normal coordinates:
                      1                      2                      3
                     A"                     A"                     A'
 Frequencies --   -280.5259               232.7520               334.9901
 Red. masses --      1.1407                10.6311                 8.8665
 Frc consts  --      0.0529                 0.3393                 0.5862
 IR Inten    --    124.5039                 0.7868                 1.7506
  Atom  AN      X      Y      Z        X      Y      Z        X      Y      Z
     1   1     0.00   0.00   1.00     0.00  -0.00  -0.57    -0.52   0.44   0.00
     2   8     0.00  -0.00  -0.06     0.00  -0.00  -0.31     0.11   0.40  -0.00
     3   8    -0.00   0.00  -0.04     0.00   0.00   0.34     0.17  -0.39   0.00
     4   7    -0.00   0.00   0.06    -0.00   0.00   0.51    -0.08  -0.31   0.00
     5   8    -0.00  -0.00  -0.01    -0.00  -0.00  -0.44    -0.18   0.23  -0.00
                      4                      5                      6
                     A'                     A'                     A'
 Frequencies --    438.8540               784.3568               967.8155
 Red. masses --     11.7217                12.7151                15.2371
 Frc consts  --      1.3301                 4.6089                 8.4089
 IR Inten    --    202.2635               172.8725                24.4089
  Atom  AN      X      Y      Z        X      Y      Z        X      Y      Z
     1   1     0.48   0.14   0.00    -0.37   0.18   0.00    -0.20  -0.04   0.00
     2   8     0.30   0.15   0.00     0.42   0.10   0.00    -0.51   0.02   0.00
     3   8     0.14   0.48  -0.00    -0.07  -0.28  -0.00     0.75  -0.01  -0.00
     4   7    -0.33  -0.35  -0.00    -0.14   0.61  -0.00    -0.12   0.25  -0.00
     5   8    -0.19  -0.33   0.00    -0.21  -0.36   0.00    -0.12  -0.22   0.00
                      7                      8                      9
                     A'                     A'                     A'
 Frequencies --   1371.7274              1676.2998              3778.6958
 Red. masses --      1.1362                13.2567                 1.0676
 Frc consts  --      1.2596                21.9477                 8.9815
 IR Inten    --    155.2211               140.1143                85.7656
  Atom  AN      X      Y      Z        X      Y      Z        X      Y      Z
     1   1     1.00  -0.02  -0.00    -0.34  -0.01   0.00     0.07   1.00   0.00
     2   8    -0.03   0.05  -0.00    -0.00  -0.04  -0.00    -0.01  -0.06  -0.00
     3   8    -0.02  -0.05   0.00     0.00   0.15  -0.00     0.00   0.00  -0.00
     4   7     0.02   0.01   0.00     0.71  -0.06   0.00    -0.00  -0.00   0.00
     5   8    -0.03  -0.01  -0.00    -0.60  -0.07   0.00     0.00   0.00   0.00

 -------------------
 - Thermochemistry -
 -------------------
 Temperature   298.150 Kelvin.  Pressure   1.00000 Atm.
 Atom     1 has atomic number  1 and mass   1.00783
 Atom     2 has atomic number  8 and mass  15.99491
 Atom     3 has atomic number  8 and mass  15.99491
 Atom     4 has atomic number  7 and mass  14.00307
 Atom     5 has atomic number  8 and mass  15.99491
 Molecular mass:    62.99564 amu.
 Principal axes and moments of inertia in atomic units:
                           1         2         3
     Eigenvalues --    31.93729 364.85521 396.79249
           X            0.80218  -0.59709   0.00000
           Y            0.59709   0.80218   0.00000
           Z           -0.00000   0.00000   1.00000
 This molecule is an asymmetric top.
 Rotational symmetry number  1.
 Rotational temperatures (Kelvin)      2.71200     0.23739     0.21829
 Rotational constants (GHZ):          56.50890     4.94646     4.54832
    1 imaginary frequencies ignored.
 Zero-point vibrational energy      57334.0 (Joules/Mol)
                                   13.70315 (Kcal/Mol)
 Warning -- explicit consideration of   3 degrees of freedom as
           vibrations may cause significant error
 Vibrational temperatures:    334.88   481.98   631.41  1128.51  1392.47
          (Kelvin)           1973.61  2411.82  5436.70
 
 Zero-point correction=                           0.021837 (Hartree/Particle)
 Thermal correction to Energy=                    0.025968
 Thermal correction to Enthalpy=                  0.026912
 Thermal correction to Gibbs Free Energy=        -0.004289
 Sum of electronic and zero-point Energies=           -280.424763
 Sum of electronic and thermal Energies=              -280.420632
 Sum of electronic and thermal Enthalpies=            -280.419688
 Sum of electronic and thermal Free Energies=         -280.450889
 
                     E (Thermal)             CV                S
                      KCal/Mol        Cal/Mol-Kelvin    Cal/Mol-Kelvin
 Total                   16.295             11.991             65.668
 Electronic               0.000              0.000              0.000
 Translational            0.889              2.981             38.341
 Rotational               0.889              2.981             23.051
 Vibrational             14.518              6.029              4.276
 Vibration     1          0.654              1.791              1.858
 Vibration     2          0.716              1.606              1.236
 Vibration     3          0.799              1.385              0.830
                       Q            Log10(Q)             Ln(Q)
 Total Bot       0.939101D+02          1.972712          4.542338
 Total V=0       0.104038D+13         12.017190         27.670603
 Vib (Bot)       0.196316D-09         -9.707044        -22.351294
 Vib (Bot)    1  0.845191D+00         -0.073045         -0.168193
 Vib (Bot)    2  0.556045D+00         -0.254890         -0.586906
 Vib (Bot)    3  0.394273D+00         -0.404203         -0.930711
 Vib (V=0)       0.217487D+01          0.337434          0.776971
 Vib (V=0)    1  0.148201D+01          0.170852          0.393400
 Vib (V=0)    2  0.124779D+01          0.096141          0.221372
 Vib (V=0)    3  0.113675D+01          0.055665          0.128174
 Electronic      0.100000D+01          0.000000          0.000000
 Translational   0.196526D+08          7.293420         16.793719
 Rotational      0.243409D+05          4.386337         10.099913
 
                                                                title
                                                             IR Spectrum
 
     3                                                                      1         1                                              
     7                                                                      6         3             9     7           4  3   2       
     7                                                                      7         7             6     8           3  3   3       
     9                                                                      6         2             8     4           9  5   3       
 
     X                                                                      X         X             X     X           X  X   X       
     X                                                                      X         X             X     X           X              
     X                                                                      X         X                   X           X              
     X                                                                      X         X                   X           X              
     X                                                                      X         X                   X           X              
     X                                                                      X         X                   X           X              
     X                                                                      X         X                   X           X              
     X                                                                      X         X                   X           X              
                                                                            X         X                   X           X              
                                                                            X         X                   X           X              
                                                                            X         X                   X           X              
                                                                            X         X                   X           X              
                                                                            X         X                   X           X              
                                                                            X         X                   X           X              
                                                                                      X                   X           X              
                                                                                                          X           X              
                                                                                                          X           X              
                                                                                                                      X              
                                                                                                                      X              
                                                                                                                      X              
 
 ***** Axes restored to original set *****
 -------------------------------------------------------------------
 Center     Atomic                   Forces (Hartrees/Bohr)
 Number     Number              X              Y              Z
 -------------------------------------------------------------------
      1        1           0.000597212    0.000000000    0.000134179
      2        8           0.000878672    0.000000000    0.003577773
      3        8           0.002810245    0.000000000   -0.002992876
      4        7          -0.004271394   -0.000000000    0.000687462
      5        8          -0.000014735   -0.000000000   -0.001406538
 -------------------------------------------------------------------
 Cartesian Forces:  Max     0.004271394 RMS     0.001852889
 -----------------------------------------------------------------------------------------------
                       Internal Coordinate Forces (Hartree/Bohr or radian)
  Cent   Atom   N1       Length/X         N2         Alpha/Y        N3         Beta/Z          J
 -----------------------------------------------------------------------------------------------
      1  H 
      2  O        1  -0.000134(     1)
      3  O        2  -0.001954(     2)      1  -0.001094(     5)
      4  N        3  -0.001199(     3)      2  -0.008486(     6)      1   0.000000(     8)     0
      5  O        4  -0.000321(     4)      3  -0.003030(     7)      2   0.000000(     9)     0
 -----------------------------------------------------------------------------------------------
 Internal  Forces:  Max     0.008486248 RMS     0.003122787
 Force constants in Cartesian coordinates: 
                1             2             3             4             5 
      1  0.645548D-01
      2  0.000000D+00 -0.256405D-02
      3  0.480482D-02  0.000000D+00  0.512328D+00
      4 -0.357233D-01  0.000000D+00 -0.158573D-01  0.270080D+00
      5  0.000000D+00  0.338898D-02  0.000000D+00  0.000000D+00  0.216839D-02
      6  0.485854D-01  0.000000D+00 -0.508937D+00  0.288962D-01  0.000000D+00
      7 -0.184680D-01  0.000000D+00  0.124123D-01 -0.220697D+00  0.000000D+00
      8  0.000000D+00  0.100982D-02  0.000000D+00  0.000000D+00 -0.610515D-02
      9 -0.538677D-01  0.000000D+00 -0.429419D-03 -0.163880D-01  0.000000D+00
     10 -0.866895D-02  0.000000D+00 -0.476869D-02 -0.137117D-01  0.000000D+00
     11  0.000000D+00 -0.286406D-02  0.000000D+00  0.000000D+00 -0.598072D-02
     12  0.621927D-02  0.000000D+00 -0.421508D-02  0.121804D-01  0.000000D+00
     13 -0.169455D-02  0.000000D+00  0.340883D-02  0.521367D-04  0.000000D+00
     14  0.000000D+00  0.102931D-02  0.000000D+00  0.000000D+00  0.652850D-02
     15 -0.574175D-02  0.000000D+00  0.125279D-02 -0.883123D-02  0.000000D+00
                6             7             8             9            10 
      6  0.591771D+00
      7 -0.203690D-01  0.342864D+00
      8  0.000000D+00  0.000000D+00  0.257901D-02
      9 -0.808669D-01  0.317426D-01  0.000000D+00  0.185724D+00
     10 -0.474505D-01 -0.721028D-01  0.000000D+00  0.175661D+00  0.823384D+00
     11  0.000000D+00  0.000000D+00  0.106119D-01  0.000000D+00  0.000000D+00
     12  0.224540D-01  0.669032D-01  0.000000D+00 -0.913151D-01 -0.438917D-01
     13 -0.966209D-02 -0.315962D-01  0.000000D+00 -0.137148D+00 -0.728900D+00
     14  0.000000D+00  0.000000D+00 -0.809562D-02  0.000000D+00  0.000000D+00
     15 -0.244218D-01 -0.906893D-01  0.000000D+00 -0.131124D-01 -0.795501D-01
               11            12            13            14            15 
     11  0.716320D-02
     12  0.000000D+00  0.184441D+00
     13  0.000000D+00 -0.414112D-01  0.762139D+00
     14 -0.893036D-02  0.000000D+00  0.000000D+00  0.946817D-02
     15  0.000000D+00 -0.111365D+00  0.184812D+00  0.000000D+00  0.147647D+00
 Force constants in internal coordinates: 
                1             2             3             4             5 
      1  0.512328D+00
      2 -0.105072D-01  0.277502D+00
      3  0.309691D-02  0.440483D-03  0.114071D+00
      4 -0.359990D-02  0.621026D-02  0.153169D+00  0.811568D+00
      5  0.939534D-02  0.652513D-01  0.127434D-02  0.531920D-02  0.216202D+00
      6  0.386431D-02  0.507511D-01  0.304672D-01  0.233351D-01  0.310442D-01
      7 -0.106176D-02  0.366187D-01  0.330095D-01  0.823124D-01  0.212066D-01
      8  0.000000D+00  0.000000D+00  0.000000D+00  0.000000D+00  0.000000D+00
      9  0.000000D+00  0.000000D+00  0.000000D+00  0.000000D+00  0.000000D+00
                6             7             8             9 
      6  0.259935D+00
      7  0.957679D-01  0.480018D+00
      8  0.000000D+00  0.000000D+00 -0.854430D-02
      9  0.000000D+00  0.000000D+00 -0.390580D-02  0.416970D-01
 Leave Link  716 at Mon Feb 21 20:46:13 2022, MaxMem= 16106127360 cpu:               1.6 elap:               0.1
 (Enter /sw/contrib/gaussian/g16/B01/g16/l103.exe)

 GradGradGradGradGradGradGradGradGradGradGradGradGradGradGradGradGradGrad
 Berny optimization.
 Search for a local minimum.
 Step number   1 out of a maximum of    2
 All quantities printed in internal units (Hartrees-Bohrs-Radians)
 Second derivative matrix not updated -- analytic derivatives used.
 The second derivative matrix:
                          r1        r2        r3        r4        a1
           r1           0.51233
           r2          -0.01051   0.27750
           r3           0.00310   0.00044   0.11407
           r4          -0.00360   0.00621   0.15317   0.81157
           a1           0.00940   0.06525   0.00127   0.00532   0.21620
           a2           0.00386   0.05075   0.03047   0.02334   0.03104
           a3          -0.00106   0.03662   0.03301   0.08231   0.02121
           d1           0.00000  -0.00000  -0.00000  -0.00000  -0.00000
           d2          -0.00000   0.00000   0.00000   0.00000   0.00000
                          a2        a3        d1        d2
           a2           0.25994
           a3           0.09577   0.48002
           d1          -0.00000  -0.00000  -0.00854
           d2          -0.00000  -0.00000  -0.00391   0.04170
 ITU=  0
     Eigenvalues ---   -0.00885   0.04200   0.07805   0.17419   0.20991
     Eigenvalues ---    0.31747   0.51015   0.51302   0.86883
 Eigenvalue     1 is  -8.85D-03 should be greater than     0.000000 Eigenvector:
                          d1        d2        a3        a2        r3
   1                    0.99703   0.07705   0.00000   0.00000  -0.00000
                          r4        a1        r1        r2
   1                    0.00000  -0.00000  -0.00000  -0.00000
 Angle between quadratic step and forces=  23.44 degrees.
 Linear search not attempted -- first point.
 Variable       Old X    -DE/DX   Delta X   Delta X   Delta X     New X
                                 (Linear)    (Quad)   (Total)
    r1        1.83110  -0.00013   0.00000  -0.00001  -0.00001   1.83109
    r2        2.74940  -0.00195   0.00000  -0.00118  -0.00118   2.74822
    r3        2.75670  -0.00120   0.00000  -0.00357  -0.00357   2.75313
    r4        2.21236  -0.00032   0.00000   0.00119   0.00119   2.21355
    a1        1.70335  -0.00109   0.00000  -0.00011  -0.00011   1.70324
    a2        1.81652  -0.00849   0.00000  -0.03218  -0.03218   1.78434
    a3        1.90362  -0.00303   0.00000   0.00025   0.00025   1.90387
    d1        3.14159   0.00000   0.00000   0.00000   0.00000   3.14159
    d2        3.14159   0.00000   0.00000  -0.00000   0.00000   3.14159
         Item               Value     Threshold  Converged?
 Maximum Force            0.008486     0.000450     NO 
 RMS     Force            0.003123     0.000300     NO 
 Maximum Displacement     0.032182     0.001800     NO 
 RMS     Displacement     0.010808     0.001200     NO 
 Predicted change in Energy=-1.393454D-04
                       ----------------------------
                       ! Non-Optimized Parameters !
                       ! (Angstroms and Degrees)  !
 ----------------------                            ----------------------
 !      Name          Value   Derivative information (Atomic Units)     !
 ------------------------------------------------------------------------
 !       r1          0.969    -DE/DX =   -0.0001                        !
 !       r2          1.4543   -DE/DX =   -0.002                         !
 !       r3          1.4569   -DE/DX =   -0.0012                        !
 !       r4          1.1714   -DE/DX =   -0.0003                        !
 !       a1         97.5885   -DE/DX =   -0.0011                        !
 !       a2        102.2353   -DE/DX =   -0.0085                        !
 !       a3        109.0836   -DE/DX =   -0.003                         !
 !       d1        180.0      -DE/DX =    0.0                           !
 !       d2        180.0      -DE/DX =    0.0                           !
 ------------------------------------------------------------------------
 GradGradGradGradGradGradGradGradGradGradGradGradGradGradGradGradGradGrad

 Leave Link  103 at Mon Feb 21 20:46:13 2022, MaxMem= 16106127360 cpu:               1.8 elap:               0.1
 (Enter /sw/contrib/gaussian/g16/B01/g16/l9999.exe)

 ----------------------------------------------------------------------

 Electric dipole moment (input orientation):
 (Debye = 10**-18 statcoulomb cm , SI units = C m)
                  (au)            (Debye)         (10**-30 SI)
   Tot        0.570257D+00      0.144945D+01      0.483484D+01
   x         -0.146679D+00     -0.372820D+00     -0.124359D+01
   y          0.000000D+00      0.000000D+00      0.000000D+00
   z         -0.551070D+00     -0.140068D+01     -0.467217D+01

 Dipole polarizability, Alpha (input orientation).
 (esu units = cm**3 , SI units = C**2 m**2 J**-1)
 Alpha(0;0):
               (au)            (10**-24 esu)      (10**-40 SI)
   iso        0.275111D+02      0.407673D+01      0.453597D+01
   aniso      0.222964D+02      0.330399D+01      0.367619D+01
   xx         0.327017D+02      0.484589D+01      0.539178D+01
   yx         0.000000D+00      0.000000D+00      0.000000D+00
   yy         0.179485D+02      0.265969D+01      0.295931D+01
   zx         0.984684D+01      0.145915D+01      0.162352D+01
   zy         0.000000D+00      0.000000D+00      0.000000D+00
   zz         0.318831D+02      0.472459D+01      0.525682D+01

 ----------------------------------------------------------------------

 Dipole orientation:
     1          0.00000000          0.00000000          0.00000000
     8         -0.47098610          0.00000000         -1.76948963
     8          2.06913058          0.00000000         -2.82163141
     7          1.66543959          0.00000000         -5.54861535
     8          3.62799854          0.00000000         -6.56983296

 Electric dipole moment (dipole orientation):
 (Debye = 10**-18 statcoulomb cm , SI units = C m)
                  (au)            (Debye)         (10**-30 SI)
   Tot        0.570257D+00      0.144945D+01      0.483484D+01
   x          0.000000D+00      0.000000D+00      0.000000D+00
   y          0.000000D+00      0.000000D+00      0.000000D+00
   z          0.570257D+00      0.144945D+01      0.483484D+01

 Dipole polarizability, Alpha (dipole orientation).
 (esu units = cm**3 , SI units = C**2 m**2 J**-1)
 Alpha(0;0):
               (au)            (10**-24 esu)      (10**-40 SI)
   iso        0.275111D+02      0.407673D+01      0.453597D+01
   aniso      0.222964D+02      0.330399D+01      0.367619D+01
   xx         0.277525D+02      0.411249D+01      0.457576D+01
   yx         0.000000D+00      0.000000D+00      0.000000D+00
   yy         0.179485D+02      0.265969D+01      0.295931D+01
   zx        -0.874738D+01     -0.129623D+01     -0.144225D+01
   zy         0.000000D+00      0.000000D+00      0.000000D+00
   zz         0.368324D+02      0.545799D+01      0.607284D+01

 ----------------------------------------------------------------------
 1\1\GINC-N2125\Freq\RMP2-FC\Aug-CC-pVTZ\H1N1O3\CGAVINH\21-Feb-2022\1\\
 #p freq mp2/aug-cc-pvtz density=current\\title\\0,1\H\O,1,r1\O,2,r2,1,
 a1\N,3,r3,2,a2,1,d1,0\O,4,r4,3,a3,2,d2,0\\r1=0.96897556\r2=1.45491931\
 r3=1.45878406\r4=1.17072885\a1=97.59494903\a2=104.07916208\a3=109.0695
 5123\d1=180.\d2=180.\\Version=ES64L-G16RevB.01\State=1-A'\HF=-279.5016
 712\MP2=-280.4466001\RMSD=3.809e-09\RMSF=1.853e-03\ZeroPoint=0.0218374
 \Thermal=0.0259682\Dipole=-0.1466786,0.,-0.55107\DipoleDeriv=0.2640395
 ,0.,0.0460593,0.,0.3556654,0.,0.086492,0.,0.279476,-0.3413864,0.,-0.21
 44206,0.,-0.3119012,0.,-0.12027,0.,-0.236604,-0.0549501,0.,0.1170061,0
 .,-0.0895435,0.,-0.7837796,0.,-1.3306307,0.9499972,0.,0.9433268,0.,0.0
 650736,0.,0.9484782,0.,1.6319658,-0.8177002,0.,-0.8919716,0.,-0.019294
 3,0.,-0.1309207,0.,-0.3442072\Polar=32.7017027,0.,17.9484962,9.8468415
 ,0.,31.883138\Quadrupole=-1.49865,-0.7275253,2.2261753,0.,2.1486338,0.
 \PG=CS [SG(H1N1O3)]\NImag=1\\0.06455478,0.,-0.00256405,0.00480482,0.,0
 .51232842,-0.03572332,0.,-0.01585731,0.27007973,0.,0.00338898,0.,0.,0.
 00216839,0.04858540,0.,-0.50893671,0.02889617,0.,0.59177144,-0.0184679
 5,0.,0.01241235,-0.22069685,0.,-0.02036897,0.34286379,0.,0.00100982,0.
 ,0.,-0.00610515,0.,0.,0.00257901,-0.05386774,0.,-0.00042942,-0.0163879
 9,0.,-0.08086692,0.03174265,0.,0.18572385,-0.00866895,0.,-0.00476869,-
 0.01371170,0.,-0.04745051,-0.07210275,0.,0.17566101,0.82338376,0.,-0.0
 0286406,0.,0.,-0.00598072,0.,0.,0.01061194,0.,0.,0.00716320,0.00621927
 ,0.,-0.00421508,0.01218035,0.,0.02245399,0.06690325,0.,-0.09131511,-0.
 04389167,0.,0.18444137,-0.00169455,0.,0.00340883,0.00005214,0.,-0.0096
 6209,-0.03159623,0.,-0.13714793,-0.72890036,0.,-0.04141120,0.76213901,
 0.,0.00102931,0.,0.,0.00652850,0.,0.,-0.00809562,0.,0.,-0.00893036,0.,
 0.,0.00946817,-0.00574175,0.,0.00125279,-0.00883123,0.,-0.02442180,-0.
 09068928,0.,-0.01311240,-0.07955013,0.,-0.11136517,0.18481238,0.,0.147
 64658\\-0.00059721,0.,-0.00013418,-0.00087867,0.,-0.00357777,-0.002810
 25,0.,0.00299288,0.00427139,0.,-0.00068746,0.00001473,0.,0.00140654\\\
 @


 A SUCCESSFUL PURSUIT OF SCIENCE MAKES A MAN THE
 BENEFACTOR OF ALL MANKIND OF EVERY AGE.
   --  JOSEPH PRIESTLEY, "EXPERIMENTS AND
 OBSERVATIONS ON DIFFERENT KINDS OF AIR", 1774
 Job cpu time:       0 days  2 hours  0 minutes 46.5 seconds.
 Elapsed time:       0 days  0 hours  4 minutes 22.0 seconds.
 File lengths (MBytes):  RWF=   7239 Int=      0 D2E=      0 Chk=      8 Scr=      1
 Normal termination of Gaussian 16 at Mon Feb 21 20:46:14 2022.
