 Entering Gaussian System, Link 0=g16
 Input=hoono_a3_108p5128.gjf
 Output=hoono_a3_108p5128.log
 Initial command:
 /sw/contrib/gaussian/g16/B01/g16/l1.exe "/scr/Gau-31907.inp" -scrdir="/scr/"
 Entering Link 1 = /sw/contrib/gaussian/g16/B01/g16/l1.exe PID=     31908.
  
 Copyright (c) 1988-2017, Gaussian, Inc.  All Rights Reserved.
  
 This is part of the Gaussian(R) 16 program.  It is based on
 the Gaussian(R) 09 system (copyright 2009, Gaussian, Inc.),
 the Gaussian(R) 03 system (copyright 2003, Gaussian, Inc.),
 the Gaussian(R) 98 system (copyright 1998, Gaussian, Inc.),
 the Gaussian(R) 94 system (copyright 1995, Gaussian, Inc.),
 the Gaussian 92(TM) system (copyright 1992, Gaussian, Inc.),
 the Gaussian 90(TM) system (copyright 1990, Gaussian, Inc.),
 the Gaussian 88(TM) system (copyright 1988, Gaussian, Inc.),
 the Gaussian 86(TM) system (copyright 1986, Carnegie Mellon
 University), and the Gaussian 82(TM) system (copyright 1983,
 Carnegie Mellon University). Gaussian is a federally registered
 trademark of Gaussian, Inc.
  
 This software contains proprietary and confidential information,
 including trade secrets, belonging to Gaussian, Inc.
  
 This software is provided under written license and may be
 used, copied, transmitted, or stored only in accord with that
 written license.
  
 The following legend is applicable only to US Government
 contracts under FAR:
  
                    RESTRICTED RIGHTS LEGEND
  
 Use, reproduction and disclosure by the US Government is
 subject to restrictions as set forth in subparagraphs (a)
 and (c) of the Commercial Computer Software - Restricted
 Rights clause in FAR 52.227-19.
  
 Gaussian, Inc.
 340 Quinnipiac St., Bldg. 40, Wallingford CT 06492
  
  
 ---------------------------------------------------------------
 Warning -- This program may not be used in any manner that
 competes with the business of Gaussian, Inc. or will provide
 assistance to any competitor of Gaussian, Inc.  The licensee
 of this program is prohibited from giving any competitor of
 Gaussian, Inc. access to this program.  By using this program,
 the user acknowledges that Gaussian, Inc. is engaged in the
 business of creating and licensing software in the field of
 computational chemistry and represents and warrants to the
 licensee that it is not a competitor of Gaussian, Inc. and that
 it will not use this program in any manner prohibited above.
 ---------------------------------------------------------------
  

 Cite this work as:
 Gaussian 16, Revision B.01,
 M. J. Frisch, G. W. Trucks, H. B. Schlegel, G. E. Scuseria, 
 M. A. Robb, J. R. Cheeseman, G. Scalmani, V. Barone, 
 G. A. Petersson, H. Nakatsuji, X. Li, M. Caricato, A. V. Marenich, 
 J. Bloino, B. G. Janesko, R. Gomperts, B. Mennucci, H. P. Hratchian, 
 J. V. Ortiz, A. F. Izmaylov, J. L. Sonnenberg, D. Williams-Young, 
 F. Ding, F. Lipparini, F. Egidi, J. Goings, B. Peng, A. Petrone, 
 T. Henderson, D. Ranasinghe, V. G. Zakrzewski, J. Gao, N. Rega, 
 G. Zheng, W. Liang, M. Hada, M. Ehara, K. Toyota, R. Fukuda, 
 J. Hasegawa, M. Ishida, T. Nakajima, Y. Honda, O. Kitao, H. Nakai, 
 T. Vreven, K. Throssell, J. A. Montgomery, Jr., J. E. Peralta, 
 F. Ogliaro, M. J. Bearpark, J. J. Heyd, E. N. Brothers, K. N. Kudin, 
 V. N. Staroverov, T. A. Keith, R. Kobayashi, J. Normand, 
 K. Raghavachari, A. P. Rendell, J. C. Burant, S. S. Iyengar, 
 J. Tomasi, M. Cossi, J. M. Millam, M. Klene, C. Adamo, R. Cammi, 
 J. W. Ochterski, R. L. Martin, K. Morokuma, O. Farkas, 
 J. B. Foresman, and D. J. Fox, Gaussian, Inc., Wallingford CT, 2016.
 
 ******************************************
 Gaussian 16:  ES64L-G16RevB.01 20-Dec-2017
                21-Feb-2022 
 ******************************************
 %nproc=28
 Will use up to   28 processors via shared memory.
 %mem=120GB
 %chk=hoono_a3_108p5128.chk
 ---------------------------------------
 #p freq mp2/aug-cc-pvtz density=current
 ---------------------------------------
 1/10=4,30=1,38=1/1,3;
 2/12=2,17=6,18=5,40=1/2;
 3/5=16,6=1,7=10,11=9,25=1,30=1,71=2,140=1/1,2,3;
 4//1;
 5/5=2,38=5,98=1/2;
 8/6=3,8=1,10=1,19=11,30=-1/1;
 9/15=3,16=-3/6;
 11/6=1,8=1,15=11,17=12,24=-1,27=1,28=-2,29=300,32=6,42=3/1,2,10;
 10/6=2,21=1/2;
 8/6=4,8=1,10=1,19=11,30=-1/11,4;
 10/5=1,20=4/2;
 11/12=2,14=11,16=1,17=2,28=-2,42=3,76=2/2,10,12;
 6/7=2,8=2,9=2,10=2,22=-1/1;
 7/8=1,10=1,12=2,25=1,44=2/1,2,3,16;
 1/10=4,30=1/3;
 99//99;
 Leave Link    1 at Mon Feb 21 20:54:50 2022, MaxMem= 16106127360 cpu:               3.7 elap:               0.1
 (Enter /sw/contrib/gaussian/g16/B01/g16/l101.exe)
 -----
 title
 -----
 Symbolic Z-matrix:
 Charge =  0 Multiplicity = 1
 H
 O                    1    r1
 O                    2    r2       1    a1
 N                    3    r3       2    a2       1    d1       0
 O                    4    r4       3    a3       2    d2       0
       Variables:
  r1                    0.96898                  
  r2                    1.45492                  
  r3                    1.45878                  
  r4                    1.17073                  
  a1                   97.59495                  
  a2                  102.29752                  
  a3                  108.51288                  
  d1                  180.                       
  d2                  180.                       
 
 ITRead=  0  0  0  0  0
 MicOpt= -1 -1 -1 -1 -1
 NAtoms=      5 NQM=        5 NQMF=       0 NMMI=      0 NMMIF=      0
                NMic=       0 NMicF=      0.
                    Isotopes and Nuclear Properties:
 (Nuclear quadrupole moments (NQMom) in fm**2, nuclear magnetic moments (NMagM)
  in nuclear magnetons)

  Atom         1           2           3           4           5
 IAtWgt=           1          16          16          14          16
 AtmWgt=   1.0078250  15.9949146  15.9949146  14.0030740  15.9949146
 NucSpn=           1           0           0           2           0
 AtZEff=  -0.0000000  -0.0000000  -0.0000000  -0.0000000  -0.0000000
 NQMom=    0.0000000   0.0000000   0.0000000   2.0440000   0.0000000
 NMagM=    2.7928460   0.0000000   0.0000000   0.4037610   0.0000000
 AtZNuc=   1.0000000   8.0000000   8.0000000   7.0000000   8.0000000
 Leave Link  101 at Mon Feb 21 20:54:50 2022, MaxMem= 16106127360 cpu:               2.2 elap:               0.1
 (Enter /sw/contrib/gaussian/g16/B01/g16/l103.exe)

 GradGradGradGradGradGradGradGradGradGradGradGradGradGradGradGradGradGrad
 Berny optimization.
 Initialization pass.
                       ----------------------------
                       !    Initial Parameters    !
                       ! (Angstroms and Degrees)  !
 ----------------------                            ----------------------
 !      Name          Value   Derivative information (Atomic Units)     !
 ------------------------------------------------------------------------
 !       r1          0.969    calculate D2E/DX2 analytically            !
 !       r2          1.4549   calculate D2E/DX2 analytically            !
 !       r3          1.4588   calculate D2E/DX2 analytically            !
 !       r4          1.1707   calculate D2E/DX2 analytically            !
 !       a1         97.5949   calculate D2E/DX2 analytically            !
 !       a2        102.2975   calculate D2E/DX2 analytically            !
 !       a3        108.5129   calculate D2E/DX2 analytically            !
 !       d1        180.0      calculate D2E/DX2 analytically            !
 !       d2        180.0      calculate D2E/DX2 analytically            !
 ------------------------------------------------------------------------
 Trust Radius=3.00D-01 FncErr=1.00D-07 GrdErr=1.00D-07 EigMax=2.50D+02 EigMin=1.00D-04
 Number of steps in this run=      2 maximum allowed number of steps=      2.
 GradGradGradGradGradGradGradGradGradGradGradGradGradGradGradGradGradGrad

 Leave Link  103 at Mon Feb 21 20:54:50 2022, MaxMem= 16106127360 cpu:               0.5 elap:               0.0
 (Enter /sw/contrib/gaussian/g16/B01/g16/l202.exe)
                          Input orientation:                          
 ---------------------------------------------------------------------
 Center     Atomic      Atomic             Coordinates (Angstroms)
 Number     Number       Type             X           Y           Z
 ---------------------------------------------------------------------
      1          1           0        0.000000    0.000000    0.000000
      2          8           0        0.000000    0.000000    0.968976
      3          8           0        1.442156    0.000000    1.161271
      4          7           0        1.561752    0.000000    2.615144
      5          8           0        2.698636    0.000000    2.894607
 ---------------------------------------------------------------------
                    Distance matrix (angstroms):
                    1          2          3          4          5
     1  H    0.000000
     2  O    0.968976   0.000000
     3  O    1.851584   1.454919   0.000000
     4  N    3.045989   2.269127   1.458784   0.000000
     5  O    3.957447   3.315221   2.140840   1.170729   0.000000
 Stoichiometry    HNO3
 Framework group  CS[SG(HNO3)]
 Deg. of freedom     7
 Full point group                 CS      NOp   2
 Largest Abelian subgroup         CS      NOp   2
 Largest concise Abelian subgroup C1      NOp   1
                         Standard orientation:                         
 ---------------------------------------------------------------------
 Center     Atomic      Atomic             Coordinates (Angstroms)
 Number     Number       Type             X           Y           Z
 ---------------------------------------------------------------------
      1          1           0        1.548478    1.685370   -0.000000
      2          8           0        1.454032    0.721008   -0.000000
      3          8           0        0.000000    0.670196   -0.000000
      4          7           0       -0.260736   -0.765097    0.000000
      5          8           0       -1.419447   -0.932416    0.000000
 ---------------------------------------------------------------------
 Rotational constants (GHZ):          54.8031470           5.0249817           4.6029321
 Leave Link  202 at Mon Feb 21 20:54:50 2022, MaxMem= 16106127360 cpu:               0.3 elap:               0.0
 (Enter /sw/contrib/gaussian/g16/B01/g16/l301.exe)
 Standard basis: Aug-CC-pVTZ (5D, 7F)
 Ernie: Thresh=  0.10000D-02 Tol=  0.10000D-05 Strict=F.
 Ernie:  12 primitive shells out of 131 were deleted.
 There are   166 symmetry adapted cartesian basis functions of A'  symmetry.
 There are    79 symmetry adapted cartesian basis functions of A"  symmetry.
 There are   136 symmetry adapted basis functions of A'  symmetry.
 There are    71 symmetry adapted basis functions of A"  symmetry.
   207 basis functions,   315 primitive gaussians,   245 cartesian basis functions
    16 alpha electrons       16 beta electrons
       nuclear repulsion energy       116.9404635282 Hartrees.
 IExCor=    0 DFT=F Ex=HF Corr=None ExCW=0 ScaHFX=  1.000000
 ScaDFX=  1.000000  1.000000  1.000000  1.000000 ScalE2=  1.000000  1.000000
 IRadAn=      5 IRanWt=     -1 IRanGd=            0 ICorTp=0 IEmpDi=  4
 NAtoms=    5 NActive=    5 NUniq=    5 SFac= 1.00D+00 NAtFMM=   60 NAOKFM=F Big=F
 Integral buffers will be    131072 words long.
 Raffenetti 1 integral format.
 Two-electron integral symmetry is turned on.
 Leave Link  301 at Mon Feb 21 20:54:50 2022, MaxMem= 16106127360 cpu:               1.8 elap:               0.1
 (Enter /sw/contrib/gaussian/g16/B01/g16/l302.exe)
 NPDir=0 NMtPBC=     1 NCelOv=     1 NCel=       1 NClECP=     1 NCelD=      1
         NCelK=      1 NCelE2=     1 NClLst=     1 CellRange=     0.0.
 One-electron integrals computed using PRISM.
 One-electron integral symmetry used in STVInt
 NBasis=   207 RedAO= T EigKep=  1.82D-04  NBF=   136    71
 NBsUse=   207 1.00D-06 EigRej= -1.00D+00 NBFU=   136    71
 Leave Link  302 at Mon Feb 21 20:54:50 2022, MaxMem= 16106127360 cpu:               5.9 elap:               0.2
 (Enter /sw/contrib/gaussian/g16/B01/g16/l303.exe)
 DipDrv:  MaxL=1.
 Leave Link  303 at Mon Feb 21 20:54:50 2022, MaxMem= 16106127360 cpu:               0.9 elap:               0.1
 (Enter /sw/contrib/gaussian/g16/B01/g16/l401.exe)
 ExpMin= 2.53D-02 ExpMax= 1.53D+04 ExpMxC= 5.22D+02 IAcc=3 IRadAn=         5 AccDes= 0.00D+00
 Harris functional with IExCor=  205 and IRadAn=       5 diagonalized for initial guess.
 HarFok:  IExCor=  205 AccDes= 0.00D+00 IRadAn=         5 IDoV= 1 UseB2=F ITyADJ=14
 ICtDFT=  3500011 ScaDFX=  1.000000  1.000000  1.000000  1.000000
 FoFCou: FMM=F IPFlag=           0 FMFlag=      100000 FMFlg1=           0
         NFxFlg=           0 DoJE=T BraDBF=F KetDBF=T FulRan=T
         wScrn=  0.000000 ICntrl=       500 IOpCl=  0 I1Cent=   200000004 NGrid=           0
         NMat0=    1 NMatS0=      1 NMatT0=    0 NMatD0=    1 NMtDS0=    0 NMtDT0=    0
 Petite list used in FoFCou.
 Harris En= -279.628692922452    
 JPrj=0 DoOrth=F DoCkMO=F.
 Initial guess orbital symmetries:
       Occupied  (A') (A') (A') (A') (A') (A') (A') (A') (A') (A')
                 (A") (A') (A') (A") (A") (A')
       Virtual   (A") (A') (A') (A') (A') (A') (A") (A') (A') (A')
                 (A") (A') (A") (A') (A') (A") (A') (A") (A') (A')
                 (A') (A') (A') (A') (A') (A") (A') (A") (A') (A')
                 (A") (A') (A") (A') (A') (A") (A') (A") (A') (A')
                 (A") (A') (A") (A') (A") (A') (A') (A') (A") (A")
                 (A') (A') (A') (A') (A") (A') (A") (A') (A") (A')
                 (A') (A') (A") (A') (A') (A") (A') (A") (A') (A')
                 (A") (A') (A') (A") (A") (A') (A') (A") (A') (A')
                 (A') (A") (A') (A") (A') (A") (A') (A") (A') (A')
                 (A') (A") (A') (A") (A') (A") (A") (A') (A') (A")
                 (A') (A') (A") (A') (A') (A') (A') (A") (A") (A')
                 (A") (A') (A') (A') (A") (A') (A') (A') (A") (A')
                 (A") (A') (A') (A") (A") (A') (A') (A") (A") (A')
                 (A') (A') (A') (A") (A") (A') (A") (A') (A') (A')
                 (A') (A") (A") (A') (A') (A") (A') (A') (A') (A')
                 (A") (A') (A') (A") (A') (A") (A') (A") (A') (A")
                 (A') (A") (A') (A") (A') (A") (A") (A") (A') (A')
                 (A") (A') (A") (A') (A") (A') (A") (A") (A') (A')
                 (A') (A') (A') (A') (A') (A') (A') (A') (A') (A')
                 (A')
 The electronic state of the initial guess is 1-A'.
 Leave Link  401 at Mon Feb 21 20:54:51 2022, MaxMem= 16106127360 cpu:               6.8 elap:               0.3
 (Enter /sw/contrib/gaussian/g16/B01/g16/l502.exe)
 Keep R1 ints in memory in symmetry-blocked form, NReq=348887737.
 FoFCou: FMM=F IPFlag=           0 FMFlag=           0 FMFlg1=           0
         NFxFlg=           0 DoJE=F BraDBF=F KetDBF=F FulRan=T
         wScrn=  0.000000 ICntrl=       600 IOpCl=  0 I1Cent=           0 NGrid=           0
         NMat0=    1 NMatS0=  21528 NMatT0=    0 NMatD0=    1 NMtDS0=    0 NMtDT0=    0
 Petite list used in FoFCou.
 Closed shell SCF:
 Using DIIS extrapolation, IDIIS=  1040.
 NGot= 16106127360 LenX= 15988850015 LenY= 15988789549
 Requested convergence on RMS density matrix=1.00D-08 within 128 cycles.
 Requested convergence on MAX density matrix=1.00D-06.
 Requested convergence on             energy=1.00D-06.
 No special actions if energy rises.

 Cycle   1  Pass 1  IDiag  1:
 E= -279.370287645133    
 DIIS: error= 2.60D-02 at cycle   1 NSaved=   1.
 NSaved= 1 IEnMin= 1 EnMin= -279.370287645133     IErMin= 1 ErrMin= 2.60D-02
 ErrMax= 2.60D-02  0.00D+00 EMaxC= 1.00D-01 BMatC= 4.39D-01 BMatP= 4.39D-01
 IDIUse=3 WtCom= 7.40D-01 WtEn= 2.60D-01
 Coeff-Com:  0.100D+01
 Coeff-En:   0.100D+01
 Coeff:      0.100D+01
 Gap=     0.512 Goal=   None    Shift=    0.000
 GapD=    0.512 DampG=2.000 DampE=0.500 DampFc=1.0000 IDamp=-1.
 RMSDP=1.62D-03 MaxDP=9.98D-02              OVMax= 1.13D-01

 Cycle   2  Pass 1  IDiag  1:
 E= -279.452361511548     Delta-E=       -0.082073866415 Rises=F Damp=F
 DIIS: error= 1.80D-02 at cycle   2 NSaved=   2.
 NSaved= 2 IEnMin= 2 EnMin= -279.452361511548     IErMin= 2 ErrMin= 1.80D-02
 ErrMax= 1.80D-02  0.00D+00 EMaxC= 1.00D-01 BMatC= 7.20D-02 BMatP= 4.39D-01
 IDIUse=3 WtCom= 8.20D-01 WtEn= 1.80D-01
 Coeff-Com:  0.195D+00 0.805D+00
 Coeff-En:   0.000D+00 0.100D+01
 Coeff:      0.160D+00 0.840D+00
 Gap=     0.531 Goal=   None    Shift=    0.000
 RMSDP=9.00D-04 MaxDP=3.75D-02 DE=-8.21D-02 OVMax= 6.95D-02

 Cycle   3  Pass 1  IDiag  1:
 E= -279.481596225455     Delta-E=       -0.029234713907 Rises=F Damp=F
 DIIS: error= 1.05D-02 at cycle   3 NSaved=   3.
 NSaved= 3 IEnMin= 3 EnMin= -279.481596225455     IErMin= 3 ErrMin= 1.05D-02
 ErrMax= 1.05D-02  0.00D+00 EMaxC= 1.00D-01 BMatC= 2.87D-02 BMatP= 7.20D-02
 IDIUse=3 WtCom= 8.95D-01 WtEn= 1.05D-01
 Coeff-Com: -0.330D-01 0.378D+00 0.655D+00
 Coeff-En:   0.000D+00 0.239D+00 0.761D+00
 Coeff:     -0.295D-01 0.363D+00 0.666D+00
 Gap=     0.511 Goal=   None    Shift=    0.000
 RMSDP=3.76D-04 MaxDP=1.55D-02 DE=-2.92D-02 OVMax= 3.81D-02

 Cycle   4  Pass 1  IDiag  1:
 E= -279.500623727918     Delta-E=       -0.019027502463 Rises=F Damp=F
 DIIS: error= 1.29D-03 at cycle   4 NSaved=   4.
 NSaved= 4 IEnMin= 4 EnMin= -279.500623727918     IErMin= 4 ErrMin= 1.29D-03
 ErrMax= 1.29D-03  0.00D+00 EMaxC= 1.00D-01 BMatC= 4.95D-04 BMatP= 2.87D-02
 IDIUse=3 WtCom= 9.87D-01 WtEn= 1.29D-02
 Coeff-Com: -0.117D-01 0.573D-01 0.159D+00 0.795D+00
 Coeff-En:   0.000D+00 0.000D+00 0.000D+00 0.100D+01
 Coeff:     -0.115D-01 0.566D-01 0.157D+00 0.798D+00
 Gap=     0.503 Goal=   None    Shift=    0.000
 RMSDP=9.01D-05 MaxDP=2.77D-03 DE=-1.90D-02 OVMax= 1.12D-02

 Cycle   5  Pass 1  IDiag  1:
 E= -279.501301086560     Delta-E=       -0.000677358642 Rises=F Damp=F
 DIIS: error= 7.35D-04 at cycle   5 NSaved=   5.
 NSaved= 5 IEnMin= 5 EnMin= -279.501301086560     IErMin= 5 ErrMin= 7.35D-04
 ErrMax= 7.35D-04  0.00D+00 EMaxC= 1.00D-01 BMatC= 8.71D-05 BMatP= 4.95D-04
 IDIUse=3 WtCom= 9.93D-01 WtEn= 7.35D-03
 Coeff-Com:  0.615D-02-0.725D-01-0.118D+00 0.189D-01 0.117D+01
 Coeff-En:   0.000D+00 0.000D+00 0.000D+00 0.000D+00 0.100D+01
 Coeff:      0.610D-02-0.720D-01-0.117D+00 0.187D-01 0.116D+01
 Gap=     0.503 Goal=   None    Shift=    0.000
 RMSDP=7.64D-05 MaxDP=2.11D-03 DE=-6.77D-04 OVMax= 1.11D-02

 Cycle   6  Pass 1  IDiag  1:
 E= -279.501616886758     Delta-E=       -0.000315800198 Rises=F Damp=F
 DIIS: error= 2.81D-04 at cycle   6 NSaved=   6.
 NSaved= 6 IEnMin= 6 EnMin= -279.501616886758     IErMin= 6 ErrMin= 2.81D-04
 ErrMax= 2.81D-04  0.00D+00 EMaxC= 1.00D-01 BMatC= 1.67D-05 BMatP= 8.71D-05
 IDIUse=3 WtCom= 9.97D-01 WtEn= 2.81D-03
 Coeff-Com:  0.579D-03 0.180D-02 0.484D-02-0.130D+00-0.233D+00 0.136D+01
 Coeff-En:   0.000D+00 0.000D+00 0.000D+00 0.000D+00 0.000D+00 0.100D+01
 Coeff:      0.577D-03 0.179D-02 0.482D-02-0.129D+00-0.232D+00 0.135D+01
 Gap=     0.503 Goal=   None    Shift=    0.000
 RMSDP=4.53D-05 MaxDP=1.24D-03 DE=-3.16D-04 OVMax= 5.56D-03

 Cycle   7  Pass 1  IDiag  1:
 E= -279.501689525736     Delta-E=       -0.000072638978 Rises=F Damp=F
 DIIS: error= 1.23D-04 at cycle   7 NSaved=   7.
 NSaved= 7 IEnMin= 7 EnMin= -279.501689525736     IErMin= 7 ErrMin= 1.23D-04
 ErrMax= 1.23D-04  0.00D+00 EMaxC= 1.00D-01 BMatC= 4.48D-06 BMatP= 1.67D-05
 IDIUse=3 WtCom= 9.99D-01 WtEn= 1.23D-03
 Coeff-Com: -0.940D-03 0.135D-01 0.265D-01-0.239D-01-0.286D+00 0.388D+00
 Coeff-Com:  0.883D+00
 Coeff-En:   0.000D+00 0.000D+00 0.000D+00 0.000D+00 0.000D+00 0.000D+00
 Coeff-En:   0.100D+01
 Coeff:     -0.938D-03 0.135D-01 0.264D-01-0.238D-01-0.286D+00 0.388D+00
 Coeff:      0.883D+00
 Gap=     0.503 Goal=   None    Shift=    0.000
 RMSDP=1.32D-05 MaxDP=3.75D-04 DE=-7.26D-05 OVMax= 1.55D-03

 Cycle   8  Pass 1  IDiag  1:
 E= -279.501698356744     Delta-E=       -0.000008831008 Rises=F Damp=F
 DIIS: error= 5.68D-05 at cycle   8 NSaved=   8.
 NSaved= 8 IEnMin= 8 EnMin= -279.501698356744     IErMin= 8 ErrMin= 5.68D-05
 ErrMax= 5.68D-05  0.00D+00 EMaxC= 1.00D-01 BMatC= 6.07D-07 BMatP= 4.48D-06
 IDIUse=1 WtCom= 1.00D+00 WtEn= 0.00D+00
 Coeff-Com: -0.448D-03 0.343D-02 0.760D-02 0.273D-01-0.406D-01-0.198D+00
 Coeff-Com:  0.175D+00 0.103D+01
 Coeff:     -0.448D-03 0.343D-02 0.760D-02 0.273D-01-0.406D-01-0.198D+00
 Coeff:      0.175D+00 0.103D+01
 Gap=     0.503 Goal=   None    Shift=    0.000
 RMSDP=6.87D-06 MaxDP=2.03D-04 DE=-8.83D-06 OVMax= 7.40D-04

 Cycle   9  Pass 1  IDiag  1:
 E= -279.501700123212     Delta-E=       -0.000001766468 Rises=F Damp=F
 DIIS: error= 1.60D-05 at cycle   9 NSaved=   9.
 NSaved= 9 IEnMin= 9 EnMin= -279.501700123212     IErMin= 9 ErrMin= 1.60D-05
 ErrMax= 1.60D-05  0.00D+00 EMaxC= 1.00D-01 BMatC= 6.95D-08 BMatP= 6.07D-07
 IDIUse=1 WtCom= 1.00D+00 WtEn= 0.00D+00
 Coeff-Com:  0.124D-03-0.173D-02-0.309D-02-0.209D-02 0.343D-01 0.529D-04
 Coeff-Com: -0.168D+00-0.102D+00 0.124D+01
 Coeff:      0.124D-03-0.173D-02-0.309D-02-0.209D-02 0.343D-01 0.529D-04
 Coeff:     -0.168D+00-0.102D+00 0.124D+01
 Gap=     0.503 Goal=   None    Shift=    0.000
 RMSDP=1.94D-06 MaxDP=6.65D-05 DE=-1.77D-06 OVMax= 1.75D-04

 Cycle  10  Pass 1  IDiag  1:
 E= -279.501700283342     Delta-E=       -0.000000160130 Rises=F Damp=F
 DIIS: error= 4.15D-06 at cycle  10 NSaved=  10.
 NSaved=10 IEnMin=10 EnMin= -279.501700283342     IErMin=10 ErrMin= 4.15D-06
 ErrMax= 4.15D-06  0.00D+00 EMaxC= 1.00D-01 BMatC= 5.52D-09 BMatP= 6.95D-08
 IDIUse=1 WtCom= 1.00D+00 WtEn= 0.00D+00
 Coeff-Com:  0.307D-04-0.240D-03-0.320D-03-0.268D-02 0.159D-02 0.196D-01
 Coeff-Com: -0.131D-01-0.737D-01-0.805D-01 0.115D+01
 Coeff:      0.307D-04-0.240D-03-0.320D-03-0.268D-02 0.159D-02 0.196D-01
 Coeff:     -0.131D-01-0.737D-01-0.805D-01 0.115D+01
 Gap=     0.503 Goal=   None    Shift=    0.000
 RMSDP=5.01D-07 MaxDP=2.10D-05 DE=-1.60D-07 OVMax= 4.15D-05

 Cycle  11  Pass 1  IDiag  1:
 E= -279.501700295776     Delta-E=       -0.000000012433 Rises=F Damp=F
 DIIS: error= 2.02D-06 at cycle  11 NSaved=  11.
 NSaved=11 IEnMin=11 EnMin= -279.501700295776     IErMin=11 ErrMin= 2.02D-06
 ErrMax= 2.02D-06  0.00D+00 EMaxC= 1.00D-01 BMatC= 6.57D-10 BMatP= 5.52D-09
 IDIUse=1 WtCom= 1.00D+00 WtEn= 0.00D+00
 Coeff-Com: -0.213D-04 0.244D-03 0.488D-03 0.528D-03-0.428D-02-0.354D-02
 Coeff-Com:  0.212D-01 0.306D-01-0.139D+00-0.177D+00 0.127D+01
 Coeff:     -0.213D-04 0.244D-03 0.488D-03 0.528D-03-0.428D-02-0.354D-02
 Coeff:      0.212D-01 0.306D-01-0.139D+00-0.177D+00 0.127D+01
 Gap=     0.503 Goal=   None    Shift=    0.000
 RMSDP=1.76D-07 MaxDP=6.42D-06 DE=-1.24D-08 OVMax= 1.74D-05

 Cycle  12  Pass 1  IDiag  1:
 E= -279.501700297570     Delta-E=       -0.000000001795 Rises=F Damp=F
 DIIS: error= 5.83D-07 at cycle  12 NSaved=  12.
 NSaved=12 IEnMin=12 EnMin= -279.501700297570     IErMin=12 ErrMin= 5.83D-07
 ErrMax= 5.83D-07  0.00D+00 EMaxC= 1.00D-01 BMatC= 7.15D-11 BMatP= 6.57D-10
 IDIUse=1 WtCom= 1.00D+00 WtEn= 0.00D+00
 Coeff-Com:  0.124D-05-0.291D-04-0.630D-04 0.182D-03 0.108D-02-0.232D-02
 Coeff-Com: -0.409D-02 0.553D-02 0.415D-01-0.115D+00-0.278D+00 0.135D+01
 Coeff:      0.124D-05-0.291D-04-0.630D-04 0.182D-03 0.108D-02-0.232D-02
 Coeff:     -0.409D-02 0.553D-02 0.415D-01-0.115D+00-0.278D+00 0.135D+01
 Gap=     0.503 Goal=   None    Shift=    0.000
 RMSDP=7.15D-08 MaxDP=2.78D-06 DE=-1.79D-09 OVMax= 6.73D-06

 Cycle  13  Pass 1  IDiag  1:
 E= -279.501700297798     Delta-E=       -0.000000000228 Rises=F Damp=F
 DIIS: error= 1.67D-07 at cycle  13 NSaved=  13.
 NSaved=13 IEnMin=13 EnMin= -279.501700297798     IErMin=13 ErrMin= 1.67D-07
 ErrMax= 1.67D-07  0.00D+00 EMaxC= 1.00D-01 BMatC= 3.99D-12 BMatP= 7.15D-11
 IDIUse=1 WtCom= 1.00D+00 WtEn= 0.00D+00
 Coeff-Com:  0.128D-05-0.140D-04-0.226D-04-0.885D-04 0.124D-03 0.757D-03
 Coeff-Com: -0.863D-03-0.324D-02 0.647D-03 0.411D-01-0.363D-01-0.324D+00
 Coeff-Com:  0.132D+01
 Coeff:      0.128D-05-0.140D-04-0.226D-04-0.885D-04 0.124D-03 0.757D-03
 Coeff:     -0.863D-03-0.324D-02 0.647D-03 0.411D-01-0.363D-01-0.324D+00
 Coeff:      0.132D+01
 Gap=     0.503 Goal=   None    Shift=    0.000
 RMSDP=1.90D-08 MaxDP=5.60D-07 DE=-2.28D-10 OVMax= 1.56D-06

 Cycle  14  Pass 1  IDiag  1:
 E= -279.501700297812     Delta-E=       -0.000000000014 Rises=F Damp=F
 DIIS: error= 2.46D-08 at cycle  14 NSaved=  14.
 NSaved=14 IEnMin=14 EnMin= -279.501700297812     IErMin=14 ErrMin= 2.46D-08
 ErrMax= 2.46D-08  0.00D+00 EMaxC= 1.00D-01 BMatC= 1.94D-13 BMatP= 3.99D-12
 IDIUse=1 WtCom= 1.00D+00 WtEn= 0.00D+00
 Coeff-Com: -0.188D-06 0.309D-05 0.555D-05 0.442D-05-0.820D-04 0.464D-04
 Coeff-Com:  0.281D-03 0.219D-03-0.244D-02 0.151D-02 0.170D-01-0.259D-01
 Coeff-Com: -0.199D+00 0.121D+01
 Coeff:     -0.188D-06 0.309D-05 0.555D-05 0.442D-05-0.820D-04 0.464D-04
 Coeff:      0.281D-03 0.219D-03-0.244D-02 0.151D-02 0.170D-01-0.259D-01
 Coeff:     -0.199D+00 0.121D+01
 Gap=     0.503 Goal=   None    Shift=    0.000
 RMSDP=3.77D-09 MaxDP=9.03D-08 DE=-1.40D-11 OVMax= 3.39D-07

 SCF Done:  E(RHF) =  -279.501700298     A.U. after   14 cycles
            NFock= 14  Conv=0.38D-08     -V/T= 2.0023
 KE= 2.788491977592D+02 PE=-8.952141525795D+02 EE= 2.199227909943D+02
 Leave Link  502 at Mon Feb 21 20:54:54 2022, MaxMem= 16106127360 cpu:              55.2 elap:               3.6
 (Enter /sw/contrib/gaussian/g16/B01/g16/l801.exe)
 ExpMin= 2.53D-02 ExpMax= 1.53D+04 ExpMxC= 5.22D+02 IAcc=3 IRadAn=         5 AccDes= 0.00D+00
 HarFok:  IExCor=  205 AccDes= 0.00D+00 IRadAn=         5 IDoV=-2 UseB2=F ITyADJ=14
 ICtDFT= 12500011 ScaDFX=  1.000000  1.000000  1.000000  1.000000
 Largest valence mixing into a core orbital is  2.08D-04
 Largest core mixing into a valence orbital is  3.64D-05
 Range of M.O.s used for correlation:     5   207
 NBasis=   207 NAE=    16 NBE=    16 NFC=     4 NFV=     0
 NROrb=    203 NOA=    12 NOB=    12 NVA=   191 NVB=   191

 **** Warning!!: The largest alpha MO coefficient is  0.17620155D+02

 Leave Link  801 at Mon Feb 21 20:54:54 2022, MaxMem= 16106127360 cpu:               2.4 elap:               0.1
 (Enter /sw/contrib/gaussian/g16/B01/g16/l906.exe)
 Frozen-core derivative calculation, NFC=   4 NFV=   0.
 FulOut=F Deriv=T AODrv=T NAtomX=     5
   MMem=           0  MDisk=          12 MDiskD=          12
  W3Min=      811440 MinDsk=     2425030 NBas6D=         245
 NBas2D=       30762    NTT=       30135    LW2=     7400000
    MDV= 16105574283 MDiskM=      328644 NBas2p=       30702
 Disk-based method using ON**2 memory for 12 occupieds at a time.
 Permanent disk used for amplitudes=    11516536 words.
 Estimated scratch disk usage=   321251614 words.
 IMap=   1   2   3   4   5   6   7   8   9  10  11  12  13  14  15  16
 Actual    scratch disk usage=   310331678 words.
 JobTyp=1 Pass  1:  I=   5 to  16 NPSUse= 28 ParTrn=T ParDer=T DoDerP=T.
 (rs|ai) integrals will be sorted in core.
 Spin components of T(2) and E(2):
     alpha-alpha T2 =       0.3401197360D-01 E2=     -0.1223954398D+00
     alpha-beta  T2 =       0.1868217618D+00 E2=     -0.7002211580D+00
     beta-beta   T2 =       0.3401197360D-01 E2=     -0.1223954398D+00
 The integrals were generated   1 times.
 ANorm=    0.1120198960D+01
 E2 =    -0.9450120375D+00 EUMP2 =    -0.28044671233536D+03
 Leave Link  906 at Mon Feb 21 20:56:32 2022, MaxMem= 16106127360 cpu:            2716.8 elap:              97.2
 (Enter /sw/contrib/gaussian/g16/B01/g16/l1101.exe)
 Using compressed Sx but separate Hx and Fx, NAtomX=     5.
 Will process      6 centers per pass.
 Leave Link 1101 at Mon Feb 21 20:56:32 2022, MaxMem= 16106127360 cpu:               5.4 elap:               0.2
 (Enter /sw/contrib/gaussian/g16/B01/g16/l1102.exe)
 Leave Link 1102 at Mon Feb 21 20:56:32 2022, MaxMem= 16106127360 cpu:               0.5 elap:               0.0
 (Enter /sw/contrib/gaussian/g16/B01/g16/l1110.exe)
 Forming Gx(P) for the SCF density, NAtomX=     5.
 Integral derivatives from FoFJK, PRISM(SPDF).
 Do as many integral derivatives as possible in FoFJK.
 G2DrvN: MDV=   16106126844.
 G2DrvN: will do     6 centers at a time, making    1 passes.
 Calling FoFCou, ICntrl=  3107 FMM=F I1Cent=   0 AccDes= 0.00D+00.
 FoFJK:  IHMeth= 1 ICntrl=    3107 DoSepK=F KAlg= 0 I1Cent=           0 FoldK=F
 IRaf=         0 NMat=       1 IRICut=       1 DoRegI=T DoRafI=F ISym2E= 1 IDoP0=0 IntGTp=1.
 FoFCou: FMM=F IPFlag=           0 FMFlag=      100000 FMFlg1=           0
         NFxFlg=           0 DoJE=F BraDBF=F KetDBF=F FulRan=T
         wScrn=  0.000000 ICntrl=      3107 IOpCl=  0 I1Cent=           0 NGrid=           0
         NMat0=    1 NMatS0=      1 NMatT0=    0 NMatD0=    1 NMtDS0=    0 NMtDT0=    0
 Petite list used in FoFCou.
 End of G2Drv F.D. properties file   721 does not exist.
 End of G2Drv F.D. properties file   722 does not exist.
 End of G2Drv F.D. properties file   788 does not exist.
 Leave Link 1110 at Mon Feb 21 20:56:35 2022, MaxMem= 16106127360 cpu:              85.5 elap:               3.1
 (Enter /sw/contrib/gaussian/g16/B01/g16/l1002.exe)
 Minotr:  Closed shell wavefunction.
          IDoAtm=11111
          Frozen-core window.
          Direct CPHF calculation.
          Differentiating once with respect to electric field.
                with respect to dipole field.
          Differentiating once with respect to nuclear coordinates.
          Requested convergence is 1.0D-08 RMS, and 1.0D-07 maximum.
          Secondary convergence is 1.0D-12 RMS, and 1.0D-12 maximum.
          NewPWx=T KeepS1=T KeepF1=T KeepIn=T MapXYZ=F SortEE=F KeepMc=T.
 Keep R1 ints in memory in symmetry-blocked form, NReq=348888983.
 FoFCou: FMM=F IPFlag=           0 FMFlag=           0 FMFlg1=           0
         NFxFlg=           0 DoJE=F BraDBF=F KetDBF=F FulRan=T
         wScrn=  0.000000 ICntrl=       600 IOpCl=  0 I1Cent=           0 NGrid=           0
         NMat0=    1 NMatS0=  21528 NMatT0=    0 NMatD0=    1 NMtDS0=    0 NMtDT0=    0
 Petite list used in FoFCou.
          MDV=   16106127360 using IRadAn=       1.
          Solving linear equations simultaneously, MaxMat=       0.
          There are    18 degrees of freedom in the 1st order CPHF.  IDoFFX=6 NUNeed=    18.
     15 vectors produced by pass  0 Test12= 1.70D-14 5.56D-09 XBig12= 8.29D+00 1.07D+00.
 AX will form    15 AO Fock derivatives at one time.
     15 vectors produced by pass  1 Test12= 1.70D-14 5.56D-09 XBig12= 1.34D+00 2.63D-01.
     15 vectors produced by pass  2 Test12= 1.70D-14 5.56D-09 XBig12= 1.41D-01 9.80D-02.
     15 vectors produced by pass  3 Test12= 1.70D-14 5.56D-09 XBig12= 4.93D-03 1.08D-02.
     15 vectors produced by pass  4 Test12= 1.70D-14 5.56D-09 XBig12= 9.83D-05 1.92D-03.
     15 vectors produced by pass  5 Test12= 1.70D-14 5.56D-09 XBig12= 1.40D-06 1.79D-04.
     15 vectors produced by pass  6 Test12= 1.70D-14 5.56D-09 XBig12= 1.12D-08 1.50D-05.
     12 vectors produced by pass  7 Test12= 1.70D-14 5.56D-09 XBig12= 8.23D-11 1.30D-06.
      3 vectors produced by pass  8 Test12= 1.70D-14 5.56D-09 XBig12= 5.76D-13 1.20D-07.
      2 vectors produced by pass  9 Test12= 1.70D-14 5.56D-09 XBig12= 3.75D-15 1.03D-08.
 InvSVY:  IOpt=1 It=  1 EMax= 8.88D-16
 Solved reduced A of dimension   122 with    15 vectors.
 FullF1:  Do perturbations      1 to      18.
 Saving first derivative matrices.
 End of Minotr F.D. properties file   721 does not exist.
 End of Minotr F.D. properties file   722 does not exist.
 End of Minotr F.D. properties file   788 does not exist.
 Leave Link 1002 at Mon Feb 21 20:56:38 2022, MaxMem= 16106127360 cpu:              80.2 elap:               2.9
 (Enter /sw/contrib/gaussian/g16/B01/g16/l811.exe)
 MDV= 16106127360.
 Form MO integral derivatives with frozen-active canonical formalism.
 MOERI=1 MOERIx=1 NAtoms=     5 NAtomX=     5.
 Discarding MO integrals.
 MO basis two electron integral derivatives will not be stored on disk.
 IAlg= 3 DoFC=T DoPWx=T Debug=F.
 Frozen-core window:  NFC=   4 NFV=   0.
 Reordered first order wavefunction length =     18678272
 In DefCFB: NBatch=  1 ICI= 16 ICA=191 LFMax= 96
            Large arrays: LIAPS=   619940160 LIARS=   288257200 words.
 In StABat: MaxSiz= 55 MinSiz= 25 NAtomB=  5
 DoIAMN: NPSUse= 28.
 Leave Link  811 at Mon Feb 21 20:57:58 2022, MaxMem= 16106127360 cpu:            2236.0 elap:              80.0
 (Enter /sw/contrib/gaussian/g16/B01/g16/l804.exe)
 Frozen-core window:  NFC=   4 NFV=   0.
 Closed-shell transformation, MDV= 16106127360 ITran=4 ISComp=1.
 Semi-Direct transformation.
 ModeAB=           2 MOrb=            16 LenV=   16104923051
 LASXX=     67341636 LTotXX=    67341636 LenRXX=    67341636
 LTotAB=    68301760 MaxLAS=    99807120 LenRXY=    99807120
 NonZer=   134683272 LenScr=   202817536 LnRSAI=           0
 LnScr1=           0 LExtra=           0 Total=    369966292
 MaxDsk=          -1 SrtSym=           F ITran=            4
 DoSDTr:  NPSUse= 28
 JobTyp=0 Pass  1:  I=   1 to  16.
 (rs|ai) integrals will be sorted in core.
 Complete sort for first half transformation.
 First half transformation complete.
 Begin second half transformation for I=  10.
 Begin second half transformation for I=  10.
 Complete sort for second half transformation.
 Second half transformation complete.
 Spin components of T(2) and E(2):
     alpha-alpha T2 =       0.3401197360D-01 E2=     -0.1223954398D+00
     alpha-beta  T2 =       0.1868217618D+00 E2=     -0.7002211580D+00
     beta-beta   T2 =       0.3401197360D-01 E2=     -0.1223954398D+00
 ANorm=    0.1584200561D+01
 E2 =    -0.9450120375D+00 EUMP2 =    -0.28044671233536D+03
 Leave Link  804 at Mon Feb 21 20:58:15 2022, MaxMem= 16106127360 cpu:             473.2 elap:              17.0
 (Enter /sw/contrib/gaussian/g16/B01/g16/l1002.exe)
 Minotr:  Closed shell wavefunction.
          Computing MP2/KS-MP2 derivatives.
          Using Z-Vector for PSCF gradient.
          Skipping F1 and S1 gradient terms here.
          IDoAtm=11111
          Frozen-core window.
          Using MO integrals in the linear equations.
          Forming densities via direct SCF.
          Differentiating once with respect to electric field.
                with respect to dipole field.
          Differentiating once with respect to nuclear coordinates.
          Using symmetry in CPHF.
          Requested convergence is 1.0D-10 RMS, and 1.0D-09 maximum.
          NewPWx=F KeepS1=T KeepF1=T KeepIn=T MapXYZ=F SortEE=F KeepMc=T.
          MDV=   16106127360 using IRadAn=       5.
          Solving linear equations separately, MaxMat=       0.
          There are     1 degrees of freedom in the 1st order CPHF.  IDoFFX=0 NUNeed=     1.
 FoFJK:  IHMeth= 1 ICntrl=       0 DoSepK=F KAlg= 0 I1Cent=           0 FoldK=F
 IRaf=         0 NMat=       1 IRICut=       1 DoRegI=T DoRafI=F ISym2E= 0 IDoP0=0 IntGTp=1.
 FoFCou: FMM=F IPFlag=           0 FMFlag=      100000 FMFlg1=           0
         NFxFlg=           0 DoJE=F BraDBF=F KetDBF=F FulRan=T
         wScrn=  0.000000 ICntrl=         0 IOpCl=  0 I1Cent=           0 NGrid=           0
         NMat0=    1 NMatS0=      1 NMatT0=    0 NMatD0=    1 NMtDS0=    0 NMtDT0=    0
 Symmetry not used in FoFCou.
 LinEq1:  Iter=  0 NonCon=     1 RMS=5.95D-03 Max=1.32D-01 NDo=     1
 LinEq1:  Iter=  1 NonCon=     1 RMS=1.90D-03 Max=3.82D-02 NDo=     1
 LinEq1:  Iter=  2 NonCon=     1 RMS=8.66D-04 Max=1.41D-02 NDo=     1
 LinEq1:  Iter=  3 NonCon=     1 RMS=3.86D-04 Max=7.80D-03 NDo=     1
 LinEq1:  Iter=  4 NonCon=     1 RMS=1.19D-04 Max=1.88D-03 NDo=     1
 LinEq1:  Iter=  5 NonCon=     1 RMS=4.47D-05 Max=7.11D-04 NDo=     1
 LinEq1:  Iter=  6 NonCon=     1 RMS=2.00D-05 Max=2.35D-04 NDo=     1
 LinEq1:  Iter=  7 NonCon=     1 RMS=8.06D-06 Max=1.60D-04 NDo=     1
 LinEq1:  Iter=  8 NonCon=     1 RMS=3.45D-06 Max=3.41D-05 NDo=     1
 LinEq1:  Iter=  9 NonCon=     1 RMS=9.44D-07 Max=1.31D-05 NDo=     1
 LinEq1:  Iter= 10 NonCon=     1 RMS=1.86D-07 Max=2.02D-06 NDo=     1
 LinEq1:  Iter= 11 NonCon=     1 RMS=3.46D-08 Max=3.61D-07 NDo=     1
 LinEq1:  Iter= 12 NonCon=     1 RMS=8.33D-09 Max=1.31D-07 NDo=     1
 LinEq1:  Iter= 13 NonCon=     1 RMS=1.50D-09 Max=2.60D-08 NDo=     1
 LinEq1:  Iter= 14 NonCon=     1 RMS=2.72D-10 Max=3.82D-09 NDo=     1
 LinEq1:  Iter= 15 NonCon=     0 RMS=4.93D-11 Max=5.51D-10 NDo=     1
 Linear equations converged to 1.000D-10 1.000D-09 after    15 iterations.
 End of Minotr F.D. properties file   721 does not exist.
 End of Minotr F.D. properties file   722 does not exist.
 End of Minotr F.D. properties file   788 does not exist.
 Leave Link 1002 at Mon Feb 21 20:58:18 2022, MaxMem= 16106127360 cpu:              65.2 elap:               2.4
 (Enter /sw/contrib/gaussian/g16/B01/g16/l1102.exe)
 Use density number 2.
 Symmetrizing basis deriv contribution to polar:
 IMax=3 JMax=2 DiffMx= 0.00D+00
 Leave Link 1102 at Mon Feb 21 20:58:18 2022, MaxMem= 16106127360 cpu:               0.6 elap:               0.0
 (Enter /sw/contrib/gaussian/g16/B01/g16/l1110.exe)
 Forming Gx(P) for generalized density number  2 NAtomX=     5.
 Integral derivatives from FoFJK, PRISM(SPDF).
 Do as many integral derivatives as possible in FoFJK.
 G2DrvN: MDV=   16106126844.
 G2DrvN: will do     6 centers at a time, making    1 passes.
 Calling FoFCou, ICntrl=  3107 FMM=F I1Cent=   0 AccDes= 0.00D+00.
 FoFJK:  IHMeth= 1 ICntrl=    3107 DoSepK=F KAlg= 0 I1Cent=           0 FoldK=F
 IRaf=         0 NMat=       1 IRICut=       1 DoRegI=T DoRafI=F ISym2E= 1 IDoP0=0 IntGTp=1.
 FoFCou: FMM=F IPFlag=           0 FMFlag=      100000 FMFlg1=           0
         NFxFlg=           0 DoJE=F BraDBF=F KetDBF=F FulRan=T
         wScrn=  0.000000 ICntrl=      3107 IOpCl=  0 I1Cent=           0 NGrid=           0
         NMat0=    1 NMatS0=      1 NMatT0=    0 NMatD0=    1 NMtDS0=    0 NMtDT0=    0
 Petite list used in FoFCou.
 End of G2Drv F.D. properties file   721 does not exist.
 End of G2Drv F.D. properties file   722 does not exist.
 End of G2Drv F.D. properties file   788 does not exist.
 Leave Link 1110 at Mon Feb 21 20:58:21 2022, MaxMem= 16106127360 cpu:              84.8 elap:               3.1
 (Enter /sw/contrib/gaussian/g16/B01/g16/l1112.exe)
 MP22nd: MDV=   16106127360
 This link is doing NAtomX=     5 total of    18 degrees of freedom.
 Using ON3 I/O method in MakUI.
 Frozen-core window:  NFC=   4 NFV=   0.
 Using Ix for Sx.
 Use MO integrals over full window.
 Using OV2 memory method for fx*t*t/D, MaxI=    16 DoOO2=F NP=  28.
 R2 and R3 integrals will be kept in memory, NReq=   915591705.
 FoFCou: FMM=F IPFlag=           0 FMFlag=           0 FMFlg1=           0
         NFxFlg=           0 DoJE=F BraDBF=F KetDBF=F FulRan=T
         wScrn=  0.000000 ICntrl=       600 IOpCl=  0 I1Cent=           0 NGrid=           0
         NMat0=    1 NMatS0=      1 NMatT0=    0 NMatD0=    1 NMtDS0=    0 NMtDT0=    0
 Symmetry not used in FoFCou.
 DD1Dir will call FoFMem   1 times, MxPair=       272
 NAB=   136 NAA=     0 NBB=     0.
 Symmetry is being used.
 FoFJK:  IHMeth= 1 ICntrl=       0 DoSepK=F KAlg= 0 I1Cent=           0 FoldK=F
 IRaf=         0 NMat=      18 IRICut=      45 DoRegI=T DoRafI=T ISym2E= 2 IDoP0=3 IntGTp=3.
 Discarding MO integrals.
 Leave Link 1112 at Mon Feb 21 20:58:58 2022, MaxMem= 16106127360 cpu:            1035.7 elap:              37.4
 (Enter /sw/contrib/gaussian/g16/B01/g16/l601.exe)
 Copying SCF densities to generalized density rwf, IOpCl= 0 IROHF=0.

 **********************************************************************

            Population analysis using the MP2 Density.

 **********************************************************************

 Orbital symmetries:
       Occupied  (A') (A') (A') (A') (A') (A') (A') (A') (A') (A')
                 (A") (A') (A") (A') (A") (A')
       Virtual   (A') (A") (A') (A') (A') (A") (A') (A') (A") (A')
                 (A") (A') (A') (A') (A") (A') (A') (A") (A') (A')
                 (A') (A') (A') (A') (A") (A') (A') (A") (A') (A')
                 (A") (A') (A") (A') (A') (A") (A') (A") (A') (A')
                 (A") (A') (A") (A') (A') (A") (A') (A') (A") (A')
                 (A") (A') (A') (A') (A") (A') (A") (A') (A") (A')
                 (A') (A') (A") (A') (A') (A") (A') (A") (A') (A')
                 (A") (A') (A') (A") (A") (A') (A') (A") (A') (A')
                 (A') (A") (A') (A") (A") (A') (A') (A") (A') (A')
                 (A") (A') (A') (A") (A') (A") (A') (A") (A') (A')
                 (A") (A') (A") (A') (A') (A") (A') (A') (A") (A')
                 (A") (A') (A') (A') (A") (A') (A') (A') (A") (A')
                 (A") (A') (A") (A') (A') (A") (A") (A') (A") (A')
                 (A') (A') (A') (A") (A") (A") (A') (A') (A') (A')
                 (A") (A') (A") (A') (A') (A") (A') (A') (A') (A')
                 (A") (A') (A') (A") (A') (A") (A') (A") (A') (A")
                 (A') (A") (A') (A") (A') (A") (A") (A') (A") (A')
                 (A") (A') (A") (A') (A") (A') (A") (A") (A') (A')
                 (A') (A') (A') (A') (A') (A') (A') (A') (A') (A')
                 (A')
 The electronic state is 1-A'.
 Alpha  occ. eigenvalues --  -20.69065 -20.68410 -20.65962 -15.81303  -1.62450
 Alpha  occ. eigenvalues --   -1.49533  -1.25396  -0.94821  -0.77248  -0.75937
 Alpha  occ. eigenvalues --   -0.71190  -0.67923  -0.62024  -0.58894  -0.48496
 Alpha  occ. eigenvalues --   -0.47317
 Alpha virt. eigenvalues --    0.02967   0.07144   0.08605   0.10171   0.13392
 Alpha virt. eigenvalues --    0.13392   0.14411   0.15449   0.17832   0.19415
 Alpha virt. eigenvalues --    0.19983   0.20647   0.22081   0.23598   0.23746
 Alpha virt. eigenvalues --    0.26644   0.29299   0.30372   0.31037   0.34361
 Alpha virt. eigenvalues --    0.34966   0.38741   0.42223   0.43184   0.52785
 Alpha virt. eigenvalues --    0.52882   0.55828   0.58110   0.62563   0.63945
 Alpha virt. eigenvalues --    0.67461   0.68455   0.70558   0.71135   0.72388
 Alpha virt. eigenvalues --    0.72929   0.74412   0.79232   0.79251   0.81063
 Alpha virt. eigenvalues --    0.81292   0.83084   0.86821   0.90867   0.92212
 Alpha virt. eigenvalues --    0.92749   0.95652   0.97646   0.98476   1.01668
 Alpha virt. eigenvalues --    1.05196   1.05490   1.08267   1.11747   1.14153
 Alpha virt. eigenvalues --    1.18984   1.21969   1.23295   1.33912   1.35129
 Alpha virt. eigenvalues --    1.38709   1.45435   1.48770   1.50837   1.53782
 Alpha virt. eigenvalues --    1.56749   1.57961   1.61293   1.66442   1.67042
 Alpha virt. eigenvalues --    1.70272   1.79283   1.83062   1.83494   1.87937
 Alpha virt. eigenvalues --    1.90922   1.95645   1.99277   2.00440   2.07907
 Alpha virt. eigenvalues --    2.12185   2.13138   2.15057   2.22524   2.26509
 Alpha virt. eigenvalues --    2.26602   2.28951   2.31445   2.34549   2.38622
 Alpha virt. eigenvalues --    2.42552   2.42870   2.45289   2.46115   2.47744
 Alpha virt. eigenvalues --    2.50101   2.58919   2.59760   2.62216   2.62405
 Alpha virt. eigenvalues --    2.63442   2.66919   2.75565   2.82108   2.85283
 Alpha virt. eigenvalues --    2.88796   2.89371   2.93088   2.95561   3.02603
 Alpha virt. eigenvalues --    3.06635   3.12389   3.20480   3.22536   3.31781
 Alpha virt. eigenvalues --    3.33986   3.52110   3.64117   3.83842   3.84435
 Alpha virt. eigenvalues --    4.14909   4.16515   4.18423   4.25781   4.35021
 Alpha virt. eigenvalues --    4.39339   4.46334   4.51973   4.65946   4.71128
 Alpha virt. eigenvalues --    4.80379   4.82683   4.82984   4.89609   5.02392
 Alpha virt. eigenvalues --    5.07702   5.10509   5.14516   5.17668   5.24332
 Alpha virt. eigenvalues --    5.27316   5.30663   5.33016   5.35375   5.60490
 Alpha virt. eigenvalues --    5.67360   5.77598   5.82902   5.95708   6.16904
 Alpha virt. eigenvalues --    6.30969   6.33738   6.39463   6.49477   6.50696
 Alpha virt. eigenvalues --    6.61439   6.66808   6.70205   6.75796   6.76415
 Alpha virt. eigenvalues --    6.83461   6.89607   7.01482   7.05698   7.05742
 Alpha virt. eigenvalues --    7.09093   7.12379   7.15065   7.18195   7.22554
 Alpha virt. eigenvalues --    7.24216   7.30746   7.32532   7.34734   7.39912
 Alpha virt. eigenvalues --    7.43123   7.48380   7.60864   7.61586   7.62858
 Alpha virt. eigenvalues --    7.66750   7.79339   7.88385   8.09347   8.31502
 Alpha virt. eigenvalues --    8.40919   8.54390  13.39576  14.38683  15.16512
 Alpha virt. eigenvalues --   16.15453
          Condensed to atoms (all electrons):
               1          2          3          4          5
     1  H    0.589586   0.128218   0.020142   0.012454  -0.000633
     2  O    0.128218   8.323462  -0.174591  -0.089937   0.015647
     3  O    0.020142  -0.174591   8.469555  -0.127831  -0.040909
     4  N    0.012454  -0.089937  -0.127831   6.967754  -0.054827
     5  O   -0.000633   0.015647  -0.040909  -0.054827   8.274176
 Mulliken charges:
               1
     1  H    0.250233
     2  O   -0.202799
     3  O   -0.146367
     4  N    0.292388
     5  O   -0.193454
 Sum of Mulliken charges =  -0.00000
 Mulliken charges with hydrogens summed into heavy atoms:
               1
     2  O    0.047434
     3  O   -0.146367
     4  N    0.292388
     5  O   -0.193454
 APT charges:
               1
     1  H    0.298738
     2  O   -0.288970
     3  O   -0.491386
     4  N    0.872823
     5  O   -0.391206
 Sum of APT charges =  -0.00000
 APT charges with hydrogens summed into heavy atoms:
               1
     2  O    0.009769
     3  O   -0.491386
     4  N    0.872823
     5  O   -0.391206
 Electronic spatial extent (au):  <R**2>=            252.4379
 Charge=             -0.0000 electrons
 Dipole moment (field-independent basis, Debye):
    X=              0.5097    Y=              1.3534    Z=             -0.0000  Tot=              1.4462
 Quadrupole moment (field-independent basis, Debye-Ang):
   XX=            -22.4868   YY=            -18.6122   ZZ=            -22.0076
   XY=              3.2423   XZ=              0.0000   YZ=             -0.0000
 Traceless Quadrupole moment (field-independent basis, Debye-Ang):
   XX=             -1.4513   YY=              2.4233   ZZ=             -0.9720
   XY=              3.2423   XZ=              0.0000   YZ=             -0.0000
 Octapole moment (field-independent basis, Debye-Ang**2):
  XXX=              2.8333  YYY=             11.2869  ZZZ=              0.0000  XYY=              7.8929
  XXY=              6.5736  XXZ=             -0.0000  XZZ=             -1.5820  YZZ=             -0.8514
  YYZ=             -0.0000  XYZ=             -0.0000
 Hexadecapole moment (field-independent basis, Debye-Ang**3):
 XXXX=           -158.5389 YYYY=            -89.2623 ZZZZ=            -18.2332 XXXY=            -36.5545
 XXXZ=              0.0000 YYYX=            -30.6067 YYYZ=              0.0000 ZZZX=              0.0000
 ZZZY=              0.0000 XXYY=            -33.9587 XXZZ=            -30.8773 YYZZ=            -20.5810
 XXYZ=              0.0000 YYXZ=              0.0000 ZZXY=            -14.9970
 N-N= 1.169404635282D+02 E-N=-8.959971573246D+02  KE= 2.802011285094D+02
 Symmetry A'   KE= 2.662283015714D+02
 Symmetry A"   KE= 1.397282693801D+01
  Exact polarizability:  33.987   9.420  30.168  -0.000  -0.000  17.917
 Approx polarizability:  29.023   5.033  23.464  -0.000  -0.000  15.517
 No NMR shielding tensors so no spin-rotation constants.
 Leave Link  601 at Mon Feb 21 20:58:58 2022, MaxMem= 16106127360 cpu:               4.3 elap:               0.2
 (Enter /sw/contrib/gaussian/g16/B01/g16/l701.exe)
 ... and contract with generalized density number  2.
 Compute integral second derivatives.
 Leave Link  701 at Mon Feb 21 20:58:59 2022, MaxMem= 16106127360 cpu:               5.4 elap:               0.2
 (Enter /sw/contrib/gaussian/g16/B01/g16/l702.exe)
 L702 exits ... SP integral derivatives will be done elsewhere.
 Leave Link  702 at Mon Feb 21 20:58:59 2022, MaxMem= 16106127360 cpu:               0.9 elap:               0.1
 (Enter /sw/contrib/gaussian/g16/B01/g16/l703.exe)
 Integral derivatives from FoFJK, PRISM(SPDF).
 Compute integral second derivatives, UseDBF=F ICtDFT=           0.
 Calling FoFJK, ICntrl=  10100127 FMM=F ISym2X=1 I1Cent= 0 IOpClX= 0 NMat=1 NMatS=1 NMatT=0.
 FoFJK:  IHMeth= 1 ICntrl=10100127 DoSepK=F KAlg= 0 I1Cent=           0 FoldK=F
 IRaf=         0 NMat=       1 IRICut=       1 DoRegI=T DoRafI=F ISym2E= 1 IDoP0=0 IntGTp=1.
 FoFCou: FMM=F IPFlag=           0 FMFlag=      100000 FMFlg1=         800
         NFxFlg=           0 DoJE=F BraDBF=F KetDBF=F FulRan=T
         wScrn=  0.000000 ICntrl=  10100127 IOpCl=  0 I1Cent=           0 NGrid=           0
         NMat0=    1 NMatS0=      1 NMatT0=    0 NMatD0=    1 NMtDS0=    0 NMtDT0=    0
 Petite list used in FoFCou.
 Leave Link  703 at Mon Feb 21 20:59:14 2022, MaxMem= 16106127360 cpu:             424.9 elap:              15.2
 (Enter /sw/contrib/gaussian/g16/B01/g16/l716.exe)
 Dipole        = 2.00547149D-01 5.32461133D-01-1.01206133D-32
 Polarizability= 3.39874065D+01 9.41963980D+00 3.01681050D+01
                -2.83576363D-31-3.09754423D-31 1.79172268D+01
 Full mass-weighted force constant matrix:
 Low frequencies --- -267.4811  -24.3384  -15.9059   -0.0014   -0.0006    0.0013
 Low frequencies ---   57.4418  229.6049  341.4987
 ******    1 imaginary frequencies (negative Signs) ****** 
 Diagonal vibrational polarizability:
       13.7982331      24.5949729      47.2988782
 Harmonic frequencies (cm**-1), IR intensities (KM/Mole), Raman scattering
 activities (A**4/AMU), depolarization ratios for plane and unpolarized
 incident light, reduced masses (AMU), force constants (mDyne/A),
 and normal coordinates:
                      1                      2                      3
                     A"                     A"                     A'
 Frequencies --   -267.4692               229.4208               341.4964
 Red. masses --      1.1369                10.7383                 8.6317
 Frc consts  --      0.0479                 0.3330                 0.5931
 IR Inten    --    124.8636                 0.6431                 3.9387
  Atom  AN      X      Y      Z        X      Y      Z        X      Y      Z
     1   1     0.00  -0.00   1.00    -0.00   0.00  -0.56     0.54  -0.44  -0.00
     2   8    -0.00   0.00  -0.06     0.00   0.00  -0.31    -0.09  -0.38  -0.00
     3   8     0.00   0.00  -0.04     0.00  -0.00   0.33    -0.15   0.43   0.00
     4   7    -0.00  -0.00   0.06    -0.00  -0.00   0.53     0.05   0.26   0.00
     5   8    -0.00  -0.00  -0.01    -0.00   0.00  -0.45     0.17  -0.25  -0.00
                      4                      5                      6
                     A'                     A'                     A'
 Frequencies --    456.2518               784.6357               967.7750
 Red. masses --     12.2450                12.9291                15.4329
 Frc consts  --      1.5018                 4.6898                 8.5162
 IR Inten    --    199.9386               168.2651                21.7167
  Atom  AN      X      Y      Z        X      Y      Z        X      Y      Z
     1   1     0.42   0.19   0.00    -0.34   0.19   0.00    -0.16  -0.04  -0.00
     2   8     0.32   0.20   0.00     0.42   0.08  -0.00    -0.52   0.03   0.00
     3   8     0.17   0.44  -0.00    -0.06  -0.27   0.00     0.75  -0.02   0.00
     4   7    -0.35  -0.40  -0.00    -0.14   0.62   0.00    -0.12   0.24  -0.00
     5   8    -0.21  -0.30   0.00    -0.22  -0.37  -0.00    -0.11  -0.22  -0.00
                      7                      8                      9
                     A'                     A'                     A'
 Frequencies --   1371.3349              1677.4860              3778.6038
 Red. masses --      1.1333                13.2331                 1.0675
 Frc consts  --      1.2557                21.9397                 8.9804
 IR Inten    --    151.9786               138.8587                82.0956
  Atom  AN      X      Y      Z        X      Y      Z        X      Y      Z
     1   1     0.99  -0.05   0.00    -0.34   0.00  -0.00     0.10   0.99  -0.00
     2   8    -0.03   0.05   0.00    -0.00  -0.04  -0.00    -0.01  -0.06   0.00
     3   8    -0.02  -0.05  -0.00     0.00   0.15   0.00     0.00   0.00   0.00
     4   7     0.02   0.01  -0.00     0.70  -0.06   0.00    -0.00  -0.00  -0.00
     5   8    -0.03  -0.01   0.00    -0.60  -0.06  -0.00     0.00   0.00  -0.00

 -------------------
 - Thermochemistry -
 -------------------
 Temperature   298.150 Kelvin.  Pressure   1.00000 Atm.
 Atom     1 has atomic number  1 and mass   1.00783
 Atom     2 has atomic number  8 and mass  15.99491
 Atom     3 has atomic number  8 and mass  15.99491
 Atom     4 has atomic number  7 and mass  14.00307
 Atom     5 has atomic number  8 and mass  15.99491
 Molecular mass:    62.99564 amu.
 Principal axes and moments of inertia in atomic units:
                           1         2         3
     Eigenvalues --    32.93134 359.15378 392.08513
           X            0.81147  -0.58440   0.00000
           Y            0.58440   0.81147   0.00000
           Z           -0.00000   0.00000   1.00000
 This molecule is an asymmetric top.
 Rotational symmetry number  1.
 Rotational temperatures (Kelvin)      2.63014     0.24116     0.22091
 Rotational constants (GHZ):          54.80315     5.02498     4.60293
    1 imaginary frequencies ignored.
 Zero-point vibrational energy      57462.6 (Joules/Mol)
                                   13.73390 (Kcal/Mol)
 Warning -- explicit consideration of   3 degrees of freedom as
           vibrations may cause significant error
 Vibrational temperatures:    330.09   491.34   656.44  1128.92  1392.41
          (Kelvin)           1973.05  2413.53  5436.57
 
 Zero-point correction=                           0.021886 (Hartree/Particle)
 Thermal correction to Energy=                    0.026000
 Thermal correction to Enthalpy=                  0.026944
 Thermal correction to Gibbs Free Energy=        -0.004231
 Sum of electronic and zero-point Energies=           -280.424826
 Sum of electronic and thermal Energies=              -280.420713
 Sum of electronic and thermal Enthalpies=            -280.419768
 Sum of electronic and thermal Free Energies=         -280.450943
 
                     E (Thermal)             CV                S
                      KCal/Mol        Cal/Mol-Kelvin    Cal/Mol-Kelvin
 Total                   16.315             11.944             65.613
 Electronic               0.000              0.000              0.000
 Translational            0.889              2.981             38.341
 Rotational               0.889              2.981             23.054
 Vibrational             14.538              5.982              4.218
 Vibration     1          0.652              1.796              1.883
 Vibration     2          0.721              1.593              1.205
 Vibration     3          0.814              1.347              0.777
                       Q            Log10(Q)             Ln(Q)
 Total Bot       0.883358D+02          1.946137          4.481146
 Total V=0       0.103076D+13         12.013158         27.661318
 Vib (Bot)       0.184390D-09         -9.734264        -22.413970
 Vib (Bot)    1  0.858719D+00         -0.066149         -0.152314
 Vib (Bot)    2  0.543224D+00         -0.265021         -0.610234
 Vib (Bot)    3  0.373947D+00         -0.427190         -0.983641
 Vib (V=0)       0.215158D+01          0.332757          0.766202
 Vib (V=0)    1  0.149368D+01          0.174257          0.401242
 Vib (V=0)    2  0.123830D+01          0.092827          0.213742
 Vib (V=0)    3  0.112437D+01          0.050909          0.117222
 Electronic      0.100000D+01          0.000000          0.000000
 Translational   0.196526D+08          7.293420         16.793719
 Rotational      0.243770D+05          4.386981         10.101396
 
                                                                title
                                                             IR Spectrum
 
     3                                                                      1         1                                              
     7                                                                      6         3             9     7          4   3   2       
     7                                                                      7         7             6     8          5   4   2       
     9                                                                      7         1             8     5          6   1   9       
 
     X                                                                      X         X             X     X          X   X   X       
     X                                                                      X         X             X     X          X               
     X                                                                      X         X                   X          X               
     X                                                                      X         X                   X          X               
     X                                                                      X         X                   X          X               
     X                                                                      X         X                   X          X               
     X                                                                      X         X                   X          X               
     X                                                                      X         X                   X          X               
                                                                            X         X                   X          X               
                                                                            X         X                   X          X               
                                                                            X         X                   X          X               
                                                                            X         X                   X          X               
                                                                            X         X                   X          X               
                                                                            X         X                   X          X               
                                                                                      X                   X          X               
                                                                                                          X          X               
                                                                                                          X          X               
                                                                                                                     X               
                                                                                                                     X               
                                                                                                                     X               
 
 ***** Axes restored to original set *****
 -------------------------------------------------------------------
 Center     Atomic                   Forces (Hartrees/Bohr)
 Number     Number              X              Y              Z
 -------------------------------------------------------------------
      1        1          -0.000046083   -0.000000000    0.000013406
      2        8          -0.000031273   -0.000000000   -0.000377525
      3        8          -0.001951528   -0.000000000    0.000289841
      4        7           0.001347575   -0.000000000   -0.002270441
      5        8           0.000681309    0.000000000    0.002344719
 -------------------------------------------------------------------
 Cartesian Forces:  Max     0.002344719 RMS     0.001063674
 -----------------------------------------------------------------------------------------------
                       Internal Coordinate Forces (Hartree/Bohr or radian)
  Cent   Atom   N1       Length/X         N2         Alpha/Y        N3         Beta/Z          J
 -----------------------------------------------------------------------------------------------
      1  H 
      2  O        1  -0.000013(     1)
      3  O        2   0.000125(     2)      1   0.000084(     5)
      4  N        3   0.000240(     3)      2   0.000880(     6)      1  -0.000000(     8)     0
      5  O        4   0.001221(     4)      3   0.004678(     7)      2   0.000000(     9)     0
 -----------------------------------------------------------------------------------------------
 Internal  Forces:  Max     0.004677592 RMS     0.001640671
 Force constants in Cartesian coordinates: 
                1             2             3             4             5 
      1  0.646465D-01
      2  0.000000D+00 -0.233778D-02
      3  0.536919D-02  0.000000D+00  0.512334D+00
      4 -0.357711D-01  0.000000D+00 -0.163257D-01  0.273032D+00
      5  0.000000D+00  0.299687D-02  0.000000D+00  0.000000D+00  0.211448D-02
      6  0.481951D-01  0.000000D+00 -0.508513D+00  0.338884D-01  0.000000D+00
      7 -0.183418D-01  0.000000D+00  0.124861D-01 -0.220051D+00  0.000000D+00
      8  0.000000D+00  0.101538D-02  0.000000D+00  0.000000D+00 -0.670536D-02
      9 -0.531828D-01  0.000000D+00 -0.542815D-03 -0.194931D-01  0.000000D+00
     10 -0.917166D-02  0.000000D+00 -0.485824D-02 -0.174599D-01  0.000000D+00
     11  0.000000D+00 -0.270828D-02  0.000000D+00  0.000000D+00 -0.473672D-02
     12  0.541313D-02  0.000000D+00 -0.463093D-02  0.116193D-01  0.000000D+00
     13 -0.136195D-02  0.000000D+00  0.332864D-02  0.250591D-03  0.000000D+00
     14  0.000000D+00  0.103381D-02  0.000000D+00  0.000000D+00  0.633073D-02
     15 -0.579464D-02  0.000000D+00  0.135261D-02 -0.968898D-02  0.000000D+00
                6             7             8             9            10 
      6  0.594570D+00
      7 -0.212778D-01  0.342347D+00
      8  0.000000D+00  0.000000D+00  0.463744D-02
      9 -0.785504D-01  0.377139D-01  0.000000D+00  0.182168D+00
     10 -0.521890D-01 -0.771143D-01  0.000000D+00  0.173601D+00  0.828898D+00
     11  0.000000D+00  0.000000D+00  0.747280D-02  0.000000D+00  0.000000D+00
     12  0.173622D-01  0.626339D-01  0.000000D+00 -0.827465D-01 -0.221347D-01
     13 -0.861677D-02 -0.268396D-01  0.000000D+00 -0.138639D+00 -0.725152D+00
     14  0.000000D+00  0.000000D+00 -0.642025D-02  0.000000D+00  0.000000D+00
     15 -0.248692D-01 -0.915560D-01  0.000000D+00 -0.203282D-01 -0.944194D-01
               11            12            13            14            15 
     11  0.100404D-01
     12  0.000000D+00  0.185374D+00
     13  0.000000D+00 -0.575316D-01  0.753103D+00
     14 -0.100682D-01  0.000000D+00  0.000000D+00  0.912394D-02
     15  0.000000D+00 -0.115359D+00  0.201459D+00  0.000000D+00  0.159204D+00
 Force constants in internal coordinates: 
                1             2             3             4             5 
      1  0.512334D+00
      2 -0.103553D-01  0.281694D+00
      3  0.339268D-02  0.282054D-02  0.118453D+00
      4 -0.355530D-02  0.615407D-02  0.154047D+00  0.812661D+00
      5  0.978546D-02  0.653733D-01  0.227763D-02  0.495456D-02  0.216731D+00
      6  0.460961D-02  0.595131D-01  0.406783D-01  0.226038D-01  0.313550D-01
      7 -0.114807D-02  0.386999D-01  0.357690D-01  0.882161D-01  0.214799D-01
      8  0.000000D+00  0.000000D+00  0.000000D+00  0.000000D+00  0.000000D+00
      9  0.000000D+00  0.000000D+00  0.000000D+00  0.000000D+00  0.000000D+00
                6             7             8             9 
      6  0.282709D+00
      7  0.967240D-01  0.490419D+00
      8  0.000000D+00  0.000000D+00 -0.773596D-02
      9  0.000000D+00  0.000000D+00 -0.393582D-02  0.411763D-01
 Leave Link  716 at Mon Feb 21 20:59:14 2022, MaxMem= 16106127360 cpu:               0.9 elap:               0.1
 (Enter /sw/contrib/gaussian/g16/B01/g16/l103.exe)

 GradGradGradGradGradGradGradGradGradGradGradGradGradGradGradGradGradGrad
 Berny optimization.
 Search for a local minimum.
 Step number   1 out of a maximum of    2
 All quantities printed in internal units (Hartrees-Bohrs-Radians)
 Second derivative matrix not updated -- analytic derivatives used.
 The second derivative matrix:
                          r1        r2        r3        r4        a1
           r1           0.51233
           r2          -0.01036   0.28169
           r3           0.00339   0.00282   0.11845
           r4          -0.00356   0.00615   0.15405   0.81266
           a1           0.00979   0.06537   0.00228   0.00495   0.21673
           a2           0.00461   0.05951   0.04068   0.02260   0.03136
           a3          -0.00115   0.03870   0.03577   0.08822   0.02148
           d1           0.00000  -0.00000  -0.00000  -0.00000  -0.00000
           d2          -0.00000   0.00000   0.00000   0.00000   0.00000
                          a2        a3        d1        d2
           a2           0.28271
           a3           0.09672   0.49042
           d1          -0.00000  -0.00000  -0.00774
           d2          -0.00000  -0.00000  -0.00394   0.04118
 ITU=  0
     Eigenvalues ---   -0.00805   0.04149   0.07925   0.17535   0.22494
     Eigenvalues ---    0.32589   0.51300   0.52181   0.87475
 Eigenvalue     1 is  -8.05D-03 should be greater than     0.000000 Eigenvector:
                          d1        d2        a3        a2        r3
   1                    0.99682   0.07970   0.00000   0.00000  -0.00000
                          r4        a1        r2        r1
   1                    0.00000  -0.00000   0.00000  -0.00000
 Angle between quadratic step and forces=  20.72 degrees.
 Linear search not attempted -- first point.
 Variable       Old X    -DE/DX   Delta X   Delta X   Delta X     New X
                                 (Linear)    (Quad)   (Total)
    r1        1.83110  -0.00001   0.00000   0.00000   0.00000   1.83110
    r2        2.74940   0.00012   0.00000  -0.00085  -0.00085   2.74855
    r3        2.75670   0.00024   0.00000  -0.00204  -0.00204   2.75467
    r4        2.21236   0.00122   0.00000   0.00085   0.00085   2.21321
    a1        1.70335   0.00008   0.00000  -0.00034  -0.00034   1.70301
    a2        1.78543   0.00088   0.00000   0.00028   0.00028   1.78571
    a3        1.89391   0.00468   0.00000   0.00956   0.00956   1.90347
    d1        3.14159  -0.00000   0.00000  -0.00000   0.00000   3.14159
    d2        3.14159   0.00000   0.00000  -0.00000   0.00000   3.14159
         Item               Value     Threshold  Converged?
 Maximum Force            0.004678     0.000450     NO 
 RMS     Force            0.001641     0.000300     NO 
 Maximum Displacement     0.009559     0.001800     NO 
 RMS     Displacement     0.003286     0.001200     NO 
 Predicted change in Energy=-2.268990D-05
                       ----------------------------
                       ! Non-Optimized Parameters !
                       ! (Angstroms and Degrees)  !
 ----------------------                            ----------------------
 !      Name          Value   Derivative information (Atomic Units)     !
 ------------------------------------------------------------------------
 !       r1          0.969    -DE/DX =    0.0                           !
 !       r2          1.4545   -DE/DX =    0.0001                        !
 !       r3          1.4577   -DE/DX =    0.0002                        !
 !       r4          1.1712   -DE/DX =    0.0012                        !
 !       a1         97.5754   -DE/DX =    0.0001                        !
 !       a2        102.3137   -DE/DX =    0.0009                        !
 !       a3        109.0606   -DE/DX =    0.0047                        !
 !       d1        180.0      -DE/DX =    0.0                           !
 !       d2        180.0      -DE/DX =    0.0                           !
 ------------------------------------------------------------------------
 GradGradGradGradGradGradGradGradGradGradGradGradGradGradGradGradGradGrad

 Leave Link  103 at Mon Feb 21 20:59:14 2022, MaxMem= 16106127360 cpu:               0.6 elap:               0.0
 (Enter /sw/contrib/gaussian/g16/B01/g16/l9999.exe)

 ----------------------------------------------------------------------

 Electric dipole moment (input orientation):
 (Debye = 10**-18 statcoulomb cm , SI units = C m)
                  (au)            (Debye)         (10**-30 SI)
   Tot        0.568976D+00      0.144619D+01      0.482398D+01
   x         -0.147693D+00     -0.375398D+00     -0.125219D+01
   y          0.000000D+00      0.000000D+00      0.000000D+00
   z         -0.549473D+00     -0.139662D+01     -0.465863D+01

 Dipole polarizability, Alpha (input orientation).
 (esu units = cm**3 , SI units = C**2 m**2 J**-1)
 Alpha(0;0):
               (au)            (10**-24 esu)      (10**-40 SI)
   iso        0.273576D+02      0.405398D+01      0.451066D+01
   aniso      0.218552D+02      0.323861D+01      0.360344D+01
   xx         0.321236D+02      0.476022D+01      0.529646D+01
   yx         0.000000D+00      0.000000D+00      0.000000D+00
   yy         0.179172D+02      0.265506D+01      0.295415D+01
   zx         0.961115D+01      0.142423D+01      0.158467D+01
   zy         0.000000D+00      0.000000D+00      0.000000D+00
   zz         0.320319D+02      0.474664D+01      0.528135D+01

 ----------------------------------------------------------------------

 Dipole orientation:
     1         -0.00000000          0.00000000          0.00000000
     8         -0.47531016          0.00000000         -1.76833303
     8          2.06222699          0.00000000         -2.82668091
     7          1.56731737          0.00000000         -5.53859395
     8          3.50499209          0.00000000         -6.60627353

 Electric dipole moment (dipole orientation):
 (Debye = 10**-18 statcoulomb cm , SI units = C m)
                  (au)            (Debye)         (10**-30 SI)
   Tot        0.568976D+00      0.144619D+01      0.482398D+01
   x          0.000000D+00      0.000000D+00      0.000000D+00
   y          0.000000D+00      0.000000D+00      0.000000D+00
   z          0.568976D+00      0.144619D+01      0.482398D+01

 Dipole polarizability, Alpha (dipole orientation).
 (esu units = cm**3 , SI units = C**2 m**2 J**-1)
 Alpha(0;0):
               (au)            (10**-24 esu)      (10**-40 SI)
   iso        0.273576D+02      0.405398D+01      0.451066D+01
   aniso      0.218552D+02      0.323861D+01      0.360344D+01
   xx         0.272988D+02      0.404526D+01      0.450096D+01
   yx         0.000000D+00      0.000000D+00      0.000000D+00
   yy         0.179172D+02      0.265506D+01      0.295415D+01
   zx        -0.833893D+01     -0.123570D+01     -0.137490D+01
   zy         0.000000D+00      0.000000D+00      0.000000D+00
   zz         0.368567D+02      0.546160D+01      0.607685D+01

 ----------------------------------------------------------------------
 1\1\GINC-N2108\Freq\RMP2-FC\Aug-CC-pVTZ\H1N1O3\CGAVINH\21-Feb-2022\1\\
 #p freq mp2/aug-cc-pvtz density=current\\title\\0,1\H\O,1,r1\O,2,r2,1,
 a1\N,3,r3,2,a2,1,d1,0\O,4,r4,3,a3,2,d2,0\\r1=0.96897556\r2=1.45491931\
 r3=1.45878406\r4=1.17072885\a1=97.59494903\a2=102.29752444\a3=108.5128
 7566\d1=180.\d2=180.\\Version=ES64L-G16RevB.01\State=1-A'\HF=-279.5017
 003\MP2=-280.4467123\RMSD=3.766e-09\RMSF=1.064e-03\ZeroPoint=0.0218864
 \Thermal=0.0259997\Dipole=-0.1476929,0.,-0.5494732\DipoleDeriv=0.26604
 56,0.,0.0481267,0.,0.3554458,0.,0.0816715,0.,0.2747239,-0.3293612,0.,-
 0.2073223,0.,-0.3143424,0.,-0.1119157,0.,-0.2232062,-0.0432049,0.,0.15
 02739,0.,-0.0875724,0.,-0.7495986,0.,-1.343381,0.8960304,0.,0.9065007,
 0.,0.0679626,0.,0.9183801,0.,1.6544775,-0.7895099,0.,-0.897579,0.,-0.0
 214935,0.,-0.1385373,0.,-0.3626141\Polar=32.1235877,0.,17.9172268,9.61
 11539,0.,32.0319238\Quadrupole=-1.519289,-0.7226903,2.2419792,0.,2.085
 3284,0.\PG=CS [SG(H1N1O3)]\NImag=1\\0.06464651,0.,-0.00233778,0.005369
 19,0.,0.51233389,-0.03577107,0.,-0.01632566,0.27303160,0.,0.00299687,0
 .,0.,0.00211448,0.04819514,0.,-0.50851275,0.03388842,0.,0.59457022,-0.
 01834183,0.,0.01248607,-0.22005127,0.,-0.02127783,0.34234702,0.,0.0010
 1538,0.,0.,-0.00670536,0.,0.,0.00463744,-0.05318283,0.,-0.00054282,-0.
 01949311,0.,-0.07855044,0.03771392,0.,0.18216800,-0.00917166,0.,-0.004
 85824,-0.01745986,0.,-0.05218896,-0.07711432,0.,0.17360129,0.82889758,
 0.,-0.00270828,0.,0.,-0.00473672,0.,0.,0.00747280,0.,0.,0.01004043,0.0
 0541313,0.,-0.00463093,0.01161933,0.,0.01736219,0.06263386,0.,-0.08274
 652,-0.02213471,0.,0.18537396,-0.00136195,0.,0.00332864,0.00025059,0.,
 -0.00861677,-0.02683960,0.,-0.13863927,-0.72515175,0.,-0.05753162,0.75
 310270,0.,0.00103381,0.,0.,0.00633073,0.,0.,-0.00642025,0.,0.,-0.01006
 823,0.,0.,0.00912394,-0.00579464,0.,0.00135261,-0.00968898,0.,-0.02486
 922,-0.09155602,0.,-0.02032822,-0.09441939,0.,-0.11535870,0.20145902,0
 .,0.15920353\\0.00004608,0.,-0.00001341,0.00003127,0.,0.00037753,0.001
 95153,0.,-0.00028984,-0.00134758,0.,0.00227044,-0.00068131,0.,-0.00234
 472\\\@


 BETTER TO HUNT IN FIELDS, FOR HEALTH UNBOUGHT
 THAN FEE THE DOCTOR FOR A NAUSEOUS DRAUGHT.
 THE WISE, FOR CURE, ON EXERCISE DEPEND;
 GOD NEVER MADE HIS WORK FOR MAN TO MEND.
     -- JOHN DRYDEN (1631-1700)
 Job cpu time:       0 days  2 hours  1 minutes 43.2 seconds.
 Elapsed time:       0 days  0 hours  4 minutes 24.1 seconds.
 File lengths (MBytes):  RWF=   7239 Int=      0 D2E=      0 Chk=      8 Scr=      1
 Normal termination of Gaussian 16 at Mon Feb 21 20:59:15 2022.
