title                                                                   
Freq      RMP2-FC                                                     Aug-CC-pVTZ         
Number of atoms                            I                5
Info1-9                                    I   N=           9
          33          24           0           0           0         100
           6           2           1
Full Title                                 C   N=           1
title       
Route                                      C   N=           4
#p freq mp2/aug-cc-pvtz density=current         
Charge                                     I                0
Multiplicity                               I                1
Number of electrons                        I               32
Number of alpha electrons                  I               16
Number of beta electrons                   I               16
Number of basis functions                  I              207
Number of independent functions            I              207
Number of point charges in /Mol/           I                0
Number of translation vectors              I                0
Atomic numbers                             I   N=           5
           1           8           8           7           8
Nuclear charges                            R   N=           5
  1.00000000E+00  8.00000000E+00  8.00000000E+00  7.00000000E+00  8.00000000E+00
Current cartesian coordinates              R   N=          15
  2.93503153E+00  3.14939690E+00 -9.10902728E-31  2.74813608E+00  1.32786141E+00
 -1.37625995E-30 -1.07068108E-16  1.24453600E+00  3.63473515E-32 -4.94404736E-01
 -1.40732319E+00 -1.41790508E-31 -2.68241087E+00 -1.73466423E+00  8.12341586E-31
Number of symbols in /Mol/                 I                0
Force Field                                I                0
Atom Types                                 C   N=           5
                                                            
Int Atom Types                             I   N=           5
           0           0           0           0           0
MM charges                                 R   N=           5
  0.00000000E+00  0.00000000E+00  0.00000000E+00  0.00000000E+00  0.00000000E+00
Integer atomic weights                     I   N=           5
           1          16          16          14          16
Real atomic weights                        R   N=           5
  1.00782504E+00  1.59949146E+01  1.59949146E+01  1.40030740E+01  1.59949146E+01
Atom fragment info                         I   N=           5
           0           0           0           0           0
Atom residue num                           I   N=           5
           0           0           0           0           0
Nuclear spins                              I   N=           5
           1           0           0           2           0
Nuclear ZEff                               R   N=           5
 -1.00000000E+00 -5.60000000E+00 -5.60000000E+00 -4.55000000E+00 -5.60000000E+00
Nuclear ZNuc                               R   N=           5
  1.00000000E+00  8.00000000E+00  8.00000000E+00  7.00000000E+00  8.00000000E+00
Nuclear QMom                               R   N=           5
  0.00000000E+00  0.00000000E+00  0.00000000E+00  2.04400000E+00  0.00000000E+00
Nuclear GFac                               R   N=           5
  2.79284600E+00  0.00000000E+00  0.00000000E+00  4.03761000E-01  0.00000000E+00
MicOpt                                     I   N=           5
          -1          -1          -1          -1          -1
Number of residues                         I                0
Number of secondary structures             I                0
SymInf integers                            I   N=          26
           1           2           1           1           1           1
           1          -1           0           0           0           0
           0           0           0           0           0           0
           0           0           0           0           0           0
           0           0
RotTr to input orientation                 R   N=          12
 -9.94777486E-01  6.65326410E-16 -1.02067399E-01  1.02067399E-01 -9.38841103E-16
 -9.94777486E-01 -7.57676803E-16 -1.00000000E+00  8.66029856E-16  2.59825254E+00
  0.00000000E+00  3.43252016E+00
Number of contracted shells                I               65
Number of primitive shells                 I              119
Pure/Cartesian d shells                    I                0
Pure/Cartesian f shells                    I                0
Highest angular momentum                   I                3
Largest degree of contraction              I                7
Shell types                                I   N=          65
           0           0           0           0           1           1
           1          -2          -2           0           0           0
           0           0           1           1           1           1
          -2          -2          -2          -3          -3           0
           0           0           0           0           1           1
           1           1          -2          -2          -2          -3
          -3           0           0           0           0           0
           1           1           1           1          -2          -2
          -2          -3          -3           0           0           0
           0           0           1           1           1           1
          -2          -2          -2          -3          -3
Number of primitives per shell             I   N=          65
           3           1           1           1           1           1
           1           1           1           7           6           1
           1           1           3           1           1           1
           1           1           1           1           1           7
           6           1           1           1           3           1
           1           1           1           1           1           1
           1           7           6           1           1           1
           3           1           1           1           1           1
           1           1           1           7           6           1
           1           1           3           1           1           1
           1           1           1           1           1
Shell to atom map                          I   N=          65
           1           1           1           1           1           1
           1           1           1           2           2           2
           2           2           2           2           2           2
           2           2           2           2           2           3
           3           3           3           3           3           3
           3           3           3           3           3           3
           3           4           4           4           4           4
           4           4           4           4           4           4
           4           4           4           5           5           5
           5           5           5           5           5           5
           5           5           5           5           5
Primitive exponents                        R   N=         119
  3.38700000E+01  5.09500000E+00  1.15900000E+00  3.25800000E-01  1.02700000E-01
  2.52600000E-02  1.40700000E+00  3.88000000E-01  1.02000000E-01  1.05700000E+00
  2.47000000E-01  1.53300000E+04  2.29900000E+03  5.22400000E+02  1.47300000E+02
  4.75500000E+01  1.67600000E+01  6.20700000E+00  5.22400000E+02  1.47300000E+02
  4.75500000E+01  1.67600000E+01  6.20700000E+00  6.88200000E-01  1.75200000E+00
  2.38400000E-01  7.37600000E-02  3.44600000E+01  7.74900000E+00  2.28000000E+00
  7.15600000E-01  2.14000000E-01  5.97400000E-02  2.31400000E+00  6.45000000E-01
  2.14000000E-01  1.42800000E+00  5.00000000E-01  1.53300000E+04  2.29900000E+03
  5.22400000E+02  1.47300000E+02  4.75500000E+01  1.67600000E+01  6.20700000E+00
  5.22400000E+02  1.47300000E+02  4.75500000E+01  1.67600000E+01  6.20700000E+00
  6.88200000E-01  1.75200000E+00  2.38400000E-01  7.37600000E-02  3.44600000E+01
  7.74900000E+00  2.28000000E+00  7.15600000E-01  2.14000000E-01  5.97400000E-02
  2.31400000E+00  6.45000000E-01  2.14000000E-01  1.42800000E+00  5.00000000E-01
  1.14200000E+04  1.71200000E+03  3.89300000E+02  1.10000000E+02  3.55700000E+01
  1.25400000E+01  4.64400000E+00  3.89300000E+02  1.10000000E+02  3.55700000E+01
  1.25400000E+01  4.64400000E+00  5.11800000E-01  1.29300000E+00  1.78700000E-01
  5.76000000E-02  2.66300000E+01  5.94800000E+00  1.74200000E+00  5.55000000E-01
  1.72500000E-01  4.91000000E-02  1.65400000E+00  4.69000000E-01  1.51000000E-01
  1.09300000E+00  3.64000000E-01  1.53300000E+04  2.29900000E+03  5.22400000E+02
  1.47300000E+02  4.75500000E+01  1.67600000E+01  6.20700000E+00  5.22400000E+02
  1.47300000E+02  4.75500000E+01  1.67600000E+01  6.20700000E+00  6.88200000E-01
  1.75200000E+00  2.38400000E-01  7.37600000E-02  3.44600000E+01  7.74900000E+00
  2.28000000E+00  7.15600000E-01  2.14000000E-01  5.97400000E-02  2.31400000E+00
  6.45000000E-01  2.14000000E-01  1.42800000E+00  5.00000000E-01
Contraction coefficients                   R   N=         119
  2.54948632E-02  1.90362766E-01  8.52162022E-01  1.00000000E+00  1.00000000E+00
  1.00000000E+00  1.00000000E+00  1.00000000E+00  1.00000000E+00  1.00000000E+00
  1.00000000E+00  5.19808943E-04  4.02025621E-03  2.07128267E-02  8.10105536E-02
  2.35962985E-01  4.42653446E-01  3.57064423E-01 -4.42115008E-05 -1.22591041E-03
 -1.05517725E-02 -6.74452633E-02 -1.71198607E-01  1.07329856E+00  1.00000000E+00
  1.00000000E+00  1.00000000E+00  4.11634896E-02  2.57762836E-01  8.02419274E-01
  1.00000000E+00  1.00000000E+00  1.00000000E+00  1.00000000E+00  1.00000000E+00
  1.00000000E+00  1.00000000E+00  1.00000000E+00  5.19808943E-04  4.02025621E-03
  2.07128267E-02  8.10105536E-02  2.35962985E-01  4.42653446E-01  3.57064423E-01
 -4.42115008E-05 -1.22591041E-03 -1.05517725E-02 -6.74452633E-02 -1.71198607E-01
  1.07329856E+00  1.00000000E+00  1.00000000E+00  1.00000000E+00  4.11634896E-02
  2.57762836E-01  8.02419274E-01  1.00000000E+00  1.00000000E+00  1.00000000E+00
  1.00000000E+00  1.00000000E+00  1.00000000E+00  1.00000000E+00  1.00000000E+00
  5.34563860E-04  4.13435660E-03  2.12335358E-02  8.25006224E-02  2.38138871E-01
  4.42551547E-01  3.53757422E-01 -4.89867350E-05 -1.19527323E-03 -1.03490714E-02
 -6.48680190E-02 -1.71552477E-01  1.07289568E+00  1.00000000E+00  1.00000000E+00
  1.00000000E+00  3.98072123E-02  2.49002660E-01  8.10479727E-01  1.00000000E+00
  1.00000000E+00  1.00000000E+00  1.00000000E+00  1.00000000E+00  1.00000000E+00
  1.00000000E+00  1.00000000E+00  5.19808943E-04  4.02025621E-03  2.07128267E-02
  8.10105536E-02  2.35962985E-01  4.42653446E-01  3.57064423E-01 -4.42115008E-05
 -1.22591041E-03 -1.05517725E-02 -6.74452633E-02 -1.71198607E-01  1.07329856E+00
  1.00000000E+00  1.00000000E+00  1.00000000E+00  4.11634896E-02  2.57762836E-01
  8.02419274E-01  1.00000000E+00  1.00000000E+00  1.00000000E+00  1.00000000E+00
  1.00000000E+00  1.00000000E+00  1.00000000E+00  1.00000000E+00
Coordinates of each shell                  R   N=         195
  2.93503153E+00  3.14939690E+00 -7.12972106E-31  2.93503153E+00  3.14939690E+00
 -7.12972106E-31  2.93503153E+00  3.14939690E+00 -7.12972106E-31  2.93503153E+00
  3.14939690E+00 -7.12972106E-31  2.93503153E+00  3.14939690E+00 -7.12972106E-31
  2.93503153E+00  3.14939690E+00 -7.12972106E-31  2.93503153E+00  3.14939690E+00
 -7.12972106E-31  2.93503153E+00  3.14939690E+00 -7.12972106E-31  2.93503153E+00
  3.14939690E+00 -7.12972106E-31  2.74813608E+00  1.32786141E+00 -7.47492796E-31
  2.74813608E+00  1.32786141E+00 -7.47492796E-31  2.74813608E+00  1.32786141E+00
 -7.47492796E-31  2.74813608E+00  1.32786141E+00 -7.47492796E-31  2.74813608E+00
  1.32786141E+00 -7.47492796E-31  2.74813608E+00  1.32786141E+00 -7.47492796E-31
  2.74813608E+00  1.32786141E+00 -7.47492796E-31  2.74813608E+00  1.32786141E+00
 -7.47492796E-31  2.74813608E+00  1.32786141E+00 -7.47492796E-31  2.74813608E+00
  1.32786141E+00 -7.47492796E-31  2.74813608E+00  1.32786141E+00 -7.47492796E-31
  2.74813608E+00  1.32786141E+00 -7.47492796E-31  2.74813608E+00  1.32786141E+00
 -7.47492796E-31  2.74813608E+00  1.32786141E+00 -7.47492796E-31  8.47560221E-18
  1.24453600E+00  6.13603622E-32  8.47560221E-18  1.24453600E+00  6.13603622E-32
  8.47560221E-18  1.24453600E+00  6.13603622E-32  8.47560221E-18  1.24453600E+00
  6.13603622E-32  8.47560221E-18  1.24453600E+00  6.13603622E-32  8.47560221E-18
  1.24453600E+00  6.13603622E-32  8.47560221E-18  1.24453600E+00  6.13603622E-32
  8.47560221E-18  1.24453600E+00  6.13603622E-32  8.47560221E-18  1.24453600E+00
  6.13603622E-32  8.47560221E-18  1.24453600E+00  6.13603622E-32  8.47560221E-18
  1.24453600E+00  6.13603622E-32  8.47560221E-18  1.24453600E+00  6.13603622E-32
  8.47560221E-18  1.24453600E+00  6.13603622E-32  8.47560221E-18  1.24453600E+00
  6.13603622E-32 -4.94404736E-01 -1.40732319E+00  7.68698227E-32 -4.94404736E-01
 -1.40732319E+00  7.68698227E-32 -4.94404736E-01 -1.40732319E+00  7.68698227E-32
 -4.94404736E-01 -1.40732319E+00  7.68698227E-32 -4.94404736E-01 -1.40732319E+00
  7.68698227E-32 -4.94404736E-01 -1.40732319E+00  7.68698227E-32 -4.94404736E-01
 -1.40732319E+00  7.68698227E-32 -4.94404736E-01 -1.40732319E+00  7.68698227E-32
 -4.94404736E-01 -1.40732319E+00  7.68698227E-32 -4.94404736E-01 -1.40732319E+00
  7.68698227E-32 -4.94404736E-01 -1.40732319E+00  7.68698227E-32 -4.94404736E-01
 -1.40732319E+00  7.68698227E-32 -4.94404736E-01 -1.40732319E+00  7.68698227E-32
 -4.94404736E-01 -1.40732319E+00  7.68698227E-32 -2.68241087E+00 -1.73466423E+00
  7.07992852E-31 -2.68241087E+00 -1.73466423E+00  7.07992852E-31 -2.68241087E+00
 -1.73466423E+00  7.07992852E-31 -2.68241087E+00 -1.73466423E+00  7.07992852E-31
 -2.68241087E+00 -1.73466423E+00  7.07992852E-31 -2.68241087E+00 -1.73466423E+00
  7.07992852E-31 -2.68241087E+00 -1.73466423E+00  7.07992852E-31 -2.68241087E+00
 -1.73466423E+00  7.07992852E-31 -2.68241087E+00 -1.73466423E+00  7.07992852E-31
 -2.68241087E+00 -1.73466423E+00  7.07992852E-31 -2.68241087E+00 -1.73466423E+00
  7.07992852E-31 -2.68241087E+00 -1.73466423E+00  7.07992852E-31 -2.68241087E+00
 -1.73466423E+00  7.07992852E-31 -2.68241087E+00 -1.73466423E+00  7.07992852E-31
Num ILSW                                   I              100
ILSW                                       I   N=         100
           0           0           0           0           2           0
           0           0           0           0           0          -1
           5           0           0           0           2           0
           0           0           0           0           1           0
           1           0           0           0           0           0
           0           0      100000           0          -1           0
           0           0           0           0           0           0
           0           0           0           1           1           0
           0 -2000000000           1           0           0           0
           0           0           4          52           0           0
           0           0           0           0           0           0
           0           0           0           5           4           1
           0           0           0           0           0           0
           0           0           0           0           0           0
           0           0           0           0           0           0
           0           0           0           0           0           0
           0           0           0           0
Num RLSW                                   I               52
RLSW                                       R   N=          52
  1.00000000E+00  1.00000000E+00  1.00000000E+00  1.00000000E+00  1.00000000E+00
  0.00000000E+00  0.00000000E+00  1.00000000E+00  0.00000000E+00  0.00000000E+00
  0.00000000E+00  0.00000000E+00  1.00000000E+00  0.00000000E+00  0.00000000E+00
  0.00000000E+00  0.00000000E+00  1.00000000E+00  0.00000000E+00  0.00000000E+00
  0.00000000E+00  0.00000000E+00  1.00000000E+00  0.00000000E+00  0.00000000E+00
  0.00000000E+00  0.00000000E+00  1.00000000E+00  0.00000000E+00  0.00000000E+00
  0.00000000E+00  0.00000000E+00  1.00000000E+00  0.00000000E+00  0.00000000E+00
  0.00000000E+00  0.00000000E+00  0.00000000E+00  1.00000000E+00  1.00000000E+00
  0.00000000E+00  1.00000000E+00  0.00000000E+00  0.00000000E+00  0.00000000E+00
  0.00000000E+00  0.00000000E+00  0.00000000E+00  0.00000000E+00  0.00000000E+00
  0.00000000E+00  0.00000000E+00
MxBond                                     I                2
NBond                                      I   N=           5
           1           2           2           2           1
IBond                                      I   N=          10
           2           0           1           3           2           4
           3           5           4           0
RBond                                      R   N=          10
  1.00000000E+00  0.00000000E+00  1.00000000E+00  1.00000000E+00  1.00000000E+00
  1.00000000E+00  1.00000000E+00  2.00000000E+00  2.00000000E+00  0.00000000E+00
Virial Ratio                               R      2.002170919852829E+00
SCF Energy                                 R     -2.795044340514530E+02
MP2 Energy                                 R     -2.804465173510029E+02
Total Energy                               R     -2.804465173510029E+02
Post-SCF wavefunction norm                 R      1.582406459256493E+00
RMS Force                                  R      3.725756930456381E-03
RMS Density                                R      3.406178973902680E-09
NImag                                      I                1
Job Status                                 I                1
Nuclear derivative order                   I                2
External E-field                           R   N=          35
  0.00000000E+00  0.00000000E+00  0.00000000E+00  0.00000000E+00  0.00000000E+00
  0.00000000E+00  0.00000000E+00  0.00000000E+00  0.00000000E+00  0.00000000E+00
  0.00000000E+00  0.00000000E+00  0.00000000E+00  0.00000000E+00  0.00000000E+00
  0.00000000E+00  0.00000000E+00  0.00000000E+00  0.00000000E+00  0.00000000E+00
  0.00000000E+00  0.00000000E+00  0.00000000E+00  0.00000000E+00  0.00000000E+00
  0.00000000E+00  0.00000000E+00  0.00000000E+00  0.00000000E+00  0.00000000E+00
  0.00000000E+00  0.00000000E+00  0.00000000E+00  0.00000000E+00  0.00000000E+00
IOpCl                                      I                0
IROHF                                      I                0
Alpha Orbital Energies                     R   N=         207
 -2.06961817E+01 -2.06768007E+01 -2.06637967E+01 -1.58078374E+01 -1.62642985E+00
 -1.49988605E+00 -1.26389904E+00 -9.45888981E-01 -7.75381334E-01 -7.63067854E-01
 -7.17563078E-01 -6.77759390E-01 -6.18779993E-01 -5.91001803E-01 -4.88313690E-01
 -4.73550250E-01  2.87657665E-02  7.57310814E-02  8.64840842E-02  1.02043612E-01
  1.33671876E-01  1.34082637E-01  1.43450250E-01  1.53916024E-01  1.77568114E-01
  1.94198617E-01  1.99976048E-01  2.10016099E-01  2.19821820E-01  2.34021355E-01
  2.37783489E-01  2.66114066E-01  3.02908689E-01  3.03206386E-01  3.14981811E-01
  3.45742163E-01  3.51304814E-01  3.89320526E-01  4.20807432E-01  4.30637018E-01
  5.28822355E-01  5.30533974E-01  5.62042012E-01  5.83319266E-01  6.28209574E-01
  6.40173892E-01  6.75291282E-01  6.84322191E-01  7.05164287E-01  7.10438888E-01
  7.23782047E-01  7.27312127E-01  7.43689304E-01  7.90921803E-01  7.93589539E-01
  8.10576295E-01  8.11583867E-01  8.32235671E-01  8.70529359E-01  9.08399232E-01
  9.20771009E-01  9.28625483E-01  9.53640840E-01  9.81901751E-01  9.83427046E-01
  1.01394146E+00  1.05349748E+00  1.05635178E+00  1.08536451E+00  1.12004716E+00
  1.14450120E+00  1.19112880E+00  1.22159896E+00  1.23353949E+00  1.34244425E+00
  1.35631969E+00  1.38259562E+00  1.45825228E+00  1.48795954E+00  1.50743731E+00
  1.54005016E+00  1.57052754E+00  1.58592780E+00  1.61486781E+00  1.66612407E+00
  1.67034646E+00  1.70618409E+00  1.79334741E+00  1.83301584E+00  1.84013855E+00
  1.87764182E+00  1.91395996E+00  1.95636166E+00  1.99848450E+00  2.00819071E+00
  2.08796828E+00  2.12424301E+00  2.13640798E+00  2.14562067E+00  2.23056060E+00
  2.26239879E+00  2.26425775E+00  2.29533559E+00  2.31524814E+00  2.35195257E+00
  2.38585091E+00  2.42890321E+00  2.43585125E+00  2.45875492E+00  2.46678109E+00
  2.48166438E+00  2.50614046E+00  2.58674799E+00  2.59924031E+00  2.62720197E+00
  2.62851252E+00  2.63223810E+00  2.67160944E+00  2.76280640E+00  2.83821235E+00
  2.86927550E+00  2.89224239E+00  2.89577948E+00  2.94915672E+00  2.95959162E+00
  3.03742443E+00  3.07987384E+00  3.13207554E+00  3.19983298E+00  3.23502149E+00
  3.32228020E+00  3.35110242E+00  3.52184902E+00  3.65528489E+00  3.85306781E+00
  3.85324025E+00  4.14882239E+00  4.15700857E+00  4.18913538E+00  4.27179260E+00
  4.35144690E+00  4.39468876E+00  4.46169816E+00  4.52305527E+00  4.67316608E+00
  4.71441333E+00  4.81090921E+00  4.82467803E+00  4.85033461E+00  4.89878179E+00
  5.03365584E+00  5.08692443E+00  5.11391498E+00  5.14388551E+00  5.18769849E+00
  5.25098852E+00  5.28290535E+00  5.31516101E+00  5.33349447E+00  5.36840684E+00
  5.61241467E+00  5.67932836E+00  5.78723998E+00  5.82712644E+00  5.96428115E+00
  6.18223106E+00  6.30926467E+00  6.35041205E+00  6.40275218E+00  6.50100738E+00
  6.51218389E+00  6.61499017E+00  6.66634836E+00  6.71190338E+00  6.75499088E+00
  6.76280945E+00  6.84091067E+00  6.90925260E+00  7.02210576E+00  7.05438968E+00
  7.06221451E+00  7.08979526E+00  7.13412793E+00  7.15867271E+00  7.18301362E+00
  7.23868938E+00  7.23966752E+00  7.30207287E+00  7.33070217E+00  7.35555607E+00
  7.40878031E+00  7.44576067E+00  7.49307190E+00  7.61382867E+00  7.63143204E+00
  7.65352449E+00  7.68637391E+00  7.80128019E+00  7.89660561E+00  8.13105391E+00
  8.32793205E+00  8.40886218E+00  8.55982179E+00  1.34846288E+01  1.45725073E+01
  1.51899175E+01  1.62166654E+01
Alpha MO coefficients                      R   N=       42849
  8.98701191E-05 -5.92182164E-04 -6.75500651E-04 -3.94583629E-06 -1.95073212E-05
 -2.70605523E-05  0.00000000E+00 -3.59221994E-05  4.51252360E-05  0.00000000E+00
  8.41896976E-05  1.97668712E-05  0.00000000E+00  3.07898332E-05  0.00000000E+00
  0.00000000E+00 -5.11870648E-05  1.97179749E-05 -6.10478734E-06  0.00000000E+00
  0.00000000E+00 -1.36664889E-04  1.19069065E-04  4.37245979E-03 -2.85179659E-04
  6.65320748E-06  1.57775769E-03  1.81644403E-03  1.06230657E-04  6.71759765E-06
  0.00000000E+00 -6.20052068E-04 -3.58764387E-05  0.00000000E+00 -1.15904195E-03
  7.65996132E-04  0.00000000E+00 -4.08632685E-04  6.04923616E-05  0.00000000E+00
  2.89773149E-05  0.00000000E+00  0.00000000E+00 -5.33604672E-05  7.25120729E-06
 -3.77678690E-04  0.00000000E+00  0.00000000E+00  7.39674886E-04 -4.62139798E-05
 -4.44364477E-04  0.00000000E+00  0.00000000E+00  2.64413892E-04 -2.88972025E-05
  0.00000000E+00  7.97597165E-05  1.23115982E-05  0.00000000E+00  0.00000000E+00
 -1.09272102E-04 -2.10223322E-06  0.00000000E+00  2.54797730E-04 -2.86797494E-05
  0.00000000E+00  0.00000000E+00 -3.45295896E-04  5.93121341E-05  9.76894326E-01
 -9.23811666E-03  4.33617475E-02  1.78090492E-03 -1.03417276E-03  1.47237701E-03
 -1.42822236E-03  0.00000000E+00 -1.39761826E-03  1.49392471E-03  0.00000000E+00
  3.69196751E-05 -1.07378151E-03  0.00000000E+00 -1.33621832E-04  6.64032152E-06
  0.00000000E+00  3.75165831E-05  0.00000000E+00  0.00000000E+00 -4.36417335E-05
  2.41295359E-05  7.75681281E-04  0.00000000E+00  0.00000000E+00 -1.86679009E-04
 -4.09614824E-04 -3.36398393E-04  0.00000000E+00  0.00000000E+00 -3.12850081E-04
 -3.80432909E-04  0.00000000E+00  4.45341597E-05 -5.21251893E-05  0.00000000E+00
  0.00000000E+00 -4.06620235E-05 -1.69696025E-05  0.00000000E+00  2.81591421E-05
  7.81627974E-06  0.00000000E+00  0.00000000E+00 -3.13642097E-04 -1.57664325E-04
  5.22058517E-05  1.29382806E-04 -2.89571975E-04 -6.18770110E-04 -1.10942046E-04
 -2.72738922E-05 -1.01019099E-04  0.00000000E+00  2.92651484E-04  8.67133760E-04
  0.00000000E+00 -7.95475621E-04 -3.08030853E-04  0.00000000E+00 -1.22842998E-04
 -1.17043596E-05  0.00000000E+00 -3.15391297E-05  0.00000000E+00  0.00000000E+00
 -5.41223566E-05  2.29139043E-05 -3.60619006E-04  0.00000000E+00  0.00000000E+00
 -8.78022020E-04  1.35953834E-04 -4.83024307E-05  0.00000000E+00  0.00000000E+00
  7.96282838E-05 -1.33218584E-04  0.00000000E+00 -2.17081613E-05 -1.23670432E-04
  0.00000000E+00  0.00000000E+00 -6.92700413E-05 -1.37061056E-04  0.00000000E+00
 -6.60593967E-06 -1.65071906E-04  0.00000000E+00  0.00000000E+00  1.39796151E-05
 -4.02573680E-04 -8.96769284E-04  9.56778115E-05 -4.64272555E-05 -1.85546790E-04
  1.82224580E-04 -5.33611314E-06 -2.29571404E-05  0.00000000E+00  7.07710093E-05
  1.43685670E-04  0.00000000E+00  2.77757809E-04  1.43310535E-04  0.00000000E+00
  1.40891718E-04  2.46699725E-05  0.00000000E+00 -2.37508404E-06  0.00000000E+00
  0.00000000E+00 -1.83254369E-05  2.38560115E-06 -3.84345834E-06  0.00000000E+00
  0.00000000E+00  8.96263450E-05  6.72603358E-05 -1.07621688E-04  0.00000000E+00
  0.00000000E+00  1.79158581E-04  1.39676143E-04  0.00000000E+00  1.69519418E-05
 -1.20376415E-06  0.00000000E+00  0.00000000E+00 -1.60417345E-08 -1.48797061E-05
  0.00000000E+00 -3.95393316E-05  4.27647627E-05  0.00000000E+00  0.00000000E+00
  8.41644472E-05  8.25392194E-05  4.02226681E-05 -1.00251678E-03 -4.82787037E-04
 -8.01017354E-06 -2.09608590E-05  1.52288313E-05  0.00000000E+00 -4.99670933E-06
  2.72387834E-04  0.00000000E+00 -4.56635439E-05  1.32355333E-04  0.00000000E+00
  2.61165029E-05  0.00000000E+00  0.00000000E+00  1.13978359E-05  1.18577994E-05
 -3.18309394E-05  0.00000000E+00  0.00000000E+00  1.55680241E-05  3.98073750E-05
  1.87671189E-04  8.32394529E-05 -2.49709793E-05  7.95195842E-04  6.71040745E-04
  1.07272377E-05  2.74526688E-06  0.00000000E+00 -7.81894438E-05  1.16707772E-05
  0.00000000E+00  3.29174256E-04  9.48201279E-04  0.00000000E+00  5.26582384E-07
  8.65606096E-05  0.00000000E+00 -2.32950971E-06  0.00000000E+00  0.00000000E+00
 -2.75785847E-07 -4.91903117E-06 -3.60784304E-05  0.00000000E+00  0.00000000E+00
 -1.49624460E-05  7.88640241E-05 -2.31325009E-05  0.00000000E+00  0.00000000E+00
 -2.72161923E-04 -1.84629867E-04  0.00000000E+00  9.33044059E-06  6.48814916E-06
  0.00000000E+00  0.00000000E+00  2.06640793E-06 -1.89831159E-05  0.00000000E+00
 -4.04704056E-05 -4.08293969E-05  0.00000000E+00  0.00000000E+00 -7.93859872E-05
  2.82210955E-05  9.33022268E-04  5.48936213E-05  1.81594464E-05 -3.00275947E-05
 -4.36276680E-04  1.99141034E-06  1.80023938E-05  0.00000000E+00 -5.29822204E-05
 -6.42772252E-05  0.00000000E+00  2.04422462E-04 -3.17095141E-04  0.00000000E+00
 -2.03540042E-04 -8.60823823E-05  0.00000000E+00 -9.39929200E-06  0.00000000E+00
  0.00000000E+00  2.51387707E-05  2.19861990E-05  3.94185133E-06  0.00000000E+00
  0.00000000E+00 -1.39610552E-04 -6.11370666E-05 -9.23541844E-06  0.00000000E+00
  0.00000000E+00 -2.72462270E-04 -2.28523609E-04  0.00000000E+00  8.80614559E-08
 -2.49394111E-06  0.00000000E+00  0.00000000E+00 -2.36104861E-06 -7.83560520E-06
  0.00000000E+00 -4.25018821E-05  1.05804700E-05  0.00000000E+00  0.00000000E+00
 -7.55852204E-05  1.91208817E-04  2.56291599E-04  1.45946592E-03 -7.17996164E-05
 -1.65969148E-03  3.50749129E-04 -1.41972407E-04  2.18875715E-06  0.00000000E+00
 -2.12577634E-03 -4.20882185E-04  0.00000000E+00  1.06737122E-03  7.40891262E-04
  0.00000000E+00 -1.66448728E-04  5.21750418E-05  0.00000000E+00 -1.23082759E-04
  0.00000000E+00  0.00000000E+00  2.46660861E-04  9.36681934E-05 -4.36557200E-04
  0.00000000E+00  0.00000000E+00  9.06651632E-04 -1.04825346E-04  2.03396331E-05
  0.00000000E+00  0.00000000E+00 -3.44704083E-04 -1.36835262E-04  0.00000000E+00
  6.33553458E-07  1.63283575E-05  0.00000000E+00  0.00000000E+00  2.16728649E-05
  1.36288854E-05  0.00000000E+00  1.58885428E-04 -7.68727130E-05  0.00000000E+00
  0.00000000E+00 -2.28199029E-04  6.02270141E-05  9.76644968E-01 -9.84131616E-03
  4.35857823E-02  4.54152823E-03 -4.36924099E-04  2.15556074E-03  4.78402226E-04
  0.00000000E+00 -2.38832488E-03 -6.05109872E-04  0.00000000E+00  1.13207427E-03
 -2.14231110E-05  0.00000000E+00  5.03993965E-06 -4.66620078E-05  0.00000000E+00
 -2.32632185E-04  0.00000000E+00  0.00000000E+00  1.01010652E-04  3.29930561E-05
  3.96554376E-04  0.00000000E+00  0.00000000E+00 -8.43882108E-04 -4.22735466E-04
 -1.48066231E-04  0.00000000E+00  0.00000000E+00  2.46023179E-04  5.48796625E-06
  0.00000000E+00  5.27462654E-05  1.77092794E-05  0.00000000E+00  0.00000000E+00
 -2.16560668E-05 -1.28610957E-05  0.00000000E+00  1.42492562E-04  9.26741568E-06
  0.00000000E+00  0.00000000E+00 -1.93594687E-04 -1.44008888E-04  4.74342027E-04
  2.11130332E-03  1.55240584E-04  1.66583388E-05 -4.13288422E-05 -2.48199485E-04
  0.00000000E+00  1.03008864E-04 -1.29317485E-03  0.00000000E+00  3.12267415E-04
 -3.54371932E-04  0.00000000E+00 -3.98628205E-06  0.00000000E+00  0.00000000E+00
  7.49623979E-05  1.51301865E-05 -1.61147762E-04  0.00000000E+00  0.00000000E+00
 -5.37840492E-04 -1.88716583E-05  9.76830827E-01 -9.16855562E-03  4.34510640E-02
  1.29801967E-04 -1.19516938E-03 -1.55971824E-03  1.45367988E-03  0.00000000E+00
  1.57418036E-03 -1.30007945E-03  0.00000000E+00 -5.81527533E-04 -9.06250961E-04
  0.00000000E+00  5.83290124E-05 -4.18653066E-05  0.00000000E+00  2.96870225E-05
  0.00000000E+00  0.00000000E+00 -1.19028553E-04 -1.12817264E-06  7.62139747E-04
  0.00000000E+00  0.00000000E+00 -2.05824641E-04 -2.34951395E-04 -2.59279731E-04
  0.00000000E+00  0.00000000E+00  1.73485118E-04  1.27225089E-04  0.00000000E+00
 -6.40947277E-05  1.62583008E-06  0.00000000E+00  0.00000000E+00  1.88192195E-05