 Entering Gaussian System, Link 0=g16
 Input=hoono_a3_110p7395.gjf
 Output=hoono_a3_110p7395.log
 Initial command:
 /sw/contrib/gaussian/g16/B01/g16/l1.exe "/scr/Gau-12505.inp" -scrdir="/scr/"
 Entering Link 1 = /sw/contrib/gaussian/g16/B01/g16/l1.exe PID=     12506.
  
 Copyright (c) 1988-2017, Gaussian, Inc.  All Rights Reserved.
  
 This is part of the Gaussian(R) 16 program.  It is based on
 the Gaussian(R) 09 system (copyright 2009, Gaussian, Inc.),
 the Gaussian(R) 03 system (copyright 2003, Gaussian, Inc.),
 the Gaussian(R) 98 system (copyright 1998, Gaussian, Inc.),
 the Gaussian(R) 94 system (copyright 1995, Gaussian, Inc.),
 the Gaussian 92(TM) system (copyright 1992, Gaussian, Inc.),
 the Gaussian 90(TM) system (copyright 1990, Gaussian, Inc.),
 the Gaussian 88(TM) system (copyright 1988, Gaussian, Inc.),
 the Gaussian 86(TM) system (copyright 1986, Carnegie Mellon
 University), and the Gaussian 82(TM) system (copyright 1983,
 Carnegie Mellon University). Gaussian is a federally registered
 trademark of Gaussian, Inc.
  
 This software contains proprietary and confidential information,
 including trade secrets, belonging to Gaussian, Inc.
  
 This software is provided under written license and may be
 used, copied, transmitted, or stored only in accord with that
 written license.
  
 The following legend is applicable only to US Government
 contracts under FAR:
  
                    RESTRICTED RIGHTS LEGEND
  
 Use, reproduction and disclosure by the US Government is
 subject to restrictions as set forth in subparagraphs (a)
 and (c) of the Commercial Computer Software - Restricted
 Rights clause in FAR 52.227-19.
  
 Gaussian, Inc.
 340 Quinnipiac St., Bldg. 40, Wallingford CT 06492
  
  
 ---------------------------------------------------------------
 Warning -- This program may not be used in any manner that
 competes with the business of Gaussian, Inc. or will provide
 assistance to any competitor of Gaussian, Inc.  The licensee
 of this program is prohibited from giving any competitor of
 Gaussian, Inc. access to this program.  By using this program,
 the user acknowledges that Gaussian, Inc. is engaged in the
 business of creating and licensing software in the field of
 computational chemistry and represents and warrants to the
 licensee that it is not a competitor of Gaussian, Inc. and that
 it will not use this program in any manner prohibited above.
 ---------------------------------------------------------------
  

 Cite this work as:
 Gaussian 16, Revision B.01,
 M. J. Frisch, G. W. Trucks, H. B. Schlegel, G. E. Scuseria, 
 M. A. Robb, J. R. Cheeseman, G. Scalmani, V. Barone, 
 G. A. Petersson, H. Nakatsuji, X. Li, M. Caricato, A. V. Marenich, 
 J. Bloino, B. G. Janesko, R. Gomperts, B. Mennucci, H. P. Hratchian, 
 J. V. Ortiz, A. F. Izmaylov, J. L. Sonnenberg, D. Williams-Young, 
 F. Ding, F. Lipparini, F. Egidi, J. Goings, B. Peng, A. Petrone, 
 T. Henderson, D. Ranasinghe, V. G. Zakrzewski, J. Gao, N. Rega, 
 G. Zheng, W. Liang, M. Hada, M. Ehara, K. Toyota, R. Fukuda, 
 J. Hasegawa, M. Ishida, T. Nakajima, Y. Honda, O. Kitao, H. Nakai, 
 T. Vreven, K. Throssell, J. A. Montgomery, Jr., J. E. Peralta, 
 F. Ogliaro, M. J. Bearpark, J. J. Heyd, E. N. Brothers, K. N. Kudin, 
 V. N. Staroverov, T. A. Keith, R. Kobayashi, J. Normand, 
 K. Raghavachari, A. P. Rendell, J. C. Burant, S. S. Iyengar, 
 J. Tomasi, M. Cossi, J. M. Millam, M. Klene, C. Adamo, R. Cammi, 
 J. W. Ochterski, R. L. Martin, K. Morokuma, O. Farkas, 
 J. B. Foresman, and D. J. Fox, Gaussian, Inc., Wallingford CT, 2016.
 
 ******************************************
 Gaussian 16:  ES64L-G16RevB.01 20-Dec-2017
                21-Feb-2022 
 ******************************************
 %nproc=28
 Will use up to   28 processors via shared memory.
 %mem=120GB
 %chk=hoono_a3_110p7395.chk
 ---------------------------------------
 #p freq mp2/aug-cc-pvtz density=current
 ---------------------------------------
 1/10=4,30=1,38=1/1,3;
 2/12=2,17=6,18=5,40=1/2;
 3/5=16,6=1,7=10,11=9,25=1,30=1,71=2,140=1/1,2,3;
 4//1;
 5/5=2,38=5,98=1/2;
 8/6=3,8=1,10=1,19=11,30=-1/1;
 9/15=3,16=-3/6;
 11/6=1,8=1,15=11,17=12,24=-1,27=1,28=-2,29=300,32=6,42=3/1,2,10;
 10/6=2,21=1/2;
 8/6=4,8=1,10=1,19=11,30=-1/11,4;
 10/5=1,20=4/2;
 11/12=2,14=11,16=1,17=2,28=-2,42=3,76=2/2,10,12;
 6/7=2,8=2,9=2,10=2,22=-1/1;
 7/8=1,10=1,12=2,25=1,44=2/1,2,3,16;
 1/10=4,30=1/3;
 99//99;
 Leave Link    1 at Mon Feb 21 20:51:49 2022, MaxMem= 16106127360 cpu:               3.6 elap:               0.1
 (Enter /sw/contrib/gaussian/g16/B01/g16/l101.exe)
 -----
 title
 -----
 Symbolic Z-matrix:
 Charge =  0 Multiplicity = 1
 H
 O                    1    r1
 O                    2    r2       1    a1
 N                    3    r3       2    a2       1    d1       0
 O                    4    r4       3    a3       2    d2       0
       Variables:
  r1                    0.96898                  
  r2                    1.45492                  
  r3                    1.45878                  
  r4                    1.17073                  
  a1                   97.59495                  
  a2                  102.29752                  
  a3                  110.73958                  
  d1                  180.                       
  d2                  180.                       
 
 ITRead=  0  0  0  0  0
 MicOpt= -1 -1 -1 -1 -1
 NAtoms=      5 NQM=        5 NQMF=       0 NMMI=      0 NMMIF=      0
                NMic=       0 NMicF=      0.
                    Isotopes and Nuclear Properties:
 (Nuclear quadrupole moments (NQMom) in fm**2, nuclear magnetic moments (NMagM)
  in nuclear magnetons)

  Atom         1           2           3           4           5
 IAtWgt=           1          16          16          14          16
 AtmWgt=   1.0078250  15.9949146  15.9949146  14.0030740  15.9949146
 NucSpn=           1           0           0           2           0
 AtZEff=  -0.0000000  -0.0000000  -0.0000000  -0.0000000  -0.0000000
 NQMom=    0.0000000   0.0000000   0.0000000   2.0440000   0.0000000
 NMagM=    2.7928460   0.0000000   0.0000000   0.4037610   0.0000000
 AtZNuc=   1.0000000   8.0000000   8.0000000   7.0000000   8.0000000
 Leave Link  101 at Mon Feb 21 20:51:49 2022, MaxMem= 16106127360 cpu:               2.3 elap:               0.1
 (Enter /sw/contrib/gaussian/g16/B01/g16/l103.exe)

 GradGradGradGradGradGradGradGradGradGradGradGradGradGradGradGradGradGrad
 Berny optimization.
 Initialization pass.
                       ----------------------------
                       !    Initial Parameters    !
                       ! (Angstroms and Degrees)  !
 ----------------------                            ----------------------
 !      Name          Value   Derivative information (Atomic Units)     !
 ------------------------------------------------------------------------
 !       r1          0.969    calculate D2E/DX2 analytically            !
 !       r2          1.4549   calculate D2E/DX2 analytically            !
 !       r3          1.4588   calculate D2E/DX2 analytically            !
 !       r4          1.1707   calculate D2E/DX2 analytically            !
 !       a1         97.5949   calculate D2E/DX2 analytically            !
 !       a2        102.2975   calculate D2E/DX2 analytically            !
 !       a3        110.7396   calculate D2E/DX2 analytically            !
 !       d1        180.0      calculate D2E/DX2 analytically            !
 !       d2        180.0      calculate D2E/DX2 analytically            !
 ------------------------------------------------------------------------
 Trust Radius=3.00D-01 FncErr=1.00D-07 GrdErr=1.00D-07 EigMax=2.50D+02 EigMin=1.00D-04
 Number of steps in this run=      2 maximum allowed number of steps=      2.
 GradGradGradGradGradGradGradGradGradGradGradGradGradGradGradGradGradGrad

 Leave Link  103 at Mon Feb 21 20:51:49 2022, MaxMem= 16106127360 cpu:               1.2 elap:               0.1
 (Enter /sw/contrib/gaussian/g16/B01/g16/l202.exe)
                          Input orientation:                          
 ---------------------------------------------------------------------
 Center     Atomic      Atomic             Coordinates (Angstroms)
 Number     Number       Type             X           Y           Z
 ---------------------------------------------------------------------
      1          1           0        0.000000    0.000000    0.000000
      2          8           0        0.000000    0.000000    0.968976
      3          8           0        1.442156    0.000000    1.161271
      4          7           0        1.561752    0.000000    2.615144
      5          8           0        2.686920    0.000000    2.938567
 ---------------------------------------------------------------------
                    Distance matrix (angstroms):
                    1          2          3          4          5
     1  H    0.000000
     2  O    0.968976   0.000000
     3  O    1.851584   1.454919   0.000000
     4  N    3.045989   2.269127   1.458784   0.000000
     5  O    3.981798   3.331491   2.169844   1.170729   0.000000
 Stoichiometry    HNO3
 Framework group  CS[SG(HNO3)]
 Deg. of freedom     7
 Full point group                 CS      NOp   2
 Largest Abelian subgroup         CS      NOp   2
 Largest concise Abelian subgroup C1      NOp   1
                         Standard orientation:                         
 ---------------------------------------------------------------------
 Center     Atomic      Atomic             Coordinates (Angstroms)
 Number     Number       Type             X           Y           Z
 ---------------------------------------------------------------------
      1          1           0        1.551220    1.692402   -0.000000
      2          8           0        1.454164    0.728299   -0.000000
      3          8           0        0.000000    0.681422    0.000000
      4          7           0       -0.264619   -0.753160    0.000000
      5          8           0       -1.416524   -0.962256    0.000000
 ---------------------------------------------------------------------
 Rotational constants (GHZ):          55.3860834           4.9709370           4.5615362
 Leave Link  202 at Mon Feb 21 20:51:50 2022, MaxMem= 16106127360 cpu:               0.7 elap:               0.1
 (Enter /sw/contrib/gaussian/g16/B01/g16/l301.exe)
 Standard basis: Aug-CC-pVTZ (5D, 7F)
 Ernie: Thresh=  0.10000D-02 Tol=  0.10000D-05 Strict=F.
 Ernie:  12 primitive shells out of 131 were deleted.
 There are   166 symmetry adapted cartesian basis functions of A'  symmetry.
 There are    79 symmetry adapted cartesian basis functions of A"  symmetry.
 There are   136 symmetry adapted basis functions of A'  symmetry.
 There are    71 symmetry adapted basis functions of A"  symmetry.
   207 basis functions,   315 primitive gaussians,   245 cartesian basis functions
    16 alpha electrons       16 beta electrons
       nuclear repulsion energy       116.6725777483 Hartrees.
 IExCor=    0 DFT=F Ex=HF Corr=None ExCW=0 ScaHFX=  1.000000
 ScaDFX=  1.000000  1.000000  1.000000  1.000000 ScalE2=  1.000000  1.000000
 IRadAn=      5 IRanWt=     -1 IRanGd=            0 ICorTp=0 IEmpDi=  4
 NAtoms=    5 NActive=    5 NUniq=    5 SFac= 1.00D+00 NAtFMM=   60 NAOKFM=F Big=F
 Integral buffers will be    131072 words long.
 Raffenetti 1 integral format.
 Two-electron integral symmetry is turned on.
 Leave Link  301 at Mon Feb 21 20:51:50 2022, MaxMem= 16106127360 cpu:               2.0 elap:               0.1
 (Enter /sw/contrib/gaussian/g16/B01/g16/l302.exe)
 NPDir=0 NMtPBC=     1 NCelOv=     1 NCel=       1 NClECP=     1 NCelD=      1
         NCelK=      1 NCelE2=     1 NClLst=     1 CellRange=     0.0.
 One-electron integrals computed using PRISM.
 One-electron integral symmetry used in STVInt
 NBasis=   207 RedAO= T EigKep=  1.82D-04  NBF=   136    71
 NBsUse=   207 1.00D-06 EigRej= -1.00D+00 NBFU=   136    71
 Leave Link  302 at Mon Feb 21 20:51:50 2022, MaxMem= 16106127360 cpu:               5.1 elap:               0.2
 (Enter /sw/contrib/gaussian/g16/B01/g16/l303.exe)
 DipDrv:  MaxL=1.
 Leave Link  303 at Mon Feb 21 20:51:50 2022, MaxMem= 16106127360 cpu:               1.5 elap:               0.1
 (Enter /sw/contrib/gaussian/g16/B01/g16/l401.exe)
 ExpMin= 2.53D-02 ExpMax= 1.53D+04 ExpMxC= 5.22D+02 IAcc=3 IRadAn=         5 AccDes= 0.00D+00
 Harris functional with IExCor=  205 and IRadAn=       5 diagonalized for initial guess.
 HarFok:  IExCor=  205 AccDes= 0.00D+00 IRadAn=         5 IDoV= 1 UseB2=F ITyADJ=14
 ICtDFT=  3500011 ScaDFX=  1.000000  1.000000  1.000000  1.000000
 FoFCou: FMM=F IPFlag=           0 FMFlag=      100000 FMFlg1=           0
         NFxFlg=           0 DoJE=T BraDBF=F KetDBF=T FulRan=T
         wScrn=  0.000000 ICntrl=       500 IOpCl=  0 I1Cent=   200000004 NGrid=           0
         NMat0=    1 NMatS0=      1 NMatT0=    0 NMatD0=    1 NMtDS0=    0 NMtDT0=    0
 Petite list used in FoFCou.
 Harris En= -279.628504296275    
 JPrj=0 DoOrth=F DoCkMO=F.
 Initial guess orbital symmetries:
       Occupied  (A') (A') (A') (A') (A') (A') (A') (A') (A') (A')
                 (A") (A') (A') (A") (A") (A')
       Virtual   (A") (A') (A') (A') (A') (A') (A") (A') (A') (A')
                 (A") (A') (A") (A') (A') (A") (A') (A") (A') (A')
                 (A') (A') (A') (A') (A') (A") (A') (A") (A') (A')
                 (A") (A') (A") (A') (A') (A") (A') (A") (A') (A')
                 (A") (A') (A") (A') (A") (A') (A') (A') (A") (A")
                 (A') (A') (A') (A') (A") (A') (A") (A') (A") (A')
                 (A') (A') (A") (A') (A') (A") (A') (A") (A') (A')
                 (A") (A') (A') (A") (A") (A') (A') (A") (A') (A')
                 (A') (A") (A') (A") (A') (A") (A') (A") (A') (A')
                 (A') (A") (A') (A") (A') (A") (A") (A') (A') (A")
                 (A') (A') (A") (A') (A') (A') (A") (A') (A") (A')
                 (A") (A') (A') (A') (A") (A') (A') (A') (A") (A')
                 (A") (A') (A') (A") (A") (A') (A') (A") (A") (A')
                 (A') (A') (A') (A") (A") (A') (A") (A') (A') (A')
                 (A') (A") (A") (A') (A') (A") (A') (A') (A') (A')
                 (A") (A') (A') (A") (A') (A") (A') (A") (A") (A')
                 (A') (A") (A') (A") (A') (A") (A") (A") (A') (A')
                 (A") (A') (A") (A') (A") (A') (A") (A") (A') (A')
                 (A') (A') (A') (A') (A') (A') (A') (A') (A') (A')
                 (A')
 The electronic state of the initial guess is 1-A'.
 Leave Link  401 at Mon Feb 21 20:51:50 2022, MaxMem= 16106127360 cpu:               7.1 elap:               0.3
 (Enter /sw/contrib/gaussian/g16/B01/g16/l502.exe)
 Keep R1 ints in memory in symmetry-blocked form, NReq=348887737.
 FoFCou: FMM=F IPFlag=           0 FMFlag=           0 FMFlg1=           0
         NFxFlg=           0 DoJE=F BraDBF=F KetDBF=F FulRan=T
         wScrn=  0.000000 ICntrl=       600 IOpCl=  0 I1Cent=           0 NGrid=           0
         NMat0=    1 NMatS0=  21528 NMatT0=    0 NMatD0=    1 NMtDS0=    0 NMtDT0=    0
 Petite list used in FoFCou.
 Closed shell SCF:
 Using DIIS extrapolation, IDIIS=  1040.
 NGot= 16106127360 LenX= 15988850015 LenY= 15988789549
 Requested convergence on RMS density matrix=1.00D-08 within 128 cycles.
 Requested convergence on MAX density matrix=1.00D-06.
 Requested convergence on             energy=1.00D-06.
 No special actions if energy rises.

 Cycle   1  Pass 1  IDiag  1:
 E= -279.370649080062    
 DIIS: error= 2.93D-02 at cycle   1 NSaved=   1.
 NSaved= 1 IEnMin= 1 EnMin= -279.370649080062     IErMin= 1 ErrMin= 2.93D-02
 ErrMax= 2.93D-02  0.00D+00 EMaxC= 1.00D-01 BMatC= 4.37D-01 BMatP= 4.37D-01
 IDIUse=3 WtCom= 7.07D-01 WtEn= 2.93D-01
 Coeff-Com:  0.100D+01
 Coeff-En:   0.100D+01
 Coeff:      0.100D+01
 Gap=     0.515 Goal=   None    Shift=    0.000
 GapD=    0.515 DampG=2.000 DampE=0.500 DampFc=1.0000 IDamp=-1.
 RMSDP=1.62D-03 MaxDP=9.72D-02              OVMax= 1.12D-01

 Cycle   2  Pass 1  IDiag  1:
 E= -279.452207336355     Delta-E=       -0.081558256293 Rises=F Damp=F
 DIIS: error= 1.76D-02 at cycle   2 NSaved=   2.
 NSaved= 2 IEnMin= 2 EnMin= -279.452207336355     IErMin= 2 ErrMin= 1.76D-02
 ErrMax= 1.76D-02  0.00D+00 EMaxC= 1.00D-01 BMatC= 7.15D-02 BMatP= 4.37D-01
 IDIUse=3 WtCom= 8.24D-01 WtEn= 1.76D-01
 Coeff-Com:  0.194D+00 0.806D+00
 Coeff-En:   0.000D+00 0.100D+01
 Coeff:      0.160D+00 0.840D+00
 Gap=     0.526 Goal=   None    Shift=    0.000
 RMSDP=9.01D-04 MaxDP=3.71D-02 DE=-8.16D-02 OVMax= 6.90D-02

 Cycle   3  Pass 1  IDiag  1:
 E= -279.480999541802     Delta-E=       -0.028792205447 Rises=F Damp=F
 DIIS: error= 1.02D-02 at cycle   3 NSaved=   3.
 NSaved= 3 IEnMin= 3 EnMin= -279.480999541802     IErMin= 3 ErrMin= 1.02D-02
 ErrMax= 1.02D-02  0.00D+00 EMaxC= 1.00D-01 BMatC= 2.90D-02 BMatP= 7.15D-02
 IDIUse=3 WtCom= 8.98D-01 WtEn= 1.02D-01
 Coeff-Com: -0.331D-01 0.380D+00 0.653D+00
 Coeff-En:   0.000D+00 0.245D+00 0.755D+00
 Coeff:     -0.297D-01 0.366D+00 0.663D+00
 Gap=     0.508 Goal=   None    Shift=    0.000
 RMSDP=3.77D-04 MaxDP=1.51D-02 DE=-2.88D-02 OVMax= 3.83D-02

 Cycle   4  Pass 1  IDiag  1:
 E= -279.500276979268     Delta-E=       -0.019277437466 Rises=F Damp=F
 DIIS: error= 1.31D-03 at cycle   4 NSaved=   4.
 NSaved= 4 IEnMin= 4 EnMin= -279.500276979268     IErMin= 4 ErrMin= 1.31D-03
 ErrMax= 1.31D-03  0.00D+00 EMaxC= 1.00D-01 BMatC= 4.90D-04 BMatP= 2.90D-02
 IDIUse=3 WtCom= 9.87D-01 WtEn= 1.31D-02
 Coeff-Com: -0.117D-01 0.578D-01 0.157D+00 0.797D+00
 Coeff-En:   0.000D+00 0.000D+00 0.000D+00 0.100D+01
 Coeff:     -0.115D-01 0.571D-01 0.155D+00 0.800D+00
 Gap=     0.500 Goal=   None    Shift=    0.000
 RMSDP=9.08D-05 MaxDP=2.80D-03 DE=-1.93D-02 OVMax= 1.12D-02

 Cycle   5  Pass 1  IDiag  1:
 E= -279.500952084315     Delta-E=       -0.000675105047 Rises=F Damp=F
 DIIS: error= 7.44D-04 at cycle   5 NSaved=   5.
 NSaved= 5 IEnMin= 5 EnMin= -279.500952084315     IErMin= 5 ErrMin= 7.44D-04
 ErrMax= 7.44D-04  0.00D+00 EMaxC= 1.00D-01 BMatC= 8.76D-05 BMatP= 4.90D-04
 IDIUse=3 WtCom= 9.93D-01 WtEn= 7.44D-03
 Coeff-Com:  0.608D-02-0.721D-01-0.117D+00 0.243D-01 0.116D+01
 Coeff-En:   0.000D+00 0.000D+00 0.000D+00 0.000D+00 0.100D+01
 Coeff:      0.603D-02-0.716D-01-0.116D+00 0.242D-01 0.116D+01
 Gap=     0.500 Goal=   None    Shift=    0.000
 RMSDP=7.60D-05 MaxDP=2.09D-03 DE=-6.75D-04 OVMax= 1.10D-02

 Cycle   6  Pass 1  IDiag  1:
 E= -279.501267246156     Delta-E=       -0.000315161841 Rises=F Damp=F
 DIIS: error= 2.96D-04 at cycle   6 NSaved=   6.
 NSaved= 6 IEnMin= 6 EnMin= -279.501267246156     IErMin= 6 ErrMin= 2.96D-04
 ErrMax= 2.96D-04  0.00D+00 EMaxC= 1.00D-01 BMatC= 1.68D-05 BMatP= 8.76D-05
 IDIUse=3 WtCom= 9.97D-01 WtEn= 2.96D-03
 Coeff-Com:  0.640D-03 0.113D-02 0.360D-02-0.131D+00-0.226D+00 0.135D+01
 Coeff-En:   0.000D+00 0.000D+00 0.000D+00 0.000D+00 0.000D+00 0.100D+01
 Coeff:      0.638D-03 0.113D-02 0.359D-02-0.130D+00-0.226D+00 0.135D+01
 Gap=     0.500 Goal=   None    Shift=    0.000
 RMSDP=4.57D-05 MaxDP=1.27D-03 DE=-3.15D-04 OVMax= 5.55D-03

 Cycle   7  Pass 1  IDiag  1:
 E= -279.501340911367     Delta-E=       -0.000073665211 Rises=F Damp=F
 DIIS: error= 1.24D-04 at cycle   7 NSaved=   7.
 NSaved= 7 IEnMin= 7 EnMin= -279.501340911367     IErMin= 7 ErrMin= 1.24D-04
 ErrMax= 1.24D-04  0.00D+00 EMaxC= 1.00D-01 BMatC= 4.67D-06 BMatP= 1.68D-05
 IDIUse=3 WtCom= 9.99D-01 WtEn= 1.24D-03
 Coeff-Com: -0.940D-03 0.137D-01 0.265D-01-0.255D-01-0.292D+00 0.401D+00
 Coeff-Com:  0.877D+00
 Coeff-En:   0.000D+00 0.000D+00 0.000D+00 0.000D+00 0.000D+00 0.000D+00
 Coeff-En:   0.100D+01
 Coeff:     -0.939D-03 0.137D-01 0.265D-01-0.255D-01-0.291D+00 0.400D+00
 Coeff:      0.877D+00
 Gap=     0.500 Goal=   None    Shift=    0.000
 RMSDP=1.35D-05 MaxDP=3.88D-04 DE=-7.37D-05 OVMax= 1.56D-03

 Cycle   8  Pass 1  IDiag  1:
 E= -279.501350089239     Delta-E=       -0.000009177872 Rises=F Damp=F
 DIIS: error= 5.93D-05 at cycle   8 NSaved=   8.
 NSaved= 8 IEnMin= 8 EnMin= -279.501350089239     IErMin= 8 ErrMin= 5.93D-05
 ErrMax= 5.93D-05  0.00D+00 EMaxC= 1.00D-01 BMatC= 6.10D-07 BMatP= 4.67D-06
 IDIUse=1 WtCom= 1.00D+00 WtEn= 0.00D+00
 Coeff-Com: -0.451D-03 0.349D-02 0.760D-02 0.277D-01-0.416D-01-0.196D+00
 Coeff-Com:  0.160D+00 0.104D+01
 Coeff:     -0.451D-03 0.349D-02 0.760D-02 0.277D-01-0.416D-01-0.196D+00
 Coeff:      0.160D+00 0.104D+01
 Gap=     0.500 Goal=   None    Shift=    0.000
 RMSDP=7.04D-06 MaxDP=2.04D-04 DE=-9.18D-06 OVMax= 7.68D-04

 Cycle   9  Pass 1  IDiag  1:
 E= -279.501351908763     Delta-E=       -0.000001819524 Rises=F Damp=F
 DIIS: error= 1.52D-05 at cycle   9 NSaved=   9.
 NSaved= 9 IEnMin= 9 EnMin= -279.501351908763     IErMin= 9 ErrMin= 1.52D-05
 ErrMax= 1.52D-05  0.00D+00 EMaxC= 1.00D-01 BMatC= 6.88D-08 BMatP= 6.10D-07
 IDIUse=1 WtCom= 1.00D+00 WtEn= 0.00D+00
 Coeff-Com:  0.121D-03-0.171D-02-0.303D-02-0.196D-02 0.340D-01-0.352D-03
 Coeff-Com: -0.162D+00-0.106D+00 0.124D+01
 Coeff:      0.121D-03-0.171D-02-0.303D-02-0.196D-02 0.340D-01-0.352D-03
 Coeff:     -0.162D+00-0.106D+00 0.124D+01
 Gap=     0.500 Goal=   None    Shift=    0.000
 RMSDP=1.95D-06 MaxDP=6.60D-05 DE=-1.82D-06 OVMax= 1.76D-04

 Cycle  10  Pass 1  IDiag  1:
 E= -279.501352069774     Delta-E=       -0.000000161011 Rises=F Damp=F
 DIIS: error= 4.14D-06 at cycle  10 NSaved=  10.
 NSaved=10 IEnMin=10 EnMin= -279.501352069774     IErMin=10 ErrMin= 4.14D-06
 ErrMax= 4.14D-06  0.00D+00 EMaxC= 1.00D-01 BMatC= 5.65D-09 BMatP= 6.88D-08
 IDIUse=1 WtCom= 1.00D+00 WtEn= 0.00D+00
 Coeff-Com:  0.318D-04-0.252D-03-0.335D-03-0.274D-02 0.173D-02 0.197D-01
 Coeff-Com: -0.127D-01-0.758D-01-0.789D-01 0.115D+01
 Coeff:      0.318D-04-0.252D-03-0.335D-03-0.274D-02 0.173D-02 0.197D-01
 Coeff:     -0.127D-01-0.758D-01-0.789D-01 0.115D+01
 Gap=     0.500 Goal=   None    Shift=    0.000
 RMSDP=5.16D-07 MaxDP=2.12D-05 DE=-1.61D-07 OVMax= 4.26D-05

 Cycle  11  Pass 1  IDiag  1:
 E= -279.501352082591     Delta-E=       -0.000000012817 Rises=F Damp=F
 DIIS: error= 2.06D-06 at cycle  11 NSaved=  11.
 NSaved=11 IEnMin=11 EnMin= -279.501352082591     IErMin=11 ErrMin= 2.06D-06
 ErrMax= 2.06D-06  0.00D+00 EMaxC= 1.00D-01 BMatC= 6.72D-10 BMatP= 5.65D-09
 IDIUse=1 WtCom= 1.00D+00 WtEn= 0.00D+00
 Coeff-Com: -0.213D-04 0.245D-03 0.486D-03 0.541D-03-0.430D-02-0.356D-02
 Coeff-Com:  0.204D-01 0.321D-01-0.139D+00-0.182D+00 0.128D+01
 Coeff:     -0.213D-04 0.245D-03 0.486D-03 0.541D-03-0.430D-02-0.356D-02
 Coeff:      0.204D-01 0.321D-01-0.139D+00-0.182D+00 0.128D+01
 Gap=     0.500 Goal=   None    Shift=    0.000
 RMSDP=1.82D-07 MaxDP=6.82D-06 DE=-1.28D-08 OVMax= 1.74D-05

 Cycle  12  Pass 1  IDiag  1:
 E= -279.501352084438     Delta-E=       -0.000000001847 Rises=F Damp=F
 DIIS: error= 6.03D-07 at cycle  12 NSaved=  12.
 NSaved=12 IEnMin=12 EnMin= -279.501352084438     IErMin=12 ErrMin= 6.03D-07
 ErrMax= 6.03D-07  0.00D+00 EMaxC= 1.00D-01 BMatC= 7.24D-11 BMatP= 6.72D-10
 IDIUse=1 WtCom= 1.00D+00 WtEn= 0.00D+00
 Coeff-Com:  0.121D-05-0.291D-04-0.623D-04 0.185D-03 0.108D-02-0.227D-02
 Coeff-Com: -0.413D-02 0.536D-02 0.420D-01-0.111D+00-0.284D+00 0.135D+01
 Coeff:      0.121D-05-0.291D-04-0.623D-04 0.185D-03 0.108D-02-0.227D-02
 Coeff:     -0.413D-02 0.536D-02 0.420D-01-0.111D+00-0.284D+00 0.135D+01
 Gap=     0.500 Goal=   None    Shift=    0.000
 RMSDP=7.25D-08 MaxDP=2.96D-06 DE=-1.85D-09 OVMax= 6.67D-06

 Cycle  13  Pass 1  IDiag  1:
 E= -279.501352084671     Delta-E=       -0.000000000233 Rises=F Damp=F
 DIIS: error= 1.74D-07 at cycle  13 NSaved=  13.
 NSaved=13 IEnMin=13 EnMin= -279.501352084671     IErMin=13 ErrMin= 1.74D-07
 ErrMax= 1.74D-07  0.00D+00 EMaxC= 1.00D-01 BMatC= 4.12D-12 BMatP= 7.24D-11
 IDIUse=1 WtCom= 1.00D+00 WtEn= 0.00D+00
 Coeff-Com:  0.128D-05-0.139D-04-0.221D-04-0.912D-04 0.118D-03 0.767D-03
 Coeff-Com: -0.782D-03-0.332D-02 0.325D-03 0.413D-01-0.338D-01-0.332D+00
 Coeff-Com:  0.133D+01
 Coeff:      0.128D-05-0.139D-04-0.221D-04-0.912D-04 0.118D-03 0.767D-03
 Coeff:     -0.782D-03-0.332D-02 0.325D-03 0.413D-01-0.338D-01-0.332D+00
 Coeff:      0.133D+01
 Gap=     0.500 Goal=   None    Shift=    0.000
 RMSDP=1.94D-08 MaxDP=5.64D-07 DE=-2.33D-10 OVMax= 1.58D-06

 Cycle  14  Pass 1  IDiag  1:
 E= -279.501352084682     Delta-E=       -0.000000000012 Rises=F Damp=F
 DIIS: error= 2.45D-08 at cycle  14 NSaved=  14.
 NSaved=14 IEnMin=14 EnMin= -279.501352084682     IErMin=14 ErrMin= 2.45D-08
 ErrMax= 2.45D-08  0.00D+00 EMaxC= 1.00D-01 BMatC= 2.04D-13 BMatP= 4.12D-12
 IDIUse=1 WtCom= 1.00D+00 WtEn= 0.00D+00
 Coeff-Com: -0.194D-06 0.318D-05 0.560D-05 0.479D-05-0.831D-04 0.430D-04
 Coeff-Com:  0.278D-03 0.244D-03-0.244D-02 0.125D-02 0.171D-01-0.247D-01
 Coeff-Com: -0.204D+00 0.121D+01
 Coeff:     -0.194D-06 0.318D-05 0.560D-05 0.479D-05-0.831D-04 0.430D-04
 Coeff:      0.278D-03 0.244D-03-0.244D-02 0.125D-02 0.171D-01-0.247D-01
 Coeff:     -0.204D+00 0.121D+01
 Gap=     0.500 Goal=   None    Shift=    0.000
 RMSDP=3.87D-09 MaxDP=9.36D-08 DE=-1.19D-11 OVMax= 3.50D-07

 SCF Done:  E(RHF) =  -279.501352085     A.U. after   14 cycles
            NFock= 14  Conv=0.39D-08     -V/T= 2.0024
 KE= 2.788345996636D+02 PE=-8.946532202204D+02 EE= 2.196446907237D+02
 Leave Link  502 at Mon Feb 21 20:51:54 2022, MaxMem= 16106127360 cpu:              55.8 elap:               3.6
 (Enter /sw/contrib/gaussian/g16/B01/g16/l801.exe)
 ExpMin= 2.53D-02 ExpMax= 1.53D+04 ExpMxC= 5.22D+02 IAcc=3 IRadAn=         5 AccDes= 0.00D+00
 HarFok:  IExCor=  205 AccDes= 0.00D+00 IRadAn=         5 IDoV=-2 UseB2=F ITyADJ=14
 ICtDFT= 12500011 ScaDFX=  1.000000  1.000000  1.000000  1.000000
 Largest valence mixing into a core orbital is  2.08D-04
 Largest core mixing into a valence orbital is  3.61D-05
 Range of M.O.s used for correlation:     5   207
 NBasis=   207 NAE=    16 NBE=    16 NFC=     4 NFV=     0
 NROrb=    203 NOA=    12 NOB=    12 NVA=   191 NVB=   191

 **** Warning!!: The largest alpha MO coefficient is  0.17770752D+02

 Leave Link  801 at Mon Feb 21 20:51:54 2022, MaxMem= 16106127360 cpu:               2.1 elap:               0.1
 (Enter /sw/contrib/gaussian/g16/B01/g16/l906.exe)
 Frozen-core derivative calculation, NFC=   4 NFV=   0.
 FulOut=F Deriv=T AODrv=T NAtomX=     5
   MMem=           0  MDisk=          12 MDiskD=          12
  W3Min=      811440 MinDsk=     2425030 NBas6D=         245
 NBas2D=       30762    NTT=       30135    LW2=     7400000
    MDV= 16105574311 MDiskM=      328644 NBas2p=       30702
 Disk-based method using ON**2 memory for 12 occupieds at a time.
 Permanent disk used for amplitudes=    11516536 words.
 Estimated scratch disk usage=   321251614 words.
 IMap=   1   2   3   4   5   6   7   8   9  10  11  12  13  14  15  16
 Actual    scratch disk usage=   310331678 words.
 JobTyp=1 Pass  1:  I=   5 to  16 NPSUse= 28 ParTrn=T ParDer=T DoDerP=T.
 (rs|ai) integrals will be sorted in core.
 Spin components of T(2) and E(2):
     alpha-alpha T2 =       0.3406643496D-01 E2=     -0.1224387463D+00
     alpha-beta  T2 =       0.1869448844D+00 E2=     -0.7003018688D+00
     beta-beta   T2 =       0.3406643496D-01 E2=     -0.1224387463D+00
 The integrals were generated   1 times.
 ANorm=    0.1120302528D+01
 E2 =    -0.9451793613D+00 EUMP2 =    -0.28044653144598D+03
 Leave Link  906 at Mon Feb 21 20:53:31 2022, MaxMem= 16106127360 cpu:            2699.9 elap:              96.6
 (Enter /sw/contrib/gaussian/g16/B01/g16/l1101.exe)
 Using compressed Sx but separate Hx and Fx, NAtomX=     5.
 Will process      6 centers per pass.
 Leave Link 1101 at Mon Feb 21 20:53:31 2022, MaxMem= 16106127360 cpu:               6.6 elap:               0.3
 (Enter /sw/contrib/gaussian/g16/B01/g16/l1102.exe)
 Leave Link 1102 at Mon Feb 21 20:53:31 2022, MaxMem= 16106127360 cpu:               0.6 elap:               0.0
 (Enter /sw/contrib/gaussian/g16/B01/g16/l1110.exe)
 Forming Gx(P) for the SCF density, NAtomX=     5.
 Integral derivatives from FoFJK, PRISM(SPDF).
 Do as many integral derivatives as possible in FoFJK.
 G2DrvN: MDV=   16106126844.
 G2DrvN: will do     6 centers at a time, making    1 passes.
 Calling FoFCou, ICntrl=  3107 FMM=F I1Cent=   0 AccDes= 0.00D+00.
 FoFJK:  IHMeth= 1 ICntrl=    3107 DoSepK=F KAlg= 0 I1Cent=           0 FoldK=F
 IRaf=         0 NMat=       1 IRICut=       1 DoRegI=T DoRafI=F ISym2E= 1 IDoP0=0 IntGTp=1.
 FoFCou: FMM=F IPFlag=           0 FMFlag=      100000 FMFlg1=           0
         NFxFlg=           0 DoJE=F BraDBF=F KetDBF=F FulRan=T
         wScrn=  0.000000 ICntrl=      3107 IOpCl=  0 I1Cent=           0 NGrid=           0
         NMat0=    1 NMatS0=      1 NMatT0=    0 NMatD0=    1 NMtDS0=    0 NMtDT0=    0
 Petite list used in FoFCou.
 End of G2Drv F.D. properties file   721 does not exist.
 End of G2Drv F.D. properties file   722 does not exist.
 End of G2Drv F.D. properties file   788 does not exist.
 Leave Link 1110 at Mon Feb 21 20:53:34 2022, MaxMem= 16106127360 cpu:              83.9 elap:               3.0
 (Enter /sw/contrib/gaussian/g16/B01/g16/l1002.exe)
 Minotr:  Closed shell wavefunction.
          IDoAtm=11111
          Frozen-core window.
          Direct CPHF calculation.
          Differentiating once with respect to electric field.
                with respect to dipole field.
          Differentiating once with respect to nuclear coordinates.
          Requested convergence is 1.0D-08 RMS, and 1.0D-07 maximum.
          Secondary convergence is 1.0D-12 RMS, and 1.0D-12 maximum.
          NewPWx=T KeepS1=T KeepF1=T KeepIn=T MapXYZ=F SortEE=F KeepMc=T.
 Keep R1 ints in memory in symmetry-blocked form, NReq=348888983.
 FoFCou: FMM=F IPFlag=           0 FMFlag=           0 FMFlg1=           0
         NFxFlg=           0 DoJE=F BraDBF=F KetDBF=F FulRan=T
         wScrn=  0.000000 ICntrl=       600 IOpCl=  0 I1Cent=           0 NGrid=           0
         NMat0=    1 NMatS0=  21528 NMatT0=    0 NMatD0=    1 NMtDS0=    0 NMtDT0=    0
 Petite list used in FoFCou.
          MDV=   16106127360 using IRadAn=       1.
          Solving linear equations simultaneously, MaxMat=       0.
          There are    18 degrees of freedom in the 1st order CPHF.  IDoFFX=6 NUNeed=    18.
     15 vectors produced by pass  0 Test12= 1.70D-14 5.56D-09 XBig12= 8.27D+00 1.03D+00.
 AX will form    15 AO Fock derivatives at one time.
     15 vectors produced by pass  1 Test12= 1.70D-14 5.56D-09 XBig12= 1.33D+00 2.61D-01.
     15 vectors produced by pass  2 Test12= 1.70D-14 5.56D-09 XBig12= 1.41D-01 9.68D-02.
     15 vectors produced by pass  3 Test12= 1.70D-14 5.56D-09 XBig12= 4.94D-03 1.11D-02.
     15 vectors produced by pass  4 Test12= 1.70D-14 5.56D-09 XBig12= 9.84D-05 1.86D-03.
     15 vectors produced by pass  5 Test12= 1.70D-14 5.56D-09 XBig12= 1.37D-06 1.65D-04.
     15 vectors produced by pass  6 Test12= 1.70D-14 5.56D-09 XBig12= 1.06D-08 1.44D-05.
     13 vectors produced by pass  7 Test12= 1.70D-14 5.56D-09 XBig12= 7.84D-11 1.26D-06.
      3 vectors produced by pass  8 Test12= 1.70D-14 5.56D-09 XBig12= 5.46D-13 1.20D-07.
      2 vectors produced by pass  9 Test12= 1.70D-14 5.56D-09 XBig12= 3.60D-15 9.77D-09.
 InvSVY:  IOpt=1 It=  1 EMax= 9.99D-16
 Solved reduced A of dimension   123 with    15 vectors.
 FullF1:  Do perturbations      1 to      18.
 Saving first derivative matrices.
 End of Minotr F.D. properties file   721 does not exist.
 End of Minotr F.D. properties file   722 does not exist.
 End of Minotr F.D. properties file   788 does not exist.
 Leave Link 1002 at Mon Feb 21 20:53:37 2022, MaxMem= 16106127360 cpu:              78.8 elap:               2.8
 (Enter /sw/contrib/gaussian/g16/B01/g16/l811.exe)
 MDV= 16106127360.
 Form MO integral derivatives with frozen-active canonical formalism.
 MOERI=1 MOERIx=1 NAtoms=     5 NAtomX=     5.
 Discarding MO integrals.
 MO basis two electron integral derivatives will not be stored on disk.
 IAlg= 3 DoFC=T DoPWx=T Debug=F.
 Frozen-core window:  NFC=   4 NFV=   0.
 Reordered first order wavefunction length =     18678272
 In DefCFB: NBatch=  1 ICI= 16 ICA=191 LFMax= 96
            Large arrays: LIAPS=   619940160 LIARS=   288257200 words.
 In StABat: MaxSiz= 55 MinSiz= 25 NAtomB=  5
 DoIAMN: NPSUse= 28.
 Leave Link  811 at Mon Feb 21 20:55:01 2022, MaxMem= 16106127360 cpu:            2352.2 elap:              84.2
 (Enter /sw/contrib/gaussian/g16/B01/g16/l804.exe)
 Frozen-core window:  NFC=   4 NFV=   0.
 Closed-shell transformation, MDV= 16106127360 ITran=4 ISComp=1.
 Semi-Direct transformation.
 ModeAB=           2 MOrb=            16 LenV=   16104923079
 LASXX=     67341636 LTotXX=    67341636 LenRXX=    67341636
 LTotAB=    68301760 MaxLAS=    99807120 LenRXY=    99807120
 NonZer=   134683272 LenScr=   202817536 LnRSAI=           0
 LnScr1=           0 LExtra=           0 Total=    369966292
 MaxDsk=          -1 SrtSym=           F ITran=            4
 DoSDTr:  NPSUse= 28
 JobTyp=0 Pass  1:  I=   1 to  16.
 (rs|ai) integrals will be sorted in core.
 Complete sort for first half transformation.
 First half transformation complete.
 Begin second half transformation for I=  10.
 Begin second half transformation for I=  10.
 Complete sort for second half transformation.
 Second half transformation complete.
 Spin components of T(2) and E(2):
     alpha-alpha T2 =       0.3406643496D-01 E2=     -0.1224387463D+00
     alpha-beta  T2 =       0.1869448844D+00 E2=     -0.7003018688D+00
     beta-beta   T2 =       0.3406643496D-01 E2=     -0.1224387463D+00
 ANorm=    0.1584347029D+01
 E2 =    -0.9451793613D+00 EUMP2 =    -0.28044653144598D+03
 Leave Link  804 at Mon Feb 21 20:55:17 2022, MaxMem= 16106127360 cpu:             441.8 elap:              15.9
 (Enter /sw/contrib/gaussian/g16/B01/g16/l1002.exe)
 Minotr:  Closed shell wavefunction.
          Computing MP2/KS-MP2 derivatives.
          Using Z-Vector for PSCF gradient.
          Skipping F1 and S1 gradient terms here.
          IDoAtm=11111
          Frozen-core window.
          Using MO integrals in the linear equations.
          Forming densities via direct SCF.
          Differentiating once with respect to electric field.
                with respect to dipole field.
          Differentiating once with respect to nuclear coordinates.
          Using symmetry in CPHF.
          Requested convergence is 1.0D-10 RMS, and 1.0D-09 maximum.
          NewPWx=F KeepS1=T KeepF1=T KeepIn=T MapXYZ=F SortEE=F KeepMc=T.
          MDV=   16106127360 using IRadAn=       5.
          Solving linear equations separately, MaxMat=       0.
          There are     1 degrees of freedom in the 1st order CPHF.  IDoFFX=0 NUNeed=     1.
 FoFJK:  IHMeth= 1 ICntrl=       0 DoSepK=F KAlg= 0 I1Cent=           0 FoldK=F
 IRaf=         0 NMat=       1 IRICut=       1 DoRegI=T DoRafI=F ISym2E= 0 IDoP0=0 IntGTp=1.
 FoFCou: FMM=F IPFlag=           0 FMFlag=      100000 FMFlg1=           0
         NFxFlg=           0 DoJE=F BraDBF=F KetDBF=F FulRan=T
         wScrn=  0.000000 ICntrl=         0 IOpCl=  0 I1Cent=           0 NGrid=           0
         NMat0=    1 NMatS0=      1 NMatT0=    0 NMatD0=    1 NMtDS0=    0 NMtDT0=    0
 Symmetry not used in FoFCou.
 LinEq1:  Iter=  0 NonCon=     1 RMS=5.99D-03 Max=1.34D-01 NDo=     1
 LinEq1:  Iter=  1 NonCon=     1 RMS=1.92D-03 Max=3.85D-02 NDo=     1
 LinEq1:  Iter=  2 NonCon=     1 RMS=8.74D-04 Max=1.41D-02 NDo=     1
 LinEq1:  Iter=  3 NonCon=     1 RMS=3.89D-04 Max=7.83D-03 NDo=     1
 LinEq1:  Iter=  4 NonCon=     1 RMS=1.21D-04 Max=1.96D-03 NDo=     1
 LinEq1:  Iter=  5 NonCon=     1 RMS=4.78D-05 Max=7.62D-04 NDo=     1
 LinEq1:  Iter=  6 NonCon=     1 RMS=2.12D-05 Max=2.39D-04 NDo=     1
 LinEq1:  Iter=  7 NonCon=     1 RMS=8.40D-06 Max=1.58D-04 NDo=     1
 LinEq1:  Iter=  8 NonCon=     1 RMS=3.54D-06 Max=3.46D-05 NDo=     1
 LinEq1:  Iter=  9 NonCon=     1 RMS=9.50D-07 Max=1.32D-05 NDo=     1
 LinEq1:  Iter= 10 NonCon=     1 RMS=1.86D-07 Max=2.01D-06 NDo=     1
 LinEq1:  Iter= 11 NonCon=     1 RMS=3.44D-08 Max=3.50D-07 NDo=     1
 LinEq1:  Iter= 12 NonCon=     1 RMS=8.32D-09 Max=1.24D-07 NDo=     1
 LinEq1:  Iter= 13 NonCon=     1 RMS=1.51D-09 Max=2.58D-08 NDo=     1
 LinEq1:  Iter= 14 NonCon=     1 RMS=2.74D-10 Max=3.83D-09 NDo=     1
 LinEq1:  Iter= 15 NonCon=     0 RMS=4.84D-11 Max=5.60D-10 NDo=     1
 Linear equations converged to 1.000D-10 1.000D-09 after    15 iterations.
 End of Minotr F.D. properties file   721 does not exist.
 End of Minotr F.D. properties file   722 does not exist.
 End of Minotr F.D. properties file   788 does not exist.
 Leave Link 1002 at Mon Feb 21 20:55:19 2022, MaxMem= 16106127360 cpu:              64.2 elap:               2.3
 (Enter /sw/contrib/gaussian/g16/B01/g16/l1102.exe)
 Use density number 2.
 Symmetrizing basis deriv contribution to polar:
 IMax=3 JMax=2 DiffMx= 0.00D+00
 Leave Link 1102 at Mon Feb 21 20:55:19 2022, MaxMem= 16106127360 cpu:               1.1 elap:               0.1
 (Enter /sw/contrib/gaussian/g16/B01/g16/l1110.exe)
 Forming Gx(P) for generalized density number  2 NAtomX=     5.
 Integral derivatives from FoFJK, PRISM(SPDF).
 Do as many integral derivatives as possible in FoFJK.
 G2DrvN: MDV=   16106126844.
 G2DrvN: will do     6 centers at a time, making    1 passes.
 Calling FoFCou, ICntrl=  3107 FMM=F I1Cent=   0 AccDes= 0.00D+00.
 FoFJK:  IHMeth= 1 ICntrl=    3107 DoSepK=F KAlg= 0 I1Cent=           0 FoldK=F
 IRaf=         0 NMat=       1 IRICut=       1 DoRegI=T DoRafI=F ISym2E= 1 IDoP0=0 IntGTp=1.
 FoFCou: FMM=F IPFlag=           0 FMFlag=      100000 FMFlg1=           0
         NFxFlg=           0 DoJE=F BraDBF=F KetDBF=F FulRan=T
         wScrn=  0.000000 ICntrl=      3107 IOpCl=  0 I1Cent=           0 NGrid=           0
         NMat0=    1 NMatS0=      1 NMatT0=    0 NMatD0=    1 NMtDS0=    0 NMtDT0=    0
 Petite list used in FoFCou.
 End of G2Drv F.D. properties file   721 does not exist.
 End of G2Drv F.D. properties file   722 does not exist.
 End of G2Drv F.D. properties file   788 does not exist.
 Leave Link 1110 at Mon Feb 21 20:55:22 2022, MaxMem= 16106127360 cpu:              84.7 elap:               3.1
 (Enter /sw/contrib/gaussian/g16/B01/g16/l1112.exe)
 MP22nd: MDV=   16106127360
 This link is doing NAtomX=     5 total of    18 degrees of freedom.
 Using ON3 I/O method in MakUI.
 Frozen-core window:  NFC=   4 NFV=   0.
 Using Ix for Sx.
 Use MO integrals over full window.
 Using OV2 memory method for fx*t*t/D, MaxI=    16 DoOO2=F NP=  28.
 R2 and R3 integrals will be kept in memory, NReq=   915591705.
 FoFCou: FMM=F IPFlag=           0 FMFlag=           0 FMFlg1=           0
         NFxFlg=           0 DoJE=F BraDBF=F KetDBF=F FulRan=T
         wScrn=  0.000000 ICntrl=       600 IOpCl=  0 I1Cent=           0 NGrid=           0
         NMat0=    1 NMatS0=      1 NMatT0=    0 NMatD0=    1 NMtDS0=    0 NMtDT0=    0
 Symmetry not used in FoFCou.
 DD1Dir will call FoFMem   1 times, MxPair=       272
 NAB=   136 NAA=     0 NBB=     0.
 Symmetry is being used.
 FoFJK:  IHMeth= 1 ICntrl=       0 DoSepK=F KAlg= 0 I1Cent=           0 FoldK=F
 IRaf=         0 NMat=      18 IRICut=      45 DoRegI=T DoRafI=T ISym2E= 2 IDoP0=3 IntGTp=3.
 Discarding MO integrals.
 Leave Link 1112 at Mon Feb 21 20:55:55 2022, MaxMem= 16106127360 cpu:             911.5 elap:              32.8
 (Enter /sw/contrib/gaussian/g16/B01/g16/l601.exe)
 Copying SCF densities to generalized density rwf, IOpCl= 0 IROHF=0.

 **********************************************************************

            Population analysis using the MP2 Density.

 **********************************************************************

 Orbital symmetries:
       Occupied  (A') (A') (A') (A') (A') (A') (A') (A') (A') (A')
                 (A") (A') (A") (A') (A") (A')
       Virtual   (A') (A") (A') (A') (A') (A") (A') (A') (A") (A')
                 (A") (A') (A') (A') (A") (A') (A') (A") (A') (A')
                 (A') (A') (A') (A') (A") (A') (A') (A") (A') (A')
                 (A") (A') (A") (A') (A') (A") (A') (A') (A") (A')
                 (A") (A') (A") (A') (A') (A") (A') (A') (A") (A')
                 (A") (A') (A') (A') (A") (A') (A") (A') (A") (A')
                 (A') (A') (A") (A') (A') (A") (A') (A") (A') (A')
                 (A") (A') (A') (A") (A") (A') (A') (A") (A') (A')
                 (A') (A") (A') (A") (A') (A") (A') (A") (A') (A')
                 (A") (A') (A') (A") (A') (A") (A') (A") (A') (A')
                 (A") (A') (A") (A') (A') (A") (A') (A') (A") (A')
                 (A") (A') (A') (A') (A") (A') (A') (A') (A") (A')
                 (A") (A') (A") (A') (A') (A") (A") (A') (A") (A')
                 (A') (A') (A') (A") (A") (A") (A') (A') (A') (A')
                 (A") (A') (A") (A') (A') (A") (A') (A') (A') (A')
                 (A") (A') (A') (A") (A') (A") (A') (A") (A') (A")
                 (A') (A") (A') (A') (A") (A") (A") (A') (A") (A')
                 (A") (A') (A") (A') (A") (A') (A") (A") (A') (A')
                 (A') (A') (A') (A') (A') (A') (A') (A') (A') (A')
                 (A')
 The electronic state is 1-A'.
 Alpha  occ. eigenvalues --  -20.69158 -20.68487 -20.66101 -15.81224  -1.62268
 Alpha  occ. eigenvalues --   -1.49695  -1.25573  -0.94765  -0.77366  -0.75863
 Alpha  occ. eigenvalues --   -0.71149  -0.67979  -0.62109  -0.59084  -0.48600
 Alpha  occ. eigenvalues --   -0.47041
 Alpha virt. eigenvalues --    0.02950   0.07237   0.08561   0.10173   0.13405
 Alpha virt. eigenvalues --    0.13405   0.14402   0.15464   0.17808   0.19424
 Alpha virt. eigenvalues --    0.19975   0.20602   0.22081   0.23379   0.23716
 Alpha virt. eigenvalues --    0.26487   0.29465   0.30442   0.31076   0.34287
 Alpha virt. eigenvalues --    0.34999   0.38663   0.42129   0.43110   0.52578
 Alpha virt. eigenvalues --    0.53057   0.55920   0.58332   0.62693   0.63464
 Alpha virt. eigenvalues --    0.67399   0.68414   0.70894   0.71063   0.72464
 Alpha virt. eigenvalues --    0.72985   0.74635   0.78888   0.79123   0.80946
 Alpha virt. eigenvalues --    0.81209   0.82991   0.86830   0.90716   0.92156
 Alpha virt. eigenvalues --    0.92280   0.95679   0.98056   0.98428   1.01581
 Alpha virt. eigenvalues --    1.05222   1.05459   1.08148   1.11846   1.14019
 Alpha virt. eigenvalues --    1.18858   1.22420   1.23189   1.33804   1.34828
 Alpha virt. eigenvalues --    1.38325   1.45096   1.48811   1.51065   1.53929
 Alpha virt. eigenvalues --    1.56523   1.58017   1.61430   1.66326   1.66741
 Alpha virt. eigenvalues --    1.70478   1.79352   1.83357   1.83372   1.87544
 Alpha virt. eigenvalues --    1.91251   1.95537   1.99037   2.01046   2.07344
 Alpha virt. eigenvalues --    2.11843   2.13390   2.14817   2.22240   2.26027
 Alpha virt. eigenvalues --    2.26337   2.28993   2.31415   2.33948   2.38601
 Alpha virt. eigenvalues --    2.42122   2.42858   2.45744   2.46783   2.47583
 Alpha virt. eigenvalues --    2.50238   2.58980   2.59375   2.61564   2.62776
 Alpha virt. eigenvalues --    2.63503   2.66362   2.76279   2.83525   2.86522
 Alpha virt. eigenvalues --    2.87377   2.89469   2.90448   2.96585   3.02226
 Alpha virt. eigenvalues --    3.07386   3.11534   3.20493   3.23111   3.31342
 Alpha virt. eigenvalues --    3.34712   3.50513   3.65028   3.83860   3.84489
 Alpha virt. eigenvalues --    4.14753   4.15704   4.18265   4.25720   4.35631
 Alpha virt. eigenvalues --    4.39280   4.46332   4.51783   4.66908   4.70882
 Alpha virt. eigenvalues --    4.80861   4.81839   4.82655   4.89467   5.02121
 Alpha virt. eigenvalues --    5.07881   5.09823   5.14175   5.18611   5.24015
 Alpha virt. eigenvalues --    5.26910   5.31274   5.32820   5.35951   5.61040
 Alpha virt. eigenvalues --    5.67350   5.75028   5.82937   5.95819   6.16726
 Alpha virt. eigenvalues --    6.30615   6.34041   6.39357   6.49031   6.50088
 Alpha virt. eigenvalues --    6.61196   6.66750   6.69267   6.75652   6.76105
 Alpha virt. eigenvalues --    6.82433   6.90442   7.01249   7.05444   7.05685
 Alpha virt. eigenvalues --    7.08765   7.12646   7.14645   7.18043   7.22404
 Alpha virt. eigenvalues --    7.24054   7.30682   7.32461   7.34851   7.40042
 Alpha virt. eigenvalues --    7.43294   7.48683   7.60599   7.61428   7.63122
 Alpha virt. eigenvalues --    7.65996   7.77892   7.89595   8.09150   8.31395
 Alpha virt. eigenvalues --    8.40914   8.54546  13.37508  14.41340  15.15215
 Alpha virt. eigenvalues --   16.15049
          Condensed to atoms (all electrons):
               1          2          3          4          5
     1  H    0.589414   0.128857   0.019861   0.012266  -0.000697
     2  O    0.128857   8.316853  -0.170757  -0.092060   0.015137
     3  O    0.019861  -0.170757   8.470008  -0.136812  -0.032877
     4  N    0.012266  -0.092060  -0.136812   6.985309  -0.058517
     5  O   -0.000697   0.015137  -0.032877  -0.058517   8.269616
 Mulliken charges:
               1
     1  H    0.250299
     2  O   -0.198030
     3  O   -0.149423
     4  N    0.289815
     5  O   -0.192661
 Sum of Mulliken charges =  -0.00000
 Mulliken charges with hydrogens summed into heavy atoms:
               1
     2  O    0.052269
     3  O   -0.149423
     4  N    0.289815
     5  O   -0.192661
 APT charges:
               1
     1  H    0.300407
     2  O   -0.286324
     3  O   -0.507721
     4  N    0.888352
     5  O   -0.394714
 Sum of APT charges =  -0.00000
 APT charges with hydrogens summed into heavy atoms:
               1
     2  O    0.014083
     3  O   -0.507721
     4  N    0.888352
     5  O   -0.394714
 Electronic spatial extent (au):  <R**2>=            254.2421
 Charge=             -0.0000 electrons
 Dipole moment (field-independent basis, Debye):
    X=              0.5028    Y=              1.3818    Z=             -0.0000  Tot=              1.4704
 Quadrupole moment (field-independent basis, Debye-Ang):
   XX=            -22.4158   YY=            -18.6267   ZZ=            -22.0188
   XY=              3.2967   XZ=              0.0000   YZ=             -0.0000
 Traceless Quadrupole moment (field-independent basis, Debye-Ang):
   XX=             -1.3953   YY=              2.3937   ZZ=             -0.9984
   XY=              3.2967   XZ=              0.0000   YZ=             -0.0000
 Octapole moment (field-independent basis, Debye-Ang**2):
  XXX=              2.9480  YYY=             11.3233  ZZZ=              0.0000  XYY=              7.9589
  XXY=              6.6006  XXZ=             -0.0000  XZZ=             -1.5679  YZZ=             -0.8631
  YYZ=             -0.0000  XYZ=             -0.0000
 Hexadecapole moment (field-independent basis, Debye-Ang**3):
 XXXX=           -158.2096 YYYY=            -91.1482 ZZZZ=            -18.2662 XXXY=            -37.0576
 XXXZ=              0.0000 YYYX=            -31.1002 YYYZ=              0.0000 ZZZX=              0.0000
 ZZZY=              0.0000 XXYY=            -33.9689 XXZZ=            -30.8527 YYZZ=            -20.9349
 XXYZ=              0.0000 YYXZ=              0.0000 ZZXY=            -15.2391
 N-N= 1.166725777483D+02 E-N=-8.954393885515D+02  KE= 2.801870760941D+02
 Symmetry A'   KE= 2.662198919606D+02
 Symmetry A"   KE= 1.396718413350D+01
  Exact polarizability:  34.043   9.626  30.507  -0.000  -0.000  17.959
 Approx polarizability:  28.958   5.320  23.697  -0.000  -0.000  15.537
 No NMR shielding tensors so no spin-rotation constants.
 Leave Link  601 at Mon Feb 21 20:55:56 2022, MaxMem= 16106127360 cpu:               4.3 elap:               0.2
 (Enter /sw/contrib/gaussian/g16/B01/g16/l701.exe)
 ... and contract with generalized density number  2.
 Compute integral second derivatives.
 Leave Link  701 at Mon Feb 21 20:55:56 2022, MaxMem= 16106127360 cpu:               5.7 elap:               0.2
 (Enter /sw/contrib/gaussian/g16/B01/g16/l702.exe)
 L702 exits ... SP integral derivatives will be done elsewhere.
 Leave Link  702 at Mon Feb 21 20:55:56 2022, MaxMem= 16106127360 cpu:               0.9 elap:               0.1
 (Enter /sw/contrib/gaussian/g16/B01/g16/l703.exe)
 Integral derivatives from FoFJK, PRISM(SPDF).
 Compute integral second derivatives, UseDBF=F ICtDFT=           0.
 Calling FoFJK, ICntrl=  10100127 FMM=F ISym2X=1 I1Cent= 0 IOpClX= 0 NMat=1 NMatS=1 NMatT=0.
 FoFJK:  IHMeth= 1 ICntrl=10100127 DoSepK=F KAlg= 0 I1Cent=           0 FoldK=F
 IRaf=         0 NMat=       1 IRICut=       1 DoRegI=T DoRafI=F ISym2E= 1 IDoP0=0 IntGTp=1.
 FoFCou: FMM=F IPFlag=           0 FMFlag=      100000 FMFlg1=         800
         NFxFlg=           0 DoJE=F BraDBF=F KetDBF=F FulRan=T
         wScrn=  0.000000 ICntrl=  10100127 IOpCl=  0 I1Cent=           0 NGrid=           0
         NMat0=    1 NMatS0=      1 NMatT0=    0 NMatD0=    1 NMtDS0=    0 NMtDT0=    0
 Petite list used in FoFCou.
 Leave Link  703 at Mon Feb 21 20:56:11 2022, MaxMem= 16106127360 cpu:             426.0 elap:              15.3
 (Enter /sw/contrib/gaussian/g16/B01/g16/l716.exe)
 Dipole        = 1.97808082D-01 5.43649763D-01-8.93556955D-34
 Polarizability= 3.40433858D+01 9.62613716D+00 3.05069038D+01
                -7.70062573D-31-6.28649964D-31 1.79588879D+01
 Full mass-weighted force constant matrix:
 Low frequencies --- -274.7923 -105.7485    0.0004    0.0005    0.0010   25.4741
 Low frequencies ---   40.7879  228.3888  340.3905
 ******    1 imaginary frequencies (negative Signs) ****** 
 Diagonal vibrational polarizability:
       14.7666493      27.1608994      44.9642398
 Harmonic frequencies (cm**-1), IR intensities (KM/Mole), Raman scattering
 activities (A**4/AMU), depolarization ratios for plane and unpolarized
 incident light, reduced masses (AMU), force constants (mDyne/A),
 and normal coordinates:
                      1                      2                      3
                     A"                     A"                     A'
 Frequencies --   -274.7138               226.2946               340.3853
 Red. masses --      1.1456                 9.8663                 8.5589
 Frc consts  --      0.0509                 0.2977                 0.5843
 IR Inten    --    124.2381                 1.2594                 7.6622
  Atom  AN      X      Y      Z        X      Y      Z        X      Y      Z
     1   1    -0.00  -0.00   1.00    -0.00   0.00  -0.61     0.55  -0.43  -0.00
     2   8     0.00  -0.00  -0.07     0.00   0.00  -0.29    -0.08  -0.37  -0.00
     3   8     0.00  -0.00  -0.04     0.00  -0.00   0.31    -0.14   0.44   0.00
     4   7     0.00   0.00   0.06    -0.00   0.00   0.52     0.03   0.24   0.00
     5   8     0.00  -0.00  -0.01    -0.00   0.00  -0.43     0.16  -0.26  -0.00
                      4                      5                      6
                     A'                     A'                     A'
 Frequencies --    437.5388               787.4678               965.8243
 Red. masses --     12.5318                12.9026                15.2686
 Frc consts  --      1.4135                 4.7140                 8.3916
 IR Inten    --    198.6884               177.2501                25.7049
  Atom  AN      X      Y      Z        X      Y      Z        X      Y      Z
     1   1     0.38   0.22  -0.00    -0.34   0.19   0.00    -0.19  -0.03   0.00
     2   8     0.33   0.23  -0.00     0.42   0.08   0.00    -0.52   0.03  -0.00
     3   8     0.19   0.42   0.00    -0.07  -0.27  -0.00     0.74  -0.03   0.00
     4   7    -0.36  -0.41   0.00    -0.15   0.62  -0.00    -0.12   0.26   0.00
     5   8    -0.23  -0.30  -0.00    -0.20  -0.37   0.00    -0.11  -0.22  -0.00
                      7                      8                      9
                     A'                     A'                     A'
 Frequencies --   1370.8824              1676.7879              3778.9879
 Red. masses --      1.1338                13.1331                 1.0676
 Frc consts  --      1.2554                21.7557                 8.9824
 IR Inten    --    156.1059               145.2796                83.8482
  Atom  AN      X      Y      Z        X      Y      Z        X      Y      Z
     1   1     0.99  -0.05  -0.00    -0.35   0.01   0.00     0.10   0.99   0.00
     2   8    -0.03   0.05  -0.00    -0.00  -0.04   0.00    -0.01  -0.06  -0.00
     3   8    -0.02  -0.05   0.00    -0.00   0.15  -0.00     0.00   0.00  -0.00
     4   7     0.02   0.01   0.00     0.70  -0.04  -0.00    -0.00  -0.00   0.00
     5   8    -0.03  -0.01  -0.00    -0.59  -0.08   0.00     0.00   0.00   0.00

 -------------------
 - Thermochemistry -
 -------------------
 Temperature   298.150 Kelvin.  Pressure   1.00000 Atm.
 Atom     1 has atomic number  1 and mass   1.00783
 Atom     2 has atomic number  8 and mass  15.99491
 Atom     3 has atomic number  8 and mass  15.99491
 Atom     4 has atomic number  7 and mass  14.00307
 Atom     5 has atomic number  8 and mass  15.99491
 Molecular mass:    62.99564 amu.
 Principal axes and moments of inertia in atomic units:
                           1         2         3
     Eigenvalues --    32.58474 363.05855 395.64329
           X            0.80628  -0.59153   0.00000
           Y            0.59153   0.80628   0.00000
           Z           -0.00000   0.00000   1.00000
 This molecule is an asymmetric top.
 Rotational symmetry number  1.
 Rotational temperatures (Kelvin)      2.65811     0.23857     0.21892
 Rotational constants (GHZ):          55.38608     4.97094     4.56154
    1 imaginary frequencies ignored.
 Zero-point vibrational energy      57326.1 (Joules/Mol)
                                   13.70126 (Kcal/Mol)
 Warning -- explicit consideration of   3 degrees of freedom as
           vibrations may cause significant error
 Vibrational temperatures:    325.59   489.74   629.52  1132.99  1389.61
          (Kelvin)           1972.39  2412.52  5437.12
 
 Zero-point correction=                           0.021834 (Hartree/Particle)
 Thermal correction to Energy=                    0.025969
 Thermal correction to Enthalpy=                  0.026913
 Thermal correction to Gibbs Free Energy=        -0.004307
 Sum of electronic and zero-point Energies=           -280.424697
 Sum of electronic and thermal Energies=              -280.420562
 Sum of electronic and thermal Enthalpies=            -280.419618
 Sum of electronic and thermal Free Energies=         -280.450838
 
                     E (Thermal)             CV                S
                      KCal/Mol        Cal/Mol-Kelvin    Cal/Mol-Kelvin
 Total                   16.296             11.990             65.708
 Electronic               0.000              0.000              0.000
 Translational            0.889              2.981             38.341
 Rotational               0.889              2.981             23.064
 Vibrational             14.518              6.029              4.304
 Vibration     1          0.650              1.801              1.908
 Vibration     2          0.720              1.595              1.210
 Vibration     3          0.798              1.388              0.834
                       Q            Log10(Q)             Ln(Q)
 Total Bot       0.957072D+02          1.980944          4.561293
 Total V=0       0.105691D+13         12.024036         27.686367
 Vib (Bot)       0.198853D-09         -9.701468        -22.338456
 Vib (Bot)    1  0.871763D+00         -0.059602         -0.137238
 Vib (Bot)    2  0.545381D+00         -0.263300         -0.606271
 Vib (Bot)    3  0.395871D+00         -0.402446         -0.926667
 Vib (V=0)       0.219596D+01          0.341624          0.786618
 Vib (V=0)    1  0.150497D+01          0.177529          0.408775
 Vib (V=0)    2  0.123989D+01          0.093384          0.215024
 Vib (V=0)    3  0.113774D+01          0.056044          0.129045
 Electronic      0.100000D+01          0.000000          0.000000
 Translational   0.196526D+08          7.293420         16.793719
 Rotational      0.244902D+05          4.388993         10.106030
 
                                                                title
                                                             IR Spectrum
 
     3                                                                      1         1                                              
     7                                                                      6         3             9     7           4  3   2       
     7                                                                      7         7             6     8           3  4   2       
     9                                                                      7         1             6     7           8  0   6       
 
     X                                                                      X         X             X     X           X  X   X       
     X                                                                      X         X             X     X           X              
     X                                                                      X         X             X     X           X              
     X                                                                      X         X                   X           X              
     X                                                                      X         X                   X           X              
     X                                                                      X         X                   X           X              
     X                                                                      X         X                   X           X              
     X                                                                      X         X                   X           X              
                                                                            X         X                   X           X              
                                                                            X         X                   X           X              
                                                                            X         X                   X           X              
                                                                            X         X                   X           X              
                                                                            X         X                   X           X              
                                                                            X         X                   X           X              
                                                                            X         X                   X           X              
                                                                                      X                   X           X              
                                                                                                          X           X              
                                                                                                          X           X              
                                                                                                                      X              
                                                                                                                      X              
 
 ***** Axes restored to original set *****
 -------------------------------------------------------------------
 Center     Atomic                   Forces (Hartrees/Bohr)
 Number     Number              X              Y              Z
 -------------------------------------------------------------------
      1        1           0.000403486    0.000000000   -0.000033537
      2        8           0.000720765    0.000000000    0.001486953
      3        8           0.004952117    0.000000000   -0.001074729
      4        7          -0.005934879   -0.000000000    0.006149975
      5        8          -0.000141489   -0.000000000   -0.006528661
 -------------------------------------------------------------------
 Cartesian Forces:  Max     0.006528661 RMS     0.003101197
 -----------------------------------------------------------------------------------------------
                       Internal Coordinate Forces (Hartree/Bohr or radian)
  Cent   Atom   N1       Length/X         N2         Alpha/Y        N3         Beta/Z          J
 -----------------------------------------------------------------------------------------------
      1  H 
      2  O        1   0.000034(     1)
      3  O        2  -0.001306(     2)      1  -0.000739(     5)
      4  N        3  -0.000876(     3)      2  -0.002814(     6)      1   0.000000(     8)     0
      5  O        4  -0.001940(     4)      3  -0.013795(     7)      2   0.000000(     9)     0
 -----------------------------------------------------------------------------------------------
 Internal  Forces:  Max     0.013795153 RMS     0.004772667
 Force constants in Cartesian coordinates: 
                1             2             3             4             5 
      1  0.646388D-01
      2  0.000000D+00 -0.243790D-02
      3  0.512423D-02  0.000000D+00  0.512443D+00
      4 -0.358894D-01  0.000000D+00 -0.162537D-01  0.272145D+00
      5  0.000000D+00  0.324055D-02  0.000000D+00  0.000000D+00  0.208691D-02
      6  0.484105D-01  0.000000D+00 -0.508584D+00  0.324235D-01  0.000000D+00
      7 -0.183549D-01  0.000000D+00  0.126984D-01 -0.220768D+00  0.000000D+00
      8  0.000000D+00  0.931434D-03  0.000000D+00  0.000000D+00 -0.622842D-02
      9 -0.531382D-01  0.000000D+00 -0.313391D-03 -0.192702D-01  0.000000D+00
     10 -0.950880D-02  0.000000D+00 -0.491071D-02 -0.161644D-01  0.000000D+00
     11  0.000000D+00 -0.275754D-02  0.000000D+00  0.000000D+00 -0.549265D-02
     12  0.522524D-02  0.000000D+00 -0.510286D-02  0.112912D-01  0.000000D+00
     13 -0.885619D-03  0.000000D+00  0.334177D-02  0.677474D-03  0.000000D+00
     14  0.000000D+00  0.102346D-02  0.000000D+00  0.000000D+00  0.639362D-02
     15 -0.562169D-02  0.000000D+00  0.155661D-02 -0.819088D-02  0.000000D+00
                6             7             8             9            10 
      6  0.594770D+00
      7 -0.207971D-01  0.339355D+00
      8  0.000000D+00  0.000000D+00  0.290074D-02
      9 -0.786542D-01  0.306475D-01  0.000000D+00  0.177963D+00
     10 -0.534217D-01 -0.810818D-01  0.000000D+00  0.179145D+00  0.826750D+00
     11  0.000000D+00  0.000000D+00  0.117693D-01  0.000000D+00  0.000000D+00
     12  0.165225D-01  0.642839D-01  0.000000D+00 -0.785812D-01 -0.534077D-02
     13 -0.661528D-02 -0.191498D-01  0.000000D+00 -0.137384D+00 -0.719995D+00
     14  0.000000D+00  0.000000D+00 -0.937305D-02  0.000000D+00  0.000000D+00
     15 -0.240543D-01 -0.868327D-01  0.000000D+00 -0.204143D-01 -0.115472D+00
               11            12            13            14            15 
     11  0.388992D-02
     12  0.000000D+00  0.190291D+00
     13  0.000000D+00 -0.754596D-01  0.739353D+00
     14 -0.740902D-02  0.000000D+00  0.000000D+00  0.936499D-02
     15  0.000000D+00 -0.123129D+00  0.216117D+00  0.000000D+00  0.166041D+00
 Force constants in internal coordinates: 
                1             2             3             4             5 
      1  0.512443D+00
      2 -0.105217D-01  0.280212D+00
      3  0.366294D-02  0.155890D-02  0.113424D+00
      4 -0.364175D-02  0.521792D-02  0.150348D+00  0.810360D+00
      5  0.978649D-02  0.651372D-01  0.228406D-02  0.440229D-02  0.216791D+00
      6  0.477639D-02  0.580852D-01  0.417777D-01  0.196505D-01  0.312310D-01
      7 -0.126733D-02  0.350434D-01  0.218312D-01  0.746225D-01  0.208976D-01
      8  0.000000D+00  0.000000D+00  0.000000D+00  0.000000D+00  0.000000D+00
      9  0.000000D+00  0.000000D+00  0.000000D+00  0.000000D+00  0.000000D+00
                6             7             8             9 
      6  0.282870D+00
      7  0.933901D-01  0.460855D+00
      8  0.000000D+00  0.000000D+00 -0.787354D-02
      9  0.000000D+00  0.000000D+00 -0.384276D-02  0.409047D-01
 Leave Link  716 at Mon Feb 21 20:56:11 2022, MaxMem= 16106127360 cpu:               1.6 elap:               0.1
 (Enter /sw/contrib/gaussian/g16/B01/g16/l103.exe)

 GradGradGradGradGradGradGradGradGradGradGradGradGradGradGradGradGradGrad
 Berny optimization.
 Search for a local minimum.
 Step number   1 out of a maximum of    2
 All quantities printed in internal units (Hartrees-Bohrs-Radians)
 Second derivative matrix not updated -- analytic derivatives used.
 The second derivative matrix:
                          r1        r2        r3        r4        a1
           r1           0.51244
           r2          -0.01052   0.28021
           r3           0.00366   0.00156   0.11342
           r4          -0.00364   0.00522   0.15035   0.81036
           a1           0.00979   0.06514   0.00228   0.00440   0.21679
           a2           0.00478   0.05809   0.04178   0.01965   0.03123
           a3          -0.00127   0.03504   0.02183   0.07462   0.02090
           d1           0.00000  -0.00000  -0.00000  -0.00000  -0.00000
           d2          -0.00000   0.00000   0.00000   0.00000   0.00000
                          a2        a3        d1        d2
           a2           0.28287
           a3           0.09339   0.46086
           d1          -0.00000  -0.00000  -0.00787
           d2          -0.00000  -0.00000  -0.00384   0.04090
 ITU=  0
     Eigenvalues ---   -0.00817   0.04121   0.07497   0.17525   0.22607
     Eigenvalues ---    0.32244   0.50393   0.51321   0.86109
 Eigenvalue     1 is  -8.17D-03 should be greater than     0.000000 Eigenvector:
                          d1        d2        a3        a2        r3
   1                    0.99695   0.07806   0.00000   0.00000  -0.00000
                          r4        a1        r1        r2
   1                    0.00000  -0.00000  -0.00000   0.00000
 Angle between quadratic step and forces=  16.74 degrees.
 Linear search not attempted -- first point.
 Variable       Old X    -DE/DX   Delta X   Delta X   Delta X     New X
                                 (Linear)    (Quad)   (Total)
    r1        1.83110   0.00003   0.00000   0.00000   0.00000   1.83110
    r2        2.74940  -0.00131   0.00000  -0.00097  -0.00097   2.74843
    r3        2.75670  -0.00088   0.00000  -0.00350  -0.00350   2.75320
    r4        2.21236  -0.00194   0.00000   0.00101   0.00101   2.21337
    a1        1.70335  -0.00074   0.00000  -0.00030  -0.00030   1.70305
    a2        1.78543  -0.00281   0.00000   0.00063   0.00063   1.78606
    a3        1.93277  -0.01380   0.00000  -0.02997  -0.02997   1.90280
    d1        3.14159   0.00000   0.00000   0.00000   0.00000   3.14159
    d2        3.14159   0.00000   0.00000   0.00000   0.00000   3.14159
         Item               Value     Threshold  Converged?
 Maximum Force            0.013795     0.000450     NO 
 RMS     Force            0.004773     0.000300     NO 
 Maximum Displacement     0.029971     0.001800     NO 
 RMS     Displacement     0.010072     0.001200     NO 
 Predicted change in Energy=-2.071443D-04
                       ----------------------------
                       ! Non-Optimized Parameters !
                       ! (Angstroms and Degrees)  !
 ----------------------                            ----------------------
 !      Name          Value   Derivative information (Atomic Units)     !
 ------------------------------------------------------------------------
 !       r1          0.969    -DE/DX =    0.0                           !
 !       r2          1.4544   -DE/DX =   -0.0013                        !
 !       r3          1.4569   -DE/DX =   -0.0009                        !
 !       r4          1.1713   -DE/DX =   -0.0019                        !
 !       a1         97.5777   -DE/DX =   -0.0007                        !
 !       a2        102.3335   -DE/DX =   -0.0028                        !
 !       a3        109.0224   -DE/DX =   -0.0138                        !
 !       d1        180.0      -DE/DX =    0.0                           !
 !       d2        180.0      -DE/DX =    0.0                           !
 ------------------------------------------------------------------------
 GradGradGradGradGradGradGradGradGradGradGradGradGradGradGradGradGradGrad

 Leave Link  103 at Mon Feb 21 20:56:11 2022, MaxMem= 16106127360 cpu:               0.8 elap:               0.1
 (Enter /sw/contrib/gaussian/g16/B01/g16/l9999.exe)

 ----------------------------------------------------------------------

 Electric dipole moment (input orientation):
 (Debye = 10**-18 statcoulomb cm , SI units = C m)
                  (au)            (Debye)         (10**-30 SI)
   Tot        0.578518D+00      0.147045D+01      0.490488D+01
   x         -0.142359D+00     -0.361842D+00     -0.120697D+01
   y          0.000000D+00      0.000000D+00      0.000000D+00
   z         -0.560729D+00     -0.142523D+01     -0.475406D+01

 Dipole polarizability, Alpha (input orientation).
 (esu units = cm**3 , SI units = C**2 m**2 J**-1)
 Alpha(0;0):
               (au)            (10**-24 esu)      (10**-40 SI)
   iso        0.275031D+02      0.407553D+01      0.453464D+01
   aniso      0.221883D+02      0.328797D+01      0.365836D+01
   xx         0.320892D+02      0.475513D+01      0.529080D+01
   yx         0.000000D+00      0.000000D+00      0.000000D+00
   yy         0.179589D+02      0.266123D+01      0.296102D+01
   zx         0.978543D+01      0.145005D+01      0.161340D+01
   zy         0.000000D+00      0.000000D+00      0.000000D+00
   zz         0.324611D+02      0.481023D+01      0.535211D+01

 ----------------------------------------------------------------------

 Dipole orientation:
     1         -0.00000000          0.00000000          0.00000000
     8         -0.45058956          0.00000000         -1.77479309
     8          2.10146813          0.00000000         -2.79763057
     7          1.64444720          0.00000000         -5.51618528
     8          3.55492831          0.00000000         -6.63179496

 Electric dipole moment (dipole orientation):
 (Debye = 10**-18 statcoulomb cm , SI units = C m)
                  (au)            (Debye)         (10**-30 SI)
   Tot        0.578518D+00      0.147045D+01      0.490488D+01
   x          0.000000D+00      0.000000D+00      0.000000D+00
   y          0.000000D+00      0.000000D+00      0.000000D+00
   z          0.578518D+00      0.147045D+01      0.490488D+01

 Dipole polarizability, Alpha (dipole orientation).
 (esu units = cm**3 , SI units = C**2 m**2 J**-1)
 Alpha(0;0):
               (au)            (10**-24 esu)      (10**-40 SI)
   iso        0.275031D+02      0.407553D+01      0.453464D+01
   aniso      0.221883D+02      0.328797D+01      0.365836D+01
   xx         0.274439D+02      0.406677D+01      0.452489D+01
   yx         0.000000D+00      0.000000D+00      0.000000D+00
   yy         0.179589D+02      0.266123D+01      0.296102D+01
   zx        -0.851166D+01     -0.126130D+01     -0.140338D+01
   zy         0.000000D+00      0.000000D+00      0.000000D+00
   zz         0.371064D+02      0.549860D+01      0.611802D+01

 ----------------------------------------------------------------------
 1\1\GINC-N2128\Freq\RMP2-FC\Aug-CC-pVTZ\H1N1O3\CGAVINH\21-Feb-2022\1\\
 #p freq mp2/aug-cc-pvtz density=current\\title\\0,1\H\O,1,r1\O,2,r2,1,
 a1\N,3,r3,2,a2,1,d1,0\O,4,r4,3,a3,2,d2,0\\r1=0.96897556\r2=1.45491931\
 r3=1.45878406\r4=1.17072885\a1=97.59494903\a2=102.29752444\a3=110.7395
 7795\d1=180.\d2=180.\\Version=ES64L-G16RevB.01\State=1-A'\HF=-279.5013
 521\MP2=-280.4465314\RMSD=3.874e-09\RMSF=3.101e-03\ZeroPoint=0.0218343
 \Thermal=0.025969\Dipole=-0.1423595,0.,-0.5607289\DipoleDeriv=0.267279
 8,0.,0.0487737,0.,0.3558557,0.,0.0835054,0.,0.2780863,-0.3248099,0.,-0
 .2060465,0.,-0.3139306,0.,-0.1088988,0.,-0.2202323,-0.054873,0.,0.1418
 894,0.,-0.0844945,0.,-0.7595049,0.,-1.3837965,0.8905478,0.,0.9173761,0
 .,0.0603104,0.,0.935935,0.,1.714199,-0.7781448,0.,-0.9019926,0.,-0.017
 7412,0.,-0.1510368,0.,-0.3882565\Polar=32.0892286,0.,17.9588879,9.7854
 294,0.,32.461061\Quadrupole=-1.4976781,-0.742251,2.2399291,0.,2.121111
 3,0.\PG=CS [SG(H1N1O3)]\NImag=1\\0.06463877,0.,-0.00243790,0.00512423,
 0.,0.51244344,-0.03588943,0.,-0.01625367,0.27214469,0.,0.00324055,0.,0
 .,0.00208691,0.04841047,0.,-0.50858380,0.03242353,0.,0.59476983,-0.018
 35492,0.,0.01269838,-0.22076834,0.,-0.02079705,0.33935485,0.,0.0009314
 3,0.,0.,-0.00622842,0.,0.,0.00290074,-0.05313825,0.,-0.00031339,-0.019
 27016,0.,-0.07865425,0.03064747,0.,0.17796310,-0.00950880,0.,-0.004910
 71,-0.01616438,0.,-0.05342166,-0.08108177,0.,0.17914511,0.82674985,0.,
 -0.00275754,0.,0.,-0.00549265,0.,0.,0.01176929,0.,0.,0.00388992,0.0052
 2524,0.,-0.00510286,0.01129118,0.,0.01652252,0.06428391,0.,-0.07858118
 ,-0.00534077,0.,0.19029063,-0.00088562,0.,0.00334177,0.00067747,0.,-0.
 00661528,-0.01914982,0.,-0.13738418,-0.71999490,0.,-0.07545956,0.73935
 286,0.,0.00102346,0.,0.,0.00639362,0.,0.,-0.00937305,0.,0.,-0.00740902
 ,0.,0.,0.00936499,-0.00562169,0.,0.00155661,-0.00819088,0.,-0.02405431
 ,-0.08683271,0.,-0.02041427,-0.11547197,0.,-0.12312909,0.21611725,0.,0
 .16604106\\-0.00040349,0.,0.00003354,-0.00072077,0.,-0.00148695,-0.004
 95212,0.,0.00107473,0.00593488,0.,-0.00614997,0.00014149,0.,0.00652866
 \\\@


 DIATOMIC MOLECULES ARE PECULIAR BECAUSE THEY ONLY HAVE TWO ENDS,
 AND THESE ENDS ARE VERY CLOSE TOGETHER.
 KLAUS RUEDENBERG, REV.MOD.PHYS. PG 176, 32, (1960)
 Job cpu time:       0 days  2 hours  0 minutes 47.5 seconds.
 Elapsed time:       0 days  0 hours  4 minutes 21.9 seconds.
 File lengths (MBytes):  RWF=   7239 Int=      0 D2E=      0 Chk=      8 Scr=      1
 Normal termination of Gaussian 16 at Mon Feb 21 20:56:12 2022.
