 Entering Gaussian System, Link 0=g16
 Input=hoono_a1_96p76424.gjf
 Output=hoono_a1_96p76424.log
 Initial command:
 /sw/contrib/gaussian/g16/B01/g16/l1.exe "/scr/Gau-25143.inp" -scrdir="/scr/"
 Entering Link 1 = /sw/contrib/gaussian/g16/B01/g16/l1.exe PID=     25144.
  
 Copyright (c) 1988-2017, Gaussian, Inc.  All Rights Reserved.
  
 This is part of the Gaussian(R) 16 program.  It is based on
 the Gaussian(R) 09 system (copyright 2009, Gaussian, Inc.),
 the Gaussian(R) 03 system (copyright 2003, Gaussian, Inc.),
 the Gaussian(R) 98 system (copyright 1998, Gaussian, Inc.),
 the Gaussian(R) 94 system (copyright 1995, Gaussian, Inc.),
 the Gaussian 92(TM) system (copyright 1992, Gaussian, Inc.),
 the Gaussian 90(TM) system (copyright 1990, Gaussian, Inc.),
 the Gaussian 88(TM) system (copyright 1988, Gaussian, Inc.),
 the Gaussian 86(TM) system (copyright 1986, Carnegie Mellon
 University), and the Gaussian 82(TM) system (copyright 1983,
 Carnegie Mellon University). Gaussian is a federally registered
 trademark of Gaussian, Inc.
  
 This software contains proprietary and confidential information,
 including trade secrets, belonging to Gaussian, Inc.
  
 This software is provided under written license and may be
 used, copied, transmitted, or stored only in accord with that
 written license.
  
 The following legend is applicable only to US Government
 contracts under FAR:
  
                    RESTRICTED RIGHTS LEGEND
  
 Use, reproduction and disclosure by the US Government is
 subject to restrictions as set forth in subparagraphs (a)
 and (c) of the Commercial Computer Software - Restricted
 Rights clause in FAR 52.227-19.
  
 Gaussian, Inc.
 340 Quinnipiac St., Bldg. 40, Wallingford CT 06492
  
  
 ---------------------------------------------------------------
 Warning -- This program may not be used in any manner that
 competes with the business of Gaussian, Inc. or will provide
 assistance to any competitor of Gaussian, Inc.  The licensee
 of this program is prohibited from giving any competitor of
 Gaussian, Inc. access to this program.  By using this program,
 the user acknowledges that Gaussian, Inc. is engaged in the
 business of creating and licensing software in the field of
 computational chemistry and represents and warrants to the
 licensee that it is not a competitor of Gaussian, Inc. and that
 it will not use this program in any manner prohibited above.
 ---------------------------------------------------------------
  

 Cite this work as:
 Gaussian 16, Revision B.01,
 M. J. Frisch, G. W. Trucks, H. B. Schlegel, G. E. Scuseria, 
 M. A. Robb, J. R. Cheeseman, G. Scalmani, V. Barone, 
 G. A. Petersson, H. Nakatsuji, X. Li, M. Caricato, A. V. Marenich, 
 J. Bloino, B. G. Janesko, R. Gomperts, B. Mennucci, H. P. Hratchian, 
 J. V. Ortiz, A. F. Izmaylov, J. L. Sonnenberg, D. Williams-Young, 
 F. Ding, F. Lipparini, F. Egidi, J. Goings, B. Peng, A. Petrone, 
 T. Henderson, D. Ranasinghe, V. G. Zakrzewski, J. Gao, N. Rega, 
 G. Zheng, W. Liang, M. Hada, M. Ehara, K. Toyota, R. Fukuda, 
 J. Hasegawa, M. Ishida, T. Nakajima, Y. Honda, O. Kitao, H. Nakai, 
 T. Vreven, K. Throssell, J. A. Montgomery, Jr., J. E. Peralta, 
 F. Ogliaro, M. J. Bearpark, J. J. Heyd, E. N. Brothers, K. N. Kudin, 
 V. N. Staroverov, T. A. Keith, R. Kobayashi, J. Normand, 
 K. Raghavachari, A. P. Rendell, J. C. Burant, S. S. Iyengar, 
 J. Tomasi, M. Cossi, J. M. Millam, M. Klene, C. Adamo, R. Cammi, 
 J. W. Ochterski, R. L. Martin, K. Morokuma, O. Farkas, 
 J. B. Foresman, and D. J. Fox, Gaussian, Inc., Wallingford CT, 2016.
 
 ******************************************
 Gaussian 16:  ES64L-G16RevB.01 20-Dec-2017
                21-Feb-2022 
 ******************************************
 %nproc=28
 Will use up to   28 processors via shared memory.
 %mem=120GB
 %chk=hoono_a1_96p76424.chk
 ---------------------------------------
 #p freq mp2/aug-cc-pvtz density=current
 ---------------------------------------
 1/10=4,30=1,38=1/1,3;
 2/12=2,17=6,18=5,40=1/2;
 3/5=16,6=1,7=10,11=9,25=1,30=1,71=2,140=1/1,2,3;
 4//1;
 5/5=2,38=5,98=1/2;
 8/6=3,8=1,10=1,19=11,30=-1/1;
 9/15=3,16=-3/6;
 11/6=1,8=1,15=11,17=12,24=-1,27=1,28=-2,29=300,32=6,42=3/1,2,10;
 10/6=2,21=1/2;
 8/6=4,8=1,10=1,19=11,30=-1/11,4;
 10/5=1,20=4/2;
 11/12=2,14=11,16=1,17=2,28=-2,42=3,76=2/2,10,12;
 6/7=2,8=2,9=2,10=2,22=-1/1;
 7/8=1,10=1,12=2,25=1,44=2/1,2,3,16;
 1/10=4,30=1/3;
 99//99;
 Leave Link    1 at Mon Feb 21 20:37:05 2022, MaxMem= 16106127360 cpu:               2.1 elap:               0.1
 (Enter /sw/contrib/gaussian/g16/B01/g16/l101.exe)
 -----
 title
 -----
 Symbolic Z-matrix:
 Charge =  0 Multiplicity = 1
 H
 O                    1    r1
 O                    2    r2       1    a1
 N                    3    r3       2    a2       1    d1       0
 O                    4    r4       3    a3       2    d2       0
       Variables:
  r1                    0.96898                  
  r2                    1.45492                  
  r3                    1.45878                  
  r4                    1.17073                  
  a1                   96.76424                  
  a2                  102.29752                  
  a3                  109.06955                  
  d1                  180.                       
  d2                  180.                       
 
 ITRead=  0  0  0  0  0
 MicOpt= -1 -1 -1 -1 -1
 NAtoms=      5 NQM=        5 NQMF=       0 NMMI=      0 NMMIF=      0
                NMic=       0 NMicF=      0.
                    Isotopes and Nuclear Properties:
 (Nuclear quadrupole moments (NQMom) in fm**2, nuclear magnetic moments (NMagM)
  in nuclear magnetons)

  Atom         1           2           3           4           5
 IAtWgt=           1          16          16          14          16
 AtmWgt=   1.0078250  15.9949146  15.9949146  14.0030740  15.9949146
 NucSpn=           1           0           0           2           0
 AtZEff=  -0.0000000  -0.0000000  -0.0000000  -0.0000000  -0.0000000
 NQMom=    0.0000000   0.0000000   0.0000000   2.0440000   0.0000000
 NMagM=    2.7928460   0.0000000   0.0000000   0.4037610   0.0000000
 AtZNuc=   1.0000000   8.0000000   8.0000000   7.0000000   8.0000000
 Leave Link  101 at Mon Feb 21 20:37:05 2022, MaxMem= 16106127360 cpu:               2.8 elap:               0.1
 (Enter /sw/contrib/gaussian/g16/B01/g16/l103.exe)

 GradGradGradGradGradGradGradGradGradGradGradGradGradGradGradGradGradGrad
 Berny optimization.
 Initialization pass.
                       ----------------------------
                       !    Initial Parameters    !
                       ! (Angstroms and Degrees)  !
 ----------------------                            ----------------------
 !      Name          Value   Derivative information (Atomic Units)     !
 ------------------------------------------------------------------------
 !       r1          0.969    calculate D2E/DX2 analytically            !
 !       r2          1.4549   calculate D2E/DX2 analytically            !
 !       r3          1.4588   calculate D2E/DX2 analytically            !
 !       r4          1.1707   calculate D2E/DX2 analytically            !
 !       a1         96.7642   calculate D2E/DX2 analytically            !
 !       a2        102.2975   calculate D2E/DX2 analytically            !
 !       a3        109.0696   calculate D2E/DX2 analytically            !
 !       d1        180.0      calculate D2E/DX2 analytically            !
 !       d2        180.0      calculate D2E/DX2 analytically            !
 ------------------------------------------------------------------------
 Trust Radius=3.00D-01 FncErr=1.00D-07 GrdErr=1.00D-07 EigMax=2.50D+02 EigMin=1.00D-04
 Number of steps in this run=      2 maximum allowed number of steps=      2.
 GradGradGradGradGradGradGradGradGradGradGradGradGradGradGradGradGradGrad

 Leave Link  103 at Mon Feb 21 20:37:05 2022, MaxMem= 16106127360 cpu:               0.5 elap:               0.0
 (Enter /sw/contrib/gaussian/g16/B01/g16/l202.exe)
                          Input orientation:                          
 ---------------------------------------------------------------------
 Center     Atomic      Atomic             Coordinates (Angstroms)
 Number     Number       Type             X           Y           Z
 ---------------------------------------------------------------------
      1          1           0        0.000000    0.000000    0.000000
      2          8           0        0.000000    0.000000    0.968976
      3          8           0        1.444792    0.000000    1.140342
      4          7           0        1.585454    0.000000    2.592329
      5          8           0        2.723662    0.000000    2.866351
 ---------------------------------------------------------------------
                    Distance matrix (angstroms):
                    1          2          3          4          5
     1  H    0.000000
     2  O    0.968976   0.000000
     3  O    1.840599   1.454919   0.000000
     4  N    3.038722   2.269127   1.458784   0.000000
     5  O    3.954023   3.319392   2.148165   1.170729   0.000000
 Stoichiometry    HNO3
 Framework group  CS[SG(HNO3)]
 Deg. of freedom     7
 Full point group                 CS      NOp   2
 Largest Abelian subgroup         CS      NOp   2
 Largest concise Abelian subgroup C1      NOp   1
                         Standard orientation:                         
 ---------------------------------------------------------------------
 Center     Atomic      Atomic             Coordinates (Angstroms)
 Number     Number       Type             X           Y           Z
 ---------------------------------------------------------------------
      1          1           0        1.534461    1.689450   -0.000000
      2          8           0        1.454030    0.723818   -0.000000
      3          8           0       -0.000000    0.672969    0.000000
      4          7           0       -0.260700   -0.762331    0.000000
      5          8           0       -1.417726   -0.940929    0.000000
 ---------------------------------------------------------------------
 Rotational constants (GHZ):          54.9027349           5.0135416           4.5940296
 Leave Link  202 at Mon Feb 21 20:37:05 2022, MaxMem= 16106127360 cpu:               0.8 elap:               0.1
 (Enter /sw/contrib/gaussian/g16/B01/g16/l301.exe)
 Standard basis: Aug-CC-pVTZ (5D, 7F)
 Ernie: Thresh=  0.10000D-02 Tol=  0.10000D-05 Strict=F.
 Ernie:  12 primitive shells out of 131 were deleted.
 There are   166 symmetry adapted cartesian basis functions of A'  symmetry.
 There are    79 symmetry adapted cartesian basis functions of A"  symmetry.
 There are   136 symmetry adapted basis functions of A'  symmetry.
 There are    71 symmetry adapted basis functions of A"  symmetry.
   207 basis functions,   315 primitive gaussians,   245 cartesian basis functions
    16 alpha electrons       16 beta electrons
       nuclear repulsion energy       116.8911627373 Hartrees.
 IExCor=    0 DFT=F Ex=HF Corr=None ExCW=0 ScaHFX=  1.000000
 ScaDFX=  1.000000  1.000000  1.000000  1.000000 ScalE2=  1.000000  1.000000
 IRadAn=      5 IRanWt=     -1 IRanGd=            0 ICorTp=0 IEmpDi=  4
 NAtoms=    5 NActive=    5 NUniq=    5 SFac= 1.00D+00 NAtFMM=   60 NAOKFM=F Big=F
 Integral buffers will be    131072 words long.
 Raffenetti 1 integral format.
 Two-electron integral symmetry is turned on.
 Leave Link  301 at Mon Feb 21 20:37:05 2022, MaxMem= 16106127360 cpu:               1.6 elap:               0.1
 (Enter /sw/contrib/gaussian/g16/B01/g16/l302.exe)
 NPDir=0 NMtPBC=     1 NCelOv=     1 NCel=       1 NClECP=     1 NCelD=      1
         NCelK=      1 NCelE2=     1 NClLst=     1 CellRange=     0.0.
 One-electron integrals computed using PRISM.
 One-electron integral symmetry used in STVInt
 NBasis=   207 RedAO= T EigKep=  1.81D-04  NBF=   136    71
 NBsUse=   207 1.00D-06 EigRej= -1.00D+00 NBFU=   136    71
 Leave Link  302 at Mon Feb 21 20:37:05 2022, MaxMem= 16106127360 cpu:               5.1 elap:               0.2
 (Enter /sw/contrib/gaussian/g16/B01/g16/l303.exe)
 DipDrv:  MaxL=1.
 Leave Link  303 at Mon Feb 21 20:37:05 2022, MaxMem= 16106127360 cpu:               0.8 elap:               0.1
 (Enter /sw/contrib/gaussian/g16/B01/g16/l401.exe)
 ExpMin= 2.53D-02 ExpMax= 1.53D+04 ExpMxC= 5.22D+02 IAcc=3 IRadAn=         5 AccDes= 0.00D+00
 Harris functional with IExCor=  205 and IRadAn=       5 diagonalized for initial guess.
 HarFok:  IExCor=  205 AccDes= 0.00D+00 IRadAn=         5 IDoV= 1 UseB2=F ITyADJ=14
 ICtDFT=  3500011 ScaDFX=  1.000000  1.000000  1.000000  1.000000
 FoFCou: FMM=F IPFlag=           0 FMFlag=      100000 FMFlg1=           0
         NFxFlg=           0 DoJE=T BraDBF=F KetDBF=T FulRan=T
         wScrn=  0.000000 ICntrl=       500 IOpCl=  0 I1Cent=   200000004 NGrid=           0
         NMat0=    1 NMatS0=      1 NMatT0=    0 NMatD0=    1 NMtDS0=    0 NMtDT0=    0
 Petite list used in FoFCou.
 Harris En= -279.628504283320    
 JPrj=0 DoOrth=F DoCkMO=F.
 Initial guess orbital symmetries:
       Occupied  (A') (A') (A') (A') (A') (A') (A') (A') (A') (A')
                 (A") (A') (A') (A") (A") (A')
       Virtual   (A") (A') (A') (A') (A') (A') (A") (A') (A') (A')
                 (A") (A') (A") (A') (A') (A") (A') (A") (A') (A')
                 (A') (A') (A') (A') (A') (A") (A') (A") (A') (A')
                 (A") (A') (A") (A') (A') (A") (A') (A") (A') (A')
                 (A") (A') (A") (A') (A") (A') (A') (A') (A") (A")
                 (A') (A') (A') (A') (A") (A') (A") (A') (A") (A')
                 (A') (A') (A") (A') (A') (A") (A') (A") (A') (A')
                 (A") (A') (A') (A") (A") (A') (A') (A") (A') (A')
                 (A') (A") (A') (A") (A') (A") (A') (A") (A') (A')
                 (A') (A") (A') (A") (A') (A") (A") (A') (A') (A")
                 (A') (A') (A") (A') (A') (A') (A') (A") (A") (A')
                 (A") (A') (A') (A') (A") (A') (A') (A') (A") (A')
                 (A") (A') (A') (A") (A") (A') (A') (A") (A") (A')
                 (A') (A') (A') (A") (A") (A') (A") (A') (A') (A')
                 (A') (A") (A") (A') (A') (A") (A') (A') (A') (A')
                 (A") (A') (A') (A") (A') (A") (A') (A") (A") (A')
                 (A') (A") (A') (A") (A') (A") (A") (A") (A') (A')
                 (A") (A') (A") (A') (A") (A') (A") (A") (A') (A')
                 (A') (A') (A') (A') (A') (A') (A') (A') (A') (A')
                 (A')
 The electronic state of the initial guess is 1-A'.
 Leave Link  401 at Mon Feb 21 20:37:06 2022, MaxMem= 16106127360 cpu:               6.7 elap:               0.3
 (Enter /sw/contrib/gaussian/g16/B01/g16/l502.exe)
 Keep R1 ints in memory in symmetry-blocked form, NReq=348887737.
 FoFCou: FMM=F IPFlag=           0 FMFlag=           0 FMFlg1=           0
         NFxFlg=           0 DoJE=F BraDBF=F KetDBF=F FulRan=T
         wScrn=  0.000000 ICntrl=       600 IOpCl=  0 I1Cent=           0 NGrid=           0
         NMat0=    1 NMatS0=  21528 NMatT0=    0 NMatD0=    1 NMtDS0=    0 NMtDT0=    0
 Petite list used in FoFCou.
 Closed shell SCF:
 Using DIIS extrapolation, IDIIS=  1040.
 NGot= 16106127360 LenX= 15988850015 LenY= 15988789549
 Requested convergence on RMS density matrix=1.00D-08 within 128 cycles.
 Requested convergence on MAX density matrix=1.00D-06.
 Requested convergence on             energy=1.00D-06.
 No special actions if energy rises.

 Cycle   1  Pass 1  IDiag  1:
 E= -279.370338814920    
 DIIS: error= 2.74D-02 at cycle   1 NSaved=   1.
 NSaved= 1 IEnMin= 1 EnMin= -279.370338814920     IErMin= 1 ErrMin= 2.74D-02
 ErrMax= 2.74D-02  0.00D+00 EMaxC= 1.00D-01 BMatC= 4.38D-01 BMatP= 4.38D-01
 IDIUse=3 WtCom= 7.26D-01 WtEn= 2.74D-01
 Coeff-Com:  0.100D+01
 Coeff-En:   0.100D+01
 Coeff:      0.100D+01
 Gap=     0.513 Goal=   None    Shift=    0.000
 GapD=    0.513 DampG=2.000 DampE=0.500 DampFc=1.0000 IDamp=-1.
 RMSDP=1.62D-03 MaxDP=9.93D-02              OVMax= 1.13D-01

 Cycle   2  Pass 1  IDiag  1:
 E= -279.452236366429     Delta-E=       -0.081897551509 Rises=F Damp=F
 DIIS: error= 1.79D-02 at cycle   2 NSaved=   2.
 NSaved= 2 IEnMin= 2 EnMin= -279.452236366429     IErMin= 2 ErrMin= 1.79D-02
 ErrMax= 1.79D-02  0.00D+00 EMaxC= 1.00D-01 BMatC= 7.19D-02 BMatP= 4.38D-01
 IDIUse=3 WtCom= 8.21D-01 WtEn= 1.79D-01
 Coeff-Com:  0.195D+00 0.805D+00
 Coeff-En:   0.000D+00 0.100D+01
 Coeff:      0.160D+00 0.840D+00
 Gap=     0.530 Goal=   None    Shift=    0.000
 RMSDP=9.01D-04 MaxDP=3.74D-02 DE=-8.19D-02 OVMax= 6.93D-02

 Cycle   3  Pass 1  IDiag  1:
 E= -279.481364092000     Delta-E=       -0.029127725571 Rises=F Damp=F
 DIIS: error= 1.04D-02 at cycle   3 NSaved=   3.
 NSaved= 3 IEnMin= 3 EnMin= -279.481364092000     IErMin= 3 ErrMin= 1.04D-02
 ErrMax= 1.04D-02  0.00D+00 EMaxC= 1.00D-01 BMatC= 2.88D-02 BMatP= 7.19D-02
 IDIUse=3 WtCom= 8.96D-01 WtEn= 1.04D-01
 Coeff-Com: -0.330D-01 0.378D+00 0.655D+00
 Coeff-En:   0.000D+00 0.241D+00 0.759D+00
 Coeff:     -0.296D-01 0.364D+00 0.666D+00
 Gap=     0.510 Goal=   None    Shift=    0.000
 RMSDP=3.77D-04 MaxDP=1.54D-02 DE=-2.91D-02 OVMax= 3.82D-02

 Cycle   4  Pass 1  IDiag  1:
 E= -279.500472904244     Delta-E=       -0.019108812244 Rises=F Damp=F
 DIIS: error= 1.29D-03 at cycle   4 NSaved=   4.
 NSaved= 4 IEnMin= 4 EnMin= -279.500472904244     IErMin= 4 ErrMin= 1.29D-03
 ErrMax= 1.29D-03  0.00D+00 EMaxC= 1.00D-01 BMatC= 4.94D-04 BMatP= 2.88D-02
 IDIUse=3 WtCom= 9.87D-01 WtEn= 1.29D-02
 Coeff-Com: -0.117D-01 0.574D-01 0.158D+00 0.796D+00
 Coeff-En:   0.000D+00 0.000D+00 0.000D+00 0.100D+01
 Coeff:     -0.115D-01 0.566D-01 0.156D+00 0.799D+00
 Gap=     0.502 Goal=   None    Shift=    0.000
 RMSDP=9.04D-05 MaxDP=2.78D-03 DE=-1.91D-02 OVMax= 1.12D-02

 Cycle   5  Pass 1  IDiag  1:
 E= -279.501150133392     Delta-E=       -0.000677229148 Rises=F Damp=F
 DIIS: error= 7.30D-04 at cycle   5 NSaved=   5.
 NSaved= 5 IEnMin= 5 EnMin= -279.501150133392     IErMin= 5 ErrMin= 7.30D-04
 ErrMax= 7.30D-04  0.00D+00 EMaxC= 1.00D-01 BMatC= 8.73D-05 BMatP= 4.94D-04
 IDIUse=3 WtCom= 9.93D-01 WtEn= 7.30D-03
 Coeff-Com:  0.614D-02-0.724D-01-0.118D+00 0.206D-01 0.116D+01
 Coeff-En:   0.000D+00 0.000D+00 0.000D+00 0.000D+00 0.100D+01
 Coeff:      0.609D-02-0.719D-01-0.117D+00 0.205D-01 0.116D+01
 Gap=     0.502 Goal=   None    Shift=    0.000
 RMSDP=7.63D-05 MaxDP=2.10D-03 DE=-6.77D-04 OVMax= 1.11D-02

 Cycle   6  Pass 1  IDiag  1:
 E= -279.501465904289     Delta-E=       -0.000315770897 Rises=F Damp=F
 DIIS: error= 2.89D-04 at cycle   6 NSaved=   6.
 NSaved= 6 IEnMin= 6 EnMin= -279.501465904289     IErMin= 6 ErrMin= 2.89D-04
 ErrMax= 2.89D-04  0.00D+00 EMaxC= 1.00D-01 BMatC= 1.68D-05 BMatP= 8.73D-05
 IDIUse=3 WtCom= 9.97D-01 WtEn= 2.89D-03
 Coeff-Com:  0.618D-03 0.133D-02 0.402D-02-0.130D+00-0.227D+00 0.135D+01
 Coeff-En:   0.000D+00 0.000D+00 0.000D+00 0.000D+00 0.000D+00 0.100D+01
 Coeff:      0.616D-03 0.133D-02 0.401D-02-0.129D+00-0.226D+00 0.135D+01
 Gap=     0.502 Goal=   None    Shift=    0.000
 RMSDP=4.53D-05 MaxDP=1.25D-03 DE=-3.16D-04 OVMax= 5.55D-03

 Cycle   7  Pass 1  IDiag  1:
 E= -279.501538731425     Delta-E=       -0.000072827135 Rises=F Damp=F
 DIIS: error= 1.25D-04 at cycle   7 NSaved=   7.
 NSaved= 7 IEnMin= 7 EnMin= -279.501538731425     IErMin= 7 ErrMin= 1.25D-04
 ErrMax= 1.25D-04  0.00D+00 EMaxC= 1.00D-01 BMatC= 4.62D-06 BMatP= 1.68D-05
 IDIUse=3 WtCom= 9.99D-01 WtEn= 1.25D-03
 Coeff-Com: -0.941D-03 0.136D-01 0.266D-01-0.252D-01-0.290D+00 0.400D+00
 Coeff-Com:  0.875D+00
 Coeff-En:   0.000D+00 0.000D+00 0.000D+00 0.000D+00 0.000D+00 0.000D+00
 Coeff-En:   0.100D+01
 Coeff:     -0.940D-03 0.136D-01 0.265D-01-0.251D-01-0.289D+00 0.400D+00
 Coeff:      0.876D+00
 Gap=     0.502 Goal=   None    Shift=    0.000
 RMSDP=1.33D-05 MaxDP=3.79D-04 DE=-7.28D-05 OVMax= 1.56D-03

 Cycle   8  Pass 1  IDiag  1:
 E= -279.501547745691     Delta-E=       -0.000009014266 Rises=F Damp=F
 DIIS: error= 5.71D-05 at cycle   8 NSaved=   8.
 NSaved= 8 IEnMin= 8 EnMin= -279.501547745691     IErMin= 8 ErrMin= 5.71D-05
 ErrMax= 5.71D-05  0.00D+00 EMaxC= 1.00D-01 BMatC= 6.07D-07 BMatP= 4.62D-06
 IDIUse=1 WtCom= 1.00D+00 WtEn= 0.00D+00
 Coeff-Com: -0.450D-03 0.346D-02 0.761D-02 0.275D-01-0.411D-01-0.197D+00
 Coeff-Com:  0.162D+00 0.104D+01
 Coeff:     -0.450D-03 0.346D-02 0.761D-02 0.275D-01-0.411D-01-0.197D+00
 Coeff:      0.162D+00 0.104D+01
 Gap=     0.502 Goal=   None    Shift=    0.000
 RMSDP=6.97D-06 MaxDP=2.04D-04 DE=-9.01D-06 OVMax= 7.52D-04

 Cycle   9  Pass 1  IDiag  1:
 E= -279.501549543483     Delta-E=       -0.000001797792 Rises=F Damp=F
 DIIS: error= 1.56D-05 at cycle   9 NSaved=   9.
 NSaved= 9 IEnMin= 9 EnMin= -279.501549543483     IErMin= 9 ErrMin= 1.56D-05
 ErrMax= 1.56D-05  0.00D+00 EMaxC= 1.00D-01 BMatC= 6.90D-08 BMatP= 6.07D-07
 IDIUse=1 WtCom= 1.00D+00 WtEn= 0.00D+00
 Coeff-Com:  0.123D-03-0.172D-02-0.307D-02-0.205D-02 0.342D-01-0.190D-03
 Coeff-Com: -0.164D+00-0.107D+00 0.124D+01
 Coeff:      0.123D-03-0.172D-02-0.307D-02-0.205D-02 0.342D-01-0.190D-03
 Coeff:     -0.164D+00-0.107D+00 0.124D+01
 Gap=     0.502 Goal=   None    Shift=    0.000
 RMSDP=1.94D-06 MaxDP=6.64D-05 DE=-1.80D-06 OVMax= 1.76D-04

 Cycle  10  Pass 1  IDiag  1:
 E= -279.501549703703     Delta-E=       -0.000000160220 Rises=F Damp=F
 DIIS: error= 4.24D-06 at cycle  10 NSaved=  10.
 NSaved=10 IEnMin=10 EnMin= -279.501549703703     IErMin=10 ErrMin= 4.24D-06
 ErrMax= 4.24D-06  0.00D+00 EMaxC= 1.00D-01 BMatC= 5.56D-09 BMatP= 6.90D-08
 IDIUse=1 WtCom= 1.00D+00 WtEn= 0.00D+00
 Coeff-Com:  0.310D-04-0.242D-03-0.322D-03-0.270D-02 0.162D-02 0.196D-01
 Coeff-Com: -0.123D-01-0.747D-01-0.804D-01 0.115D+01
 Coeff:      0.310D-04-0.242D-03-0.322D-03-0.270D-02 0.162D-02 0.196D-01
 Coeff:     -0.123D-01-0.747D-01-0.804D-01 0.115D+01
 Gap=     0.502 Goal=   None    Shift=    0.000
 RMSDP=5.05D-07 MaxDP=2.11D-05 DE=-1.60D-07 OVMax= 4.18D-05

 Cycle  11  Pass 1  IDiag  1:
 E= -279.501549716249     Delta-E=       -0.000000012545 Rises=F Damp=F
 DIIS: error= 2.04D-06 at cycle  11 NSaved=  11.
 NSaved=11 IEnMin=11 EnMin= -279.501549716249     IErMin=11 ErrMin= 2.04D-06
 ErrMax= 2.04D-06  0.00D+00 EMaxC= 1.00D-01 BMatC= 6.61D-10 BMatP= 5.56D-09
 IDIUse=1 WtCom= 1.00D+00 WtEn= 0.00D+00
 Coeff-Com: -0.213D-04 0.244D-03 0.487D-03 0.529D-03-0.429D-02-0.350D-02
 Coeff-Com:  0.205D-01 0.316D-01-0.139D+00-0.179D+00 0.127D+01
 Coeff:     -0.213D-04 0.244D-03 0.487D-03 0.529D-03-0.429D-02-0.350D-02
 Coeff:      0.205D-01 0.316D-01-0.139D+00-0.179D+00 0.127D+01
 Gap=     0.502 Goal=   None    Shift=    0.000
 RMSDP=1.78D-07 MaxDP=6.53D-06 DE=-1.25D-08 OVMax= 1.74D-05

 Cycle  12  Pass 1  IDiag  1:
 E= -279.501549718058     Delta-E=       -0.000000001810 Rises=F Damp=F
 DIIS: error= 5.89D-07 at cycle  12 NSaved=  12.
 NSaved=12 IEnMin=12 EnMin= -279.501549718058     IErMin=12 ErrMin= 5.89D-07
 ErrMax= 5.89D-07  0.00D+00 EMaxC= 1.00D-01 BMatC= 7.17D-11 BMatP= 6.61D-10
 IDIUse=1 WtCom= 1.00D+00 WtEn= 0.00D+00
 Coeff-Com:  0.124D-05-0.291D-04-0.629D-04 0.184D-03 0.108D-02-0.230D-02
 Coeff-Com: -0.410D-02 0.542D-02 0.417D-01-0.114D+00-0.279D+00 0.135D+01
 Coeff:      0.124D-05-0.291D-04-0.629D-04 0.184D-03 0.108D-02-0.230D-02
 Coeff:     -0.410D-02 0.542D-02 0.417D-01-0.114D+00-0.279D+00 0.135D+01
 Gap=     0.502 Goal=   None    Shift=    0.000
 RMSDP=7.17D-08 MaxDP=2.83D-06 DE=-1.81D-09 OVMax= 6.70D-06

 Cycle  13  Pass 1  IDiag  1:
 E= -279.501549718286     Delta-E=       -0.000000000228 Rises=F Damp=F
 DIIS: error= 1.68D-07 at cycle  13 NSaved=  13.
 NSaved=13 IEnMin=13 EnMin= -279.501549718286     IErMin=13 ErrMin= 1.68D-07
 ErrMax= 1.68D-07  0.00D+00 EMaxC= 1.00D-01 BMatC= 4.01D-12 BMatP= 7.17D-11
 IDIUse=1 WtCom= 1.00D+00 WtEn= 0.00D+00
 Coeff-Com:  0.128D-05-0.140D-04-0.224D-04-0.889D-04 0.122D-03 0.754D-03
 Coeff-Com: -0.803D-03-0.329D-02 0.547D-03 0.411D-01-0.356D-01-0.326D+00
 Coeff-Com:  0.132D+01
 Coeff:      0.128D-05-0.140D-04-0.224D-04-0.889D-04 0.122D-03 0.754D-03
 Coeff:     -0.803D-03-0.329D-02 0.547D-03 0.411D-01-0.356D-01-0.326D+00
 Coeff:      0.132D+01
 Gap=     0.502 Goal=   None    Shift=    0.000
 RMSDP=1.91D-08 MaxDP=5.61D-07 DE=-2.28D-10 OVMax= 1.56D-06

 Cycle  14  Pass 1  IDiag  1:
 E= -279.501549718301     Delta-E=       -0.000000000015 Rises=F Damp=F
 DIIS: error= 2.44D-08 at cycle  14 NSaved=  14.
 NSaved=14 IEnMin=14 EnMin= -279.501549718301     IErMin=14 ErrMin= 2.44D-08
 ErrMax= 2.44D-08  0.00D+00 EMaxC= 1.00D-01 BMatC= 1.95D-13 BMatP= 4.01D-12
 IDIUse=1 WtCom= 1.00D+00 WtEn= 0.00D+00
 Coeff-Com: -0.189D-06 0.310D-05 0.554D-05 0.447D-05-0.821D-04 0.459D-04
 Coeff-Com:  0.275D-03 0.230D-03-0.243D-02 0.144D-02 0.169D-01-0.256D-01
 Coeff-Com: -0.199D+00 0.121D+01
 Coeff:     -0.189D-06 0.310D-05 0.554D-05 0.447D-05-0.821D-04 0.459D-04
 Coeff:      0.275D-03 0.230D-03-0.243D-02 0.144D-02 0.169D-01-0.256D-01
 Coeff:     -0.199D+00 0.121D+01
 Gap=     0.502 Goal=   None    Shift=    0.000
 RMSDP=3.78D-09 MaxDP=9.11D-08 DE=-1.48D-11 OVMax= 3.40D-07

 SCF Done:  E(RHF) =  -279.501549718     A.U. after   14 cycles
            NFock= 14  Conv=0.38D-08     -V/T= 2.0023
 KE= 2.788484092322D+02 PE=-8.951089530206D+02 EE= 2.198678313327D+02
 Leave Link  502 at Mon Feb 21 20:37:09 2022, MaxMem= 16106127360 cpu:              54.9 elap:               3.6
 (Enter /sw/contrib/gaussian/g16/B01/g16/l801.exe)
 ExpMin= 2.53D-02 ExpMax= 1.53D+04 ExpMxC= 5.22D+02 IAcc=3 IRadAn=         5 AccDes= 0.00D+00
 HarFok:  IExCor=  205 AccDes= 0.00D+00 IRadAn=         5 IDoV=-2 UseB2=F ITyADJ=14
 ICtDFT= 12500011 ScaDFX=  1.000000  1.000000  1.000000  1.000000
 Largest valence mixing into a core orbital is  2.08D-04
 Largest core mixing into a valence orbital is  3.63D-05
 Range of M.O.s used for correlation:     5   207
 NBasis=   207 NAE=    16 NBE=    16 NFC=     4 NFV=     0
 NROrb=    203 NOA=    12 NOB=    12 NVA=   191 NVB=   191

 **** Warning!!: The largest alpha MO coefficient is  0.17489284D+02

 Leave Link  801 at Mon Feb 21 20:37:09 2022, MaxMem= 16106127360 cpu:               2.0 elap:               0.1
 (Enter /sw/contrib/gaussian/g16/B01/g16/l906.exe)
 Frozen-core derivative calculation, NFC=   4 NFV=   0.
 FulOut=F Deriv=T AODrv=T NAtomX=     5
   MMem=           0  MDisk=          12 MDiskD=          12
  W3Min=      811440 MinDsk=     2425030 NBas6D=         245
 NBas2D=       30762    NTT=       30135    LW2=     7400000
    MDV= 16105574283 MDiskM=      328644 NBas2p=       30702
 Disk-based method using ON**2 memory for 12 occupieds at a time.
 Permanent disk used for amplitudes=    11516536 words.
 Estimated scratch disk usage=   321251614 words.
 IMap=   1   2   3   4   5   6   7   8   9  10  11  12  13  14  15  16
 Actual    scratch disk usage=   310331678 words.
 JobTyp=1 Pass  1:  I=   5 to  16 NPSUse= 28 ParTrn=T ParDer=T DoDerP=T.
 (rs|ai) integrals will be sorted in core.
 Spin components of T(2) and E(2):
     alpha-alpha T2 =       0.3403346685D-01 E2=     -0.1224265511D+00
     alpha-beta  T2 =       0.1868847613D+00 E2=     -0.7003108610D+00
     beta-beta   T2 =       0.3403346685D-01 E2=     -0.1224265511D+00
 The integrals were generated   1 times.
 ANorm=    0.1120246265D+01
 E2 =    -0.9451639631D+00 EUMP2 =    -0.28044671368144D+03
 Leave Link  906 at Mon Feb 21 20:38:47 2022, MaxMem= 16106127360 cpu:            2716.5 elap:              97.2
 (Enter /sw/contrib/gaussian/g16/B01/g16/l1101.exe)
 Using compressed Sx but separate Hx and Fx, NAtomX=     5.
 Will process      6 centers per pass.
 Leave Link 1101 at Mon Feb 21 20:38:47 2022, MaxMem= 16106127360 cpu:               7.3 elap:               0.3
 (Enter /sw/contrib/gaussian/g16/B01/g16/l1102.exe)
 Leave Link 1102 at Mon Feb 21 20:38:47 2022, MaxMem= 16106127360 cpu:               0.6 elap:               0.0
 (Enter /sw/contrib/gaussian/g16/B01/g16/l1110.exe)
 Forming Gx(P) for the SCF density, NAtomX=     5.
 Integral derivatives from FoFJK, PRISM(SPDF).
 Do as many integral derivatives as possible in FoFJK.
 G2DrvN: MDV=   16106126844.
 G2DrvN: will do     6 centers at a time, making    1 passes.
 Calling FoFCou, ICntrl=  3107 FMM=F I1Cent=   0 AccDes= 0.00D+00.
 FoFJK:  IHMeth= 1 ICntrl=    3107 DoSepK=F KAlg= 0 I1Cent=           0 FoldK=F
 IRaf=         0 NMat=       1 IRICut=       1 DoRegI=T DoRafI=F ISym2E= 1 IDoP0=0 IntGTp=1.
 FoFCou: FMM=F IPFlag=           0 FMFlag=      100000 FMFlg1=           0
         NFxFlg=           0 DoJE=F BraDBF=F KetDBF=F FulRan=T
         wScrn=  0.000000 ICntrl=      3107 IOpCl=  0 I1Cent=           0 NGrid=           0
         NMat0=    1 NMatS0=      1 NMatT0=    0 NMatD0=    1 NMtDS0=    0 NMtDT0=    0
 Petite list used in FoFCou.
 End of G2Drv F.D. properties file   721 does not exist.
 End of G2Drv F.D. properties file   722 does not exist.
 End of G2Drv F.D. properties file   788 does not exist.
 Leave Link 1110 at Mon Feb 21 20:38:50 2022, MaxMem= 16106127360 cpu:              84.1 elap:               3.0
 (Enter /sw/contrib/gaussian/g16/B01/g16/l1002.exe)
 Minotr:  Closed shell wavefunction.
          IDoAtm=11111
          Frozen-core window.
          Direct CPHF calculation.
          Differentiating once with respect to electric field.
                with respect to dipole field.
          Differentiating once with respect to nuclear coordinates.
          Requested convergence is 1.0D-08 RMS, and 1.0D-07 maximum.
          Secondary convergence is 1.0D-12 RMS, and 1.0D-12 maximum.
          NewPWx=T KeepS1=T KeepF1=T KeepIn=T MapXYZ=F SortEE=F KeepMc=T.
 Keep R1 ints in memory in symmetry-blocked form, NReq=348888983.
 FoFCou: FMM=F IPFlag=           0 FMFlag=           0 FMFlg1=           0
         NFxFlg=           0 DoJE=F BraDBF=F KetDBF=F FulRan=T
         wScrn=  0.000000 ICntrl=       600 IOpCl=  0 I1Cent=           0 NGrid=           0
         NMat0=    1 NMatS0=  21528 NMatT0=    0 NMatD0=    1 NMtDS0=    0 NMtDT0=    0
 Petite list used in FoFCou.
          MDV=   16106127360 using IRadAn=       1.
          Solving linear equations simultaneously, MaxMat=       0.
          There are    18 degrees of freedom in the 1st order CPHF.  IDoFFX=6 NUNeed=    18.
     15 vectors produced by pass  0 Test12= 1.70D-14 5.56D-09 XBig12= 8.29D+00 1.07D+00.
 AX will form    15 AO Fock derivatives at one time.
     15 vectors produced by pass  1 Test12= 1.70D-14 5.56D-09 XBig12= 1.34D+00 2.65D-01.
     15 vectors produced by pass  2 Test12= 1.70D-14 5.56D-09 XBig12= 1.41D-01 9.74D-02.
     15 vectors produced by pass  3 Test12= 1.70D-14 5.56D-09 XBig12= 4.92D-03 1.09D-02.
     15 vectors produced by pass  4 Test12= 1.70D-14 5.56D-09 XBig12= 9.88D-05 1.93D-03.
     15 vectors produced by pass  5 Test12= 1.70D-14 5.56D-09 XBig12= 1.41D-06 1.80D-04.
     15 vectors produced by pass  6 Test12= 1.70D-14 5.56D-09 XBig12= 1.11D-08 1.47D-05.
     12 vectors produced by pass  7 Test12= 1.70D-14 5.56D-09 XBig12= 8.18D-11 1.31D-06.
      3 vectors produced by pass  8 Test12= 1.70D-14 5.56D-09 XBig12= 5.68D-13 1.20D-07.
      2 vectors produced by pass  9 Test12= 1.70D-14 5.56D-09 XBig12= 3.71D-15 1.04D-08.
 InvSVY:  IOpt=1 It=  1 EMax= 8.88D-16
 Solved reduced A of dimension   122 with    15 vectors.
 FullF1:  Do perturbations      1 to      18.
 Saving first derivative matrices.
 End of Minotr F.D. properties file   721 does not exist.
 End of Minotr F.D. properties file   722 does not exist.
 End of Minotr F.D. properties file   788 does not exist.
 Leave Link 1002 at Mon Feb 21 20:38:53 2022, MaxMem= 16106127360 cpu:              81.1 elap:               2.9
 (Enter /sw/contrib/gaussian/g16/B01/g16/l811.exe)
 MDV= 16106127360.
 Form MO integral derivatives with frozen-active canonical formalism.
 MOERI=1 MOERIx=1 NAtoms=     5 NAtomX=     5.
 Discarding MO integrals.
 MO basis two electron integral derivatives will not be stored on disk.
 IAlg= 3 DoFC=T DoPWx=T Debug=F.
 Frozen-core window:  NFC=   4 NFV=   0.
 Reordered first order wavefunction length =     18678272
 In DefCFB: NBatch=  1 ICI= 16 ICA=191 LFMax= 96
            Large arrays: LIAPS=   619940160 LIARS=   288257200 words.
 In StABat: MaxSiz= 55 MinSiz= 25 NAtomB=  5
 DoIAMN: NPSUse= 28.
 Leave Link  811 at Mon Feb 21 20:40:12 2022, MaxMem= 16106127360 cpu:            2215.6 elap:              79.3
 (Enter /sw/contrib/gaussian/g16/B01/g16/l804.exe)
 Frozen-core window:  NFC=   4 NFV=   0.
 Closed-shell transformation, MDV= 16106127360 ITran=4 ISComp=1.
 Semi-Direct transformation.
 ModeAB=           2 MOrb=            16 LenV=   16104923037
 LASXX=     67341636 LTotXX=    67341636 LenRXX=    67341636
 LTotAB=    68301760 MaxLAS=    99807120 LenRXY=    99807120
 NonZer=   134683272 LenScr=   202817536 LnRSAI=           0
 LnScr1=           0 LExtra=           0 Total=    369966292
 MaxDsk=          -1 SrtSym=           F ITran=            4
 DoSDTr:  NPSUse= 28
 JobTyp=0 Pass  1:  I=   1 to  16.
 (rs|ai) integrals will be sorted in core.
 Complete sort for first half transformation.
 First half transformation complete.
 Begin second half transformation for I=  10.
 Begin second half transformation for I=  10.
 Complete sort for second half transformation.
 Second half transformation complete.
 Spin components of T(2) and E(2):
     alpha-alpha T2 =       0.3403346685D-01 E2=     -0.1224265511D+00
     alpha-beta  T2 =       0.1868847613D+00 E2=     -0.7003108610D+00
     beta-beta   T2 =       0.3403346685D-01 E2=     -0.1224265511D+00
 ANorm=    0.1584267462D+01
 E2 =    -0.9451639631D+00 EUMP2 =    -0.28044671368144D+03
 Leave Link  804 at Mon Feb 21 20:40:30 2022, MaxMem= 16106127360 cpu:             480.5 elap:              17.3
 (Enter /sw/contrib/gaussian/g16/B01/g16/l1002.exe)
 Minotr:  Closed shell wavefunction.
          Computing MP2/KS-MP2 derivatives.
          Using Z-Vector for PSCF gradient.
          Skipping F1 and S1 gradient terms here.
          IDoAtm=11111
          Frozen-core window.
          Using MO integrals in the linear equations.
          Forming densities via direct SCF.
          Differentiating once with respect to electric field.
                with respect to dipole field.
          Differentiating once with respect to nuclear coordinates.
          Using symmetry in CPHF.
          Requested convergence is 1.0D-10 RMS, and 1.0D-09 maximum.
          NewPWx=F KeepS1=T KeepF1=T KeepIn=T MapXYZ=F SortEE=F KeepMc=T.
          MDV=   16106127360 using IRadAn=       5.
          Solving linear equations separately, MaxMat=       0.
          There are     1 degrees of freedom in the 1st order CPHF.  IDoFFX=0 NUNeed=     1.
 FoFJK:  IHMeth= 1 ICntrl=       0 DoSepK=F KAlg= 0 I1Cent=           0 FoldK=F
 IRaf=         0 NMat=       1 IRICut=       1 DoRegI=T DoRafI=F ISym2E= 0 IDoP0=0 IntGTp=1.
 FoFCou: FMM=F IPFlag=           0 FMFlag=      100000 FMFlg1=           0
         NFxFlg=           0 DoJE=F BraDBF=F KetDBF=F FulRan=T
         wScrn=  0.000000 ICntrl=         0 IOpCl=  0 I1Cent=           0 NGrid=           0
         NMat0=    1 NMatS0=      1 NMatT0=    0 NMatD0=    1 NMtDS0=    0 NMtDT0=    0
 Symmetry not used in FoFCou.
 LinEq1:  Iter=  0 NonCon=     1 RMS=5.96D-03 Max=1.32D-01 NDo=     1
 LinEq1:  Iter=  1 NonCon=     1 RMS=1.90D-03 Max=3.82D-02 NDo=     1
 LinEq1:  Iter=  2 NonCon=     1 RMS=8.68D-04 Max=1.42D-02 NDo=     1
 LinEq1:  Iter=  3 NonCon=     1 RMS=3.86D-04 Max=7.79D-03 NDo=     1
 LinEq1:  Iter=  4 NonCon=     1 RMS=1.19D-04 Max=1.91D-03 NDo=     1
 LinEq1:  Iter=  5 NonCon=     1 RMS=4.52D-05 Max=7.21D-04 NDo=     1
 LinEq1:  Iter=  6 NonCon=     1 RMS=2.02D-05 Max=2.36D-04 NDo=     1
 LinEq1:  Iter=  7 NonCon=     1 RMS=8.13D-06 Max=1.59D-04 NDo=     1
 LinEq1:  Iter=  8 NonCon=     1 RMS=3.47D-06 Max=3.41D-05 NDo=     1
 LinEq1:  Iter=  9 NonCon=     1 RMS=9.45D-07 Max=1.31D-05 NDo=     1
 LinEq1:  Iter= 10 NonCon=     1 RMS=1.86D-07 Max=2.02D-06 NDo=     1
 LinEq1:  Iter= 11 NonCon=     1 RMS=3.46D-08 Max=3.56D-07 NDo=     1
 LinEq1:  Iter= 12 NonCon=     1 RMS=8.34D-09 Max=1.29D-07 NDo=     1
 LinEq1:  Iter= 13 NonCon=     1 RMS=1.50D-09 Max=2.57D-08 NDo=     1
 LinEq1:  Iter= 14 NonCon=     1 RMS=2.72D-10 Max=3.83D-09 NDo=     1
 LinEq1:  Iter= 15 NonCon=     0 RMS=4.92D-11 Max=5.54D-10 NDo=     1
 Linear equations converged to 1.000D-10 1.000D-09 after    15 iterations.
 End of Minotr F.D. properties file   721 does not exist.
 End of Minotr F.D. properties file   722 does not exist.
 End of Minotr F.D. properties file   788 does not exist.
 Leave Link 1002 at Mon Feb 21 20:40:32 2022, MaxMem= 16106127360 cpu:              64.6 elap:               2.4
 (Enter /sw/contrib/gaussian/g16/B01/g16/l1102.exe)
 Use density number 2.
 Symmetrizing basis deriv contribution to polar:
 IMax=3 JMax=2 DiffMx= 0.00D+00
 Leave Link 1102 at Mon Feb 21 20:40:32 2022, MaxMem= 16106127360 cpu:               0.7 elap:               0.1
 (Enter /sw/contrib/gaussian/g16/B01/g16/l1110.exe)
 Forming Gx(P) for generalized density number  2 NAtomX=     5.
 Integral derivatives from FoFJK, PRISM(SPDF).
 Do as many integral derivatives as possible in FoFJK.
 G2DrvN: MDV=   16106126844.
 G2DrvN: will do     6 centers at a time, making    1 passes.
 Calling FoFCou, ICntrl=  3107 FMM=F I1Cent=   0 AccDes= 0.00D+00.
 FoFJK:  IHMeth= 1 ICntrl=    3107 DoSepK=F KAlg= 0 I1Cent=           0 FoldK=F
 IRaf=         0 NMat=       1 IRICut=       1 DoRegI=T DoRafI=F ISym2E= 1 IDoP0=0 IntGTp=1.
 FoFCou: FMM=F IPFlag=           0 FMFlag=      100000 FMFlg1=           0
         NFxFlg=           0 DoJE=F BraDBF=F KetDBF=F FulRan=T
         wScrn=  0.000000 ICntrl=      3107 IOpCl=  0 I1Cent=           0 NGrid=           0
         NMat0=    1 NMatS0=      1 NMatT0=    0 NMatD0=    1 NMtDS0=    0 NMtDT0=    0
 Petite list used in FoFCou.
 End of G2Drv F.D. properties file   721 does not exist.
 End of G2Drv F.D. properties file   722 does not exist.
 End of G2Drv F.D. properties file   788 does not exist.
 Leave Link 1110 at Mon Feb 21 20:40:35 2022, MaxMem= 16106127360 cpu:              83.7 elap:               3.0
 (Enter /sw/contrib/gaussian/g16/B01/g16/l1112.exe)
 MP22nd: MDV=   16106127360
 This link is doing NAtomX=     5 total of    18 degrees of freedom.
 Using ON3 I/O method in MakUI.
 Frozen-core window:  NFC=   4 NFV=   0.
 Using Ix for Sx.
 Use MO integrals over full window.
 Using OV2 memory method for fx*t*t/D, MaxI=    16 DoOO2=F NP=  28.
 R2 and R3 integrals will be kept in memory, NReq=   915591705.
 FoFCou: FMM=F IPFlag=           0 FMFlag=           0 FMFlg1=           0
         NFxFlg=           0 DoJE=F BraDBF=F KetDBF=F FulRan=T
         wScrn=  0.000000 ICntrl=       600 IOpCl=  0 I1Cent=           0 NGrid=           0
         NMat0=    1 NMatS0=      1 NMatT0=    0 NMatD0=    1 NMtDS0=    0 NMtDT0=    0
 Symmetry not used in FoFCou.
 DD1Dir will call FoFMem   1 times, MxPair=       272
 NAB=   136 NAA=     0 NBB=     0.
 Symmetry is being used.
 FoFJK:  IHMeth= 1 ICntrl=       0 DoSepK=F KAlg= 0 I1Cent=           0 FoldK=F
 IRaf=         0 NMat=      18 IRICut=      45 DoRegI=T DoRafI=T ISym2E= 2 IDoP0=3 IntGTp=3.
 Discarding MO integrals.
 Leave Link 1112 at Mon Feb 21 20:41:12 2022, MaxMem= 16106127360 cpu:            1008.6 elap:              36.4
 (Enter /sw/contrib/gaussian/g16/B01/g16/l601.exe)
 Copying SCF densities to generalized density rwf, IOpCl= 0 IROHF=0.

 **********************************************************************

            Population analysis using the MP2 Density.

 **********************************************************************

 Orbital symmetries:
       Occupied  (A') (A') (A') (A') (A') (A') (A') (A') (A') (A')
                 (A") (A') (A") (A') (A") (A')
       Virtual   (A') (A") (A') (A') (A") (A') (A') (A') (A") (A')
                 (A") (A') (A') (A') (A") (A') (A') (A") (A') (A')
                 (A') (A') (A') (A') (A") (A') (A') (A") (A') (A')
                 (A") (A') (A") (A') (A') (A") (A') (A') (A") (A')
                 (A") (A') (A") (A') (A') (A") (A') (A') (A") (A')
                 (A") (A') (A') (A') (A") (A') (A") (A') (A") (A')
                 (A') (A') (A") (A') (A') (A") (A') (A") (A') (A')
                 (A") (A') (A') (A") (A") (A') (A') (A") (A') (A')
                 (A') (A") (A') (A") (A') (A") (A') (A") (A') (A')
                 (A") (A') (A') (A") (A') (A") (A') (A") (A') (A')
                 (A") (A') (A") (A') (A') (A") (A') (A') (A") (A')
                 (A") (A') (A') (A') (A") (A') (A') (A') (A") (A')
                 (A") (A') (A") (A') (A') (A") (A") (A') (A") (A')
                 (A') (A') (A') (A") (A") (A") (A') (A') (A') (A')
                 (A") (A') (A") (A') (A') (A") (A') (A') (A') (A')
                 (A") (A') (A') (A") (A') (A") (A') (A") (A') (A")
                 (A') (A") (A') (A') (A") (A") (A") (A') (A") (A')
                 (A") (A') (A") (A') (A") (A') (A") (A") (A') (A')
                 (A') (A') (A') (A') (A') (A') (A') (A') (A') (A')
                 (A')
 The electronic state is 1-A'.
 Alpha  occ. eigenvalues --  -20.69079 -20.68428 -20.66031 -15.81281  -1.62407
 Alpha  occ. eigenvalues --   -1.49626  -1.25429  -0.94811  -0.77320  -0.75865
 Alpha  occ. eigenvalues --   -0.71189  -0.67915  -0.62061  -0.59021  -0.48533
 Alpha  occ. eigenvalues --   -0.47251
 Alpha virt. eigenvalues --    0.02972   0.07164   0.08594   0.10169   0.13391
 Alpha virt. eigenvalues --    0.13401   0.14409   0.15458   0.17823   0.19409
 Alpha virt. eigenvalues --    0.19973   0.20639   0.22077   0.23540   0.23737
 Alpha virt. eigenvalues --    0.26568   0.29343   0.30380   0.31071   0.34336
 Alpha virt. eigenvalues --    0.34987   0.38725   0.42266   0.43138   0.52748
 Alpha virt. eigenvalues --    0.52930   0.55834   0.58143   0.62602   0.63821
 Alpha virt. eigenvalues --    0.67454   0.68462   0.70644   0.71063   0.72575
 Alpha virt. eigenvalues --    0.72899   0.74454   0.79234   0.79308   0.81087
 Alpha virt. eigenvalues --    0.81247   0.83008   0.86800   0.90852   0.92146
 Alpha virt. eigenvalues --    0.92678   0.95573   0.97711   0.98525   1.01689
 Alpha virt. eigenvalues --    1.05180   1.05465   1.08250   1.11760   1.14233
 Alpha virt. eigenvalues --    1.18978   1.22081   1.23372   1.33911   1.35120
 Alpha virt. eigenvalues --    1.38589   1.45479   1.48748   1.50765   1.53771
 Alpha virt. eigenvalues --    1.56678   1.57964   1.61208   1.66350   1.67008
 Alpha virt. eigenvalues --    1.70320   1.79511   1.83101   1.83528   1.87789
 Alpha virt. eigenvalues --    1.91059   1.95566   1.99294   2.00493   2.07832
 Alpha virt. eigenvalues --    2.12326   2.13205   2.14976   2.22538   2.26373
 Alpha virt. eigenvalues --    2.26443   2.29020   2.31410   2.34329   2.38642
 Alpha virt. eigenvalues --    2.42586   2.43095   2.45378   2.46265   2.47793
 Alpha virt. eigenvalues --    2.50046   2.58996   2.59764   2.62169   2.62409
 Alpha virt. eigenvalues --    2.63486   2.66661   2.75777   2.82616   2.85147
 Alpha virt. eigenvalues --    2.88208   2.89326   2.92574   2.95635   3.02460
 Alpha virt. eigenvalues --    3.06851   3.12102   3.20662   3.22527   3.31563
 Alpha virt. eigenvalues --    3.34214   3.51823   3.64056   3.83787   3.84291
 Alpha virt. eigenvalues --    4.14739   4.16656   4.18364   4.25809   4.34834
 Alpha virt. eigenvalues --    4.39454   4.46258   4.52288   4.66057   4.71968
 Alpha virt. eigenvalues --    4.80422   4.82472   4.82800   4.89569   5.02393
 Alpha virt. eigenvalues --    5.07729   5.10307   5.14137   5.17625   5.24597
 Alpha virt. eigenvalues --    5.27131   5.30738   5.32901   5.35631   5.60462
 Alpha virt. eigenvalues --    5.67359   5.76743   5.83477   5.95766   6.17105
 Alpha virt. eigenvalues --    6.30989   6.33603   6.39375   6.49370   6.50530
 Alpha virt. eigenvalues --    6.61435   6.66805   6.70086   6.75935   6.76241
 Alpha virt. eigenvalues --    6.83357   6.89862   7.01873   7.05329   7.05682
 Alpha virt. eigenvalues --    7.08963   7.12479   7.14646   7.18180   7.22579
 Alpha virt. eigenvalues --    7.24170   7.30541   7.32486   7.34834   7.39963
 Alpha virt. eigenvalues --    7.43892   7.48465   7.60759   7.61942   7.62662
 Alpha virt. eigenvalues --    7.66612   7.79213   7.88695   8.09348   8.31653
 Alpha virt. eigenvalues --    8.40298   8.54365  13.38987  14.39140  15.17202
 Alpha virt. eigenvalues --   16.15312
          Condensed to atoms (all electrons):
               1          2          3          4          5
     1  H    0.588192   0.128978   0.019769   0.012254  -0.000603
     2  O    0.128978   8.322068  -0.174935  -0.089917   0.015452
     3  O    0.019769  -0.174935   8.472279  -0.130610  -0.038667
     4  N    0.012254  -0.089917  -0.130610   6.972458  -0.055593
     5  O   -0.000603   0.015452  -0.038667  -0.055593   8.272744
 Mulliken charges:
               1
     1  H    0.251409
     2  O   -0.201645
     3  O   -0.147837
     4  N    0.291407
     5  O   -0.193334
 Sum of Mulliken charges =  -0.00000
 Mulliken charges with hydrogens summed into heavy atoms:
               1
     2  O    0.049764
     3  O   -0.147837
     4  N    0.291407
     5  O   -0.193334
 APT charges:
               1
     1  H    0.299401
     2  O   -0.287284
     3  O   -0.496190
     4  N    0.876144
     5  O   -0.392072
 Sum of APT charges =  -0.00000
 APT charges with hydrogens summed into heavy atoms:
               1
     2  O    0.012117
     3  O   -0.496190
     4  N    0.876144
     5  O   -0.392072
 Electronic spatial extent (au):  <R**2>=            252.8006
 Charge=             -0.0000 electrons
 Dipole moment (field-independent basis, Debye):
    X=              0.4891    Y=              1.3594    Z=             -0.0000  Tot=              1.4447
 Quadrupole moment (field-independent basis, Debye-Ang):
   XX=            -22.5386   YY=            -18.6069   ZZ=            -22.0089
   XY=              3.2067   XZ=              0.0000   YZ=             -0.0000
 Traceless Quadrupole moment (field-independent basis, Debye-Ang):
   XX=             -1.4872   YY=              2.4446   ZZ=             -0.9575
   XY=              3.2067   XZ=              0.0000   YZ=             -0.0000
 Octapole moment (field-independent basis, Debye-Ang**2):
  XXX=              2.6819  YYY=             11.3368  ZZZ=              0.0000  XYY=              7.8376
  XXY=              6.4320  XXZ=             -0.0000  XZZ=             -1.5768  YZZ=             -0.8546
  YYZ=             -0.0000  XYZ=             -0.0000
 Hexadecapole moment (field-independent basis, Debye-Ang**3):
 XXXX=           -158.5726 YYYY=            -89.7695 ZZZZ=            -18.2373 XXXY=            -37.0291
 XXXZ=              0.0000 YYYX=            -30.8324 YYYZ=              0.0000 ZZZX=              0.0000
 ZZZY=              0.0000 XXYY=            -34.1963 XXZZ=            -30.8241 YYZZ=            -20.6897
 XXYZ=              0.0000 YYXZ=              0.0000 ZZXY=            -15.0545
 N-N= 1.168911627373D+02 E-N=-8.958928462511D+02  KE= 2.802005130231D+02
 Symmetry A'   KE= 2.662286310319D+02
 Symmetry A"   KE= 1.397188199118D+01
  Exact polarizability:  33.954   9.445  30.252  -0.000   0.000  17.920
 Approx polarizability:  29.001   5.084  23.529  -0.000  -0.000  15.518
 No NMR shielding tensors so no spin-rotation constants.
 Leave Link  601 at Mon Feb 21 20:41:12 2022, MaxMem= 16106127360 cpu:              10.1 elap:               0.4
 (Enter /sw/contrib/gaussian/g16/B01/g16/l701.exe)
 ... and contract with generalized density number  2.
 Compute integral second derivatives.
 Leave Link  701 at Mon Feb 21 20:41:12 2022, MaxMem= 16106127360 cpu:               5.9 elap:               0.2
 (Enter /sw/contrib/gaussian/g16/B01/g16/l702.exe)
 L702 exits ... SP integral derivatives will be done elsewhere.
 Leave Link  702 at Mon Feb 21 20:41:12 2022, MaxMem= 16106127360 cpu:               0.6 elap:               0.0
 (Enter /sw/contrib/gaussian/g16/B01/g16/l703.exe)
 Integral derivatives from FoFJK, PRISM(SPDF).
 Compute integral second derivatives, UseDBF=F ICtDFT=           0.
 Calling FoFJK, ICntrl=  10100127 FMM=F ISym2X=1 I1Cent= 0 IOpClX= 0 NMat=1 NMatS=1 NMatT=0.
 FoFJK:  IHMeth= 1 ICntrl=10100127 DoSepK=F KAlg= 0 I1Cent=           0 FoldK=F
 IRaf=         0 NMat=       1 IRICut=       1 DoRegI=T DoRafI=F ISym2E= 1 IDoP0=0 IntGTp=1.
 FoFCou: FMM=F IPFlag=           0 FMFlag=      100000 FMFlg1=         800
         NFxFlg=           0 DoJE=F BraDBF=F KetDBF=F FulRan=T
         wScrn=  0.000000 ICntrl=  10100127 IOpCl=  0 I1Cent=           0 NGrid=           0
         NMat0=    1 NMatS0=      1 NMatT0=    0 NMatD0=    1 NMtDS0=    0 NMtDT0=    0
 Petite list used in FoFCou.
 Leave Link  703 at Mon Feb 21 20:41:28 2022, MaxMem= 16106127360 cpu:             425.5 elap:              15.2
 (Enter /sw/contrib/gaussian/g16/B01/g16/l716.exe)
 Dipole        = 1.92416969D-01 5.34820678D-01-1.97210843D-33
 Polarizability= 3.39544636D+01 9.44456509D+00 3.02519976D+01
                -4.68875698D-32 3.83913419D-32 1.79199736D+01
 Full mass-weighted force constant matrix:
 Low frequencies --- -262.6652  -19.2583  -14.4525   -0.0015   -0.0011    0.0011
 Low frequencies ---   48.8140  227.3080  339.9825
 ******    1 imaginary frequencies (negative Signs) ****** 
 Diagonal vibrational polarizability:
       13.9822348      25.1339205      48.9156120
 Harmonic frequencies (cm**-1), IR intensities (KM/Mole), Raman scattering
 activities (A**4/AMU), depolarization ratios for plane and unpolarized
 incident light, reduced masses (AMU), force constants (mDyne/A),
 and normal coordinates:
                      1                      2                      3
                     A"                     A"                     A'
 Frequencies --   -262.0409               227.2968               339.9820
 Red. masses --      1.1283                11.5695                 8.6560
 Frc consts  --      0.0456                 0.3522                 0.5895
 IR Inten    --    124.4211                 0.2933                 4.9397
  Atom  AN      X      Y      Z        X      Y      Z        X      Y      Z
     1   1    -0.00   0.00   1.00    -0.00   0.00  -0.50     0.54  -0.43  -0.00
     2   8     0.00   0.00  -0.06     0.00   0.00  -0.33    -0.09  -0.38  -0.00
     3   8    -0.00  -0.00  -0.04     0.00  -0.00   0.34    -0.15   0.43   0.00
     4   7    -0.00  -0.00   0.05    -0.00  -0.00   0.55     0.04   0.26   0.00
     5   8    -0.00   0.00  -0.00    -0.00   0.00  -0.46     0.17  -0.25  -0.00
                      4                      5                      6
                     A'                     A'                     A'
 Frequencies --    452.2151               786.1256               968.4863
 Red. masses --     12.3937                12.9182                15.5945
 Frc consts  --      1.4933                 4.7037                 8.6180
 IR Inten    --    198.9694               170.2263                23.1609
  Atom  AN      X      Y      Z        X      Y      Z        X      Y      Z
     1   1     0.40   0.20   0.00    -0.35   0.18  -0.00    -0.12  -0.04   0.00
     2   8     0.32   0.21  -0.00     0.42   0.08   0.00    -0.53   0.03  -0.00
     3   8     0.18   0.44   0.00    -0.06  -0.27  -0.00     0.75  -0.02   0.00
     4   7    -0.35  -0.41   0.00    -0.14   0.62  -0.00    -0.12   0.24   0.00
     5   8    -0.22  -0.30  -0.00    -0.21  -0.37   0.00    -0.11  -0.22  -0.00
                      7                      8                      9
                     A'                     A'                     A'
 Frequencies --   1376.3955              1677.5240              3778.4232
 Red. masses --      1.1316                13.1086                 1.0673
 Frc consts  --      1.2630                21.7343                 8.9777
 IR Inten    --    156.3051               139.2113                81.5237
  Atom  AN      X      Y      Z        X      Y      Z        X      Y      Z
     1   1     1.00  -0.04  -0.00    -0.36   0.00   0.00     0.09   0.99   0.00
     2   8    -0.03   0.05  -0.00    -0.00  -0.04   0.00    -0.01  -0.06  -0.00
     3   8    -0.02  -0.05   0.00     0.00   0.15  -0.00     0.00   0.00  -0.00
     4   7     0.02   0.01   0.00     0.70  -0.05  -0.00    -0.00  -0.00   0.00
     5   8    -0.03  -0.01  -0.00    -0.59  -0.07   0.00     0.00   0.00   0.00

 -------------------
 - Thermochemistry -
 -------------------
 Temperature   298.150 Kelvin.  Pressure   1.00000 Atm.
 Atom     1 has atomic number  1 and mass   1.00783
 Atom     2 has atomic number  8 and mass  15.99491
 Atom     3 has atomic number  8 and mass  15.99491
 Atom     4 has atomic number  7 and mass  14.00307
 Atom     5 has atomic number  8 and mass  15.99491
 Molecular mass:    62.99564 amu.
 Principal axes and moments of inertia in atomic units:
                           1         2         3
     Eigenvalues --    32.87161 359.97332 392.84493
           X            0.80967  -0.58689   0.00000
           Y            0.58689   0.80967   0.00000
           Z           -0.00000   0.00000   1.00000
 This molecule is an asymmetric top.
 Rotational symmetry number  1.
 Rotational temperatures (Kelvin)      2.63492     0.24061     0.22048
 Rotational constants (GHZ):          54.90273     5.01354     4.59403
    1 imaginary frequencies ignored.
 Zero-point vibrational energy      57459.3 (Joules/Mol)
                                   13.73311 (Kcal/Mol)
 Warning -- explicit consideration of   3 degrees of freedom as
           vibrations may cause significant error
 Vibrational temperatures:    327.03   489.16   650.64  1131.06  1393.44
          (Kelvin)           1980.33  2413.58  5436.31
 
 Zero-point correction=                           0.021885 (Hartree/Particle)
 Thermal correction to Energy=                    0.026006
 Thermal correction to Enthalpy=                  0.026950
 Thermal correction to Gibbs Free Energy=        -0.004242
 Sum of electronic and zero-point Energies=           -280.424829
 Sum of electronic and thermal Energies=              -280.420708
 Sum of electronic and thermal Enthalpies=            -280.419764
 Sum of electronic and thermal Free Energies=         -280.450956
 
                     E (Thermal)             CV                S
                      KCal/Mol        Cal/Mol-Kelvin    Cal/Mol-Kelvin
 Total                   16.319             11.954             65.649
 Electronic               0.000              0.000              0.000
 Translational            0.889              2.981             38.341
 Rotational               0.889              2.981             23.057
 Vibrational             14.541              5.992              4.252
 Vibration     1          0.651              1.799              1.900
 Vibration     2          0.720              1.596              1.212
 Vibration     3          0.811              1.356              0.789
                       Q            Log10(Q)             Ln(Q)
 Total Bot       0.893672D+02          1.951178          4.492754
 Total V=0       0.104140D+13         12.017616         27.671584
 Vib (Bot)       0.186319D-09         -9.729743        -22.403562
 Vib (Bot)    1  0.867543D+00         -0.061709         -0.142090
 Vib (Bot)    2  0.546167D+00         -0.262675         -0.604831
 Vib (Bot)    3  0.378533D+00         -0.421896         -0.971452
 Vib (V=0)       0.217118D+01          0.336695          0.775269
 Vib (V=0)    1  0.150131D+01          0.176472          0.406341
 Vib (V=0)    2  0.124047D+01          0.093587          0.215492
 Vib (V=0)    3  0.112713D+01          0.051973          0.119671
 Electronic      0.100000D+01          0.000000          0.000000
 Translational   0.196526D+08          7.293420         16.793719
 Rotational      0.244063D+05          4.387502         10.102596
 
                                                                title
                                                             IR Spectrum
 
     3                                                                      1         1                                              
     7                                                                      6         3             9     7          4   3   2       
     7                                                                      7         7             6     8          5   4   2       
     8                                                                      8         6             8     6          2   0   7       
 
     X                                                                      X         X             X     X          X   X   X       
     X                                                                      X         X             X     X          X               
     X                                                                      X         X                   X          X               
     X                                                                      X         X                   X          X               
     X                                                                      X         X                   X          X               
     X                                                                      X         X                   X          X               
     X                                                                      X         X                   X          X               
     X                                                                      X         X                   X          X               
                                                                            X         X                   X          X               
                                                                            X         X                   X          X               
                                                                            X         X                   X          X               
                                                                            X         X                   X          X               
                                                                            X         X                   X          X               
                                                                            X         X                   X          X               
                                                                                      X                   X          X               
                                                                                      X                   X          X               
                                                                                                          X          X               
                                                                                                                     X               
                                                                                                                     X               
                                                                                                                     X               
 
 ***** Axes restored to original set *****
 -------------------------------------------------------------------
 Center     Atomic                   Forces (Hartrees/Bohr)
 Number     Number              X              Y              Z
 -------------------------------------------------------------------
      1        1          -0.001658508   -0.000000000   -0.000145108
      2        8           0.001092354    0.000000000   -0.001180953
      3        8           0.000333014    0.000000000    0.001401816
      4        7          -0.000176378   -0.000000000   -0.000295033
      5        8           0.000409518    0.000000000    0.000219279
 -------------------------------------------------------------------
 Cartesian Forces:  Max     0.001658508 RMS     0.000719700
 -----------------------------------------------------------------------------------------------
                       Internal Coordinate Forces (Hartree/Bohr or radian)
  Cent   Atom   N1       Length/X         N2         Alpha/Y        N3         Beta/Z          J
 -----------------------------------------------------------------------------------------------
      1  H 
      2  O        1   0.000145(     1)
      3  O        2   0.000718(     2)      1   0.003037(     5)
      4  N        3  -0.000053(     3)      2   0.000400(     6)      1  -0.000000(     8)     0
      5  O        4   0.000449(     4)      3   0.000260(     7)      2   0.000000(     9)     0
 -----------------------------------------------------------------------------------------------
 Internal  Forces:  Max     0.003036900 RMS     0.001064181
 Force constants in Cartesian coordinates: 
                1             2             3             4             5 
      1  0.653010D-01
      2  0.000000D+00 -0.225624D-02
      3  0.665460D-02  0.000000D+00  0.512338D+00
      4 -0.344041D-01  0.000000D+00 -0.172554D-01  0.272896D+00
      5  0.000000D+00  0.226904D-02  0.000000D+00  0.000000D+00  0.329677D-02
      6  0.471753D-01  0.000000D+00 -0.507971D+00  0.331774D-01  0.000000D+00
      7 -0.203230D-01  0.000000D+00  0.122575D-01 -0.220912D+00  0.000000D+00
      8  0.000000D+00  0.162527D-02  0.000000D+00  0.000000D+00 -0.696250D-02
      9 -0.533188D-01  0.000000D+00 -0.100217D-02 -0.186618D-01  0.000000D+00
     10 -0.936559D-02  0.000000D+00 -0.499606D-02 -0.175232D-01  0.000000D+00
     11  0.000000D+00 -0.262797D-02  0.000000D+00  0.000000D+00 -0.498786D-02
     12  0.518722D-02  0.000000D+00 -0.471691D-02  0.124744D-01  0.000000D+00
     13 -0.120828D-02  0.000000D+00  0.333941D-02 -0.564022D-04  0.000000D+00
     14  0.000000D+00  0.989897D-03  0.000000D+00  0.000000D+00  0.638455D-02
     15 -0.569830D-02  0.000000D+00  0.135189D-02 -0.973451D-02  0.000000D+00
                6             7             8             9            10 
      6  0.591918D+00
      7 -0.200279D-01  0.344168D+00
      8  0.000000D+00  0.000000D+00  0.405595D-02
      9 -0.769841D-01  0.354672D-01  0.000000D+00  0.180055D+00
     10 -0.520465D-01 -0.748954D-01  0.000000D+00  0.174745D+00  0.828002D+00
     11  0.000000D+00  0.000000D+00  0.836933D-02  0.000000D+00  0.000000D+00
     12  0.173316D-01  0.625295D-01  0.000000D+00 -0.850646D-01 -0.267337D-01
     13 -0.827833D-02 -0.280371D-01  0.000000D+00 -0.138232D+00 -0.726218D+00
     14  0.000000D+00  0.000000D+00 -0.708804D-02  0.000000D+00  0.000000D+00
     15 -0.242949D-01 -0.902263D-01  0.000000D+00 -0.170045D-01 -0.909690D-01
               11            12            13            14            15 
     11  0.873846D-02
     12  0.000000D+00  0.187552D+00
     13  0.000000D+00 -0.534575D-01  0.755520D+00
     14 -0.949196D-02  0.000000D+00  0.000000D+00  0.920556D-02
     15  0.000000D+00 -0.115102D+00  0.196628D+00  0.000000D+00  0.155050D+00
 Force constants in internal coordinates: 
                1             2             3             4             5 
      1  0.512338D+00
      2 -0.100126D-01  0.283193D+00
      3  0.350907D-02  0.240760D-02  0.117460D+00
      4 -0.356307D-02  0.600615D-02  0.152983D+00  0.812112D+00
      5  0.105268D-01  0.677912D-01  0.279855D-02  0.459322D-02  0.219216D+00
      6  0.482972D-02  0.591833D-01  0.414260D-01  0.216105D-01  0.315792D-01
      7 -0.117856D-02  0.378243D-01  0.321813D-01  0.849287D-01  0.212985D-01
      8  0.000000D+00  0.000000D+00  0.000000D+00  0.000000D+00  0.000000D+00
      9  0.000000D+00  0.000000D+00  0.000000D+00  0.000000D+00  0.000000D+00
                6             7             8             9 
      6  0.282835D+00
      7  0.959150D-01  0.482895D+00
      8  0.000000D+00  0.000000D+00 -0.755256D-02
      9  0.000000D+00  0.000000D+00 -0.376295D-02  0.410554D-01
 Leave Link  716 at Mon Feb 21 20:41:28 2022, MaxMem= 16106127360 cpu:               1.0 elap:               0.1
 (Enter /sw/contrib/gaussian/g16/B01/g16/l103.exe)

 GradGradGradGradGradGradGradGradGradGradGradGradGradGradGradGradGradGrad
 Berny optimization.
 Search for a local minimum.
 Step number   1 out of a maximum of    2
 All quantities printed in internal units (Hartrees-Bohrs-Radians)
 Second derivative matrix not updated -- analytic derivatives used.
 The second derivative matrix:
                          r1        r2        r3        r4        a1
           r1           0.51234
           r2          -0.01001   0.28319
           r3           0.00351   0.00241   0.11746
           r4          -0.00356   0.00601   0.15298   0.81211
           a1           0.01053   0.06779   0.00280   0.00459   0.21922
           a2           0.00483   0.05918   0.04143   0.02161   0.03158
           a3          -0.00118   0.03782   0.03218   0.08493   0.02130
           d1           0.00000  -0.00000  -0.00000  -0.00000  -0.00000
           d2          -0.00000   0.00000   0.00000   0.00000   0.00000
                          a2        a3        d1        d2
           a2           0.28283
           a3           0.09591   0.48289
           d1          -0.00000  -0.00000  -0.00755
           d2          -0.00000  -0.00000  -0.00376   0.04106
 ITU=  0
     Eigenvalues ---   -0.00784   0.04134   0.07836   0.17535   0.22626
     Eigenvalues ---    0.32805   0.51291   0.51801   0.87111
 Eigenvalue     1 is  -7.84D-03 should be greater than     0.000000 Eigenvector:
                          d1        d2        a3        a2        r3
   1                    0.99705   0.07673   0.00000   0.00000  -0.00000
                          r4        a1        r2        r1
   1                    0.00000  -0.00000   0.00000  -0.00000
 Angle between quadratic step and forces=  20.42 degrees.
 Linear search not attempted -- first point.
 Variable       Old X    -DE/DX   Delta X   Delta X   Delta X     New X
                                 (Linear)    (Quad)   (Total)
    r1        1.83110   0.00015   0.00000  -0.00001  -0.00001   1.83109
    r2        2.74940   0.00072   0.00000  -0.00089  -0.00089   2.74851
    r3        2.75670  -0.00005   0.00000  -0.00195  -0.00195   2.75476
    r4        2.21236   0.00045   0.00000   0.00085   0.00085   2.21321
    a1        1.68885   0.00304   0.00000   0.01410   0.01410   1.70296
    a2        1.78543   0.00040   0.00000   0.00028   0.00028   1.78571
    a3        1.90362   0.00026   0.00000  -0.00009  -0.00009   1.90353
    d1        3.14159  -0.00000   0.00000  -0.00000   0.00000   3.14159
    d2        3.14159   0.00000   0.00000  -0.00000   0.00000   3.14159
         Item               Value     Threshold  Converged?
 Maximum Force            0.003037     0.000450     NO 
 RMS     Force            0.001064     0.000300     NO 
 Maximum Displacement     0.014104     0.001800     NO 
 RMS     Displacement     0.004765     0.001200     NO 
 Predicted change in Energy=-2.138321D-05
                       ----------------------------
                       ! Non-Optimized Parameters !
                       ! (Angstroms and Degrees)  !
 ----------------------                            ----------------------
 !      Name          Value   Derivative information (Atomic Units)     !
 ------------------------------------------------------------------------
 !       r1          0.969    -DE/DX =    0.0001                        !
 !       r2          1.4544   -DE/DX =    0.0007                        !
 !       r3          1.4578   -DE/DX =   -0.0001                        !
 !       r4          1.1712   -DE/DX =    0.0004                        !
 !       a1         97.5723   -DE/DX =    0.003                         !
 !       a2        102.3134   -DE/DX =    0.0004                        !
 !       a3        109.0644   -DE/DX =    0.0003                        !
 !       d1        180.0      -DE/DX =    0.0                           !
 !       d2        180.0      -DE/DX =    0.0                           !
 ------------------------------------------------------------------------
 GradGradGradGradGradGradGradGradGradGradGradGradGradGradGradGradGradGrad

 Leave Link  103 at Mon Feb 21 20:41:28 2022, MaxMem= 16106127360 cpu:               1.2 elap:               0.1
 (Enter /sw/contrib/gaussian/g16/B01/g16/l9999.exe)

 ----------------------------------------------------------------------

 Electric dipole moment (input orientation):
 (Debye = 10**-18 statcoulomb cm , SI units = C m)
                  (au)            (Debye)         (10**-30 SI)
   Tot        0.568381D+00      0.144468D+01      0.481894D+01
   x         -0.147360D+00     -0.374551D+00     -0.124937D+01
   y          0.000000D+00      0.000000D+00      0.000000D+00
   z         -0.548947D+00     -0.139528D+01     -0.465416D+01

 Dipole polarizability, Alpha (input orientation).
 (esu units = cm**3 , SI units = C**2 m**2 J**-1)
 Alpha(0;0):
               (au)            (10**-24 esu)      (10**-40 SI)
   iso        0.273755D+02      0.405663D+01      0.451361D+01
   aniso      0.218871D+02      0.324333D+01      0.360870D+01
   xx         0.323665D+02      0.479621D+01      0.533651D+01
   yx         0.000000D+00      0.000000D+00      0.000000D+00
   yy         0.179200D+02      0.265547D+01      0.295460D+01
   zx         0.962069D+01      0.142564D+01      0.158624D+01
   zy         0.000000D+00      0.000000D+00      0.000000D+00
   zz         0.318400D+02      0.471820D+01      0.524971D+01

 ----------------------------------------------------------------------

 Dipole orientation:
     1         -0.00000000          0.00000000         -0.00000000
     8         -0.47473400          0.00000000         -1.76848780
     8          2.07821311          0.00000000         -2.78910335
     7          1.62355883          0.00000000         -5.50805486
     8          3.56666255          0.00000000         -6.56582182

 Electric dipole moment (dipole orientation):
 (Debye = 10**-18 statcoulomb cm , SI units = C m)
                  (au)            (Debye)         (10**-30 SI)
   Tot        0.568381D+00      0.144468D+01      0.481894D+01
   x          0.000000D+00      0.000000D+00      0.000000D+00
   y          0.000000D+00      0.000000D+00      0.000000D+00
   z          0.568381D+00      0.144468D+01      0.481894D+01

 Dipole polarizability, Alpha (dipole orientation).
 (esu units = cm**3 , SI units = C**2 m**2 J**-1)
 Alpha(0;0):
               (au)            (10**-24 esu)      (10**-40 SI)
   iso        0.273755D+02      0.405663D+01      0.451361D+01
   aniso      0.218871D+02      0.324333D+01      0.360870D+01
   xx         0.275131D+02      0.407702D+01      0.453630D+01
   yx         0.000000D+00      0.000000D+00      0.000000D+00
   yy         0.179200D+02      0.265547D+01      0.295460D+01
   zx        -0.845916D+01     -0.125352D+01     -0.139473D+01
   zy         0.000000D+00      0.000000D+00      0.000000D+00
   zz         0.366934D+02      0.543740D+01      0.604992D+01

 ----------------------------------------------------------------------
 1\1\GINC-N2108\Freq\RMP2-FC\Aug-CC-pVTZ\H1N1O3\CGAVINH\21-Feb-2022\1\\
 #p freq mp2/aug-cc-pvtz density=current\\title\\0,1\H\O,1,r1\O,2,r2,1,
 a1\N,3,r3,2,a2,1,d1,0\O,4,r4,3,a3,2,d2,0\\r1=0.96897556\r2=1.45491931\
 r3=1.45878406\r4=1.17072885\a1=96.76424195\a2=102.29752444\a3=109.0695
 5123\d1=180.\d2=180.\\Version=ES64L-G16RevB.01\State=1-A'\HF=-279.5015
 497\MP2=-280.4467137\RMSD=3.782e-09\RMSF=7.197e-04\ZeroPoint=0.0218851
 \Thermal=0.0260059\Dipole=-0.1473596,0.,-0.5489468\DipoleDeriv=0.26953
 23,0.,0.0513101,0.,0.354559,0.,0.0805586,0.,0.2741107,-0.3338724,0.,-0
 .2077571,0.,-0.3124655,0.,-0.1049771,0.,-0.2155131,-0.0549824,0.,0.129
 4113,0.,-0.0875155,0.,-0.7728905,0.,-1.346071,0.921141,0.,0.9193732,0.
 ,0.0661144,0.,0.93221,0.,1.6411776,-0.8018185,0.,-0.8923375,0.,-0.0206
 923,0.,-0.134901,0.,-0.3537043\Polar=32.3664536,0.,17.9199736,9.620685
 4,0.,31.8400077\Quadrupole=-1.4799488,-0.7118497,2.1917985,0.,2.109430
 1,0.\PG=CS [SG(H1N1O3)]\NImag=1\\0.06530100,0.,-0.00225624,0.00665460,
 0.,0.51233784,-0.03440410,0.,-0.01725541,0.27289577,0.,0.00226904,0.,0
 .,0.00329677,0.04717532,0.,-0.50797066,0.03317738,0.,0.59191812,-0.020
 32304,0.,0.01225746,-0.22091212,0.,-0.02002788,0.34416772,0.,0.0016252
 7,0.,0.,-0.00696250,0.,0.,0.00405595,-0.05331884,0.,-0.00100217,-0.018
 66184,0.,-0.07698408,0.03546720,0.,0.18005536,-0.00936559,0.,-0.004996
 06,-0.01752315,0.,-0.05204649,-0.07489544,0.,0.17474523,0.82800207,0.,
 -0.00262797,0.,0.,-0.00498786,0.,0.,0.00836933,0.,0.,0.00873846,0.0051
 8722,0.,-0.00471691,0.01247438,0.,0.01733155,0.06252953,0.,-0.08506462
 ,-0.02673367,0.,0.18755207,-0.00120828,0.,0.00333941,-0.00005640,0.,-0
 .00827833,-0.02803712,0.,-0.13823174,-0.72621789,0.,-0.05345747,0.7555
 1969,0.,0.00098990,0.,0.,0.00638455,0.,0.,-0.00708804,0.,0.,-0.0094919
 6,0.,0.,0.00920556,-0.00569830,0.,0.00135189,-0.00973451,0.,-0.0242949
 4,-0.09022631,0.,-0.01700450,-0.09096902,0.,-0.11510210,0.19662814,0.,
 0.15504964\\0.00165851,0.,0.00014511,-0.00109235,0.,0.00118095,-0.0003
 3301,0.,-0.00140182,0.00017638,0.,0.00029503,-0.00040952,0.,-0.0002192
 8\\\@


 CONFIDENCE IS WHAT YOU FEEL BEFORE YOU FULLY
 COMPREHEND THE SITUATION.
 Job cpu time:       0 days  2 hours  1 minutes  6.8 seconds.
 Elapsed time:       0 days  0 hours  4 minutes 22.8 seconds.
 File lengths (MBytes):  RWF=   7239 Int=      0 D2E=      0 Chk=      8 Scr=      1
 Normal termination of Gaussian 16 at Mon Feb 21 20:41:29 2022.
