 Entering Gaussian System, Link 0=g16
 Input=hoono_r2_1p475122.gjf
 Output=hoono_r2_1p475122.log
 Initial command:
 /sw/contrib/gaussian/g16/B01/g16/l1.exe "/scr/Gau-27902.inp" -scrdir="/scr/"
 Entering Link 1 = /sw/contrib/gaussian/g16/B01/g16/l1.exe PID=     27903.
  
 Copyright (c) 1988-2017, Gaussian, Inc.  All Rights Reserved.
  
 This is part of the Gaussian(R) 16 program.  It is based on
 the Gaussian(R) 09 system (copyright 2009, Gaussian, Inc.),
 the Gaussian(R) 03 system (copyright 2003, Gaussian, Inc.),
 the Gaussian(R) 98 system (copyright 1998, Gaussian, Inc.),
 the Gaussian(R) 94 system (copyright 1995, Gaussian, Inc.),
 the Gaussian 92(TM) system (copyright 1992, Gaussian, Inc.),
 the Gaussian 90(TM) system (copyright 1990, Gaussian, Inc.),
 the Gaussian 88(TM) system (copyright 1988, Gaussian, Inc.),
 the Gaussian 86(TM) system (copyright 1986, Carnegie Mellon
 University), and the Gaussian 82(TM) system (copyright 1983,
 Carnegie Mellon University). Gaussian is a federally registered
 trademark of Gaussian, Inc.
  
 This software contains proprietary and confidential information,
 including trade secrets, belonging to Gaussian, Inc.
  
 This software is provided under written license and may be
 used, copied, transmitted, or stored only in accord with that
 written license.
  
 The following legend is applicable only to US Government
 contracts under FAR:
  
                    RESTRICTED RIGHTS LEGEND
  
 Use, reproduction and disclosure by the US Government is
 subject to restrictions as set forth in subparagraphs (a)
 and (c) of the Commercial Computer Software - Restricted
 Rights clause in FAR 52.227-19.
  
 Gaussian, Inc.
 340 Quinnipiac St., Bldg. 40, Wallingford CT 06492
  
  
 ---------------------------------------------------------------
 Warning -- This program may not be used in any manner that
 competes with the business of Gaussian, Inc. or will provide
 assistance to any competitor of Gaussian, Inc.  The licensee
 of this program is prohibited from giving any competitor of
 Gaussian, Inc. access to this program.  By using this program,
 the user acknowledges that Gaussian, Inc. is engaged in the
 business of creating and licensing software in the field of
 computational chemistry and represents and warrants to the
 licensee that it is not a competitor of Gaussian, Inc. and that
 it will not use this program in any manner prohibited above.
 ---------------------------------------------------------------
  

 Cite this work as:
 Gaussian 16, Revision B.01,
 M. J. Frisch, G. W. Trucks, H. B. Schlegel, G. E. Scuseria, 
 M. A. Robb, J. R. Cheeseman, G. Scalmani, V. Barone, 
 G. A. Petersson, H. Nakatsuji, X. Li, M. Caricato, A. V. Marenich, 
 J. Bloino, B. G. Janesko, R. Gomperts, B. Mennucci, H. P. Hratchian, 
 J. V. Ortiz, A. F. Izmaylov, J. L. Sonnenberg, D. Williams-Young, 
 F. Ding, F. Lipparini, F. Egidi, J. Goings, B. Peng, A. Petrone, 
 T. Henderson, D. Ranasinghe, V. G. Zakrzewski, J. Gao, N. Rega, 
 G. Zheng, W. Liang, M. Hada, M. Ehara, K. Toyota, R. Fukuda, 
 J. Hasegawa, M. Ishida, T. Nakajima, Y. Honda, O. Kitao, H. Nakai, 
 T. Vreven, K. Throssell, J. A. Montgomery, Jr., J. E. Peralta, 
 F. Ogliaro, M. J. Bearpark, J. J. Heyd, E. N. Brothers, K. N. Kudin, 
 V. N. Staroverov, T. A. Keith, R. Kobayashi, J. Normand, 
 K. Raghavachari, A. P. Rendell, J. C. Burant, S. S. Iyengar, 
 J. Tomasi, M. Cossi, J. M. Millam, M. Klene, C. Adamo, R. Cammi, 
 J. W. Ochterski, R. L. Martin, K. Morokuma, O. Farkas, 
 J. B. Foresman, and D. J. Fox, Gaussian, Inc., Wallingford CT, 2016.
 
 ******************************************
 Gaussian 16:  ES64L-G16RevB.01 20-Dec-2017
                21-Feb-2022 
 ******************************************
 %nproc=28
 Will use up to   28 processors via shared memory.
 %mem=120GB
 %chk=hoono_r2_1p475122.chk
 ---------------------------------------
 #p freq mp2/aug-cc-pvtz density=current
 ---------------------------------------
 1/10=4,30=1,38=1/1,3;
 2/12=2,17=6,18=5,40=1/2;
 3/5=16,6=1,7=10,11=9,25=1,30=1,71=2,140=1/1,2,3;
 4//1;
 5/5=2,38=5,98=1/2;
 8/6=3,8=1,10=1,19=11,30=-1/1;
 9/15=3,16=-3/6;
 11/6=1,8=1,15=11,17=12,24=-1,27=1,28=-2,29=300,32=6,42=3/1,2,10;
 10/6=2,21=1/2;
 8/6=4,8=1,10=1,19=11,30=-1/11,4;
 10/5=1,20=4/2;
 11/12=2,14=11,16=1,17=2,28=-2,42=3,76=2/2,10,12;
 6/7=2,8=2,9=2,10=2,22=-1/1;
 7/8=1,10=1,12=2,25=1,44=2/1,2,3,16;
 1/10=4,30=1/3;
 99//99;
 Leave Link    1 at Mon Feb 21 20:07:32 2022, MaxMem= 16106127360 cpu:               3.9 elap:               0.1
 (Enter /sw/contrib/gaussian/g16/B01/g16/l101.exe)
 -----
 title
 -----
 Symbolic Z-matrix:
 Charge =  0 Multiplicity = 1
 H
 O                    1    r1
 O                    2    r2       1    a1
 N                    3    r3       2    a2       1    d1       0
 O                    4    r4       3    a3       2    d2       0
       Variables:
  r1                    0.96898                  
  r2                    1.47512                  
  r3                    1.45878                  
  r4                    1.17073                  
  a1                   97.59495                  
  a2                  102.29752                  
  a3                  109.06955                  
  d1                  180.                       
  d2                  180.                       
 
 ITRead=  0  0  0  0  0
 MicOpt= -1 -1 -1 -1 -1
 NAtoms=      5 NQM=        5 NQMF=       0 NMMI=      0 NMMIF=      0
                NMic=       0 NMicF=      0.
                    Isotopes and Nuclear Properties:
 (Nuclear quadrupole moments (NQMom) in fm**2, nuclear magnetic moments (NMagM)
  in nuclear magnetons)

  Atom         1           2           3           4           5
 IAtWgt=           1          16          16          14          16
 AtmWgt=   1.0078250  15.9949146  15.9949146  14.0030740  15.9949146
 NucSpn=           1           0           0           2           0
 AtZEff=  -0.0000000  -0.0000000  -0.0000000  -0.0000000  -0.0000000
 NQMom=    0.0000000   0.0000000   0.0000000   2.0440000   0.0000000
 NMagM=    2.7928460   0.0000000   0.0000000   0.4037610   0.0000000
 AtZNuc=   1.0000000   8.0000000   8.0000000   7.0000000   8.0000000
 Leave Link  101 at Mon Feb 21 20:07:32 2022, MaxMem= 16106127360 cpu:               3.4 elap:               0.2
 (Enter /sw/contrib/gaussian/g16/B01/g16/l103.exe)

 GradGradGradGradGradGradGradGradGradGradGradGradGradGradGradGradGradGrad
 Berny optimization.
 Initialization pass.
                       ----------------------------
                       !    Initial Parameters    !
                       ! (Angstroms and Degrees)  !
 ----------------------                            ----------------------
 !      Name          Value   Derivative information (Atomic Units)     !
 ------------------------------------------------------------------------
 !       r1          0.969    calculate D2E/DX2 analytically            !
 !       r2          1.4751   calculate D2E/DX2 analytically            !
 !       r3          1.4588   calculate D2E/DX2 analytically            !
 !       r4          1.1707   calculate D2E/DX2 analytically            !
 !       a1         97.5949   calculate D2E/DX2 analytically            !
 !       a2        102.2975   calculate D2E/DX2 analytically            !
 !       a3        109.0696   calculate D2E/DX2 analytically            !
 !       d1        180.0      calculate D2E/DX2 analytically            !
 !       d2        180.0      calculate D2E/DX2 analytically            !
 ------------------------------------------------------------------------
 Trust Radius=3.00D-01 FncErr=1.00D-07 GrdErr=1.00D-07 EigMax=2.50D+02 EigMin=1.00D-04
 Number of steps in this run=      2 maximum allowed number of steps=      2.
 GradGradGradGradGradGradGradGradGradGradGradGradGradGradGradGradGradGrad

 Leave Link  103 at Mon Feb 21 20:07:32 2022, MaxMem= 16106127360 cpu:               0.5 elap:               0.0
 (Enter /sw/contrib/gaussian/g16/B01/g16/l202.exe)
                          Input orientation:                          
 ---------------------------------------------------------------------
 Center     Atomic      Atomic             Coordinates (Angstroms)
 Number     Number       Type             X           Y           Z
 ---------------------------------------------------------------------
      1          1           0        0.000000    0.000000    0.000000
      2          8           0        0.000000    0.000000    0.968976
      3          8           0        1.462182    0.000000    1.163941
      4          7           0        1.581778    0.000000    2.617814
      5          8           0        2.715893    0.000000    2.908309
 ---------------------------------------------------------------------
                    Distance matrix (angstroms):
                    1          2          3          4          5
     1  H    0.000000
     2  O    0.968976   0.000000
     3  O    1.868886   1.475123   0.000000
     4  N    3.058590   2.284883   1.458784   0.000000
     5  O    3.979239   3.337228   2.148165   1.170729   0.000000
 Stoichiometry    HNO3
 Framework group  CS[SG(HNO3)]
 Deg. of freedom     7
 Full point group                 CS      NOp   2
 Largest Abelian subgroup         CS      NOp   2
 Largest concise Abelian subgroup C1      NOp   1
                         Standard orientation:                         
 ---------------------------------------------------------------------
 Center     Atomic      Atomic             Coordinates (Angstroms)
 Number     Number       Type             X           Y           Z
 ---------------------------------------------------------------------
      1          1           0        1.577813    1.674456    0.000000
      2          8           0        1.474629    0.710990    0.000000
      3          8           0       -0.000000    0.672838    0.000000
      4          7           0       -0.273736   -0.760033   -0.000000
      5          8           0       -1.432337   -0.928107   -0.000000
 ---------------------------------------------------------------------
 Rotational constants (GHZ):          54.4636831           4.9638718           4.5492489
 Leave Link  202 at Mon Feb 21 20:07:33 2022, MaxMem= 16106127360 cpu:               2.5 elap:               0.1
 (Enter /sw/contrib/gaussian/g16/B01/g16/l301.exe)
 Standard basis: Aug-CC-pVTZ (5D, 7F)
 Ernie: Thresh=  0.10000D-02 Tol=  0.10000D-05 Strict=F.
 Ernie:  12 primitive shells out of 131 were deleted.
 There are   166 symmetry adapted cartesian basis functions of A'  symmetry.
 There are    79 symmetry adapted cartesian basis functions of A"  symmetry.
 There are   136 symmetry adapted basis functions of A'  symmetry.
 There are    71 symmetry adapted basis functions of A"  symmetry.
   207 basis functions,   315 primitive gaussians,   245 cartesian basis functions
    16 alpha electrons       16 beta electrons
       nuclear repulsion energy       116.3782506313 Hartrees.
 IExCor=    0 DFT=F Ex=HF Corr=None ExCW=0 ScaHFX=  1.000000
 ScaDFX=  1.000000  1.000000  1.000000  1.000000 ScalE2=  1.000000  1.000000
 IRadAn=      5 IRanWt=     -1 IRanGd=            0 ICorTp=0 IEmpDi=  4
 NAtoms=    5 NActive=    5 NUniq=    5 SFac= 1.00D+00 NAtFMM=   60 NAOKFM=F Big=F
 Integral buffers will be    131072 words long.
 Raffenetti 1 integral format.
 Two-electron integral symmetry is turned on.
 Leave Link  301 at Mon Feb 21 20:07:33 2022, MaxMem= 16106127360 cpu:               1.4 elap:               0.1
 (Enter /sw/contrib/gaussian/g16/B01/g16/l302.exe)
 NPDir=0 NMtPBC=     1 NCelOv=     1 NCel=       1 NClECP=     1 NCelD=      1
         NCelK=      1 NCelE2=     1 NClLst=     1 CellRange=     0.0.
 One-electron integrals computed using PRISM.
 One-electron integral symmetry used in STVInt
 NBasis=   207 RedAO= T EigKep=  1.84D-04  NBF=   136    71
 NBsUse=   207 1.00D-06 EigRej= -1.00D+00 NBFU=   136    71
 Leave Link  302 at Mon Feb 21 20:07:33 2022, MaxMem= 16106127360 cpu:               5.2 elap:               0.2
 (Enter /sw/contrib/gaussian/g16/B01/g16/l303.exe)
 DipDrv:  MaxL=1.
 Leave Link  303 at Mon Feb 21 20:07:33 2022, MaxMem= 16106127360 cpu:               0.9 elap:               0.1
 (Enter /sw/contrib/gaussian/g16/B01/g16/l401.exe)
 ExpMin= 2.53D-02 ExpMax= 1.53D+04 ExpMxC= 5.22D+02 IAcc=3 IRadAn=         5 AccDes= 0.00D+00
 Harris functional with IExCor=  205 and IRadAn=       5 diagonalized for initial guess.
 HarFok:  IExCor=  205 AccDes= 0.00D+00 IRadAn=         5 IDoV= 1 UseB2=F ITyADJ=14
 ICtDFT=  3500011 ScaDFX=  1.000000  1.000000  1.000000  1.000000
 FoFCou: FMM=F IPFlag=           0 FMFlag=      100000 FMFlg1=           0
         NFxFlg=           0 DoJE=T BraDBF=F KetDBF=T FulRan=T
         wScrn=  0.000000 ICntrl=       500 IOpCl=  0 I1Cent=   200000004 NGrid=           0
         NMat0=    1 NMatS0=      1 NMatT0=    0 NMatD0=    1 NMtDS0=    0 NMtDT0=    0
 Petite list used in FoFCou.
 Harris En= -279.627672278153    
 JPrj=0 DoOrth=F DoCkMO=F.
 Initial guess orbital symmetries:
       Occupied  (A') (A') (A') (A') (A') (A') (A') (A') (A') (A')
                 (A") (A') (A') (A") (A") (A')
       Virtual   (A") (A') (A') (A') (A') (A') (A") (A') (A') (A')
                 (A") (A') (A") (A') (A') (A") (A') (A") (A') (A')
                 (A') (A') (A') (A') (A') (A") (A') (A") (A') (A')
                 (A") (A') (A") (A') (A') (A") (A') (A") (A') (A')
                 (A") (A') (A") (A') (A") (A') (A') (A') (A") (A")
                 (A') (A') (A') (A') (A") (A') (A") (A') (A") (A')
                 (A') (A') (A") (A') (A') (A") (A') (A") (A') (A')
                 (A") (A') (A') (A") (A") (A') (A') (A") (A') (A')
                 (A') (A") (A') (A") (A') (A") (A') (A") (A') (A')
                 (A') (A") (A') (A") (A') (A") (A") (A') (A') (A")
                 (A') (A') (A") (A') (A') (A') (A') (A") (A") (A')
                 (A") (A') (A') (A') (A") (A') (A') (A') (A") (A')
                 (A") (A') (A') (A") (A") (A') (A") (A') (A") (A')
                 (A') (A') (A') (A") (A") (A') (A") (A') (A') (A')
                 (A') (A") (A") (A') (A') (A") (A') (A') (A') (A')
                 (A') (A") (A') (A") (A') (A") (A') (A") (A") (A')
                 (A') (A") (A') (A") (A') (A") (A") (A") (A') (A')
                 (A") (A') (A") (A') (A') (A") (A") (A") (A') (A')
                 (A') (A') (A') (A') (A') (A') (A') (A') (A') (A')
                 (A')
 The electronic state of the initial guess is 1-A'.
 Leave Link  401 at Mon Feb 21 20:07:33 2022, MaxMem= 16106127360 cpu:               7.8 elap:               0.4
 (Enter /sw/contrib/gaussian/g16/B01/g16/l502.exe)
 Keep R1 ints in memory in symmetry-blocked form, NReq=348887737.
 FoFCou: FMM=F IPFlag=           0 FMFlag=           0 FMFlg1=           0
         NFxFlg=           0 DoJE=F BraDBF=F KetDBF=F FulRan=T
         wScrn=  0.000000 ICntrl=       600 IOpCl=  0 I1Cent=           0 NGrid=           0
         NMat0=    1 NMatS0=  21528 NMatT0=    0 NMatD0=    1 NMtDS0=    0 NMtDT0=    0
 Petite list used in FoFCou.
 Closed shell SCF:
 Using DIIS extrapolation, IDIIS=  1040.
 NGot= 16106127360 LenX= 15988850015 LenY= 15988789549
 Requested convergence on RMS density matrix=1.00D-08 within 128 cycles.
 Requested convergence on MAX density matrix=1.00D-06.
 Requested convergence on             energy=1.00D-06.
 No special actions if energy rises.

 Cycle   1  Pass 1  IDiag  1:
 E= -279.368013218271    
 DIIS: error= 2.96D-02 at cycle   1 NSaved=   1.
 NSaved= 1 IEnMin= 1 EnMin= -279.368013218271     IErMin= 1 ErrMin= 2.96D-02
 ErrMax= 2.96D-02  0.00D+00 EMaxC= 1.00D-01 BMatC= 4.38D-01 BMatP= 4.38D-01
 IDIUse=3 WtCom= 7.04D-01 WtEn= 2.96D-01
 Coeff-Com:  0.100D+01
 Coeff-En:   0.100D+01
 Coeff:      0.100D+01
 Gap=     0.516 Goal=   None    Shift=    0.000
 GapD=    0.516 DampG=2.000 DampE=0.500 DampFc=1.0000 IDamp=-1.
 RMSDP=1.62D-03 MaxDP=9.92D-02              OVMax= 1.15D-01

 Cycle   2  Pass 1  IDiag  1:
 E= -279.449327355561     Delta-E=       -0.081314137290 Rises=F Damp=F
 DIIS: error= 1.83D-02 at cycle   2 NSaved=   2.
 NSaved= 2 IEnMin= 2 EnMin= -279.449327355561     IErMin= 2 ErrMin= 1.83D-02
 ErrMax= 1.83D-02  0.00D+00 EMaxC= 1.00D-01 BMatC= 7.36D-02 BMatP= 4.38D-01
 IDIUse=3 WtCom= 8.17D-01 WtEn= 1.83D-01
 Coeff-Com:  0.198D+00 0.802D+00
 Coeff-En:   0.751D-02 0.992D+00
 Coeff:      0.163D+00 0.837D+00
 Gap=     0.530 Goal=   None    Shift=    0.000
 RMSDP=9.08D-04 MaxDP=3.72D-02 DE=-8.13D-02 OVMax= 7.01D-02

 Cycle   3  Pass 1  IDiag  1:
 E= -279.479183983845     Delta-E=       -0.029856628284 Rises=F Damp=F
 DIIS: error= 1.06D-02 at cycle   3 NSaved=   3.
 NSaved= 3 IEnMin= 3 EnMin= -279.479183983845     IErMin= 3 ErrMin= 1.06D-02
 ErrMax= 1.06D-02  0.00D+00 EMaxC= 1.00D-01 BMatC= 2.94D-02 BMatP= 7.36D-02
 IDIUse=3 WtCom= 8.94D-01 WtEn= 1.06D-01
 Coeff-Com: -0.333D-01 0.378D+00 0.655D+00
 Coeff-En:   0.000D+00 0.242D+00 0.758D+00
 Coeff:     -0.297D-01 0.364D+00 0.666D+00
 Gap=     0.511 Goal=   None    Shift=    0.000
 RMSDP=3.80D-04 MaxDP=1.50D-02 DE=-2.99D-02 OVMax= 3.86D-02

 Cycle   4  Pass 1  IDiag  1:
 E= -279.498738171813     Delta-E=       -0.019554187968 Rises=F Damp=F
 DIIS: error= 1.31D-03 at cycle   4 NSaved=   4.
 NSaved= 4 IEnMin= 4 EnMin= -279.498738171813     IErMin= 4 ErrMin= 1.31D-03
 ErrMax= 1.31D-03  0.00D+00 EMaxC= 1.00D-01 BMatC= 5.10D-04 BMatP= 2.94D-02
 IDIUse=3 WtCom= 9.87D-01 WtEn= 1.31D-02
 Coeff-Com: -0.120D-01 0.591D-01 0.162D+00 0.791D+00
 Coeff-En:   0.000D+00 0.000D+00 0.000D+00 0.100D+01
 Coeff:     -0.118D-01 0.583D-01 0.160D+00 0.794D+00
 Gap=     0.503 Goal=   None    Shift=    0.000
 RMSDP=9.04D-05 MaxDP=2.85D-03 DE=-1.96D-02 OVMax= 1.13D-02

 Cycle   5  Pass 1  IDiag  1:
 E= -279.499417682005     Delta-E=       -0.000679510192 Rises=F Damp=F
 DIIS: error= 7.47D-04 at cycle   5 NSaved=   5.
 NSaved= 5 IEnMin= 5 EnMin= -279.499417682005     IErMin= 5 ErrMin= 7.47D-04
 ErrMax= 7.47D-04  0.00D+00 EMaxC= 1.00D-01 BMatC= 8.81D-05 BMatP= 5.10D-04
 IDIUse=3 WtCom= 9.93D-01 WtEn= 7.47D-03
 Coeff-Com:  0.610D-02-0.718D-01-0.116D+00 0.265D-01 0.116D+01
 Coeff-En:   0.000D+00 0.000D+00 0.000D+00 0.000D+00 0.100D+01
 Coeff:      0.605D-02-0.713D-01-0.116D+00 0.263D-01 0.115D+01
 Gap=     0.502 Goal=   None    Shift=    0.000
 RMSDP=7.51D-05 MaxDP=2.07D-03 DE=-6.80D-04 OVMax= 1.08D-02

 Cycle   6  Pass 1  IDiag  1:
 E= -279.499729490339     Delta-E=       -0.000311808333 Rises=F Damp=F
 DIIS: error= 2.98D-04 at cycle   6 NSaved=   6.
 NSaved= 6 IEnMin= 6 EnMin= -279.499729490339     IErMin= 6 ErrMin= 2.98D-04
 ErrMax= 2.98D-04  0.00D+00 EMaxC= 1.00D-01 BMatC= 1.71D-05 BMatP= 8.81D-05
 IDIUse=3 WtCom= 9.97D-01 WtEn= 2.98D-03
 Coeff-Com:  0.873D-03-0.183D-02-0.150D-02-0.124D+00-0.183D+00 0.131D+01
 Coeff-En:   0.000D+00 0.000D+00 0.000D+00 0.000D+00 0.000D+00 0.100D+01
 Coeff:      0.871D-03-0.183D-02-0.150D-02-0.124D+00-0.183D+00 0.131D+01
 Gap=     0.503 Goal=   None    Shift=    0.000
 RMSDP=4.40D-05 MaxDP=1.23D-03 DE=-3.12D-04 OVMax= 5.35D-03

 Cycle   7  Pass 1  IDiag  1:
 E= -279.499801086743     Delta-E=       -0.000071596404 Rises=F Damp=F
 DIIS: error= 1.31D-04 at cycle   7 NSaved=   7.
 NSaved= 7 IEnMin= 7 EnMin= -279.499801086743     IErMin= 7 ErrMin= 1.31D-04
 ErrMax= 1.31D-04  0.00D+00 EMaxC= 1.00D-01 BMatC= 5.49D-06 BMatP= 1.71D-05
 IDIUse=3 WtCom= 9.99D-01 WtEn= 1.31D-03
 Coeff-Com: -0.948D-03 0.140D-01 0.272D-01-0.309D-01-0.310D+00 0.461D+00
 Coeff-Com:  0.840D+00
 Coeff-En:   0.000D+00 0.000D+00 0.000D+00 0.000D+00 0.000D+00 0.000D+00
 Coeff-En:   0.100D+01
 Coeff:     -0.947D-03 0.140D-01 0.271D-01-0.309D-01-0.310D+00 0.461D+00
 Coeff:      0.840D+00
 Gap=     0.503 Goal=   None    Shift=    0.000
 RMSDP=1.40D-05 MaxDP=3.88D-04 DE=-7.16D-05 OVMax= 1.61D-03

 Cycle   8  Pass 1  IDiag  1:
 E= -279.499811294406     Delta-E=       -0.000010207663 Rises=F Damp=F
 DIIS: error= 5.28D-05 at cycle   8 NSaved=   8.
 NSaved= 8 IEnMin= 8 EnMin= -279.499811294406     IErMin= 8 ErrMin= 5.28D-05
 ErrMax= 5.28D-05  0.00D+00 EMaxC= 1.00D-01 BMatC= 6.09D-07 BMatP= 5.49D-06
 IDIUse=1 WtCom= 1.00D+00 WtEn= 0.00D+00
 Coeff-Com: -0.446D-03 0.340D-02 0.749D-02 0.274D-01-0.406D-01-0.190D+00
 Coeff-Com:  0.829D-01 0.111D+01
 Coeff:     -0.446D-03 0.340D-02 0.749D-02 0.274D-01-0.406D-01-0.190D+00
 Coeff:      0.829D-01 0.111D+01
 Gap=     0.503 Goal=   None    Shift=    0.000
 RMSDP=7.43D-06 MaxDP=2.15D-04 DE=-1.02D-05 OVMax= 8.03D-04

 Cycle   9  Pass 1  IDiag  1:
 E= -279.499813255553     Delta-E=       -0.000001961147 Rises=F Damp=F
 DIIS: error= 1.59D-05 at cycle   9 NSaved=   9.
 NSaved= 9 IEnMin= 9 EnMin= -279.499813255553     IErMin= 9 ErrMin= 1.59D-05
 ErrMax= 1.59D-05  0.00D+00 EMaxC= 1.00D-01 BMatC= 6.62D-08 BMatP= 6.09D-07
 IDIUse=1 WtCom= 1.00D+00 WtEn= 0.00D+00
 Coeff-Com:  0.124D-03-0.172D-02-0.306D-02-0.191D-02 0.342D-01 0.518D-03
 Coeff-Com: -0.141D+00-0.145D+00 0.126D+01
 Coeff:      0.124D-03-0.172D-02-0.306D-02-0.191D-02 0.342D-01 0.518D-03
 Coeff:     -0.141D+00-0.145D+00 0.126D+01
 Gap=     0.503 Goal=   None    Shift=    0.000
 RMSDP=1.94D-06 MaxDP=6.62D-05 DE=-1.96D-06 OVMax= 1.72D-04

 Cycle  10  Pass 1  IDiag  1:
 E= -279.499813415015     Delta-E=       -0.000000159462 Rises=F Damp=F
 DIIS: error= 4.10D-06 at cycle  10 NSaved=  10.
 NSaved=10 IEnMin=10 EnMin= -279.499813415015     IErMin=10 ErrMin= 4.10D-06
 ErrMax= 4.10D-06  0.00D+00 EMaxC= 1.00D-01 BMatC= 5.54D-09 BMatP= 6.62D-08
 IDIUse=1 WtCom= 1.00D+00 WtEn= 0.00D+00
 Coeff-Com:  0.298D-04-0.227D-03-0.297D-03-0.264D-02 0.125D-02 0.192D-01
 Coeff-Com: -0.622D-02-0.792D-01-0.853D-01 0.115D+01
 Coeff:      0.298D-04-0.227D-03-0.297D-03-0.264D-02 0.125D-02 0.192D-01
 Coeff:     -0.622D-02-0.792D-01-0.853D-01 0.115D+01
 Gap=     0.503 Goal=   None    Shift=    0.000
 RMSDP=5.09D-07 MaxDP=2.12D-05 DE=-1.59D-07 OVMax= 4.10D-05

 Cycle  11  Pass 1  IDiag  1:
 E= -279.499813427593     Delta-E=       -0.000000012578 Rises=F Damp=F
 DIIS: error= 2.00D-06 at cycle  11 NSaved=  11.
 NSaved=11 IEnMin=11 EnMin= -279.499813427593     IErMin=11 ErrMin= 2.00D-06
 ErrMax= 2.00D-06  0.00D+00 EMaxC= 1.00D-01 BMatC= 6.48D-10 BMatP= 5.54D-09
 IDIUse=1 WtCom= 1.00D+00 WtEn= 0.00D+00
 Coeff-Com: -0.213D-04 0.243D-03 0.480D-03 0.504D-03-0.428D-02-0.326D-02
 Coeff-Com:  0.161D-01 0.369D-01-0.138D+00-0.179D+00 0.127D+01
 Coeff:     -0.213D-04 0.243D-03 0.480D-03 0.504D-03-0.428D-02-0.326D-02
 Coeff:      0.161D-01 0.369D-01-0.138D+00-0.179D+00 0.127D+01
 Gap=     0.503 Goal=   None    Shift=    0.000
 RMSDP=1.77D-07 MaxDP=6.44D-06 DE=-1.26D-08 OVMax= 1.74D-05

 Cycle  12  Pass 1  IDiag  1:
 E= -279.499813429375     Delta-E=       -0.000000001782 Rises=F Damp=F
 DIIS: error= 5.80D-07 at cycle  12 NSaved=  12.
 NSaved=12 IEnMin=12 EnMin= -279.499813429375     IErMin=12 ErrMin= 5.80D-07
 ErrMax= 5.80D-07  0.00D+00 EMaxC= 1.00D-01 BMatC= 7.14D-11 BMatP= 6.48D-10
 IDIUse=1 WtCom= 1.00D+00 WtEn= 0.00D+00
 Coeff-Com:  0.123D-05-0.292D-04-0.624D-04 0.188D-03 0.110D-02-0.223D-02
 Coeff-Com: -0.408D-02 0.503D-02 0.419D-01-0.116D+00-0.274D+00 0.135D+01
 Coeff:      0.123D-05-0.292D-04-0.624D-04 0.188D-03 0.110D-02-0.223D-02
 Coeff:     -0.408D-02 0.503D-02 0.419D-01-0.116D+00-0.274D+00 0.135D+01
 Gap=     0.503 Goal=   None    Shift=    0.000
 RMSDP=7.16D-08 MaxDP=2.83D-06 DE=-1.78D-09 OVMax= 6.74D-06

 Cycle  13  Pass 1  IDiag  1:
 E= -279.499813429606     Delta-E=       -0.000000000230 Rises=F Damp=F
 DIIS: error= 1.76D-07 at cycle  13 NSaved=  13.
 NSaved=13 IEnMin=13 EnMin= -279.499813429606     IErMin=13 ErrMin= 1.76D-07
 ErrMax= 1.76D-07  0.00D+00 EMaxC= 1.00D-01 BMatC= 4.13D-12 BMatP= 7.14D-11
 IDIUse=1 WtCom= 1.00D+00 WtEn= 0.00D+00
 Coeff-Com:  0.130D-05-0.141D-04-0.228D-04-0.871D-04 0.120D-03 0.727D-03
 Coeff-Com: -0.523D-03-0.358D-02 0.583D-03 0.418D-01-0.391D-01-0.323D+00
 Coeff-Com:  0.132D+01
 Coeff:      0.130D-05-0.141D-04-0.228D-04-0.871D-04 0.120D-03 0.727D-03
 Coeff:     -0.523D-03-0.358D-02 0.583D-03 0.418D-01-0.391D-01-0.323D+00
 Coeff:      0.132D+01
 Gap=     0.503 Goal=   None    Shift=    0.000
 RMSDP=1.94D-08 MaxDP=5.64D-07 DE=-2.30D-10 OVMax= 1.62D-06

 Cycle  14  Pass 1  IDiag  1:
 E= -279.499813429619     Delta-E=       -0.000000000013 Rises=F Damp=F
 DIIS: error= 2.61D-08 at cycle  14 NSaved=  14.
 NSaved=14 IEnMin=14 EnMin= -279.499813429619     IErMin=14 ErrMin= 2.61D-08
 ErrMax= 2.61D-08  0.00D+00 EMaxC= 1.00D-01 BMatC= 2.20D-13 BMatP= 4.13D-12
 IDIUse=1 WtCom= 1.00D+00 WtEn= 0.00D+00
 Coeff-Com: -0.199D-06 0.326D-05 0.575D-05 0.452D-05-0.862D-04 0.476D-04
 Coeff-Com:  0.246D-03 0.294D-03-0.254D-02 0.148D-02 0.178D-01-0.260D-01
 Coeff-Com: -0.210D+00 0.122D+01
 Coeff:     -0.199D-06 0.326D-05 0.575D-05 0.452D-05-0.862D-04 0.476D-04
 Coeff:      0.246D-03 0.294D-03-0.254D-02 0.148D-02 0.178D-01-0.260D-01
 Coeff:     -0.210D+00 0.122D+01
 Gap=     0.503 Goal=   None    Shift=    0.000
 RMSDP=4.00D-09 MaxDP=9.31D-08 DE=-1.31D-11 OVMax= 3.72D-07

 SCF Done:  E(RHF) =  -279.499813430     A.U. after   14 cycles
            NFock= 14  Conv=0.40D-08     -V/T= 2.0025
 KE= 2.788118523669D+02 PE=-8.940613344658D+02 EE= 2.193714180380D+02
 Leave Link  502 at Mon Feb 21 20:07:37 2022, MaxMem= 16106127360 cpu:              55.1 elap:               3.7
 (Enter /sw/contrib/gaussian/g16/B01/g16/l801.exe)
 ExpMin= 2.53D-02 ExpMax= 1.53D+04 ExpMxC= 5.22D+02 IAcc=3 IRadAn=         5 AccDes= 0.00D+00
 HarFok:  IExCor=  205 AccDes= 0.00D+00 IRadAn=         5 IDoV=-2 UseB2=F ITyADJ=14
 ICtDFT= 12500011 ScaDFX=  1.000000  1.000000  1.000000  1.000000
 Largest valence mixing into a core orbital is  2.08D-04
 Largest core mixing into a valence orbital is  3.64D-05
 Range of M.O.s used for correlation:     5   207
 NBasis=   207 NAE=    16 NBE=    16 NFC=     4 NFV=     0
 NROrb=    203 NOA=    12 NOB=    12 NVA=   191 NVB=   191

 **** Warning!!: The largest alpha MO coefficient is  0.17518891D+02

 Leave Link  801 at Mon Feb 21 20:07:37 2022, MaxMem= 16106127360 cpu:               2.2 elap:               0.1
 (Enter /sw/contrib/gaussian/g16/B01/g16/l906.exe)
 Frozen-core derivative calculation, NFC=   4 NFV=   0.
 FulOut=F Deriv=T AODrv=T NAtomX=     5
   MMem=           0  MDisk=          12 MDiskD=          12
  W3Min=      811440 MinDsk=     2425030 NBas6D=         245
 NBas2D=       30762    NTT=       30135    LW2=     7400000
    MDV= 16105574339 MDiskM=      328644 NBas2p=       30702
 Disk-based method using ON**2 memory for 12 occupieds at a time.
 Permanent disk used for amplitudes=    11516536 words.
 Estimated scratch disk usage=   321251614 words.
 IMap=   1   2   3   4   5   6   7   8   9  10  11  12  13  14  15  16
 Actual    scratch disk usage=   310331678 words.
 JobTyp=1 Pass  1:  I=   5 to  16 NPSUse= 28 ParTrn=T ParDer=T DoDerP=T.
 (rs|ai) integrals will be sorted in core.
 Spin components of T(2) and E(2):
     alpha-alpha T2 =       0.3421531046D-01 E2=     -0.1225327868D+00
     alpha-beta  T2 =       0.1883333718D+00 E2=     -0.7016491643D+00
     beta-beta   T2 =       0.3421531046D-01 E2=     -0.1225327868D+00
 The integrals were generated   1 times.
 ANorm=    0.1121054857D+01
 E2 =    -0.9467147378D+00 EUMP2 =    -0.28044652816743D+03
 Leave Link  906 at Mon Feb 21 20:09:15 2022, MaxMem= 16106127360 cpu:            2723.0 elap:              97.4
 (Enter /sw/contrib/gaussian/g16/B01/g16/l1101.exe)
 Using compressed Sx but separate Hx and Fx, NAtomX=     5.
 Will process      6 centers per pass.
 Leave Link 1101 at Mon Feb 21 20:09:15 2022, MaxMem= 16106127360 cpu:               6.2 elap:               0.3
 (Enter /sw/contrib/gaussian/g16/B01/g16/l1102.exe)
 Leave Link 1102 at Mon Feb 21 20:09:15 2022, MaxMem= 16106127360 cpu:               0.6 elap:               0.0
 (Enter /sw/contrib/gaussian/g16/B01/g16/l1110.exe)
 Forming Gx(P) for the SCF density, NAtomX=     5.
 Integral derivatives from FoFJK, PRISM(SPDF).
 Do as many integral derivatives as possible in FoFJK.
 G2DrvN: MDV=   16106126844.
 G2DrvN: will do     6 centers at a time, making    1 passes.
 Calling FoFCou, ICntrl=  3107 FMM=F I1Cent=   0 AccDes= 0.00D+00.
 FoFJK:  IHMeth= 1 ICntrl=    3107 DoSepK=F KAlg= 0 I1Cent=           0 FoldK=F
 IRaf=         0 NMat=       1 IRICut=       1 DoRegI=T DoRafI=F ISym2E= 1 IDoP0=0 IntGTp=1.
 FoFCou: FMM=F IPFlag=           0 FMFlag=      100000 FMFlg1=           0
         NFxFlg=           0 DoJE=F BraDBF=F KetDBF=F FulRan=T
         wScrn=  0.000000 ICntrl=      3107 IOpCl=  0 I1Cent=           0 NGrid=           0
         NMat0=    1 NMatS0=      1 NMatT0=    0 NMatD0=    1 NMtDS0=    0 NMtDT0=    0
 Petite list used in FoFCou.
 End of G2Drv F.D. properties file   721 does not exist.
 End of G2Drv F.D. properties file   722 does not exist.
 End of G2Drv F.D. properties file   788 does not exist.
 Leave Link 1110 at Mon Feb 21 20:09:18 2022, MaxMem= 16106127360 cpu:              83.5 elap:               3.0
 (Enter /sw/contrib/gaussian/g16/B01/g16/l1002.exe)
 Minotr:  Closed shell wavefunction.
          IDoAtm=11111
          Frozen-core window.
          Direct CPHF calculation.
          Differentiating once with respect to electric field.
                with respect to dipole field.
          Differentiating once with respect to nuclear coordinates.
          Requested convergence is 1.0D-08 RMS, and 1.0D-07 maximum.
          Secondary convergence is 1.0D-12 RMS, and 1.0D-12 maximum.
          NewPWx=T KeepS1=T KeepF1=T KeepIn=T MapXYZ=F SortEE=F KeepMc=T.
 Keep R1 ints in memory in symmetry-blocked form, NReq=348888983.
 FoFCou: FMM=F IPFlag=           0 FMFlag=           0 FMFlg1=           0
         NFxFlg=           0 DoJE=F BraDBF=F KetDBF=F FulRan=T
         wScrn=  0.000000 ICntrl=       600 IOpCl=  0 I1Cent=           0 NGrid=           0
         NMat0=    1 NMatS0=  21528 NMatT0=    0 NMatD0=    1 NMtDS0=    0 NMtDT0=    0
 Petite list used in FoFCou.
          MDV=   16106127360 using IRadAn=       1.
          Solving linear equations simultaneously, MaxMat=       0.
          There are    18 degrees of freedom in the 1st order CPHF.  IDoFFX=6 NUNeed=    18.
     15 vectors produced by pass  0 Test12= 1.70D-14 5.56D-09 XBig12= 8.55D+00 1.03D+00.
 AX will form    15 AO Fock derivatives at one time.
     15 vectors produced by pass  1 Test12= 1.70D-14 5.56D-09 XBig12= 1.38D+00 2.68D-01.
     15 vectors produced by pass  2 Test12= 1.70D-14 5.56D-09 XBig12= 1.46D-01 9.48D-02.
     15 vectors produced by pass  3 Test12= 1.70D-14 5.56D-09 XBig12= 5.05D-03 1.05D-02.
     15 vectors produced by pass  4 Test12= 1.70D-14 5.56D-09 XBig12= 1.00D-04 1.88D-03.
     15 vectors produced by pass  5 Test12= 1.70D-14 5.56D-09 XBig12= 1.43D-06 1.77D-04.
     15 vectors produced by pass  6 Test12= 1.70D-14 5.56D-09 XBig12= 1.13D-08 1.50D-05.
     12 vectors produced by pass  7 Test12= 1.70D-14 5.56D-09 XBig12= 8.30D-11 1.29D-06.
      3 vectors produced by pass  8 Test12= 1.70D-14 5.56D-09 XBig12= 5.91D-13 1.24D-07.
      2 vectors produced by pass  9 Test12= 1.70D-14 5.56D-09 XBig12= 3.91D-15 1.05D-08.
 InvSVY:  IOpt=1 It=  1 EMax= 1.55D-15
 Solved reduced A of dimension   122 with    15 vectors.
 FullF1:  Do perturbations      1 to      18.
 Saving first derivative matrices.
 End of Minotr F.D. properties file   721 does not exist.
 End of Minotr F.D. properties file   722 does not exist.
 End of Minotr F.D. properties file   788 does not exist.
 Leave Link 1002 at Mon Feb 21 20:09:21 2022, MaxMem= 16106127360 cpu:              82.1 elap:               3.0
 (Enter /sw/contrib/gaussian/g16/B01/g16/l811.exe)
 MDV= 16106127360.
 Form MO integral derivatives with frozen-active canonical formalism.
 MOERI=1 MOERIx=1 NAtoms=     5 NAtomX=     5.
 Discarding MO integrals.
 MO basis two electron integral derivatives will not be stored on disk.
 IAlg= 3 DoFC=T DoPWx=T Debug=F.
 Frozen-core window:  NFC=   4 NFV=   0.
 Reordered first order wavefunction length =     18678272
 In DefCFB: NBatch=  1 ICI= 16 ICA=191 LFMax= 96
            Large arrays: LIAPS=   619940160 LIARS=   288257200 words.
 In StABat: MaxSiz= 55 MinSiz= 25 NAtomB=  5
 DoIAMN: NPSUse= 28.
 Leave Link  811 at Mon Feb 21 20:10:41 2022, MaxMem= 16106127360 cpu:            2237.0 elap:              80.1
 (Enter /sw/contrib/gaussian/g16/B01/g16/l804.exe)
 Frozen-core window:  NFC=   4 NFV=   0.
 Closed-shell transformation, MDV= 16106127360 ITran=4 ISComp=1.
 Semi-Direct transformation.
 ModeAB=           2 MOrb=            16 LenV=   16104923065
 LASXX=     67341636 LTotXX=    67341636 LenRXX=    67341636
 LTotAB=    68301760 MaxLAS=    99807120 LenRXY=    99807120
 NonZer=   134683272 LenScr=   202817536 LnRSAI=           0
 LnScr1=           0 LExtra=           0 Total=    369966292
 MaxDsk=          -1 SrtSym=           F ITran=            4
 DoSDTr:  NPSUse= 28
 JobTyp=0 Pass  1:  I=   1 to  16.
 (rs|ai) integrals will be sorted in core.
 Complete sort for first half transformation.
 First half transformation complete.
 Begin second half transformation for I=  10.
 Begin second half transformation for I=  10.
 Complete sort for second half transformation.
 Second half transformation complete.
 Spin components of T(2) and E(2):
     alpha-alpha T2 =       0.3421531046D-01 E2=     -0.1225327868D+00
     alpha-beta  T2 =       0.1883333718D+00 E2=     -0.7016491643D+00
     beta-beta   T2 =       0.3421531046D-01 E2=     -0.1225327868D+00
 ANorm=    0.1585410983D+01
 E2 =    -0.9467147378D+00 EUMP2 =    -0.28044652816743D+03
 Leave Link  804 at Mon Feb 21 20:10:57 2022, MaxMem= 16106127360 cpu:             432.6 elap:              15.5
 (Enter /sw/contrib/gaussian/g16/B01/g16/l1002.exe)
 Minotr:  Closed shell wavefunction.
          Computing MP2/KS-MP2 derivatives.
          Using Z-Vector for PSCF gradient.
          Skipping F1 and S1 gradient terms here.
          IDoAtm=11111
          Frozen-core window.
          Using MO integrals in the linear equations.
          Forming densities via direct SCF.
          Differentiating once with respect to electric field.
                with respect to dipole field.
          Differentiating once with respect to nuclear coordinates.
          Using symmetry in CPHF.
          Requested convergence is 1.0D-10 RMS, and 1.0D-09 maximum.
          NewPWx=F KeepS1=T KeepF1=T KeepIn=T MapXYZ=F SortEE=F KeepMc=T.
          MDV=   16106127360 using IRadAn=       5.
          Solving linear equations separately, MaxMat=       0.
          There are     1 degrees of freedom in the 1st order CPHF.  IDoFFX=0 NUNeed=     1.
 FoFJK:  IHMeth= 1 ICntrl=       0 DoSepK=F KAlg= 0 I1Cent=           0 FoldK=F
 IRaf=         0 NMat=       1 IRICut=       1 DoRegI=T DoRafI=F ISym2E= 0 IDoP0=0 IntGTp=1.
 FoFCou: FMM=F IPFlag=           0 FMFlag=      100000 FMFlg1=           0
         NFxFlg=           0 DoJE=F BraDBF=F KetDBF=F FulRan=T
         wScrn=  0.000000 ICntrl=         0 IOpCl=  0 I1Cent=           0 NGrid=           0
         NMat0=    1 NMatS0=      1 NMatT0=    0 NMatD0=    1 NMtDS0=    0 NMtDT0=    0
 Symmetry not used in FoFCou.
 LinEq1:  Iter=  0 NonCon=     1 RMS=5.99D-03 Max=1.34D-01 NDo=     1
 LinEq1:  Iter=  1 NonCon=     1 RMS=1.91D-03 Max=3.79D-02 NDo=     1
 LinEq1:  Iter=  2 NonCon=     1 RMS=8.72D-04 Max=1.44D-02 NDo=     1
 LinEq1:  Iter=  3 NonCon=     1 RMS=3.87D-04 Max=7.72D-03 NDo=     1
 LinEq1:  Iter=  4 NonCon=     1 RMS=1.19D-04 Max=1.86D-03 NDo=     1
 LinEq1:  Iter=  5 NonCon=     1 RMS=4.35D-05 Max=6.88D-04 NDo=     1
 LinEq1:  Iter=  6 NonCon=     1 RMS=1.99D-05 Max=2.19D-04 NDo=     1
 LinEq1:  Iter=  7 NonCon=     1 RMS=8.16D-06 Max=1.33D-04 NDo=     1
 LinEq1:  Iter=  8 NonCon=     1 RMS=3.51D-06 Max=3.39D-05 NDo=     1
 LinEq1:  Iter=  9 NonCon=     1 RMS=9.58D-07 Max=1.34D-05 NDo=     1
 LinEq1:  Iter= 10 NonCon=     1 RMS=1.89D-07 Max=2.08D-06 NDo=     1
 LinEq1:  Iter= 11 NonCon=     1 RMS=3.51D-08 Max=3.65D-07 NDo=     1
 LinEq1:  Iter= 12 NonCon=     1 RMS=8.56D-09 Max=1.12D-07 NDo=     1
 LinEq1:  Iter= 13 NonCon=     1 RMS=1.60D-09 Max=2.29D-08 NDo=     1
 LinEq1:  Iter= 14 NonCon=     1 RMS=2.90D-10 Max=4.06D-09 NDo=     1
 LinEq1:  Iter= 15 NonCon=     0 RMS=5.27D-11 Max=5.48D-10 NDo=     1
 Linear equations converged to 1.000D-10 1.000D-09 after    15 iterations.
 End of Minotr F.D. properties file   721 does not exist.
 End of Minotr F.D. properties file   722 does not exist.
 End of Minotr F.D. properties file   788 does not exist.
 Leave Link 1002 at Mon Feb 21 20:10:59 2022, MaxMem= 16106127360 cpu:              65.7 elap:               2.4
 (Enter /sw/contrib/gaussian/g16/B01/g16/l1102.exe)
 Use density number 2.
 Symmetrizing basis deriv contribution to polar:
 IMax=3 JMax=2 DiffMx= 0.00D+00
 Leave Link 1102 at Mon Feb 21 20:10:59 2022, MaxMem= 16106127360 cpu:               1.6 elap:               0.1
 (Enter /sw/contrib/gaussian/g16/B01/g16/l1110.exe)
 Forming Gx(P) for generalized density number  2 NAtomX=     5.
 Integral derivatives from FoFJK, PRISM(SPDF).
 Do as many integral derivatives as possible in FoFJK.
 G2DrvN: MDV=   16106126844.
 G2DrvN: will do     6 centers at a time, making    1 passes.
 Calling FoFCou, ICntrl=  3107 FMM=F I1Cent=   0 AccDes= 0.00D+00.
 FoFJK:  IHMeth= 1 ICntrl=    3107 DoSepK=F KAlg= 0 I1Cent=           0 FoldK=F
 IRaf=         0 NMat=       1 IRICut=       1 DoRegI=T DoRafI=F ISym2E= 1 IDoP0=0 IntGTp=1.
 FoFCou: FMM=F IPFlag=           0 FMFlag=      100000 FMFlg1=           0
         NFxFlg=           0 DoJE=F BraDBF=F KetDBF=F FulRan=T
         wScrn=  0.000000 ICntrl=      3107 IOpCl=  0 I1Cent=           0 NGrid=           0
         NMat0=    1 NMatS0=      1 NMatT0=    0 NMatD0=    1 NMtDS0=    0 NMtDT0=    0
 Petite list used in FoFCou.
 End of G2Drv F.D. properties file   721 does not exist.
 End of G2Drv F.D. properties file   722 does not exist.
 End of G2Drv F.D. properties file   788 does not exist.
 Leave Link 1110 at Mon Feb 21 20:11:02 2022, MaxMem= 16106127360 cpu:              84.9 elap:               3.1
 (Enter /sw/contrib/gaussian/g16/B01/g16/l1112.exe)
 MP22nd: MDV=   16106127360
 This link is doing NAtomX=     5 total of    18 degrees of freedom.
 Using ON3 I/O method in MakUI.
 Frozen-core window:  NFC=   4 NFV=   0.
 Using Ix for Sx.
 Use MO integrals over full window.
 Using OV2 memory method for fx*t*t/D, MaxI=    16 DoOO2=F NP=  28.
 R2 and R3 integrals will be kept in memory, NReq=   915591705.
 FoFCou: FMM=F IPFlag=           0 FMFlag=           0 FMFlg1=           0
         NFxFlg=           0 DoJE=F BraDBF=F KetDBF=F FulRan=T
         wScrn=  0.000000 ICntrl=       600 IOpCl=  0 I1Cent=           0 NGrid=           0
         NMat0=    1 NMatS0=      1 NMatT0=    0 NMatD0=    1 NMtDS0=    0 NMtDT0=    0
 Symmetry not used in FoFCou.
 DD1Dir will call FoFMem   1 times, MxPair=       272
 NAB=   136 NAA=     0 NBB=     0.
 Symmetry is being used.
 FoFJK:  IHMeth= 1 ICntrl=       0 DoSepK=F KAlg= 0 I1Cent=           0 FoldK=F
 IRaf=         0 NMat=      18 IRICut=      45 DoRegI=T DoRafI=T ISym2E= 2 IDoP0=3 IntGTp=3.
 Discarding MO integrals.
 Leave Link 1112 at Mon Feb 21 20:11:42 2022, MaxMem= 16106127360 cpu:            1092.4 elap:              39.5
 (Enter /sw/contrib/gaussian/g16/B01/g16/l601.exe)
 Copying SCF densities to generalized density rwf, IOpCl= 0 IROHF=0.

 **********************************************************************

            Population analysis using the MP2 Density.

 **********************************************************************

 Orbital symmetries:
       Occupied  (A') (A') (A') (A') (A') (A') (A') (A') (A') (A')
                 (A") (A') (A") (A') (A") (A')
       Virtual   (A') (A") (A') (A') (A') (A") (A') (A') (A") (A')
                 (A") (A') (A') (A') (A") (A') (A') (A") (A') (A')
                 (A') (A') (A') (A') (A") (A') (A') (A") (A') (A')
                 (A") (A') (A") (A') (A') (A") (A') (A') (A") (A')
                 (A") (A') (A") (A') (A') (A") (A') (A') (A") (A')
                 (A") (A') (A') (A') (A") (A') (A") (A') (A") (A')
                 (A') (A') (A") (A') (A') (A") (A') (A") (A') (A')
                 (A") (A') (A') (A") (A") (A') (A') (A") (A') (A')
                 (A') (A") (A') (A") (A') (A") (A') (A") (A') (A')
                 (A") (A') (A') (A") (A') (A") (A') (A") (A') (A')
                 (A") (A') (A") (A') (A') (A") (A') (A') (A") (A')
                 (A") (A') (A') (A') (A") (A') (A') (A') (A") (A')
                 (A") (A') (A") (A') (A') (A") (A") (A') (A") (A')
                 (A') (A') (A') (A") (A") (A") (A') (A') (A') (A')
                 (A") (A') (A") (A') (A') (A") (A') (A') (A') (A')
                 (A') (A") (A') (A") (A') (A") (A') (A") (A") (A')
                 (A') (A") (A') (A") (A') (A") (A") (A') (A") (A')
                 (A") (A') (A") (A') (A") (A') (A") (A") (A') (A')
                 (A') (A') (A') (A') (A') (A') (A') (A') (A') (A')
                 (A')
 The electronic state is 1-A'.
 Alpha  occ. eigenvalues --  -20.69201 -20.68464 -20.66171 -15.81322  -1.62349
 Alpha  occ. eigenvalues --   -1.48789  -1.25798  -0.94779  -0.77073  -0.75760
 Alpha  occ. eigenvalues --   -0.71006  -0.67939  -0.61854  -0.58656  -0.48877
 Alpha  occ. eigenvalues --   -0.47294
 Alpha virt. eigenvalues --    0.02959   0.07165   0.08540   0.10162   0.13286
 Alpha virt. eigenvalues --    0.13398   0.14397   0.15444   0.17830   0.19436
 Alpha virt. eigenvalues --    0.19989   0.20609   0.21641   0.22898   0.23722
 Alpha virt. eigenvalues --    0.26592   0.29328   0.30371   0.31000   0.34231
 Alpha virt. eigenvalues --    0.34897   0.38696   0.42105   0.43132   0.52701
 Alpha virt. eigenvalues --    0.52885   0.55816   0.58107   0.62557   0.63843
 Alpha virt. eigenvalues --    0.67458   0.68468   0.70474   0.71173   0.72304
 Alpha virt. eigenvalues --    0.72990   0.74485   0.79013   0.79182   0.81033
 Alpha virt. eigenvalues --    0.81236   0.82921   0.86802   0.90625   0.92160
 Alpha virt. eigenvalues --    0.92462   0.95739   0.97647   0.98331   1.01639
 Alpha virt. eigenvalues --    1.05055   1.05527   1.08048   1.11548   1.13821
 Alpha virt. eigenvalues --    1.18810   1.22075   1.23120   1.33827   1.34919
 Alpha virt. eigenvalues --    1.38600   1.45283   1.48813   1.51032   1.53683
 Alpha virt. eigenvalues --    1.56532   1.57847   1.61202   1.66042   1.66876
 Alpha virt. eigenvalues --    1.70297   1.79056   1.82991   1.83429   1.87630
 Alpha virt. eigenvalues --    1.90837   1.95585   1.98971   2.00784   2.07656
 Alpha virt. eigenvalues --    2.11628   2.13170   2.14611   2.22348   2.26018
 Alpha virt. eigenvalues --    2.26334   2.28833   2.31215   2.33835   2.38840
 Alpha virt. eigenvalues --    2.42109   2.42558   2.45265   2.46313   2.47436
 Alpha virt. eigenvalues --    2.49927   2.58686   2.59375   2.61388   2.62188
 Alpha virt. eigenvalues --    2.62903   2.66177   2.75624   2.82326   2.85008
 Alpha virt. eigenvalues --    2.87430   2.88383   2.91758   2.95312   3.01113
 Alpha virt. eigenvalues --    3.06840   3.12578   3.18016   3.22101   3.30912
 Alpha virt. eigenvalues --    3.34873   3.51016   3.64015   3.83820   3.83959
 Alpha virt. eigenvalues --    4.14515   4.15655   4.18059   4.25516   4.34694
 Alpha virt. eigenvalues --    4.38862   4.44479   4.52232   4.65886   4.69997
 Alpha virt. eigenvalues --    4.80289   4.82309   4.83152   4.89404   5.02169
 Alpha virt. eigenvalues --    5.07674   5.09913   5.14491   5.17832   5.23981
 Alpha virt. eigenvalues --    5.27200   5.30757   5.32684   5.35034   5.59450
 Alpha virt. eigenvalues --    5.67331   5.76367   5.79301   5.95072   6.16450
 Alpha virt. eigenvalues --    6.33517   6.34043   6.39916   6.49533   6.50567
 Alpha virt. eigenvalues --    6.61807   6.68105   6.70194   6.75484   6.75906
 Alpha virt. eigenvalues --    6.83186   6.89649   6.99743   7.02736   7.04089
 Alpha virt. eigenvalues --    7.07622   7.12205   7.13712   7.17557   7.21981
 Alpha virt. eigenvalues --    7.23685   7.30342   7.32443   7.34758   7.39450
 Alpha virt. eigenvalues --    7.40707   7.48254   7.59298   7.61064   7.61699
 Alpha virt. eigenvalues --    7.65836   7.76938   7.88209   8.05958   8.28789
 Alpha virt. eigenvalues --    8.38689   8.54515  13.33264  14.36950  15.14114
 Alpha virt. eigenvalues --   16.14991
          Condensed to atoms (all electrons):
               1          2          3          4          5
     1  H    0.588231   0.127931   0.021024   0.011974  -0.000570
     2  O    0.127931   8.297872  -0.149479  -0.087162   0.014871
     3  O    0.021024  -0.149479   8.446616  -0.132070  -0.037968
     4  N    0.011974  -0.087162  -0.132070   6.969001  -0.055086
     5  O   -0.000570   0.014871  -0.037968  -0.055086   8.271355
 Mulliken charges:
               1
     1  H    0.251411
     2  O   -0.204033
     3  O   -0.148122
     4  N    0.293344
     5  O   -0.192600
 Sum of Mulliken charges =  -0.00000
 Mulliken charges with hydrogens summed into heavy atoms:
               1
     2  O    0.047378
     3  O   -0.148122
     4  N    0.293344
     5  O   -0.192600
 APT charges:
               1
     1  H    0.297858
     2  O   -0.289369
     3  O   -0.495605
     4  N    0.877547
     5  O   -0.390432
 Sum of APT charges =  -0.00000
 APT charges with hydrogens summed into heavy atoms:
               1
     2  O    0.008490
     3  O   -0.495605
     4  N    0.877547
     5  O   -0.390432
 Electronic spatial extent (au):  <R**2>=            254.8360
 Charge=             -0.0000 electrons
 Dipole moment (field-independent basis, Debye):
    X=              0.5119    Y=              1.3429    Z=              0.0000  Tot=              1.4372
 Quadrupole moment (field-independent basis, Debye-Ang):
   XX=            -22.3579   YY=            -18.6901   ZZ=            -22.0382
   XY=              3.3185   XZ=             -0.0000   YZ=             -0.0000
 Traceless Quadrupole moment (field-independent basis, Debye-Ang):
   XX=             -1.3292   YY=              2.3386   ZZ=             -1.0095
   XY=              3.3185   XZ=             -0.0000   YZ=             -0.0000
 Octapole moment (field-independent basis, Debye-Ang**2):
  XXX=              3.1577  YYY=             11.0240  ZZZ=             -0.0000  XYY=              7.9298
  XXY=              6.7793  XXZ=              0.0000  XZZ=             -1.6186  YZZ=             -0.8681
  YYZ=              0.0000  XYZ=              0.0000
 Hexadecapole moment (field-independent basis, Debye-Ang**3):
 XXXX=           -161.4876 YYYY=            -88.8364 ZZZZ=            -18.2959 XXXY=            -36.2157
 XXXZ=             -0.0000 YYYX=            -30.8388 YYYZ=             -0.0000 ZZZX=             -0.0000
 ZZZY=             -0.0000 XXYY=            -33.9963 XXZZ=            -31.5153 YYZZ=            -20.4522
 XXYZ=             -0.0000 YYXZ=             -0.0000 ZZXY=            -15.0905
 N-N= 1.163782506313D+02 E-N=-8.948540991976D+02  KE= 2.801702671464D+02
 Symmetry A'   KE= 2.662101286175D+02
 Symmetry A"   KE= 1.396013852891D+01
  Exact polarizability:  34.494   9.503  30.172   0.000   0.000  17.995
 Approx polarizability:  29.610   5.089  23.476   0.000   0.000  15.555
 No NMR shielding tensors so no spin-rotation constants.
 Leave Link  601 at Mon Feb 21 20:11:42 2022, MaxMem= 16106127360 cpu:               4.5 elap:               0.2
 (Enter /sw/contrib/gaussian/g16/B01/g16/l701.exe)
 ... and contract with generalized density number  2.
 Compute integral second derivatives.
 Leave Link  701 at Mon Feb 21 20:11:42 2022, MaxMem= 16106127360 cpu:               5.9 elap:               0.2
 (Enter /sw/contrib/gaussian/g16/B01/g16/l702.exe)
 L702 exits ... SP integral derivatives will be done elsewhere.
 Leave Link  702 at Mon Feb 21 20:11:42 2022, MaxMem= 16106127360 cpu:               0.5 elap:               0.0
 (Enter /sw/contrib/gaussian/g16/B01/g16/l703.exe)
 Integral derivatives from FoFJK, PRISM(SPDF).
 Compute integral second derivatives, UseDBF=F ICtDFT=           0.
 Calling FoFJK, ICntrl=  10100127 FMM=F ISym2X=1 I1Cent= 0 IOpClX= 0 NMat=1 NMatS=1 NMatT=0.
 FoFJK:  IHMeth= 1 ICntrl=10100127 DoSepK=F KAlg= 0 I1Cent=           0 FoldK=F
 IRaf=         0 NMat=       1 IRICut=       1 DoRegI=T DoRafI=F ISym2E= 1 IDoP0=0 IntGTp=1.
 FoFCou: FMM=F IPFlag=           0 FMFlag=      100000 FMFlg1=         800
         NFxFlg=           0 DoJE=F BraDBF=F KetDBF=F FulRan=T
         wScrn=  0.000000 ICntrl=  10100127 IOpCl=  0 I1Cent=           0 NGrid=           0
         NMat0=    1 NMatS0=      1 NMatT0=    0 NMatD0=    1 NMtDS0=    0 NMtDT0=    0
 Petite list used in FoFCou.
 Leave Link  703 at Mon Feb 21 20:11:58 2022, MaxMem= 16106127360 cpu:             421.4 elap:              15.1
 (Enter /sw/contrib/gaussian/g16/B01/g16/l716.exe)
 Dipole        = 2.01403719D-01 5.28353740D-01 1.33538004D-32
 Polarizability= 3.44935842D+01 9.50259553D+00 3.01720971D+01
                 2.07631317D-31 4.01241387D-31 1.79946999D+01
 Full mass-weighted force constant matrix:
 Low frequencies --- -277.3687  -28.3881   -0.0018   -0.0017   -0.0009   42.0324
 Low frequencies ---   66.2200  236.8234  343.8200
 ******    1 imaginary frequencies (negative Signs) ****** 
 Diagonal vibrational polarizability:
       14.7258794      24.8647539      43.9884979
 Harmonic frequencies (cm**-1), IR intensities (KM/Mole), Raman scattering
 activities (A**4/AMU), depolarization ratios for plane and unpolarized
 incident light, reduced masses (AMU), force constants (mDyne/A),
 and normal coordinates:
                      1                      2                      3
                     A"                     A"                     A'
 Frequencies --   -276.8989               235.2733               343.6594
 Red. masses --      1.1418                10.2655                 8.7491
 Frc consts  --      0.0516                 0.3348                 0.6088
 IR Inten    --    124.0228                 0.9424                 2.3859
  Atom  AN      X      Y      Z        X      Y      Z        X      Y      Z
     1   1    -0.00  -0.00   1.00    -0.00   0.00  -0.59     0.52  -0.45  -0.00
     2   8     0.00  -0.00  -0.07     0.00   0.00  -0.30    -0.11  -0.39  -0.00
     3   8    -0.00   0.00  -0.04     0.00   0.00   0.32    -0.15   0.41   0.00
     4   7    -0.00   0.00   0.06    -0.00  -0.00   0.52     0.06   0.28   0.00
     5   8    -0.00  -0.00  -0.01    -0.00  -0.00  -0.44     0.18  -0.24  -0.00
                      4                      5                      6
                     A'                     A'                     A'
 Frequencies --    445.7755               770.6854               929.0602
 Red. masses --     12.1253                13.2557                14.7123
 Frc consts  --      1.4196                 4.6388                 7.4820
 IR Inten    --    198.6135               160.5829                36.1943
  Atom  AN      X      Y      Z        X      Y      Z        X      Y      Z
     1   1     0.44   0.16   0.00    -0.31   0.19   0.00    -0.26  -0.00  -0.00
     2   8     0.33   0.17   0.00     0.48   0.07   0.00    -0.44   0.04   0.00
     3   8     0.16   0.46  -0.00    -0.16  -0.27  -0.00     0.72  -0.05  -0.00
     4   7    -0.35  -0.37  -0.00    -0.12   0.60  -0.00    -0.14   0.32  -0.00
     5   8    -0.21  -0.31   0.00    -0.20  -0.34   0.00    -0.14  -0.27   0.00
                      7                      8                      9
                     A'                     A'                     A'
 Frequencies --   1348.5988              1676.3229              3780.5938
 Red. masses --      1.1324                13.4211                 1.0677
 Frc consts  --      1.2134                22.2204                 8.9910
 IR Inten    --    151.0566               141.6746                81.5109
  Atom  AN      X      Y      Z        X      Y      Z        X      Y      Z
     1   1     0.99  -0.06  -0.00    -0.32   0.01   0.00     0.11   0.99   0.00
     2   8    -0.03   0.05  -0.00    -0.00  -0.04  -0.00    -0.01  -0.06  -0.00
     3   8    -0.02  -0.05   0.00     0.00   0.15  -0.00     0.00   0.00  -0.00
     4   7     0.02   0.01   0.00     0.71  -0.06   0.00    -0.00  -0.00   0.00
     5   8    -0.03  -0.01  -0.00    -0.60  -0.06   0.00     0.00   0.00   0.00

 -------------------
 - Thermochemistry -
 -------------------
 Temperature   298.150 Kelvin.  Pressure   1.00000 Atm.
 Atom     1 has atomic number  1 and mass   1.00783
 Atom     2 has atomic number  8 and mass  15.99491
 Atom     3 has atomic number  8 and mass  15.99491
 Atom     4 has atomic number  7 and mass  14.00307
 Atom     5 has atomic number  8 and mass  15.99491
 Molecular mass:    62.99564 amu.
 Principal axes and moments of inertia in atomic units:
                           1         2         3
     Eigenvalues --    33.13660 363.57531 396.71190
           X            0.81748  -0.57596   0.00000
           Y            0.57596   0.81748   0.00000
           Z            0.00000  -0.00000   1.00000
 This molecule is an asymmetric top.
 Rotational symmetry number  1.
 Rotational temperatures (Kelvin)      2.61384     0.23823     0.21833
 Rotational constants (GHZ):          54.46368     4.96387     4.54925
    1 imaginary frequencies ignored.
 Zero-point vibrational energy      57001.9 (Joules/Mol)
                                   13.62378 (Kcal/Mol)
 Warning -- explicit consideration of   3 degrees of freedom as
           vibrations may cause significant error
 Vibrational temperatures:    338.51   494.45   641.37  1108.84  1336.71
          (Kelvin)           1940.33  2411.85  5439.43
 
 Zero-point correction=                           0.021711 (Hartree/Particle)
 Thermal correction to Energy=                    0.025834
 Thermal correction to Enthalpy=                  0.026778
 Thermal correction to Gibbs Free Energy=        -0.004415
 Sum of electronic and zero-point Energies=           -280.424817
 Sum of electronic and thermal Energies=              -280.420694
 Sum of electronic and thermal Enthalpies=            -280.419750
 Sum of electronic and thermal Free Energies=         -280.450943
 
                     E (Thermal)             CV                S
                      KCal/Mol        Cal/Mol-Kelvin    Cal/Mol-Kelvin
 Total                   16.211             12.034             65.652
 Electronic               0.000              0.000              0.000
 Translational            0.889              2.981             38.341
 Rotational               0.889              2.981             23.084
 Vibrational             14.434              6.073              4.227
 Vibration     1          0.655              1.787              1.838
 Vibration     2          0.722              1.588              1.195
 Vibration     3          0.805              1.370              0.809
                       Q            Log10(Q)             Ln(Q)
 Total Bot       0.107358D+03          2.030836          4.676173
 Total V=0       0.104024D+13         12.017133         27.670472
 Vib (Bot)       0.220741D-09         -9.656118        -22.234033
 Vib (Bot)    1  0.835196D+00         -0.078212         -0.180089
 Vib (Bot)    2  0.539062D+00         -0.268361         -0.617925
 Vib (Bot)    3  0.386009D+00         -0.413402         -0.951893
 Vib (V=0)       0.213884D+01          0.330179          0.760266
 Vib (V=0)    1  0.147342D+01          0.168327          0.387588
 Vib (V=0)    2  0.123525D+01          0.091754          0.211271
 Vib (V=0)    3  0.113167D+01          0.053719          0.123692
 Electronic      0.100000D+01          0.000000          0.000000
 Translational   0.196526D+08          7.293420         16.793719
 Rotational      0.247477D+05          4.393534         10.116487
 
                                                                title
                                                             IR Spectrum
 
     3                                                                      1          1                                             
     7                                                                      6          3             9     7          4  3   2       
     8                                                                      7          4             2     7          4  4   3       
     1                                                                      6          9             9     1          6  4   5       
 
     X                                                                      X          X             X     X          X  X   X       
     X                                                                      X          X             X     X          X              
     X                                                                      X          X             X     X          X              
     X                                                                      X          X             X     X          X              
     X                                                                      X          X                   X          X              
     X                                                                      X          X                   X          X              
     X                                                                      X          X                   X          X              
     X                                                                      X          X                   X          X              
                                                                            X          X                   X          X              
                                                                            X          X                   X          X              
                                                                            X          X                   X          X              
                                                                            X          X                   X          X              
                                                                            X          X                   X          X              
                                                                            X          X                   X          X              
                                                                                       X                   X          X              
                                                                                                           X          X              
                                                                                                                      X              
                                                                                                                      X              
                                                                                                                      X              
                                                                                                                      X              
 
 ***** Axes restored to original set *****
 -------------------------------------------------------------------
 Center     Atomic                   Forces (Hartrees/Bohr)
 Number     Number              X              Y              Z
 -------------------------------------------------------------------
      1        1           0.001379076    0.000000000   -0.000403349
      2        8           0.008679654    0.000000000    0.003463103
      3        8          -0.008711906   -0.000000000   -0.002997556
      4        7          -0.001680346   -0.000000000    0.000534974
      5        8           0.000333522   -0.000000000   -0.000597173
 -------------------------------------------------------------------
 Cartesian Forces:  Max     0.008711906 RMS     0.003443393
 -----------------------------------------------------------------------------------------------
                       Internal Coordinate Forces (Hartree/Bohr or radian)
  Cent   Atom   N1       Length/X         N2         Alpha/Y        N3         Beta/Z          J
 -----------------------------------------------------------------------------------------------
      1  H 
      2  O        1   0.000403(     1)
      3  O        2  -0.010375(     2)      1  -0.002525(     5)
      4  N        3  -0.000172(     3)      2  -0.002223(     6)      1   0.000000(     8)     0
      5  O        4   0.000175(     4)      3  -0.001463(     7)      2   0.000000(     9)     0
 -----------------------------------------------------------------------------------------------
 Internal  Forces:  Max     0.010374892 RMS     0.003671533
 Force constants in Cartesian coordinates: 
                1             2             3             4             5 
      1  0.625209D-01
      2  0.000000D+00 -0.252976D-02
      3  0.406514D-02  0.000000D+00  0.512834D+00
      4 -0.360137D-01  0.000000D+00 -0.154224D-01  0.245539D+00
      5  0.000000D+00  0.365380D-02  0.000000D+00  0.000000D+00  0.441891D-02
      6  0.472192D-01  0.000000D+00 -0.509524D+00  0.263916D-01  0.000000D+00
      7 -0.160672D-01  0.000000D+00  0.127974D-01 -0.194631D+00  0.000000D+00
      8  0.000000D+00  0.458783D-03  0.000000D+00  0.000000D+00 -0.908091D-02
      9 -0.507806D-01  0.000000D+00  0.154244D-03 -0.136405D-01  0.000000D+00
     10 -0.932260D-02  0.000000D+00 -0.468497D-02 -0.159437D-01  0.000000D+00
     11  0.000000D+00 -0.255559D-02  0.000000D+00  0.000000D+00 -0.524349D-02
     12  0.515575D-02  0.000000D+00 -0.491812D-02  0.112695D-01  0.000000D+00
     13 -0.111739D-02  0.000000D+00  0.324484D-02  0.104933D-02  0.000000D+00
     14  0.000000D+00  0.972766D-03  0.000000D+00  0.000000D+00  0.625169D-02
     15 -0.565942D-02  0.000000D+00  0.145372D-02 -0.859824D-02  0.000000D+00
                6             7             8             9            10 
      6  0.593791D+00
      7 -0.156394D-01  0.313104D+00
      8  0.000000D+00  0.000000D+00  0.693734D-02
      9 -0.777915D-01  0.286611D-01  0.000000D+00  0.179469D+00
     10 -0.500326D-01 -0.767225D-01  0.000000D+00  0.174456D+00  0.826154D+00
     11  0.000000D+00  0.000000D+00  0.891380D-02  0.000000D+00  0.000000D+00
     12  0.175951D-01  0.644297D-01  0.000000D+00 -0.813171D-01 -0.196325D-01
     13 -0.793884D-02 -0.256835D-01  0.000000D+00 -0.138696D+00 -0.724165D+00
     14  0.000000D+00  0.000000D+00 -0.722901D-02  0.000000D+00  0.000000D+00
     15 -0.240710D-01 -0.902488D-01  0.000000D+00 -0.205144D-01 -0.100106D+00
               11            12            13            14            15 
     11  0.803859D-02
     12  0.000000D+00  0.185312D+00
     13  0.000000D+00 -0.612225D-01  0.749917D+00
     14 -0.915331D-02  0.000000D+00  0.000000D+00  0.915786D-02
     15  0.000000D+00 -0.116672D+00  0.204612D+00  0.000000D+00  0.159804D+00
 Force constants in internal coordinates: 
                1             2             3             4             5 
      1  0.512834D+00
      2 -0.108201D-01  0.249751D+00
      3  0.357081D-02  0.187056D-02  0.115744D+00
      4 -0.350408D-02  0.491483D-02  0.153275D+00  0.811950D+00
      5  0.882278D-02  0.605231D-01  0.248657D-02  0.455342D-02  0.210367D+00
      6  0.450797D-02  0.544386D-01  0.383766D-01  0.221902D-01  0.312258D-01
      7 -0.133429D-02  0.363175D-01  0.308810D-01  0.837800D-01  0.210876D-01
      8  0.000000D+00  0.000000D+00  0.000000D+00  0.000000D+00  0.000000D+00
      9  0.000000D+00  0.000000D+00  0.000000D+00  0.000000D+00  0.000000D+00
                6             7             8             9 
      6  0.272191D+00
      7  0.944842D-01  0.478929D+00
      8  0.000000D+00  0.000000D+00 -0.727679D-02
      9  0.000000D+00  0.000000D+00 -0.369122D-02  0.408362D-01
 Leave Link  716 at Mon Feb 21 20:11:58 2022, MaxMem= 16106127360 cpu:               0.7 elap:               0.0
 (Enter /sw/contrib/gaussian/g16/B01/g16/l103.exe)

 GradGradGradGradGradGradGradGradGradGradGradGradGradGradGradGradGradGrad
 Berny optimization.
 Search for a local minimum.
 Step number   1 out of a maximum of    2
 All quantities printed in internal units (Hartrees-Bohrs-Radians)
 Second derivative matrix not updated -- analytic derivatives used.
 The second derivative matrix:
                          r1        r2        r3        r4        a1
           r1           0.51283
           r2          -0.01082   0.24975
           r3           0.00357   0.00187   0.11574
           r4          -0.00350   0.00491   0.15328   0.81195
           a1           0.00882   0.06052   0.00249   0.00455   0.21037
           a2           0.00451   0.05444   0.03838   0.02219   0.03123
           a3          -0.00133   0.03632   0.03088   0.08378   0.02109
           d1           0.00000  -0.00000  -0.00000  -0.00000  -0.00000
           d2          -0.00000   0.00000   0.00000   0.00000   0.00000
                          a2        a3        d1        d2
           a2           0.27219
           a3           0.09448   0.47893
           d1          -0.00000  -0.00000  -0.00728
           d2          -0.00000  -0.00000  -0.00369   0.04084
 ITU=  0
     Eigenvalues ---   -0.00756   0.04112   0.07738   0.16536   0.21425
     Eigenvalues ---    0.30293   0.50862   0.51352   0.86971
 Eigenvalue     1 is  -7.56D-03 should be greater than     0.000000 Eigenvector:
                          d1        d2        a3        a2        r3
   1                    0.99710   0.07605   0.00000   0.00000  -0.00000
                          r4        a1        r1        r2
   1                    0.00000  -0.00000  -0.00000   0.00000
 Angle between quadratic step and forces=  19.93 degrees.
 Linear search not attempted -- first point.
 Variable       Old X    -DE/DX   Delta X   Delta X   Delta X     New X
                                 (Linear)    (Quad)   (Total)
    r1        1.83110   0.00040   0.00000  -0.00007  -0.00007   1.83103
    r2        2.78758  -0.01037   0.00000  -0.04161  -0.04161   2.74597
    r3        2.75670  -0.00017   0.00000  -0.00206  -0.00206   2.75464
    r4        2.21236   0.00017   0.00000   0.00084   0.00084   2.21320
    a1        1.70335  -0.00253   0.00000  -0.00008  -0.00008   1.70327
    a2        1.78543  -0.00222   0.00000   0.00038   0.00038   1.78581
    a3        1.90362  -0.00146   0.00000   0.00001   0.00001   1.90364
    d1        3.14159   0.00000   0.00000   0.00000   0.00000   3.14159
    d2        3.14159   0.00000   0.00000   0.00000   0.00000   3.14159
         Item               Value     Threshold  Converged?
 Maximum Force            0.010375     0.000450     NO 
 RMS     Force            0.003672     0.000300     NO 
 Maximum Displacement     0.041611     0.001800     NO 
 RMS     Displacement     0.013891     0.001200     NO 
 Predicted change in Energy=-2.157591D-04
                       ----------------------------
                       ! Non-Optimized Parameters !
                       ! (Angstroms and Degrees)  !
 ----------------------                            ----------------------
 !      Name          Value   Derivative information (Atomic Units)     !
 ------------------------------------------------------------------------
 !       r1          0.9689   -DE/DX =    0.0004                        !
 !       r2          1.4531   -DE/DX =   -0.0104                        !
 !       r3          1.4577   -DE/DX =   -0.0002                        !
 !       r4          1.1712   -DE/DX =    0.0002                        !
 !       a1         97.5903   -DE/DX =   -0.0025                        !
 !       a2        102.3194   -DE/DX =   -0.0022                        !
 !       a3        109.0704   -DE/DX =   -0.0015                        !
 !       d1        180.0      -DE/DX =    0.0                           !
 !       d2        180.0      -DE/DX =    0.0                           !
 ------------------------------------------------------------------------
 GradGradGradGradGradGradGradGradGradGradGradGradGradGradGradGradGradGrad

 Leave Link  103 at Mon Feb 21 20:11:58 2022, MaxMem= 16106127360 cpu:               1.7 elap:               0.1
 (Enter /sw/contrib/gaussian/g16/B01/g16/l9999.exe)

 ----------------------------------------------------------------------

 Electric dipole moment (input orientation):
 (Debye = 10**-18 statcoulomb cm , SI units = C m)
                  (au)            (Debye)         (10**-30 SI)
   Tot        0.565439D+00      0.143720D+01      0.479399D+01
   x         -0.143995D+00     -0.366000D+00     -0.122084D+01
   y          0.000000D+00      0.000000D+00      0.000000D+00
   z         -0.546797D+00     -0.138982D+01     -0.463593D+01

 Dipole polarizability, Alpha (input orientation).
 (esu units = cm**3 , SI units = C**2 m**2 J**-1)
 Alpha(0;0):
               (au)            (10**-24 esu)      (10**-40 SI)
   iso        0.275535D+02      0.408300D+01      0.454295D+01
   aniso      0.221469D+02      0.328184D+01      0.365154D+01
   xx         0.324323D+02      0.480597D+01      0.534736D+01
   yx         0.000000D+00      0.000000D+00      0.000000D+00
   yy         0.179947D+02      0.266654D+01      0.296693D+01
   zx         0.974465D+01      0.144401D+01      0.160668D+01
   zy         0.000000D+00      0.000000D+00      0.000000D+00
   zz         0.322334D+02      0.477650D+01      0.531457D+01

 ----------------------------------------------------------------------

 Dipole orientation:
     1          0.00000000          0.00000000         -0.00000000
     8         -0.46630965          0.00000000         -1.77072775
     8          2.11188890          0.00000000         -2.83067218
     7          1.63077942          0.00000000         -5.54506741
     8          3.56349063          0.00000000         -6.62170589

 Electric dipole moment (dipole orientation):
 (Debye = 10**-18 statcoulomb cm , SI units = C m)
                  (au)            (Debye)         (10**-30 SI)
   Tot        0.565439D+00      0.143720D+01      0.479399D+01
   x          0.000000D+00      0.000000D+00      0.000000D+00
   y          0.000000D+00      0.000000D+00      0.000000D+00
   z          0.565439D+00      0.143720D+01      0.479399D+01

 Dipole polarizability, Alpha (dipole orientation).
 (esu units = cm**3 , SI units = C**2 m**2 J**-1)
 Alpha(0;0):
               (au)            (10**-24 esu)      (10**-40 SI)
   iso        0.275535D+02      0.408300D+01      0.454295D+01
   aniso      0.221469D+02      0.328184D+01      0.365154D+01
   xx         0.276198D+02      0.409284D+01      0.455390D+01
   yx         0.000000D+00      0.000000D+00      0.000000D+00
   yy         0.179947D+02      0.266654D+01      0.296693D+01
   zx        -0.852970D+01     -0.126397D+01     -0.140636D+01
   zy         0.000000D+00      0.000000D+00      0.000000D+00
   zz         0.370458D+02      0.548963D+01      0.610803D+01

 ----------------------------------------------------------------------
 1\1\GINC-N2128\Freq\RMP2-FC\Aug-CC-pVTZ\H1N1O3\CGAVINH\21-Feb-2022\1\\
 #p freq mp2/aug-cc-pvtz density=current\\title\\0,1\H\O,1,r1\O,2,r2,1,
 a1\N,3,r3,2,a2,1,d1,0\O,4,r4,3,a3,2,d2,0\\r1=0.96897556\r2=1.47512264\
 r3=1.45878406\r4=1.17072885\a1=97.59494903\a2=102.29752444\a3=109.0695
 5123\d1=180.\d2=180.\\Version=ES64L-G16RevB.01\State=1-A'\HF=-279.4998
 134\MP2=-280.4465282\RMSD=3.996e-09\RMSF=3.443e-03\ZeroPoint=0.0217109
 \Thermal=0.0258339\Dipole=-0.1439953,0.,-0.5467966\DipoleDeriv=0.26598
 41,0.,0.0471208,0.,0.3546888,0.,0.0849304,0.,0.272902,-0.3278689,0.,-0
 .198067,0.,-0.3138522,0.,-0.1188444,0.,-0.2263851,-0.0512177,0.,0.1364
 576,0.,-0.0875732,0.,-0.7521269,0.,-1.3480237,0.8953866,0.,0.9098701,0
 .,0.0662038,0.,0.9295203,0.,1.6710514,-0.782284,0.,-0.8953814,0.,-0.01
 94671,0.,-0.1434794,0.,-0.3695446\Polar=32.4322669,0.,17.9946999,9.744
 6523,0.,32.2334145\Quadrupole=-1.4797453,-0.7505126,2.230258,0.,2.1225
 076,0.\PG=CS [SG(H1N1O3)]\NImag=1\\0.06252086,0.,-0.00252976,0.0040651
 4,0.,0.51283381,-0.03601366,0.,-0.01542239,0.24553887,0.,0.00365380,0.
 ,0.,0.00441891,0.04721917,0.,-0.50952364,0.02639164,0.,0.59379109,-0.0
 1606721,0.,0.01279738,-0.19463083,0.,-0.01563937,0.31310398,0.,0.00045
 878,0.,0.,-0.00908091,0.,0.,0.00693734,-0.05078064,0.,0.00015424,-0.01
 364054,0.,-0.07779150,0.02866110,0.,0.17946873,-0.00932260,0.,-0.00468
 497,-0.01594372,0.,-0.05003260,-0.07672249,0.,0.17445581,0.82615417,0.
 ,-0.00255559,0.,0.,-0.00524349,0.,0.,0.00891380,0.,0.,0.00803859,0.005
 15575,0.,-0.00491812,0.01126953,0.,0.01759508,0.06442967,0.,-0.0813170
 5,-0.01963245,0.,0.18531239,-0.00111739,0.,0.00324484,0.00104933,0.,-0
 .00793884,-0.02568346,0.,-0.13869573,-0.72416535,0.,-0.06122249,0.7499
 1687,0.,0.00097277,0.,0.,0.00625169,0.,0.,-0.00722901,0.,0.,-0.0091533
 1,0.,0.,0.00915786,-0.00565942,0.,0.00145372,-0.00859824,0.,-0.0240710
 3,-0.09024877,0.,-0.02051443,-0.10010579,0.,-0.11667229,0.20461222,0.,
 0.15980403\\-0.00137908,0.,0.00040335,-0.00867965,0.,-0.00346310,0.008
 71191,0.,0.00299756,0.00168035,0.,-0.00053497,-0.00033352,0.,0.0005971
 7\\\@


 AND ALL THIS SCIENCE I DON'T UNDERSTAND
 IT'S JUST MY JOB FIVE DAYS A WEEK

                           -- ELTON JOHN, "ROCKET MAN"
 Job cpu time:       0 days  2 hours  2 minutes  8.6 seconds.
 Elapsed time:       0 days  0 hours  4 minutes 25.2 seconds.
 File lengths (MBytes):  RWF=   7239 Int=      0 D2E=      0 Chk=      8 Scr=      1
 Normal termination of Gaussian 16 at Mon Feb 21 20:11:59 2022.
