title                                                                   
Freq      RMP2-FC                                                     Aug-CC-pVTZ         
Number of atoms                            I                5
Info1-9                                    I   N=           9
          33          24           0           0           0         100
           6           2           1
Full Title                                 C   N=           1
title       
Route                                      C   N=           4
#p freq mp2/aug-cc-pvtz density=current         
Charge                                     I                0
Multiplicity                               I                1
Number of electrons                        I               32
Number of alpha electrons                  I               16
Number of beta electrons                   I               16
Number of basis functions                  I              207
Number of independent functions            I              207
Number of point charges in /Mol/           I                0
Number of translation vectors              I                0
Atomic numbers                             I   N=           5
           1           8           8           7           8
Nuclear charges                            R   N=           5
  1.00000000E+00  8.00000000E+00  8.00000000E+00  7.00000000E+00  8.00000000E+00
Current cartesian coordinates              R   N=          15
 -4.24715127E+00  8.18545213E-01  1.15741652E-01 -3.02151531E+00 -5.36037722E-01
 -1.01273849E-02 -7.56508619E-01  1.02246395E+00 -1.36265991E-02  1.25395965E+00
 -8.63553637E-01  5.42135361E-03  3.21170314E+00  1.66865053E-01  4.54259317E-03
Number of symbols in /Mol/                 I                0
Force Field                                I                0
Atom Types                                 C   N=           5
                                                            
Int Atom Types                             I   N=           5
           0           0           0           0           0
MM charges                                 R   N=           5
  0.00000000E+00  0.00000000E+00  0.00000000E+00  0.00000000E+00  0.00000000E+00
Integer atomic weights                     I   N=           5
           1          16          16          14          16
Real atomic weights                        R   N=           5
  1.00782504E+00  1.59949146E+01  1.59949146E+01  1.40030740E+01  1.59949146E+01
Atom fragment info                         I   N=           5
           0           0           0           0           0
Atom residue num                           I   N=           5
           0           0           0           0           0
Nuclear spins                              I   N=           5
           1           0           0           2           0
Nuclear ZEff                               R   N=           5
 -1.00000000E+00 -5.60000000E+00 -5.60000000E+00 -4.55000000E+00 -5.60000000E+00
Nuclear ZNuc                               R   N=           5
  1.00000000E+00  8.00000000E+00  8.00000000E+00  7.00000000E+00  8.00000000E+00
Nuclear QMom                               R   N=           5
  0.00000000E+00  0.00000000E+00  0.00000000E+00  2.04400000E+00  0.00000000E+00
Nuclear GFac                               R   N=           5
  2.79284600E+00  0.00000000E+00  0.00000000E+00  4.03761000E-01  0.00000000E+00
MicOpt                                     I   N=           5
          -1          -1          -1          -1          -1
Number of residues                         I                0
Number of secondary structures             I                0
SymInf integers                            I   N=          26
           1           1           1           1           1           0
           0           0           0           0           0           0
           0           0           0           0           0           0
           0           0           0           0           0           0
           0           0
RotTr to input orientation                 R   N=          12
  7.41860406E-01  4.02598884E-02  6.69344664E-01  6.70508029E-01 -5.62707695E-02
 -7.39765222E-01  7.88167402E-03  9.97603499E-01 -6.87396343E-02  2.60103999E+00
  1.01585729E-01  3.45629536E+00
Number of contracted shells                I               65
Number of primitive shells                 I              119
Pure/Cartesian d shells                    I                0
Pure/Cartesian f shells                    I                0
Highest angular momentum                   I                3
Largest degree of contraction              I                7
Shell types                                I   N=          65
           0           0           0           0           1           1
           1          -2          -2           0           0           0
           0           0           1           1           1           1
          -2          -2          -2          -3          -3           0
           0           0           0           0           1           1
           1           1          -2          -2          -2          -3
          -3           0           0           0           0           0
           1           1           1           1          -2          -2
          -2          -3          -3           0           0           0
           0           0           1           1           1           1
          -2          -2          -2          -3          -3
Number of primitives per shell             I   N=          65
           3           1           1           1           1           1
           1           1           1           7           6           1
           1           1           3           1           1           1
           1           1           1           1           1           7
           6           1           1           1           3           1
           1           1           1           1           1           1
           1           7           6           1           1           1
           3           1           1           1           1           1
           1           1           1           7           6           1
           1           1           3           1           1           1
           1           1           1           1           1
Shell to atom map                          I   N=          65
           1           1           1           1           1           1
           1           1           1           2           2           2
           2           2           2           2           2           2
           2           2           2           2           2           3
           3           3           3           3           3           3
           3           3           3           3           3           3
           3           4           4           4           4           4
           4           4           4           4           4           4
           4           4           4           5           5           5
           5           5           5           5           5           5
           5           5           5           5           5
Primitive exponents                        R   N=         119
  3.38700000E+01  5.09500000E+00  1.15900000E+00  3.25800000E-01  1.02700000E-01
  2.52600000E-02  1.40700000E+00  3.88000000E-01  1.02000000E-01  1.05700000E+00
  2.47000000E-01  1.53300000E+04  2.29900000E+03  5.22400000E+02  1.47300000E+02
  4.75500000E+01  1.67600000E+01  6.20700000E+00  5.22400000E+02  1.47300000E+02
  4.75500000E+01  1.67600000E+01  6.20700000E+00  6.88200000E-01  1.75200000E+00
  2.38400000E-01  7.37600000E-02  3.44600000E+01  7.74900000E+00  2.28000000E+00
  7.15600000E-01  2.14000000E-01  5.97400000E-02  2.31400000E+00  6.45000000E-01
  2.14000000E-01  1.42800000E+00  5.00000000E-01  1.53300000E+04  2.29900000E+03
  5.22400000E+02  1.47300000E+02  4.75500000E+01  1.67600000E+01  6.20700000E+00
  5.22400000E+02  1.47300000E+02  4.75500000E+01  1.67600000E+01  6.20700000E+00
  6.88200000E-01  1.75200000E+00  2.38400000E-01  7.37600000E-02  3.44600000E+01
  7.74900000E+00  2.28000000E+00  7.15600000E-01  2.14000000E-01  5.97400000E-02
  2.31400000E+00  6.45000000E-01  2.14000000E-01  1.42800000E+00  5.00000000E-01
  1.14200000E+04  1.71200000E+03  3.89300000E+02  1.10000000E+02  3.55700000E+01
  1.25400000E+01  4.64400000E+00  3.89300000E+02  1.10000000E+02  3.55700000E+01
  1.25400000E+01  4.64400000E+00  5.11800000E-01  1.29300000E+00  1.78700000E-01
  5.76000000E-02  2.66300000E+01  5.94800000E+00  1.74200000E+00  5.55000000E-01
  1.72500000E-01  4.91000000E-02  1.65400000E+00  4.69000000E-01  1.51000000E-01
  1.09300000E+00  3.64000000E-01  1.53300000E+04  2.29900000E+03  5.22400000E+02
  1.47300000E+02  4.75500000E+01  1.67600000E+01  6.20700000E+00  5.22400000E+02
  1.47300000E+02  4.75500000E+01  1.67600000E+01  6.20700000E+00  6.88200000E-01
  1.75200000E+00  2.38400000E-01  7.37600000E-02  3.44600000E+01  7.74900000E+00
  2.28000000E+00  7.15600000E-01  2.14000000E-01  5.97400000E-02  2.31400000E+00
  6.45000000E-01  2.14000000E-01  1.42800000E+00  5.00000000E-01
Contraction coefficients                   R   N=         119
  2.54948632E-02  1.90362766E-01  8.52162022E-01  1.00000000E+00  1.00000000E+00
  1.00000000E+00  1.00000000E+00  1.00000000E+00  1.00000000E+00  1.00000000E+00
  1.00000000E+00  5.19808943E-04  4.02025621E-03  2.07128267E-02  8.10105536E-02
  2.35962985E-01  4.42653446E-01  3.57064423E-01 -4.42115008E-05 -1.22591041E-03
 -1.05517725E-02 -6.74452633E-02 -1.71198607E-01  1.07329856E+00  1.00000000E+00
  1.00000000E+00  1.00000000E+00  4.11634896E-02  2.57762836E-01  8.02419274E-01
  1.00000000E+00  1.00000000E+00  1.00000000E+00  1.00000000E+00  1.00000000E+00
  1.00000000E+00  1.00000000E+00  1.00000000E+00  5.19808943E-04  4.02025621E-03
  2.07128267E-02  8.10105536E-02  2.35962985E-01  4.42653446E-01  3.57064423E-01
 -4.42115008E-05 -1.22591041E-03 -1.05517725E-02 -6.74452633E-02 -1.71198607E-01
  1.07329856E+00  1.00000000E+00  1.00000000E+00  1.00000000E+00  4.11634896E-02
  2.57762836E-01  8.02419274E-01  1.00000000E+00  1.00000000E+00  1.00000000E+00
  1.00000000E+00  1.00000000E+00  1.00000000E+00  1.00000000E+00  1.00000000E+00
  5.34563860E-04  4.13435660E-03  2.12335358E-02  8.25006224E-02  2.38138871E-01
  4.42551547E-01  3.53757422E-01 -4.89867350E-05 -1.19527323E-03 -1.03490714E-02
 -6.48680190E-02 -1.71552477E-01  1.07289568E+00  1.00000000E+00  1.00000000E+00
  1.00000000E+00  3.98072123E-02  2.49002660E-01  8.10479727E-01  1.00000000E+00
  1.00000000E+00  1.00000000E+00  1.00000000E+00  1.00000000E+00  1.00000000E+00
  1.00000000E+00  1.00000000E+00  5.19808943E-04  4.02025621E-03  2.07128267E-02
  8.10105536E-02  2.35962985E-01  4.42653446E-01  3.57064423E-01 -4.42115008E-05
 -1.22591041E-03 -1.05517725E-02 -6.74452633E-02 -1.71198607E-01  1.07329856E+00
  1.00000000E+00  1.00000000E+00  1.00000000E+00  4.11634896E-02  2.57762836E-01
  8.02419274E-01  1.00000000E+00  1.00000000E+00  1.00000000E+00  1.00000000E+00
  1.00000000E+00  1.00000000E+00  1.00000000E+00  1.00000000E+00
Coordinates of each shell                  R   N=         195
 -4.24715127E+00  8.18545213E-01  1.15741652E-01 -4.24715127E+00  8.18545213E-01
  1.15741652E-01 -4.24715127E+00  8.18545213E-01  1.15741652E-01 -4.24715127E+00
  8.18545213E-01  1.15741652E-01 -4.24715127E+00  8.18545213E-01  1.15741652E-01
 -4.24715127E+00  8.18545213E-01  1.15741652E-01 -4.24715127E+00  8.18545213E-01
  1.15741652E-01 -4.24715127E+00  8.18545213E-01  1.15741652E-01 -4.24715127E+00
  8.18545213E-01  1.15741652E-01 -3.02151531E+00 -5.36037722E-01 -1.01273849E-02
 -3.02151531E+00 -5.36037722E-01 -1.01273849E-02 -3.02151531E+00 -5.36037722E-01
 -1.01273849E-02 -3.02151531E+00 -5.36037722E-01 -1.01273849E-02 -3.02151531E+00
 -5.36037722E-01 -1.01273849E-02 -3.02151531E+00 -5.36037722E-01 -1.01273849E-02
 -3.02151531E+00 -5.36037722E-01 -1.01273849E-02 -3.02151531E+00 -5.36037722E-01
 -1.01273849E-02 -3.02151531E+00 -5.36037722E-01 -1.01273849E-02 -3.02151531E+00
 -5.36037722E-01 -1.01273849E-02 -3.02151531E+00 -5.36037722E-01 -1.01273849E-02
 -3.02151531E+00 -5.36037722E-01 -1.01273849E-02 -3.02151531E+00 -5.36037722E-01
 -1.01273849E-02 -3.02151531E+00 -5.36037722E-01 -1.01273849E-02 -7.56508619E-01
  1.02246395E+00 -1.36265991E-02 -7.56508619E-01  1.02246395E+00 -1.36265991E-02
 -7.56508619E-01  1.02246395E+00 -1.36265991E-02 -7.56508619E-01  1.02246395E+00
 -1.36265991E-02 -7.56508619E-01  1.02246395E+00 -1.36265991E-02 -7.56508619E-01
  1.02246395E+00 -1.36265991E-02 -7.56508619E-01  1.02246395E+00 -1.36265991E-02
 -7.56508619E-01  1.02246395E+00 -1.36265991E-02 -7.56508619E-01  1.02246395E+00
 -1.36265991E-02 -7.56508619E-01  1.02246395E+00 -1.36265991E-02 -7.56508619E-01
  1.02246395E+00 -1.36265991E-02 -7.56508619E-01  1.02246395E+00 -1.36265991E-02
 -7.56508619E-01  1.02246395E+00 -1.36265991E-02 -7.56508619E-01  1.02246395E+00
 -1.36265991E-02  1.25395965E+00 -8.63553637E-01  5.42135361E-03  1.25395965E+00
 -8.63553637E-01  5.42135361E-03  1.25395965E+00 -8.63553637E-01  5.42135361E-03
  1.25395965E+00 -8.63553637E-01  5.42135361E-03  1.25395965E+00 -8.63553637E-01
  5.42135361E-03  1.25395965E+00 -8.63553637E-01  5.42135361E-03  1.25395965E+00
 -8.63553637E-01  5.42135361E-03  1.25395965E+00 -8.63553637E-01  5.42135361E-03
  1.25395965E+00 -8.63553637E-01  5.42135361E-03  1.25395965E+00 -8.63553637E-01
  5.42135361E-03  1.25395965E+00 -8.63553637E-01  5.42135361E-03  1.25395965E+00
 -8.63553637E-01  5.42135361E-03  1.25395965E+00 -8.63553637E-01  5.42135361E-03
  1.25395965E+00 -8.63553637E-01  5.42135361E-03  3.21170314E+00  1.66865053E-01
  4.54259317E-03  3.21170314E+00  1.66865053E-01  4.54259317E-03  3.21170314E+00
  1.66865053E-01  4.54259317E-03  3.21170314E+00  1.66865053E-01  4.54259317E-03
  3.21170314E+00  1.66865053E-01  4.54259317E-03  3.21170314E+00  1.66865053E-01
  4.54259317E-03  3.21170314E+00  1.66865053E-01  4.54259317E-03  3.21170314E+00
  1.66865053E-01  4.54259317E-03  3.21170314E+00  1.66865053E-01  4.54259317E-03
  3.21170314E+00  1.66865053E-01  4.54259317E-03  3.21170314E+00  1.66865053E-01
  4.54259317E-03  3.21170314E+00  1.66865053E-01  4.54259317E-03  3.21170314E+00
  1.66865053E-01  4.54259317E-03  3.21170314E+00  1.66865053E-01  4.54259317E-03
Num ILSW                                   I              100
ILSW                                       I   N=         100
           0           0           0           0           2           0
           0           0           0           0           0          -1
           5           0           0           0           2           0
           0           0           0           0           1           0
           1           0           0           0           0           0
           0           0      100000           0          -1           0
           0           0           0           0           0           0
           0           0           0           1           1           0
           0 -2000000000           1           0           0           0
           0           0           4          52           0           0
           0           0           0           0           0           0
           0           0           0           5           4           1
           0           0           0           0           0           0
           0           0           0           0           0           0
           0           0           0           0           0           0
           0           0           0           0           0           0
           0           0           0           0
Num RLSW                                   I               52
RLSW                                       R   N=          52
  1.00000000E+00  1.00000000E+00  1.00000000E+00  1.00000000E+00  1.00000000E+00
  0.00000000E+00  0.00000000E+00  1.00000000E+00  0.00000000E+00  0.00000000E+00
  0.00000000E+00  0.00000000E+00  1.00000000E+00  0.00000000E+00  0.00000000E+00
  0.00000000E+00  0.00000000E+00  1.00000000E+00  0.00000000E+00  0.00000000E+00
  0.00000000E+00  0.00000000E+00  1.00000000E+00  0.00000000E+00  0.00000000E+00
  0.00000000E+00  0.00000000E+00  1.00000000E+00  0.00000000E+00  0.00000000E+00
  0.00000000E+00  0.00000000E+00  1.00000000E+00  0.00000000E+00  0.00000000E+00
  0.00000000E+00  0.00000000E+00  0.00000000E+00  1.00000000E+00  1.00000000E+00
  0.00000000E+00  1.00000000E+00  0.00000000E+00  0.00000000E+00  0.00000000E+00
  0.00000000E+00  0.00000000E+00  0.00000000E+00  0.00000000E+00  0.00000000E+00
  0.00000000E+00  0.00000000E+00
MxBond                                     I                2
NBond                                      I   N=           5
           1           2           2           2           1
IBond                                      I   N=          10
           2           0           1           3           2           4
           3           5           4           0
RBond                                      R   N=          10
  1.00000000E+00  0.00000000E+00  1.00000000E+00  1.00000000E+00  1.00000000E+00
  1.00000000E+00  1.00000000E+00  2.00000000E+00  2.00000000E+00  0.00000000E+00
Virial Ratio                               R      2.002353771109610E+00
SCF Energy                                 R     -2.795017046267575E+02
MP2 Energy                                 R     -2.804467574854266E+02
Total Energy                               R     -2.804467574854266E+02
Post-SCF wavefunction norm                 R      1.584235780815321E+00
RMS Force                                  R      2.477823234601800E-04
RMS Density                                R      5.847205474060483E-09
NImag                                      I                1
Job Status                                 I                1
Nuclear derivative order                   I                2
External E-field                           R   N=          35
  0.00000000E+00  0.00000000E+00  0.00000000E+00  0.00000000E+00  0.00000000E+00
  0.00000000E+00  0.00000000E+00  0.00000000E+00  0.00000000E+00  0.00000000E+00
  0.00000000E+00  0.00000000E+00  0.00000000E+00  0.00000000E+00  0.00000000E+00
  0.00000000E+00  0.00000000E+00  0.00000000E+00  0.00000000E+00  0.00000000E+00
  0.00000000E+00  0.00000000E+00  0.00000000E+00  0.00000000E+00  0.00000000E+00
  0.00000000E+00  0.00000000E+00  0.00000000E+00  0.00000000E+00  0.00000000E+00
  0.00000000E+00  0.00000000E+00  0.00000000E+00  0.00000000E+00  0.00000000E+00
IOpCl                                      I                0
IROHF                                      I                0
Alpha Orbital Energies                     R   N=         207
 -2.06909066E+01 -2.06842918E+01 -2.06600029E+01 -1.58128160E+01 -1.62403086E+00
 -1.49575694E+00 -1.25441404E+00 -9.48069984E-01 -7.72744703E-01 -7.59222157E-01
 -7.11949637E-01 -6.79288967E-01 -6.20375162E-01 -5.89345364E-01 -4.85479114E-01
 -4.72376441E-01  2.96211353E-02  7.16692998E-02  8.59421431E-02  1.01723574E-01
  1.33442102E-01  1.34398393E-01  1.44052041E-01  1.54516612E-01  1.78237056E-01
  1.94165170E-01  1.99724311E-01  2.06401278E-01  2.20813262E-01  2.35414530E-01
  2.37362146E-01  2.66181946E-01  2.93314583E-01  3.03107156E-01  3.10815501E-01
  3.43447935E-01  3.50388559E-01  3.87268655E-01  4.21300556E-01  4.31123245E-01
  5.27284151E-01  5.29564704E-01  5.58519100E-01  5.81554760E-01  6.25953512E-01
  6.38261299E-01  6.74364529E-01  6.84294240E-01  7.06478401E-01  7.11452934E-01
  7.22929675E-01  7.30262194E-01  7.45174349E-01  7.89605789E-01  7.93451630E-01
  8.10280920E-01  8.12921013E-01  8.31177108E-01  8.68141575E-01  9.08309359E-01
  9.20335379E-01  9.28147419E-01  9.56454539E-01  9.75740624E-01  9.85880726E-01
  1.01629446E+00  1.05322796E+00  1.05474786E+00  1.08254524E+00  1.11714369E+00
  1.13868717E+00  1.19151282E+00  1.22047956E+00  1.23288628E+00  1.33855477E+00
  1.35049802E+00  1.38661722E+00  1.45379371E+00  1.48855673E+00  1.50885392E+00
  1.53789432E+00  1.56699250E+00  1.57987433E+00  1.61164102E+00  1.66458501E+00
  1.66892610E+00  1.70369199E+00  1.79245909E+00  1.83098948E+00  1.83518772E+00
  1.87870848E+00  1.90932995E+00  1.95617678E+00  1.98903664E+00  2.01058239E+00
  2.07769178E+00  2.12008645E+00  2.13111086E+00  2.15100609E+00  2.22390706E+00
  2.26218166E+00  2.26725138E+00  2.28924335E+00  2.31382776E+00  2.34398189E+00
  2.38644856E+00  2.41715070E+00  2.43648022E+00  2.45408456E+00  2.46346703E+00
  2.47630738E+00  2.50227057E+00  2.58953922E+00  2.59699607E+00  2.62049668E+00
  2.62483972E+00  2.63520495E+00  2.66723731E+00  2.75635779E+00  2.82552624E+00
  2.85394127E+00  2.88588202E+00  2.89415169E+00  2.92303280E+00  2.95845231E+00
  3.02415914E+00  3.06967226E+00  3.12136611E+00  3.20466372E+00  3.22711167E+00
  3.31651295E+00  3.34148551E+00  3.51655091E+00  3.64414001E+00  3.83820350E+00
  3.84528181E+00  4.14580234E+00  4.16302683E+00  4.18786998E+00  4.25703209E+00
  4.34951658E+00  4.39350605E+00  4.46540692E+00  4.51994321E+00  4.66011483E+00
  4.71074610E+00  4.80500112E+00  4.82452143E+00  4.82839148E+00  4.89595506E+00
  5.02313183E+00  5.07657104E+00  5.10315611E+00  5.14467187E+00  5.17984177E+00
  5.24364543E+00  5.27205193E+00  5.30761358E+00  5.32966078E+00  5.35463331E+00
  5.60548794E+00  5.67362330E+00  5.76823829E+00  5.82953473E+00  5.95689562E+00
  6.16874129E+00  6.30930798E+00  6.33871600E+00  6.39404759E+00  6.49372910E+00
  6.50534901E+00  6.61504663E+00  6.66557963E+00  6.70092803E+00  6.75502387E+00
  6.76547262E+00  6.83304974E+00  6.89832934E+00  7.01320782E+00  7.05591684E+00
  7.05714329E+00  7.09082599E+00  7.12481427E+00  7.14904424E+00  7.18290100E+00
  7.22498825E+00  7.24118945E+00  7.30674536E+00  7.32450206E+00  7.34905908E+00
  7.39827159E+00  7.43087110E+00  7.48485315E+00  7.60766592E+00  7.61813448E+00
  7.62788660E+00  7.66705617E+00  7.78860649E+00  7.88640697E+00  8.09266513E+00
  8.31427791E+00  8.40758139E+00  8.54381363E+00  1.33901264E+01  1.43944514E+01
  1.51616184E+01  1.61520592E+01
Alpha MO coefficients                      R   N=       42849
  9.13055297E-05 -6.26090776E-04 -7.21245333E-04 -4.65560756E-06  3.33287925E-05
 -9.01472392E-06 -5.88825286E-06  3.03561542E-06  7.27871404E-05  1.14324824E-05
 -8.86973157E-05 -2.18776405E-05  1.53482854E-05  3.17867408E-05 -9.38735139E-07
  5.18642661E-08  5.86260887E-06 -5.40749868E-05 -4.79444694E-06 -3.72362719E-06
  6.88113984E-06  7.27800675E-05 -1.66117385E-04  4.58378589E-03 -2.81762142E-04
  1.46438494E-05  1.54932004E-03  1.82196251E-03 -8.99112076E-05 -5.71003560E-05
  1.19789270E-06  5.17965334E-04  3.37460828E-04 -6.12106817E-06  4.22192012E-04
  1.28542207E-03  2.40343320E-05  2.84565323E-04  2.91127773E-04  1.92538074E-06
  2.88302387E-05  7.41505139E-07 -2.49565502E-07 -1.03452869E-05 -5.35191708E-05
 -3.78051351E-04 -2.02633611E-06 -3.27379210E-06  1.86238639E-04  7.18296499E-04
 -4.44235772E-04 -2.53861363E-05  1.14175416E-05  5.85524138E-05  2.40339997E-04
  3.44098415E-06 -7.15759274E-05 -3.76264628E-05 -8.80688747E-07  2.59660489E-06
 -3.34676651E-05  1.04490154E-04 -8.73320054E-06 -1.89870943E-04 -1.73060609E-04
  6.10006555E-06 -6.28092727E-06 -1.65360175E-04  3.16352813E-04  9.76911344E-01
 -9.21592221E-03  4.33182383E-02  2.03983524E-03 -9.24561617E-04 -3.95173693E-04
 -1.97803033E-03  2.05110837E-05  3.31409123E-04  1.96654923E-03 -1.83899749E-05
  6.26907598E-04 -9.81370410E-04  7.58927600E-06  1.20521580E-04  7.12433883E-05
  3.26721615E-06  4.63227669E-05 -8.20844915E-07  4.71183607E-07  1.00724540E-05
 -3.98904761E-05  7.46950000E-04 -2.06696116E-06  6.72118380E-06 -4.40409471E-04
 -1.08957158E-04 -3.58433052E-04 -9.21980324E-06 -3.47309283E-07 -4.50017242E-04
 -1.89279766E-04  1.78912271E-06 -8.94937499E-06 -6.76301237E-05 -6.35327660E-07
  5.76622195E-07  1.72857183E-06  4.20641520E-05 -1.19423724E-06 -3.23573301E-05
  3.81286498E-06  2.41904108E-06 -1.48763555E-07  3.00506249E-05  3.34216901E-04
  3.89814771E-05  4.53318609E-05 -2.64490149E-04 -6.98729542E-04 -1.37062529E-04
  7.97108039E-05 -6.22746859E-05  1.09634826E-06 -6.39350024E-04  4.09560802E-04
 -7.28129234E-06  9.64259139E-04  1.13008143E-04  4.41278501E-06  1.14394495E-04
  5.35436581E-05 -3.51725168E-06 -1.81463906E-05  9.34819455E-07 -4.99858216E-07
  5.74291130E-06 -3.27579171E-05 -3.28519060E-04  2.66560873E-06 -7.85985885E-06
 -1.19570064E-04 -8.29156454E-04 -3.71031824E-05 -1.37608601E-05 -1.46823255E-06
 -8.23645635E-05  1.29236346E-04  2.40346956E-06  8.80265989E-05 -8.41658115E-05
  9.24165899E-08  2.89656235E-06  1.08915613E-04  1.05028741E-04  2.44570706E-06
  8.78498502E-05 -1.24319337E-04  3.26067260E-06  2.12890461E-06  4.09360002E-04
  9.80142973E-05 -2.56361236E-03  1.21840210E-04 -1.22923806E-04 -2.51697403E-04
  1.31023149E-04  2.28767824E-05 -1.76398460E-05  2.14983751E-07 -1.52779148E-04
  9.08027045E-05 -1.14167789E-06 -3.06379920E-04  2.38711098E-05  1.10049112E-05
 -1.14460931E-04 -5.73922432E-05  2.71062282E-06 -3.34503785E-06  4.17784761E-07
 -2.07284774E-07 -4.10620295E-06 -1.74612656E-05  6.92043575E-07 -2.03673153E-06
  1.04645436E-06  1.07621048E-04  5.10270045E-05 -1.00608953E-04 -3.53142628E-06
 -1.83767086E-06  2.04079676E-04  1.12023933E-04  6.25097025E-08 -1.06650662E-05
 -1.22795287E-05  1.52225867E-07  1.10495030E-07  9.85218378E-06  8.09014824E-06
 -1.56086306E-06  1.47237215E-07  5.64925255E-05  1.18747106E-06 -7.19743221E-07
 -5.70890354E-05 -1.09034159E-04  3.86888643E-05 -9.82612803E-04 -4.84103934E-04
 -1.09029279E-05  8.08108821E-06  2.58645819E-05 -6.58800102E-07 -1.61620213E-04
  2.18278831E-04  2.19117574E-05 -4.51566496E-05  1.31631064E-04  1.23031436E-05
  2.55997786E-05 -3.90588587E-07 -4.58271692E-06  1.38260931E-05  8.48695990E-06
 -2.75100307E-05  1.77076719E-06  1.20471424E-06  3.66020125E-05  5.41919048E-07
  1.12367709E-04  8.40335967E-05 -2.79665091E-05  7.46956174E-04  6.49424802E-04
 -9.80141525E-06 -4.00365137E-06 -9.14689252E-07  4.97927517E-05  5.54823355E-05
  7.07716444E-06 -8.00148079E-04  5.21645354E-04  4.49932653E-05 -5.16460082E-05
  6.28831181E-05  2.77470203E-06 -2.30932677E-06  4.24309019E-07 -4.05419902E-07
 -5.79251745E-06  1.65834458E-06 -3.50753844E-05 -6.19915525E-06  6.18169029E-06
  7.38533189E-05 -4.28514079E-05 -2.10937155E-05 -1.78881887E-05  1.88605054E-05
 -2.32907300E-04 -2.06767167E-04  3.93657696E-07 -1.09338167E-05 -6.45261598E-07
  2.25649273E-07  2.79734385E-07  1.85184507E-05  3.71336851E-06 -5.60010848E-06
  5.44052962E-05 -6.09848839E-06  1.00462804E-06 -5.33238927E-06 -4.43180169E-05
  6.51978373E-05  2.60258314E-03  3.95574773E-05  9.06388051E-05 -6.88504401E-05
 -4.69328875E-04 -1.52123490E-05  8.41394068E-06 -2.74677348E-07  8.27978326E-05
 -7.81247194E-06  1.08047640E-06 -7.73820772E-05 -2.90187970E-04 -9.96065749E-06
  1.89198077E-04  6.04923367E-05 -3.61630192E-06 -8.73102361E-06  2.01547990E-07
  4.33474686E-08  2.54741027E-05  1.56170976E-05  4.42572044E-06 -3.58356644E-07
 -4.40018919E-07 -7.88314252E-05 -9.86198660E-05 -4.37968028E-06  6.01466872E-06
  2.10373700E-06 -2.61653351E-04 -1.52127792E-04 -5.03911647E-08 -2.26454626E-06
 -2.38101703E-06 -1.94236961E-07  3.09128456E-07  1.33456567E-05  2.93219734E-06
  2.92365802E-07  3.51279507E-05  3.04352490E-05 -1.53079514E-07 -1.86921056E-06
 -2.02460765E-04  9.18852025E-06  2.58658432E-04  1.46493391E-03 -7.81144703E-05
 -1.53755191E-03  3.99307336E-04  1.16087803E-04  8.60430795E-05 -5.50545454E-08
  1.91964956E-03  9.18064234E-04 -1.31112777E-06 -1.28690265E-03 -3.27609034E-06
 -3.23680803E-06  1.03711309E-04  1.46645634E-04  4.09359673E-07 -1.23354081E-04
 -6.12899304E-08  2.56527263E-07  1.61029567E-04  2.04939969E-04 -4.42315634E-04
 -4.19214294E-06 -1.36122169E-06  1.99897283E-04  8.79154101E-04  1.14977848E-05
 -7.64664565E-06 -3.08716429E-06 -2.17134885E-04 -2.86539583E-04 -2.10930916E-07
 -8.03488728E-06  1.30561658E-05 -1.17370516E-07 -1.96879847E-07 -6.32782340E-06
 -2.22166171E-05  1.42531746E-06 -8.98330076E-05 -1.55599456E-04  1.30653407E-06
 -1.67186069E-06 -1.19834298E-04  2.12966890E-04  9.76649321E-01 -9.84820625E-03
  4.35680084E-02  4.49886686E-03 -4.46542711E-04 -2.01283649E-03 -8.91106210E-04
 -1.21999488E-07  2.27558539E-03  9.32892012E-04  3.76216424E-07 -9.12988718E-04
 -6.81236440E-04  7.61335578E-06  2.16334336E-05 -3.71436278E-05  1.72530526E-06
 -2.32336924E-04  8.02268118E-07 -1.99411376E-06  6.05024202E-05  8.89138067E-05
  3.90586347E-04 -3.08037814E-07 -1.30780308E-06 -6.44743825E-04 -6.74963578E-04
 -1.53751313E-04 -1.43130740E-06 -2.34124773E-06  9.08125127E-05  2.40300749E-04
 -2.51481335E-07 -5.25399053E-05 -1.68775285E-05  3.03848180E-07 -4.17480978E-07
  5.13935364E-06  2.53009497E-05  5.16751958E-07 -1.16682919E-04 -7.47434727E-05
 -6.52397770E-08  9.84766906E-07  6.93302578E-05  2.25705875E-04  4.74357234E-04
  2.06646659E-03  1.20469225E-04  1.48604307E-05  1.79746991E-04 -1.73218366E-04
 -1.98506230E-05  6.68074454E-04 -1.08960497E-03 -8.86503245E-05 -4.62555702E-05
 -4.55578764E-04 -1.28164275E-05 -2.61637899E-06  2.52972859E-06 -1.16628419E-06
  3.71538185E-05  6.76914349E-05 -1.56846691E-04 -3.55919837E-05  4.32189777E-05
 -1.78768037E-04 -5.04648828E-04  9.76830186E-01 -9.16313970E-03  4.34496247E-02
  1.60625747E-04 -1.14353012E-03  3.99889399E-04  2.08566257E-03  1.08183370E-04
 -5.02832189E-04 -1.96725744E-03 -9.98320463E-05  9.74432845E-04 -3.58402192E-04
 -4.15726387E-05 -2.83305877E-05 -5.78437345E-05  3.97416138E-07  2.97980050E-05
 -1.93986718E-06  3.86933005E-06 -3.72541635E-05 -1.11885691E-04  7.53475858E-04
  4.96906275E-05 -5.05011834E-05 -2.84347432E-04 -1.26675717E-04 -2.66183765E-04
  1.23733505E-05 -4.03638156E-07  1.72236974E-04  1.26062900E-04  2.24974055E-06
  5.07990167E-05  3.89413803E-05  2.96396219E-06  7.33953729E-07 -2.93083031E-06