title                                                                   
Freq      RMP2-FC                                                     Aug-CC-pVTZ         
Number of atoms                            I                5
Info1-9                                    I   N=           9
          33          24           0           0           0         100
           6           2           1
Full Title                                 C   N=           1
title       
Route                                      C   N=           4
#p freq mp2/aug-cc-pvtz density=current         
Charge                                     I                0
Multiplicity                               I                1
Number of electrons                        I               32
Number of alpha electrons                  I               16
Number of beta electrons                   I               16
Number of basis functions                  I              207
Number of independent functions            I              207
Number of point charges in /Mol/           I                0
Number of translation vectors              I                0
Atomic numbers                             I   N=           5
           1           8           8           7           8
Nuclear charges                            R   N=           5
  1.00000000E+00  8.00000000E+00  8.00000000E+00  7.00000000E+00  8.00000000E+00
Current cartesian coordinates              R   N=          15
  4.22625490E+00  7.94904054E-01  3.45827677E-01  3.02255473E+00 -5.32680978E-01
 -3.03974509E-02  7.56147332E-01  1.02375719E+00 -4.00283499E-02 -1.25244373E+00
 -8.63535083E-01  1.56282789E-02 -3.21109566E+00  1.65153976E-01  1.35225971E-02
Number of symbols in /Mol/                 I                0
Force Field                                I                0
Atom Types                                 C   N=           5
                                                            
Int Atom Types                             I   N=           5
           0           0           0           0           0
MM charges                                 R   N=           5
  0.00000000E+00  0.00000000E+00  0.00000000E+00  0.00000000E+00  0.00000000E+00
Integer atomic weights                     I   N=           5
           1          16          16          14          16
Real atomic weights                        R   N=           5
  1.00782504E+00  1.59949146E+01  1.59949146E+01  1.40030740E+01  1.59949146E+01
Atom fragment info                         I   N=           5
           0           0           0           0           0
Atom residue num                           I   N=           5
           0           0           0           0           0
Nuclear spins                              I   N=           5
           1           0           0           2           0
Nuclear ZEff                               R   N=           5
 -1.00000000E+00 -5.60000000E+00 -5.60000000E+00 -4.55000000E+00 -5.60000000E+00
Nuclear ZNuc                               R   N=           5
  1.00000000E+00  8.00000000E+00  8.00000000E+00  7.00000000E+00  8.00000000E+00
Nuclear QMom                               R   N=           5
  0.00000000E+00  0.00000000E+00  0.00000000E+00  2.04400000E+00  0.00000000E+00
Nuclear GFac                               R   N=           5
  2.79284600E+00  0.00000000E+00  0.00000000E+00  4.03761000E-01  0.00000000E+00
MicOpt                                     I   N=           5
          -1          -1          -1          -1          -1
Number of residues                         I                0
Number of secondary structures             I                0
SymInf integers                            I   N=          26
           1           1           1           1           1           0
           0           0           0           0           0           0
           0           0           0           0           0           0
           0           0           0           0           0           0
           0           0
RotTr to input orientation                 R   N=          12
 -7.43971716E-01  1.19905110E-01 -6.57365081E-01  6.67784898E-01  1.68545861E-01
 -7.25021119E-01  2.38624260E-02 -9.78373680E-01 -2.05464175E-01  2.60513690E+00
 -3.02378651E-01  3.42556982E+00
Number of contracted shells                I               65
Number of primitive shells                 I              119
Pure/Cartesian d shells                    I                0
Pure/Cartesian f shells                    I                0
Highest angular momentum                   I                3
Largest degree of contraction              I                7
Shell types                                I   N=          65
           0           0           0           0           1           1
           1          -2          -2           0           0           0
           0           0           1           1           1           1
          -2          -2          -2          -3          -3           0
           0           0           0           0           1           1
           1           1          -2          -2          -2          -3
          -3           0           0           0           0           0
           1           1           1           1          -2          -2
          -2          -3          -3           0           0           0
           0           0           1           1           1           1
          -2          -2          -2          -3          -3
Number of primitives per shell             I   N=          65
           3           1           1           1           1           1
           1           1           1           7           6           1
           1           1           3           1           1           1
           1           1           1           1           1           7
           6           1           1           1           3           1
           1           1           1           1           1           1
           1           7           6           1           1           1
           3           1           1           1           1           1
           1           1           1           7           6           1
           1           1           3           1           1           1
           1           1           1           1           1
Shell to atom map                          I   N=          65
           1           1           1           1           1           1
           1           1           1           2           2           2
           2           2           2           2           2           2
           2           2           2           2           2           3
           3           3           3           3           3           3
           3           3           3           3           3           3
           3           4           4           4           4           4
           4           4           4           4           4           4
           4           4           4           5           5           5
           5           5           5           5           5           5
           5           5           5           5           5
Primitive exponents                        R   N=         119
  3.38700000E+01  5.09500000E+00  1.15900000E+00  3.25800000E-01  1.02700000E-01
  2.52600000E-02  1.40700000E+00  3.88000000E-01  1.02000000E-01  1.05700000E+00
  2.47000000E-01  1.53300000E+04  2.29900000E+03  5.22400000E+02  1.47300000E+02
  4.75500000E+01  1.67600000E+01  6.20700000E+00  5.22400000E+02  1.47300000E+02
  4.75500000E+01  1.67600000E+01  6.20700000E+00  6.88200000E-01  1.75200000E+00
  2.38400000E-01  7.37600000E-02  3.44600000E+01  7.74900000E+00  2.28000000E+00
  7.15600000E-01  2.14000000E-01  5.97400000E-02  2.31400000E+00  6.45000000E-01
  2.14000000E-01  1.42800000E+00  5.00000000E-01  1.53300000E+04  2.29900000E+03
  5.22400000E+02  1.47300000E+02  4.75500000E+01  1.67600000E+01  6.20700000E+00
  5.22400000E+02  1.47300000E+02  4.75500000E+01  1.67600000E+01  6.20700000E+00
  6.88200000E-01  1.75200000E+00  2.38400000E-01  7.37600000E-02  3.44600000E+01
  7.74900000E+00  2.28000000E+00  7.15600000E-01  2.14000000E-01  5.97400000E-02
  2.31400000E+00  6.45000000E-01  2.14000000E-01  1.42800000E+00  5.00000000E-01
  1.14200000E+04  1.71200000E+03  3.89300000E+02  1.10000000E+02  3.55700000E+01
  1.25400000E+01  4.64400000E+00  3.89300000E+02  1.10000000E+02  3.55700000E+01
  1.25400000E+01  4.64400000E+00  5.11800000E-01  1.29300000E+00  1.78700000E-01
  5.76000000E-02  2.66300000E+01  5.94800000E+00  1.74200000E+00  5.55000000E-01
  1.72500000E-01  4.91000000E-02  1.65400000E+00  4.69000000E-01  1.51000000E-01
  1.09300000E+00  3.64000000E-01  1.53300000E+04  2.29900000E+03  5.22400000E+02
  1.47300000E+02  4.75500000E+01  1.67600000E+01  6.20700000E+00  5.22400000E+02
  1.47300000E+02  4.75500000E+01  1.67600000E+01  6.20700000E+00  6.88200000E-01
  1.75200000E+00  2.38400000E-01  7.37600000E-02  3.44600000E+01  7.74900000E+00
  2.28000000E+00  7.15600000E-01  2.14000000E-01  5.97400000E-02  2.31400000E+00
  6.45000000E-01  2.14000000E-01  1.42800000E+00  5.00000000E-01
Contraction coefficients                   R   N=         119
  2.54948632E-02  1.90362766E-01  8.52162022E-01  1.00000000E+00  1.00000000E+00
  1.00000000E+00  1.00000000E+00  1.00000000E+00  1.00000000E+00  1.00000000E+00
  1.00000000E+00  5.19808943E-04  4.02025621E-03  2.07128267E-02  8.10105536E-02
  2.35962985E-01  4.42653446E-01  3.57064423E-01 -4.42115008E-05 -1.22591041E-03
 -1.05517725E-02 -6.74452633E-02 -1.71198607E-01  1.07329856E+00  1.00000000E+00
  1.00000000E+00  1.00000000E+00  4.11634896E-02  2.57762836E-01  8.02419274E-01
  1.00000000E+00  1.00000000E+00  1.00000000E+00  1.00000000E+00  1.00000000E+00
  1.00000000E+00  1.00000000E+00  1.00000000E+00  5.19808943E-04  4.02025621E-03
  2.07128267E-02  8.10105536E-02  2.35962985E-01  4.42653446E-01  3.57064423E-01
 -4.42115008E-05 -1.22591041E-03 -1.05517725E-02 -6.74452633E-02 -1.71198607E-01
  1.07329856E+00  1.00000000E+00  1.00000000E+00  1.00000000E+00  4.11634896E-02
  2.57762836E-01  8.02419274E-01  1.00000000E+00  1.00000000E+00  1.00000000E+00
  1.00000000E+00  1.00000000E+00  1.00000000E+00  1.00000000E+00  1.00000000E+00
  5.34563860E-04  4.13435660E-03  2.12335358E-02  8.25006224E-02  2.38138871E-01
  4.42551547E-01  3.53757422E-01 -4.89867350E-05 -1.19527323E-03 -1.03490714E-02
 -6.48680190E-02 -1.71552477E-01  1.07289568E+00  1.00000000E+00  1.00000000E+00
  1.00000000E+00  3.98072123E-02  2.49002660E-01  8.10479727E-01  1.00000000E+00
  1.00000000E+00  1.00000000E+00  1.00000000E+00  1.00000000E+00  1.00000000E+00
  1.00000000E+00  1.00000000E+00  5.19808943E-04  4.02025621E-03  2.07128267E-02
  8.10105536E-02  2.35962985E-01  4.42653446E-01  3.57064423E-01 -4.42115008E-05
 -1.22591041E-03 -1.05517725E-02 -6.74452633E-02 -1.71198607E-01  1.07329856E+00
  1.00000000E+00  1.00000000E+00  1.00000000E+00  4.11634896E-02  2.57762836E-01
  8.02419274E-01  1.00000000E+00  1.00000000E+00  1.00000000E+00  1.00000000E+00
  1.00000000E+00  1.00000000E+00  1.00000000E+00  1.00000000E+00
Coordinates of each shell                  R   N=         195
  4.22625490E+00  7.94904054E-01  3.45827677E-01  4.22625490E+00  7.94904054E-01
  3.45827677E-01  4.22625490E+00  7.94904054E-01  3.45827677E-01  4.22625490E+00
  7.94904054E-01  3.45827677E-01  4.22625490E+00  7.94904054E-01  3.45827677E-01
  4.22625490E+00  7.94904054E-01  3.45827677E-01  4.22625490E+00  7.94904054E-01
  3.45827677E-01  4.22625490E+00  7.94904054E-01  3.45827677E-01  4.22625490E+00
  7.94904054E-01  3.45827677E-01  3.02255473E+00 -5.32680978E-01 -3.03974509E-02
  3.02255473E+00 -5.32680978E-01 -3.03974509E-02  3.02255473E+00 -5.32680978E-01
 -3.03974509E-02  3.02255473E+00 -5.32680978E-01 -3.03974509E-02  3.02255473E+00
 -5.32680978E-01 -3.03974509E-02  3.02255473E+00 -5.32680978E-01 -3.03974509E-02
  3.02255473E+00 -5.32680978E-01 -3.03974509E-02  3.02255473E+00 -5.32680978E-01
 -3.03974509E-02  3.02255473E+00 -5.32680978E-01 -3.03974509E-02  3.02255473E+00
 -5.32680978E-01 -3.03974509E-02  3.02255473E+00 -5.32680978E-01 -3.03974509E-02
  3.02255473E+00 -5.32680978E-01 -3.03974509E-02  3.02255473E+00 -5.32680978E-01
 -3.03974509E-02  3.02255473E+00 -5.32680978E-01 -3.03974509E-02  7.56147332E-01
  1.02375719E+00 -4.00283499E-02  7.56147332E-01  1.02375719E+00 -4.00283499E-02
  7.56147332E-01  1.02375719E+00 -4.00283499E-02  7.56147332E-01  1.02375719E+00
 -4.00283499E-02  7.56147332E-01  1.02375719E+00 -4.00283499E-02  7.56147332E-01
  1.02375719E+00 -4.00283499E-02  7.56147332E-01  1.02375719E+00 -4.00283499E-02
  7.56147332E-01  1.02375719E+00 -4.00283499E-02  7.56147332E-01  1.02375719E+00
 -4.00283499E-02  7.56147332E-01  1.02375719E+00 -4.00283499E-02  7.56147332E-01
  1.02375719E+00 -4.00283499E-02  7.56147332E-01  1.02375719E+00 -4.00283499E-02
  7.56147332E-01  1.02375719E+00 -4.00283499E-02  7.56147332E-01  1.02375719E+00
 -4.00283499E-02 -1.25244373E+00 -8.63535083E-01  1.56282789E-02 -1.25244373E+00
 -8.63535083E-01  1.56282789E-02 -1.25244373E+00 -8.63535083E-01  1.56282789E-02
 -1.25244373E+00 -8.63535083E-01  1.56282789E-02 -1.25244373E+00 -8.63535083E-01
  1.56282789E-02 -1.25244373E+00 -8.63535083E-01  1.56282789E-02 -1.25244373E+00
 -8.63535083E-01  1.56282789E-02 -1.25244373E+00 -8.63535083E-01  1.56282789E-02
 -1.25244373E+00 -8.63535083E-01  1.56282789E-02 -1.25244373E+00 -8.63535083E-01
  1.56282789E-02 -1.25244373E+00 -8.63535083E-01  1.56282789E-02 -1.25244373E+00
 -8.63535083E-01  1.56282789E-02 -1.25244373E+00 -8.63535083E-01  1.56282789E-02
 -1.25244373E+00 -8.63535083E-01  1.56282789E-02 -3.21109566E+00  1.65153976E-01
  1.35225971E-02 -3.21109566E+00  1.65153976E-01  1.35225971E-02 -3.21109566E+00
  1.65153976E-01  1.35225971E-02 -3.21109566E+00  1.65153976E-01  1.35225971E-02
 -3.21109566E+00  1.65153976E-01  1.35225971E-02 -3.21109566E+00  1.65153976E-01
  1.35225971E-02 -3.21109566E+00  1.65153976E-01  1.35225971E-02 -3.21109566E+00
  1.65153976E-01  1.35225971E-02 -3.21109566E+00  1.65153976E-01  1.35225971E-02
 -3.21109566E+00  1.65153976E-01  1.35225971E-02 -3.21109566E+00  1.65153976E-01
  1.35225971E-02 -3.21109566E+00  1.65153976E-01  1.35225971E-02 -3.21109566E+00
  1.65153976E-01  1.35225971E-02 -3.21109566E+00  1.65153976E-01  1.35225971E-02
Num ILSW                                   I              100
ILSW                                       I   N=         100
           0           0           0           0           2           0
           0           0           0           0           0          -1
           5           0           0           0           2           0
           0           0           0           0           1           0
           1           0           0           0           0           0
           0           0      100000           0          -1           0
           0           0           0           0           0           0
           0           0           0           1           1           0
           0 -2000000000           1           0           0           0
           0           0           4          52           0           0
           0           0           0           0           0           0
           0           0           0           5           4           1
           0           0           0           0           0           0
           0           0           0           0           0           0
           0           0           0           0           0           0
           0           0           0           0           0           0
           0           0           0           0
Num RLSW                                   I               52
RLSW                                       R   N=          52
  1.00000000E+00  1.00000000E+00  1.00000000E+00  1.00000000E+00  1.00000000E+00
  0.00000000E+00  0.00000000E+00  1.00000000E+00  0.00000000E+00  0.00000000E+00
  0.00000000E+00  0.00000000E+00  1.00000000E+00  0.00000000E+00  0.00000000E+00
  0.00000000E+00  0.00000000E+00  1.00000000E+00  0.00000000E+00  0.00000000E+00
  0.00000000E+00  0.00000000E+00  1.00000000E+00  0.00000000E+00  0.00000000E+00
  0.00000000E+00  0.00000000E+00  1.00000000E+00  0.00000000E+00  0.00000000E+00
  0.00000000E+00  0.00000000E+00  1.00000000E+00  0.00000000E+00  0.00000000E+00
  0.00000000E+00  0.00000000E+00  0.00000000E+00  1.00000000E+00  1.00000000E+00
  0.00000000E+00  1.00000000E+00  0.00000000E+00  0.00000000E+00  0.00000000E+00
  0.00000000E+00  0.00000000E+00  0.00000000E+00  0.00000000E+00  0.00000000E+00
  0.00000000E+00  0.00000000E+00
MxBond                                     I                2
NBond                                      I   N=           5
           1           2           2           2           1
IBond                                      I   N=          10
           2           0           1           3           2           4
           3           5           4           0
RBond                                      R   N=          10
  1.00000000E+00  0.00000000E+00  1.00000000E+00  1.00000000E+00  1.00000000E+00
  1.00000000E+00  1.00000000E+00  2.00000000E+00  2.00000000E+00  0.00000000E+00
Virial Ratio                               R      2.002353337670264E+00
SCF Energy                                 R     -2.795018355258499E+02
MP2 Energy                                 R     -2.804469351737675E+02
Total Energy                               R     -2.804469351737675E+02
Post-SCF wavefunction norm                 R      1.584245511109170E+00
RMS Force                                  R      6.186303482338684E-04
RMS Density                                R      5.025353088993683E-09
NImag                                      I                1
Job Status                                 I                1
Nuclear derivative order                   I                2
External E-field                           R   N=          35
  0.00000000E+00  0.00000000E+00  0.00000000E+00  0.00000000E+00  0.00000000E+00
  0.00000000E+00  0.00000000E+00  0.00000000E+00  0.00000000E+00  0.00000000E+00
  0.00000000E+00  0.00000000E+00  0.00000000E+00  0.00000000E+00  0.00000000E+00
  0.00000000E+00  0.00000000E+00  0.00000000E+00  0.00000000E+00  0.00000000E+00
  0.00000000E+00  0.00000000E+00  0.00000000E+00  0.00000000E+00  0.00000000E+00
  0.00000000E+00  0.00000000E+00  0.00000000E+00  0.00000000E+00  0.00000000E+00
  0.00000000E+00  0.00000000E+00  0.00000000E+00  0.00000000E+00  0.00000000E+00
IOpCl                                      I                0
IROHF                                      I                0
Alpha Orbital Energies                     R   N=         207
 -2.06910855E+01 -2.06842541E+01 -2.06601711E+01 -1.58126717E+01 -1.62402566E+00
 -1.49585322E+00 -1.25444211E+00 -9.48094725E-01 -7.72442334E-01 -7.59550060E-01
 -7.13137227E-01 -6.78663464E-01 -6.19747336E-01 -5.88651643E-01 -4.87360395E-01
 -4.71524925E-01  2.95724850E-02  7.16382332E-02  8.59211972E-02  1.01759865E-01
  1.32168876E-01  1.35108167E-01  1.43856130E-01  1.54430349E-01  1.78080667E-01
  1.94071869E-01  1.99107891E-01  2.06686543E-01  2.20796278E-01  2.35340666E-01
  2.37224071E-01  2.67209095E-01  2.91949785E-01  2.99403964E-01  3.12128834E-01
  3.43496499E-01  3.54970266E-01  3.87636289E-01  4.15122413E-01  4.28714545E-01
  5.27143863E-01  5.31449914E-01  5.58618572E-01  5.80774510E-01  6.25968559E-01
  6.38087014E-01  6.73245775E-01  6.83425121E-01  7.06941481E-01  7.13582936E-01
  7.18440148E-01  7.32841042E-01  7.48869005E-01  7.84748708E-01  7.93670851E-01
  8.10692171E-01  8.14820950E-01  8.35057536E-01  8.67485775E-01  9.08365083E-01
  9.14577530E-01  9.34984102E-01  9.54830748E-01  9.70659231E-01  9.88757959E-01
  1.01510430E+00  1.05420517E+00  1.06081843E+00  1.08441620E+00  1.11206862E+00
  1.12672728E+00  1.20065049E+00  1.21827238E+00  1.23469302E+00  1.33606346E+00
  1.35108762E+00  1.38976482E+00  1.45622878E+00  1.49397252E+00  1.50803351E+00
  1.53668279E+00  1.56735184E+00  1.58132148E+00  1.60048526E+00  1.66241458E+00
  1.66721859E+00  1.70698697E+00  1.78768870E+00  1.82904831E+00  1.83762729E+00
  1.88204727E+00  1.90335891E+00  1.95629237E+00  1.98115756E+00  2.03147698E+00
  2.07746805E+00  2.11341999E+00  2.12635049E+00  2.15731232E+00  2.22034017E+00
  2.25636414E+00  2.27324792E+00  2.28611353E+00  2.31186275E+00  2.34333558E+00
  2.38811427E+00  2.40143509E+00  2.45000935E+00  2.45350267E+00  2.46740262E+00
  2.47998376E+00  2.50836196E+00  2.58925709E+00  2.59899012E+00  2.61810167E+00
  2.62730193E+00  2.63894221E+00  2.66481593E+00  2.74835760E+00  2.83018412E+00
  2.84449485E+00  2.88711677E+00  2.90306591E+00  2.91513942E+00  2.96052087E+00
  3.01995096E+00  3.07815022E+00  3.11895913E+00  3.20446848E+00  3.22990813E+00
  3.31582761E+00  3.34041335E+00  3.51221680E+00  3.64943743E+00  3.83702052E+00
  3.85001750E+00  4.13303571E+00  4.16544186E+00  4.20698055E+00  4.25330303E+00
  4.33712932E+00  4.39364702E+00  4.47906577E+00  4.52608334E+00  4.64758746E+00
  4.71109779E+00  4.80372008E+00  4.82149503E+00  4.82574008E+00  4.89736119E+00
  5.02246166E+00  5.07100878E+00  5.10023773E+00  5.14618106E+00  5.18427169E+00
  5.25256320E+00  5.27157141E+00  5.30263902E+00  5.33062061E+00  5.35072149E+00
  5.59716143E+00  5.67360445E+00  5.75857107E+00  5.83344486E+00  5.95371091E+00
  6.16993759E+00  6.31260509E+00  6.34319590E+00  6.39182083E+00  6.49449145E+00
  6.50501579E+00  6.62492749E+00  6.65130259E+00  6.70728616E+00  6.74542613E+00
  6.77043892E+00  6.83590052E+00  6.89828490E+00  7.01050313E+00  7.05394751E+00
  7.05817143E+00  7.09552145E+00  7.12815150E+00  7.14520087E+00  7.19148662E+00
  7.22501339E+00  7.23718884E+00  7.30275295E+00  7.32181889E+00  7.35903475E+00
  7.38931081E+00  7.42768677E+00  7.48660063E+00  7.60591071E+00  7.61806178E+00
  7.63499249E+00  7.67775437E+00  7.78355847E+00  7.88305637E+00  8.09109064E+00
  8.30993274E+00  8.39682988E+00  8.54003509E+00  1.33828464E+01  1.44024552E+01
  1.51603850E+01  1.61496618E+01
Alpha MO coefficients                      R   N=       42849
  8.61784371E-05 -5.19081182E-04 -6.73962321E-04 -5.47444262E-06 -3.42835800E-05
 -9.28352414E-06 -1.74497910E-05 -3.30479699E-05  5.97871444E-05  2.82199939E-05
  6.74791276E-05 -1.62385181E-05  4.41018142E-05  3.13957055E-05  3.66556855E-06
  3.56167652E-07  8.13857535E-06  5.69028639E-05 -2.20252623E-06  1.25759774E-05
  1.75675623E-05  7.72469986E-05  1.57745521E-04  4.58782066E-03 -2.80293797E-04
  1.54660501E-05  1.49016556E-03  1.79973098E-03  9.02038407E-05 -5.64744688E-05
  3.84257062E-06 -5.21771845E-04  3.31106172E-04 -2.03404850E-05 -4.81912319E-04
  1.22466737E-03  5.79614867E-05 -2.70642899E-04  2.91894160E-04  5.97999915E-06
  2.86846059E-05 -2.21662870E-06 -6.59080546E-07 -1.08397000E-05  5.38331575E-05
 -3.75993245E-04  4.44122649E-06 -1.19564354E-05  1.90347836E-04 -7.24640190E-04
 -4.25047047E-04  6.90474499E-05  2.58224312E-05  7.49663474E-05 -2.68451626E-04
  9.78636850E-06  6.88128638E-05 -3.93780403E-05 -2.35689537E-06 -7.65795834E-06
  3.36669638E-05  1.04992214E-04 -2.34130596E-05  2.00421175E-04 -1.67270550E-04
  1.86336890E-05  1.60104240E-05  1.66180511E-04  3.15944830E-04  9.76912400E-01
 -9.21476207E-03  4.33166868E-02  2.04814868E-03 -9.66352587E-04  3.96510441E-04
 -1.97768032E-03  5.97793940E-05 -3.32963091E-04  1.96613260E-03 -5.35190134E-05
 -6.35954360E-04 -9.75077906E-04  2.48458203E-05 -1.52331872E-04  7.63864086E-05
  8.05568305E-06  4.67680912E-05  2.38875261E-06  1.31753858E-06  9.47943955E-06
  3.94748778E-05  7.44568508E-04  6.37812397E-06  1.95887293E-05 -4.38609290E-04
  1.11413580E-04 -3.49201929E-04  2.72898527E-05 -2.37278025E-06 -4.54511195E-04
  1.85273943E-04  5.08551534E-06  8.44119959E-06 -6.80084851E-05 -1.74123171E-06
 -1.59463180E-06 -9.90286157E-07  4.24451385E-05 -3.24345175E-06  3.56394152E-05
  4.41538114E-06  6.78751009E-06  1.07319205E-07 -3.28183964E-05  3.33149375E-04
  3.84740331E-05  4.20778695E-05 -2.65150647E-04 -6.71400100E-04 -9.12782611E-05
 -7.99006052E-05 -6.22393635E-05  3.09023061E-06  6.43393496E-04  4.08190204E-04
 -2.06349191E-05 -1.01793376E-03  1.13665434E-04  1.38244781E-05 -9.50020827E-05
  6.12785688E-05 -9.95173084E-06 -1.82812903E-05 -2.65540435E-06 -1.41124707E-06
  5.55172709E-06  3.29305651E-05 -3.27444572E-04 -8.17066159E-06 -2.27545216E-05
 -1.16412331E-04  8.27241790E-04 -4.27581520E-05  3.66915534E-05 -3.24235547E-06
 -7.42044550E-05 -1.47945638E-04  6.90300104E-06 -8.80340953E-05 -8.37345688E-05
  3.42890041E-07 -8.34044157E-06 -1.08432690E-04  1.04845401E-04  7.11812300E-06
 -8.34476330E-05 -1.23260583E-04  9.12508696E-06 -6.60549733E-06 -4.13971086E-04
  9.78022025E-05 -2.48192703E-03  1.21534828E-04 -1.19876055E-04 -2.99587370E-04
  9.78209738E-05 -2.27143601E-05 -1.80831154E-05  5.62973263E-07  1.51657928E-04
  9.37196170E-05 -3.05587440E-06  3.05885037E-04  3.66896045E-05  2.85547061E-05
  1.02184744E-04 -6.57493588E-05  7.76673144E-06 -3.36096397E-06 -1.15355509E-06
 -5.69617878E-07 -4.50017338E-06  1.73900044E-05  6.16621221E-07  5.54854071E-06
  2.90420982E-06  1.10096515E-04 -5.00088539E-05 -1.03999889E-04  9.32483677E-06
 -4.50527963E-06  2.10163449E-04 -1.12238928E-04  1.97372105E-07  1.07333183E-05
 -1.23126858E-05  4.54720401E-07 -3.41807449E-07 -1.00481565E-05  8.26834118E-06
 -4.44527047E-06 -1.24626770E-06  5.66992003E-05  3.23901709E-06  2.28399596E-06
  5.85357899E-05 -1.10267267E-04  3.55796158E-05 -9.21437770E-04 -4.56361856E-04
 -1.11573436E-05 -6.83843696E-06  2.42062499E-05 -2.03396666E-06  1.43278057E-04
  1.97827102E-04  6.19303862E-05  3.85791485E-05  1.25227220E-04  3.57016471E-05
  2.24362129E-05  1.26315904E-06 -1.26015193E-05  1.13889624E-05 -6.43228927E-06
 -2.75126600E-05 -4.88474465E-06  3.39307997E-06  3.65278105E-05  4.33328071E-07
  1.12761742E-04  8.34544528E-05 -2.72152341E-05  6.97864059E-04  6.19996209E-04
  1.04948510E-05 -3.30963644E-06 -2.49615217E-06 -5.60904145E-05  4.87047680E-05
  1.92363764E-05  7.62238692E-04  4.81306299E-04  1.25528009E-04  5.38040868E-05
  5.79991973E-05  7.75254866E-06 -2.58573670E-06 -1.22522917E-06 -1.19714163E-06
 -5.46792215E-06 -1.66418703E-06 -2.87236072E-05  1.68607020E-05  1.68401417E-05
  7.22916024E-05  3.72230915E-05 -5.30445454E-06  4.95850532E-05  5.14603081E-05
 -2.26474273E-04  1.91306039E-04  1.20821866E-06  1.06867231E-05 -7.67615068E-07
  6.57326993E-07 -9.42425559E-07 -1.82085241E-05  3.53180785E-06 -1.50202579E-05
 -4.88401723E-05 -1.63396432E-06  2.82779930E-06  1.44707500E-05  4.43238134E-05
  6.14808751E-05  2.52123611E-03  4.13815372E-05  8.67727448E-05 -6.67118599E-05
 -4.73298523E-04  1.49216198E-05  8.86992496E-06 -7.90184651E-07 -8.10861340E-05
 -9.70135618E-06  3.11769889E-06  8.11755777E-05 -2.81700202E-04 -2.77910993E-05
 -1.86777882E-04  6.35196292E-05 -1.07514129E-05 -8.84473806E-06 -5.71152794E-07
  1.31052799E-07  2.55254208E-05 -1.54761953E-05  4.45202851E-06  9.78472851E-07
 -1.32397122E-06 -7.87838079E-05  9.77716816E-05 -5.41403447E-06 -1.68312202E-05
  5.62228273E-06 -2.55418399E-04  1.52373097E-04 -1.53318846E-07  2.01548823E-06
 -2.39733347E-06 -5.13512330E-07 -8.74587241E-07 -1.30791853E-05  3.06261117E-06
  8.66325365E-07 -3.42040961E-05  3.01680613E-05 -7.12910162E-07  5.38014112E-06
  2.00876697E-04  8.79886663E-06  2.58424941E-04  1.46316270E-03 -7.87527544E-05
 -1.52501420E-03  4.12155407E-04 -1.16371851E-04  8.58907416E-05 -1.73149861E-07
 -1.91753997E-03  9.16043359E-04 -3.15477433E-06  1.27928081E-03  5.00584311E-06
 -9.42099683E-06 -1.01309640E-04  1.49279559E-04  1.53087086E-06 -1.23399122E-04
  1.11790121E-07  7.94789968E-07  1.61210369E-04 -2.04487637E-04 -4.42689222E-04
  1.17549831E-05 -3.66235099E-06  2.03568623E-04 -8.79532301E-04  1.04221525E-05
  2.07221114E-05 -8.52853446E-06 -2.19962248E-04  2.79192876E-04 -6.31191099E-07
  7.91827062E-06  1.30186909E-05 -2.98652399E-07  5.97098384E-07  6.56407615E-06
 -2.20034686E-05  4.11902883E-06  9.12154197E-05 -1.55217462E-04  3.45977306E-06
  4.55542308E-06  1.18495646E-04  2.14144977E-04  9.76649574E-01 -9.84779021E-03
  4.35677965E-02  4.48401615E-03 -4.49926556E-04  2.01313445E-03 -8.89539717E-04
 -8.26176961E-07 -2.27626655E-03  9.32739695E-04  1.72902933E-06  9.08799460E-04
 -6.85537875E-04  2.06136863E-05 -2.24078791E-05 -3.91962697E-05  4.63104273E-06
 -2.32291289E-04 -2.40617232E-06 -5.74385728E-06  6.06791494E-05 -8.87007492E-05
  3.90577370E-04  1.08398320E-06 -4.04987476E-06 -6.45348398E-04  6.73496711E-04
 -1.54514592E-04  3.78287921E-06 -6.39007826E-06  8.97685748E-05 -2.43082081E-04
 -7.33677914E-07  5.25167983E-05 -1.69139626E-05  8.94428892E-07  1.18501154E-06
 -5.18534461E-06  2.54379941E-05  1.41239612E-06  1.16553178E-04 -7.41714242E-05
 -1.92896002E-07 -2.87624540E-06 -7.01145695E-05  2.24510320E-04  4.70789387E-04
  2.10557253E-03  1.59451671E-04  1.43372341E-05 -1.78434156E-04 -1.67711957E-04
 -5.87430319E-05 -6.59114799E-04 -1.07628566E-03 -2.65894406E-04  3.09768586E-05
 -4.46325020E-04 -3.96359559E-05 -2.37718460E-06 -7.37957343E-06 -4.08930414E-06
  3.86007999E-05 -6.41840533E-05 -1.30898500E-04  1.04287899E-04  1.25514122E-04
 -1.72849478E-04  4.86451779E-04  9.76830768E-01 -9.16313646E-03  4.34484919E-02
  1.37743533E-04 -1.17166678E-03 -4.19932307E-04  2.06076296E-03  3.23722768E-04
  5.19337566E-04 -1.94844209E-03 -2.99847084E-04 -9.82554232E-04 -3.63443275E-04
 -1.31547744E-04  4.46249712E-05 -5.41293959E-05  4.23111544E-07  3.20281814E-05
  5.64447783E-06  1.13344125E-05 -3.73015886E-05  1.10429882E-04  7.20962902E-04
 -1.46511027E-04 -1.49388907E-04 -2.86196182E-04  1.43559585E-04 -2.66562028E-04
 -3.87408901E-05 -4.44686893E-06  1.76364907E-04 -1.39856588E-04  6.67461681E-06
 -5.08925344E-05  3.70100978E-05  8.67290316E-06 -2.19497533E-06  2.37978347E-06