 Entering Gaussian System, Link 0=g16
 Input=hoono_r3_1p479650.gjf
 Output=hoono_r3_1p479650.log
 Initial command:
 /sw/contrib/gaussian/g16/B01/g16/l1.exe "/scr/Gau-2535.inp" -scrdir="/scr/"
 Entering Link 1 = /sw/contrib/gaussian/g16/B01/g16/l1.exe PID=      2536.
  
 Copyright (c) 1988-2017, Gaussian, Inc.  All Rights Reserved.
  
 This is part of the Gaussian(R) 16 program.  It is based on
 the Gaussian(R) 09 system (copyright 2009, Gaussian, Inc.),
 the Gaussian(R) 03 system (copyright 2003, Gaussian, Inc.),
 the Gaussian(R) 98 system (copyright 1998, Gaussian, Inc.),
 the Gaussian(R) 94 system (copyright 1995, Gaussian, Inc.),
 the Gaussian 92(TM) system (copyright 1992, Gaussian, Inc.),
 the Gaussian 90(TM) system (copyright 1990, Gaussian, Inc.),
 the Gaussian 88(TM) system (copyright 1988, Gaussian, Inc.),
 the Gaussian 86(TM) system (copyright 1986, Carnegie Mellon
 University), and the Gaussian 82(TM) system (copyright 1983,
 Carnegie Mellon University). Gaussian is a federally registered
 trademark of Gaussian, Inc.
  
 This software contains proprietary and confidential information,
 including trade secrets, belonging to Gaussian, Inc.
  
 This software is provided under written license and may be
 used, copied, transmitted, or stored only in accord with that
 written license.
  
 The following legend is applicable only to US Government
 contracts under FAR:
  
                    RESTRICTED RIGHTS LEGEND
  
 Use, reproduction and disclosure by the US Government is
 subject to restrictions as set forth in subparagraphs (a)
 and (c) of the Commercial Computer Software - Restricted
 Rights clause in FAR 52.227-19.
  
 Gaussian, Inc.
 340 Quinnipiac St., Bldg. 40, Wallingford CT 06492
  
  
 ---------------------------------------------------------------
 Warning -- This program may not be used in any manner that
 competes with the business of Gaussian, Inc. or will provide
 assistance to any competitor of Gaussian, Inc.  The licensee
 of this program is prohibited from giving any competitor of
 Gaussian, Inc. access to this program.  By using this program,
 the user acknowledges that Gaussian, Inc. is engaged in the
 business of creating and licensing software in the field of
 computational chemistry and represents and warrants to the
 licensee that it is not a competitor of Gaussian, Inc. and that
 it will not use this program in any manner prohibited above.
 ---------------------------------------------------------------
  

 Cite this work as:
 Gaussian 16, Revision B.01,
 M. J. Frisch, G. W. Trucks, H. B. Schlegel, G. E. Scuseria, 
 M. A. Robb, J. R. Cheeseman, G. Scalmani, V. Barone, 
 G. A. Petersson, H. Nakatsuji, X. Li, M. Caricato, A. V. Marenich, 
 J. Bloino, B. G. Janesko, R. Gomperts, B. Mennucci, H. P. Hratchian, 
 J. V. Ortiz, A. F. Izmaylov, J. L. Sonnenberg, D. Williams-Young, 
 F. Ding, F. Lipparini, F. Egidi, J. Goings, B. Peng, A. Petrone, 
 T. Henderson, D. Ranasinghe, V. G. Zakrzewski, J. Gao, N. Rega, 
 G. Zheng, W. Liang, M. Hada, M. Ehara, K. Toyota, R. Fukuda, 
 J. Hasegawa, M. Ishida, T. Nakajima, Y. Honda, O. Kitao, H. Nakai, 
 T. Vreven, K. Throssell, J. A. Montgomery, Jr., J. E. Peralta, 
 F. Ogliaro, M. J. Bearpark, J. J. Heyd, E. N. Brothers, K. N. Kudin, 
 V. N. Staroverov, T. A. Keith, R. Kobayashi, J. Normand, 
 K. Raghavachari, A. P. Rendell, J. C. Burant, S. S. Iyengar, 
 J. Tomasi, M. Cossi, J. M. Millam, M. Klene, C. Adamo, R. Cammi, 
 J. W. Ochterski, R. L. Martin, K. Morokuma, O. Farkas, 
 J. B. Foresman, and D. J. Fox, Gaussian, Inc., Wallingford CT, 2016.
 
 ******************************************
 Gaussian 16:  ES64L-G16RevB.01 20-Dec-2017
                21-Feb-2022 
 ******************************************
 %nproc=28
 Will use up to   28 processors via shared memory.
 %mem=120GB
 %chk=hoono_r3_1p479650.chk
 ---------------------------------------
 #p freq mp2/aug-cc-pvtz density=current
 ---------------------------------------
 1/10=4,30=1,38=1/1,3;
 2/12=2,17=6,18=5,40=1/2;
 3/5=16,6=1,7=10,11=9,25=1,30=1,71=2,140=1/1,2,3;
 4//1;
 5/5=2,38=5,98=1/2;
 8/6=3,8=1,10=1,19=11,30=-1/1;
 9/15=3,16=-3/6;
 11/6=1,8=1,15=11,17=12,24=-1,27=1,28=-2,29=300,32=6,42=3/1,2,10;
 10/6=2,21=1/2;
 8/6=4,8=1,10=1,19=11,30=-1/11,4;
 10/5=1,20=4/2;
 11/12=2,14=11,16=1,17=2,28=-2,42=3,76=2/2,10,12;
 6/7=2,8=2,9=2,10=2,22=-1/1;
 7/8=1,10=1,12=2,25=1,44=2/1,2,3,16;
 1/10=4,30=1/3;
 99//99;
 Leave Link    1 at Mon Feb 21 20:15:20 2022, MaxMem= 16106127360 cpu:               2.5 elap:               0.1
 (Enter /sw/contrib/gaussian/g16/B01/g16/l101.exe)
 -----
 title
 -----
 Symbolic Z-matrix:
 Charge =  0 Multiplicity = 1
 H
 O                    1    r1
 O                    2    r2       1    a1
 N                    3    r3       2    a2       1    d1       0
 O                    4    r4       3    a3       2    d2       0
       Variables:
  r1                    0.96898                  
  r2                    1.45492                  
  r3                    1.47965                  
  r4                    1.17073                  
  a1                   97.59495                  
  a2                  102.29752                  
  a3                  109.06955                  
  d1                  180.                       
  d2                  180.                       
 
 ITRead=  0  0  0  0  0
 MicOpt= -1 -1 -1 -1 -1
 NAtoms=      5 NQM=        5 NQMF=       0 NMMI=      0 NMMIF=      0
                NMic=       0 NMicF=      0.
                    Isotopes and Nuclear Properties:
 (Nuclear quadrupole moments (NQMom) in fm**2, nuclear magnetic moments (NMagM)
  in nuclear magnetons)

  Atom         1           2           3           4           5
 IAtWgt=           1          16          16          14          16
 AtmWgt=   1.0078250  15.9949146  15.9949146  14.0030740  15.9949146
 NucSpn=           1           0           0           2           0
 AtZEff=  -0.0000000  -0.0000000  -0.0000000  -0.0000000  -0.0000000
 NQMom=    0.0000000   0.0000000   0.0000000   2.0440000   0.0000000
 NMagM=    2.7928460   0.0000000   0.0000000   0.4037610   0.0000000
 AtZNuc=   1.0000000   8.0000000   8.0000000   7.0000000   8.0000000
 Leave Link  101 at Mon Feb 21 20:15:20 2022, MaxMem= 16106127360 cpu:               2.9 elap:               0.1
 (Enter /sw/contrib/gaussian/g16/B01/g16/l103.exe)

 GradGradGradGradGradGradGradGradGradGradGradGradGradGradGradGradGradGrad
 Berny optimization.
 Initialization pass.
                       ----------------------------
                       !    Initial Parameters    !
                       ! (Angstroms and Degrees)  !
 ----------------------                            ----------------------
 !      Name          Value   Derivative information (Atomic Units)     !
 ------------------------------------------------------------------------
 !       r1          0.969    calculate D2E/DX2 analytically            !
 !       r2          1.4549   calculate D2E/DX2 analytically            !
 !       r3          1.4797   calculate D2E/DX2 analytically            !
 !       r4          1.1707   calculate D2E/DX2 analytically            !
 !       a1         97.5949   calculate D2E/DX2 analytically            !
 !       a2        102.2975   calculate D2E/DX2 analytically            !
 !       a3        109.0696   calculate D2E/DX2 analytically            !
 !       d1        180.0      calculate D2E/DX2 analytically            !
 !       d2        180.0      calculate D2E/DX2 analytically            !
 ------------------------------------------------------------------------
 Trust Radius=3.00D-01 FncErr=1.00D-07 GrdErr=1.00D-07 EigMax=2.50D+02 EigMin=1.00D-04
 Number of steps in this run=      2 maximum allowed number of steps=      2.
 GradGradGradGradGradGradGradGradGradGradGradGradGradGradGradGradGradGrad

 Leave Link  103 at Mon Feb 21 20:15:20 2022, MaxMem= 16106127360 cpu:               1.1 elap:               0.1
 (Enter /sw/contrib/gaussian/g16/B01/g16/l202.exe)
                          Input orientation:                          
 ---------------------------------------------------------------------
 Center     Atomic      Atomic             Coordinates (Angstroms)
 Number     Number       Type             X           Y           Z
 ---------------------------------------------------------------------
      1          1           0        0.000000    0.000000    0.000000
      2          8           0        0.000000    0.000000    0.968976
      3          8           0        1.442156    0.000000    1.161271
      4          7           0        1.563462    0.000000    2.635941
      5          8           0        2.697578    0.000000    2.926436
 ---------------------------------------------------------------------
                    Distance matrix (angstroms):
                    1          2          3          4          5
     1  H    0.000000
     2  O    0.968976   0.000000
     3  O    1.851584   1.454919   0.000000
     4  N    3.064735   2.285429   1.479651   0.000000
     5  O    3.980070   3.332953   2.166078   1.170729   0.000000
 Stoichiometry    HNO3
 Framework group  CS[SG(HNO3)]
 Deg. of freedom     7
 Full point group                 CS      NOp   2
 Largest Abelian subgroup         CS      NOp   2
 Largest concise Abelian subgroup C1      NOp   1
                         Standard orientation:                         
 ---------------------------------------------------------------------
 Center     Atomic      Atomic             Coordinates (Angstroms)
 Number     Number       Type             X           Y           Z
 ---------------------------------------------------------------------
      1          1           0        1.546500    1.700818    0.000000
      2          8           0        1.453930    0.736275    0.000000
      3          8           0        0.000000    0.682634    0.000000
      4          7           0       -0.261633   -0.773702   -0.000000
      5          8           0       -1.418314   -0.954522   -0.000000
 ---------------------------------------------------------------------
 Rotational constants (GHZ):          54.0822290           4.9583821           4.5419645
 Leave Link  202 at Mon Feb 21 20:15:20 2022, MaxMem= 16106127360 cpu:               0.5 elap:               0.0
 (Enter /sw/contrib/gaussian/g16/B01/g16/l301.exe)
 Standard basis: Aug-CC-pVTZ (5D, 7F)
 Ernie: Thresh=  0.10000D-02 Tol=  0.10000D-05 Strict=F.
 Ernie:  12 primitive shells out of 131 were deleted.
 There are   166 symmetry adapted cartesian basis functions of A'  symmetry.
 There are    79 symmetry adapted cartesian basis functions of A"  symmetry.
 There are   136 symmetry adapted basis functions of A'  symmetry.
 There are    71 symmetry adapted basis functions of A"  symmetry.
   207 basis functions,   315 primitive gaussians,   245 cartesian basis functions
    16 alpha electrons       16 beta electrons
       nuclear repulsion energy       116.3086388028 Hartrees.
 IExCor=    0 DFT=F Ex=HF Corr=None ExCW=0 ScaHFX=  1.000000
 ScaDFX=  1.000000  1.000000  1.000000  1.000000 ScalE2=  1.000000  1.000000
 IRadAn=      5 IRanWt=     -1 IRanGd=            0 ICorTp=0 IEmpDi=  4
 NAtoms=    5 NActive=    5 NUniq=    5 SFac= 1.00D+00 NAtFMM=   60 NAOKFM=F Big=F
 Integral buffers will be    131072 words long.
 Raffenetti 1 integral format.
 Two-electron integral symmetry is turned on.
 Leave Link  301 at Mon Feb 21 20:15:20 2022, MaxMem= 16106127360 cpu:               1.8 elap:               0.1
 (Enter /sw/contrib/gaussian/g16/B01/g16/l302.exe)
 NPDir=0 NMtPBC=     1 NCelOv=     1 NCel=       1 NClECP=     1 NCelD=      1
         NCelK=      1 NCelE2=     1 NClLst=     1 CellRange=     0.0.
 One-electron integrals computed using PRISM.
 One-electron integral symmetry used in STVInt
 NBasis=   207 RedAO= T EigKep=  1.84D-04  NBF=   136    71
 NBsUse=   207 1.00D-06 EigRej= -1.00D+00 NBFU=   136    71
 Leave Link  302 at Mon Feb 21 20:15:20 2022, MaxMem= 16106127360 cpu:               4.7 elap:               0.2
 (Enter /sw/contrib/gaussian/g16/B01/g16/l303.exe)
 DipDrv:  MaxL=1.
 Leave Link  303 at Mon Feb 21 20:15:20 2022, MaxMem= 16106127360 cpu:               0.8 elap:               0.1
 (Enter /sw/contrib/gaussian/g16/B01/g16/l401.exe)
 ExpMin= 2.53D-02 ExpMax= 1.53D+04 ExpMxC= 5.22D+02 IAcc=3 IRadAn=         5 AccDes= 0.00D+00
 Harris functional with IExCor=  205 and IRadAn=       5 diagonalized for initial guess.
 HarFok:  IExCor=  205 AccDes= 0.00D+00 IRadAn=         5 IDoV= 1 UseB2=F ITyADJ=14
 ICtDFT=  3500011 ScaDFX=  1.000000  1.000000  1.000000  1.000000
 FoFCou: FMM=F IPFlag=           0 FMFlag=      100000 FMFlg1=           0
         NFxFlg=           0 DoJE=T BraDBF=F KetDBF=T FulRan=T
         wScrn=  0.000000 ICntrl=       500 IOpCl=  0 I1Cent=   200000004 NGrid=           0
         NMat0=    1 NMatS0=      1 NMatT0=    0 NMatD0=    1 NMtDS0=    0 NMtDT0=    0
 Petite list used in FoFCou.
 Harris En= -279.627852178144    
 JPrj=0 DoOrth=F DoCkMO=F.
 Initial guess orbital symmetries:
       Occupied  (A') (A') (A') (A') (A') (A') (A') (A') (A') (A')
                 (A") (A') (A') (A") (A") (A')
       Virtual   (A") (A') (A') (A') (A') (A') (A") (A') (A') (A')
                 (A") (A') (A") (A') (A') (A") (A') (A") (A') (A')
                 (A') (A') (A') (A') (A') (A") (A') (A") (A') (A')
                 (A") (A') (A") (A') (A') (A") (A') (A") (A') (A')
                 (A") (A') (A") (A') (A") (A') (A') (A') (A") (A")
                 (A') (A') (A') (A') (A") (A') (A") (A') (A") (A')
                 (A') (A') (A") (A') (A') (A") (A') (A") (A') (A')
                 (A") (A') (A') (A") (A") (A') (A') (A") (A') (A')
                 (A') (A") (A') (A") (A') (A") (A') (A") (A') (A')
                 (A') (A") (A') (A") (A') (A") (A") (A') (A') (A')
                 (A") (A') (A") (A') (A') (A') (A') (A") (A") (A')
                 (A") (A') (A') (A') (A") (A') (A') (A') (A") (A')
                 (A") (A') (A') (A") (A") (A') (A') (A") (A") (A')
                 (A') (A') (A') (A") (A") (A') (A") (A') (A') (A')
                 (A') (A") (A") (A') (A') (A") (A') (A') (A') (A')
                 (A") (A') (A') (A") (A') (A") (A') (A") (A") (A')
                 (A') (A") (A') (A") (A') (A") (A") (A") (A') (A')
                 (A") (A') (A") (A') (A") (A') (A") (A") (A') (A')
                 (A') (A') (A') (A') (A') (A') (A') (A') (A') (A')
                 (A')
 The electronic state of the initial guess is 1-A'.
 Leave Link  401 at Mon Feb 21 20:15:21 2022, MaxMem= 16106127360 cpu:               7.3 elap:               0.3
 (Enter /sw/contrib/gaussian/g16/B01/g16/l502.exe)
 Keep R1 ints in memory in symmetry-blocked form, NReq=348887737.
 FoFCou: FMM=F IPFlag=           0 FMFlag=           0 FMFlg1=           0
         NFxFlg=           0 DoJE=F BraDBF=F KetDBF=F FulRan=T
         wScrn=  0.000000 ICntrl=       600 IOpCl=  0 I1Cent=           0 NGrid=           0
         NMat0=    1 NMatS0=  21528 NMatT0=    0 NMatD0=    1 NMtDS0=    0 NMtDT0=    0
 Petite list used in FoFCou.
 Closed shell SCF:
 Using DIIS extrapolation, IDIIS=  1040.
 NGot= 16106127360 LenX= 15988850015 LenY= 15988789549
 Requested convergence on RMS density matrix=1.00D-08 within 128 cycles.
 Requested convergence on MAX density matrix=1.00D-06.
 Requested convergence on             energy=1.00D-06.
 No special actions if energy rises.

 Cycle   1  Pass 1  IDiag  1:
 E= -279.370484127190    
 DIIS: error= 2.74D-02 at cycle   1 NSaved=   1.
 NSaved= 1 IEnMin= 1 EnMin= -279.370484127190     IErMin= 1 ErrMin= 2.74D-02
 ErrMax= 2.74D-02  0.00D+00 EMaxC= 1.00D-01 BMatC= 4.35D-01 BMatP= 4.35D-01
 IDIUse=3 WtCom= 7.26D-01 WtEn= 2.74D-01
 Coeff-Com:  0.100D+01
 Coeff-En:   0.100D+01
 Coeff:      0.100D+01
 Gap=     0.503 Goal=   None    Shift=    0.000
 GapD=    0.503 DampG=2.000 DampE=0.500 DampFc=1.0000 IDamp=-1.
 RMSDP=1.61D-03 MaxDP=1.01D-01              OVMax= 1.08D-01

 Cycle   2  Pass 1  IDiag  1:
 E= -279.452816160190     Delta-E=       -0.082332033001 Rises=F Damp=F
 DIIS: error= 1.77D-02 at cycle   2 NSaved=   2.
 NSaved= 2 IEnMin= 2 EnMin= -279.452816160190     IErMin= 2 ErrMin= 1.77D-02
 ErrMax= 1.77D-02  0.00D+00 EMaxC= 1.00D-01 BMatC= 6.76D-02 BMatP= 4.35D-01
 IDIUse=3 WtCom= 8.23D-01 WtEn= 1.77D-01
 Coeff-Com:  0.187D+00 0.813D+00
 Coeff-En:   0.000D+00 0.100D+01
 Coeff:      0.154D+00 0.846D+00
 Gap=     0.526 Goal=   None    Shift=    0.000
 RMSDP=8.79D-04 MaxDP=3.66D-02 DE=-8.23D-02 OVMax= 7.07D-02

 Cycle   3  Pass 1  IDiag  1:
 E= -279.480036970386     Delta-E=       -0.027220810196 Rises=F Damp=F
 DIIS: error= 1.06D-02 at cycle   3 NSaved=   3.
 NSaved= 3 IEnMin= 3 EnMin= -279.480036970386     IErMin= 3 ErrMin= 1.06D-02
 ErrMax= 1.06D-02  0.00D+00 EMaxC= 1.00D-01 BMatC= 2.78D-02 BMatP= 6.76D-02
 IDIUse=3 WtCom= 8.94D-01 WtEn= 1.06D-01
 Coeff-Com: -0.324D-01 0.381D+00 0.651D+00
 Coeff-En:   0.000D+00 0.244D+00 0.756D+00
 Coeff:     -0.290D-01 0.367D+00 0.662D+00
 Gap=     0.510 Goal=   None    Shift=    0.000
 RMSDP=3.71D-04 MaxDP=1.58D-02 DE=-2.72D-02 OVMax= 3.61D-02

 Cycle   4  Pass 1  IDiag  1:
 E= -279.498441796733     Delta-E=       -0.018404826347 Rises=F Damp=F
 DIIS: error= 1.32D-03 at cycle   4 NSaved=   4.
 NSaved= 4 IEnMin= 4 EnMin= -279.498441796733     IErMin= 4 ErrMin= 1.32D-03
 ErrMax= 1.32D-03  0.00D+00 EMaxC= 1.00D-01 BMatC= 5.17D-04 BMatP= 2.78D-02
 IDIUse=3 WtCom= 9.87D-01 WtEn= 1.32D-02
 Coeff-Com: -0.121D-01 0.642D-01 0.169D+00 0.779D+00
 Coeff-En:   0.000D+00 0.000D+00 0.000D+00 0.100D+01
 Coeff:     -0.119D-01 0.633D-01 0.166D+00 0.782D+00
 Gap=     0.502 Goal=   None    Shift=    0.000
 RMSDP=9.04D-05 MaxDP=2.83D-03 DE=-1.84D-02 OVMax= 1.16D-02

 Cycle   5  Pass 1  IDiag  1:
 E= -279.499140394319     Delta-E=       -0.000698597585 Rises=F Damp=F
 DIIS: error= 7.72D-04 at cycle   5 NSaved=   5.
 NSaved= 5 IEnMin= 5 EnMin= -279.499140394319     IErMin= 5 ErrMin= 7.72D-04
 ErrMax= 7.72D-04  0.00D+00 EMaxC= 1.00D-01 BMatC= 9.10D-05 BMatP= 5.17D-04
 IDIUse=3 WtCom= 9.92D-01 WtEn= 7.72D-03
 Coeff-Com:  0.628D-02-0.750D-01-0.123D+00 0.118D-01 0.118D+01
 Coeff-En:   0.000D+00 0.000D+00 0.000D+00 0.000D+00 0.100D+01
 Coeff:      0.623D-02-0.744D-01-0.122D+00 0.117D-01 0.118D+01
 Gap=     0.502 Goal=   None    Shift=    0.000
 RMSDP=7.90D-05 MaxDP=2.15D-03 DE=-6.99D-04 OVMax= 1.14D-02

 Cycle   6  Pass 1  IDiag  1:
 E= -279.499477354824     Delta-E=       -0.000336960505 Rises=F Damp=F
 DIIS: error= 2.85D-04 at cycle   6 NSaved=   6.
 NSaved= 6 IEnMin= 6 EnMin= -279.499477354824     IErMin= 6 ErrMin= 2.85D-04
 ErrMax= 2.85D-04  0.00D+00 EMaxC= 1.00D-01 BMatC= 1.74D-05 BMatP= 9.10D-05
 IDIUse=3 WtCom= 9.97D-01 WtEn= 2.85D-03
 Coeff-Com:  0.661D-03 0.979D-03 0.382D-02-0.125D+00-0.241D+00 0.136D+01
 Coeff-En:   0.000D+00 0.000D+00 0.000D+00 0.000D+00 0.000D+00 0.100D+01
 Coeff:      0.659D-03 0.976D-03 0.380D-02-0.124D+00-0.240D+00 0.136D+01
 Gap=     0.502 Goal=   None    Shift=    0.000
 RMSDP=4.72D-05 MaxDP=1.31D-03 DE=-3.37D-04 OVMax= 5.70D-03

 Cycle   7  Pass 1  IDiag  1:
 E= -279.499555698403     Delta-E=       -0.000078343579 Rises=F Damp=F
 DIIS: error= 1.38D-04 at cycle   7 NSaved=   7.
 NSaved= 7 IEnMin= 7 EnMin= -279.499555698403     IErMin= 7 ErrMin= 1.38D-04
 ErrMax= 1.38D-04  0.00D+00 EMaxC= 1.00D-01 BMatC= 5.05D-06 BMatP= 1.74D-05
 IDIUse=3 WtCom= 9.99D-01 WtEn= 1.38D-03
 Coeff-Com: -0.966D-03 0.143D-01 0.280D-01-0.243D-01-0.304D+00 0.426D+00
 Coeff-Com:  0.861D+00
 Coeff-En:   0.000D+00 0.000D+00 0.000D+00 0.000D+00 0.000D+00 0.000D+00
 Coeff-En:   0.100D+01
 Coeff:     -0.964D-03 0.142D-01 0.280D-01-0.243D-01-0.303D+00 0.425D+00
 Coeff:      0.861D+00
 Gap=     0.502 Goal=   None    Shift=    0.000
 RMSDP=1.39D-05 MaxDP=3.97D-04 DE=-7.83D-05 OVMax= 1.61D-03

 Cycle   8  Pass 1  IDiag  1:
 E= -279.499565522456     Delta-E=       -0.000009824053 Rises=F Damp=F
 DIIS: error= 5.84D-05 at cycle   8 NSaved=   8.
 NSaved= 8 IEnMin= 8 EnMin= -279.499565522456     IErMin= 8 ErrMin= 5.84D-05
 ErrMax= 5.84D-05  0.00D+00 EMaxC= 1.00D-01 BMatC= 6.53D-07 BMatP= 5.05D-06
 IDIUse=1 WtCom= 1.00D+00 WtEn= 0.00D+00
 Coeff-Com: -0.479D-03 0.374D-02 0.825D-02 0.277D-01-0.405D-01-0.202D+00
 Coeff-Com:  0.150D+00 0.105D+01
 Coeff:     -0.479D-03 0.374D-02 0.825D-02 0.277D-01-0.405D-01-0.202D+00
 Coeff:      0.150D+00 0.105D+01
 Gap=     0.502 Goal=   None    Shift=    0.000
 RMSDP=7.49D-06 MaxDP=2.14D-04 DE=-9.82D-06 OVMax= 8.40D-04

 Cycle   9  Pass 1  IDiag  1:
 E= -279.499567516974     Delta-E=       -0.000001994518 Rises=F Damp=F
 DIIS: error= 1.59D-05 at cycle   9 NSaved=   9.
 NSaved= 9 IEnMin= 9 EnMin= -279.499567516974     IErMin= 9 ErrMin= 1.59D-05
 ErrMax= 1.59D-05  0.00D+00 EMaxC= 1.00D-01 BMatC= 7.08D-08 BMatP= 6.53D-07
 IDIUse=1 WtCom= 1.00D+00 WtEn= 0.00D+00
 Coeff-Com:  0.135D-03-0.185D-02-0.335D-02-0.294D-02 0.352D-01 0.420D-02
 Coeff-Com: -0.161D+00-0.134D+00 0.126D+01
 Coeff:      0.135D-03-0.185D-02-0.335D-02-0.294D-02 0.352D-01 0.420D-02
 Coeff:     -0.161D+00-0.134D+00 0.126D+01
 Gap=     0.502 Goal=   None    Shift=    0.000
 RMSDP=2.01D-06 MaxDP=6.85D-05 DE=-1.99D-06 OVMax= 1.77D-04

 Cycle  10  Pass 1  IDiag  1:
 E= -279.499567683905     Delta-E=       -0.000000166931 Rises=F Damp=F
 DIIS: error= 4.18D-06 at cycle  10 NSaved=  10.
 NSaved=10 IEnMin=10 EnMin= -279.499567683905     IErMin=10 ErrMin= 4.18D-06
 ErrMax= 4.18D-06  0.00D+00 EMaxC= 1.00D-01 BMatC= 5.44D-09 BMatP= 7.08D-08
 IDIUse=1 WtCom= 1.00D+00 WtEn= 0.00D+00
 Coeff-Com:  0.286D-04-0.217D-03-0.270D-03-0.252D-02 0.939D-03 0.186D-01
 Coeff-Com: -0.799D-02-0.704D-01-0.927D-01 0.115D+01
 Coeff:      0.286D-04-0.217D-03-0.270D-03-0.252D-02 0.939D-03 0.186D-01
 Coeff:     -0.799D-02-0.704D-01-0.927D-01 0.115D+01
 Gap=     0.502 Goal=   None    Shift=    0.000
 RMSDP=4.98D-07 MaxDP=2.08D-05 DE=-1.67D-07 OVMax= 3.95D-05

 Cycle  11  Pass 1  IDiag  1:
 E= -279.499567695995     Delta-E=       -0.000000012091 Rises=F Damp=F
 DIIS: error= 2.03D-06 at cycle  11 NSaved=  11.
 NSaved=11 IEnMin=11 EnMin= -279.499567695995     IErMin=11 ErrMin= 2.03D-06
 ErrMax= 2.03D-06  0.00D+00 EMaxC= 1.00D-01 BMatC= 6.42D-10 BMatP= 5.44D-09
 IDIUse=1 WtCom= 1.00D+00 WtEn= 0.00D+00
 Coeff-Com: -0.214D-04 0.247D-03 0.497D-03 0.534D-03-0.413D-02-0.361D-02
 Coeff-Com:  0.192D-01 0.316D-01-0.137D+00-0.158D+00 0.125D+01
 Coeff:     -0.214D-04 0.247D-03 0.497D-03 0.534D-03-0.413D-02-0.361D-02
 Coeff:      0.192D-01 0.316D-01-0.137D+00-0.158D+00 0.125D+01
 Gap=     0.502 Goal=   None    Shift=    0.000
 RMSDP=1.71D-07 MaxDP=6.08D-06 DE=-1.21D-08 OVMax= 1.73D-05

 Cycle  12  Pass 1  IDiag  1:
 E= -279.499567697722     Delta-E=       -0.000000001727 Rises=F Damp=F
 DIIS: error= 6.08D-07 at cycle  12 NSaved=  12.
 NSaved=12 IEnMin=12 EnMin= -279.499567697722     IErMin=12 ErrMin= 6.08D-07
 ErrMax= 6.08D-07  0.00D+00 EMaxC= 1.00D-01 BMatC= 7.53D-11 BMatP= 6.42D-10
 IDIUse=1 WtCom= 1.00D+00 WtEn= 0.00D+00
 Coeff-Com:  0.143D-05-0.316D-04-0.687D-04 0.152D-03 0.113D-02-0.224D-02
 Coeff-Com: -0.415D-02 0.495D-02 0.421D-01-0.122D+00-0.270D+00 0.135D+01
 Coeff:      0.143D-05-0.316D-04-0.687D-04 0.152D-03 0.113D-02-0.224D-02
 Coeff:     -0.415D-02 0.495D-02 0.421D-01-0.122D+00-0.270D+00 0.135D+01
 Gap=     0.502 Goal=   None    Shift=    0.000
 RMSDP=7.18D-08 MaxDP=2.80D-06 DE=-1.73D-09 OVMax= 7.03D-06

 Cycle  13  Pass 1  IDiag  1:
 E= -279.499567697960     Delta-E=       -0.000000000238 Rises=F Damp=F
 DIIS: error= 1.80D-07 at cycle  13 NSaved=  13.
 NSaved=13 IEnMin=13 EnMin= -279.499567697960     IErMin=13 ErrMin= 1.80D-07
 ErrMax= 1.80D-07  0.00D+00 EMaxC= 1.00D-01 BMatC= 4.59D-12 BMatP= 7.53D-11
 IDIUse=1 WtCom= 1.00D+00 WtEn= 0.00D+00
 Coeff-Com:  0.133D-05-0.146D-04-0.234D-04-0.899D-04 0.109D-03 0.803D-03
 Coeff-Com: -0.728D-03-0.346D-02 0.468D-03 0.443D-01-0.399D-01-0.347D+00
 Coeff-Com:  0.135D+01
 Coeff:      0.133D-05-0.146D-04-0.234D-04-0.899D-04 0.109D-03 0.803D-03
 Coeff:     -0.728D-03-0.346D-02 0.468D-03 0.443D-01-0.399D-01-0.347D+00
 Coeff:      0.135D+01
 Gap=     0.502 Goal=   None    Shift=    0.000
 RMSDP=2.04D-08 MaxDP=6.27D-07 DE=-2.38D-10 OVMax= 1.81D-06

 Cycle  14  Pass 1  IDiag  1:
 E= -279.499567697977     Delta-E=       -0.000000000017 Rises=F Damp=F
 DIIS: error= 2.74D-08 at cycle  14 NSaved=  14.
 NSaved=14 IEnMin=14 EnMin= -279.499567697977     IErMin=14 ErrMin= 2.74D-08
 ErrMax= 2.74D-08  0.00D+00 EMaxC= 1.00D-01 BMatC= 2.31D-13 BMatP= 4.59D-12
 IDIUse=1 WtCom= 1.00D+00 WtEn= 0.00D+00
 Coeff-Com: -0.219D-06 0.354D-05 0.642D-05 0.610D-05-0.887D-04 0.424D-04
 Coeff-Com:  0.278D-03 0.288D-03-0.260D-02 0.171D-02 0.179D-01-0.248D-01
 Coeff-Com: -0.211D+00 0.122D+01
 Coeff:     -0.219D-06 0.354D-05 0.642D-05 0.610D-05-0.887D-04 0.424D-04
 Coeff:      0.278D-03 0.288D-03-0.260D-02 0.171D-02 0.179D-01-0.248D-01
 Coeff:     -0.211D+00 0.122D+01
 Gap=     0.502 Goal=   None    Shift=    0.000
 RMSDP=4.10D-09 MaxDP=1.02D-07 DE=-1.71D-11 OVMax= 3.76D-07

 SCF Done:  E(RHF) =  -279.499567698     A.U. after   14 cycles
            NFock= 14  Conv=0.41D-08     -V/T= 2.0025
 KE= 2.788125186359D+02 PE=-8.939385329954D+02 EE= 2.193178078587D+02
 Leave Link  502 at Mon Feb 21 20:15:24 2022, MaxMem= 16106127360 cpu:              54.7 elap:               3.5
 (Enter /sw/contrib/gaussian/g16/B01/g16/l801.exe)
 ExpMin= 2.53D-02 ExpMax= 1.53D+04 ExpMxC= 5.22D+02 IAcc=3 IRadAn=         5 AccDes= 0.00D+00
 HarFok:  IExCor=  205 AccDes= 0.00D+00 IRadAn=         5 IDoV=-2 UseB2=F ITyADJ=14
 ICtDFT= 12500011 ScaDFX=  1.000000  1.000000  1.000000  1.000000
 Largest valence mixing into a core orbital is  2.09D-04
 Largest core mixing into a valence orbital is  3.69D-05
 Range of M.O.s used for correlation:     5   207
 NBasis=   207 NAE=    16 NBE=    16 NFC=     4 NFV=     0
 NROrb=    203 NOA=    12 NOB=    12 NVA=   191 NVB=   191

 **** Warning!!: The largest alpha MO coefficient is  0.17301022D+02

 Leave Link  801 at Mon Feb 21 20:15:25 2022, MaxMem= 16106127360 cpu:               3.8 elap:               0.2
 (Enter /sw/contrib/gaussian/g16/B01/g16/l906.exe)
 Frozen-core derivative calculation, NFC=   4 NFV=   0.
 FulOut=F Deriv=T AODrv=T NAtomX=     5
   MMem=           0  MDisk=          12 MDiskD=          12
  W3Min=      811440 MinDsk=     2425030 NBas6D=         245
 NBas2D=       30762    NTT=       30135    LW2=     7400000
    MDV= 16105574339 MDiskM=      328644 NBas2p=       30702
 Disk-based method using ON**2 memory for 12 occupieds at a time.
 Permanent disk used for amplitudes=    11516536 words.
 Estimated scratch disk usage=   321251614 words.
 IMap=   1   2   3   4   5   6   7   8   9  10  11  12  13  14  15  16
 Actual    scratch disk usage=   310331678 words.
 JobTyp=1 Pass  1:  I=   5 to  16 NPSUse= 28 ParTrn=T ParDer=T DoDerP=T.
 (rs|ai) integrals will be sorted in core.
 Spin components of T(2) and E(2):
     alpha-alpha T2 =       0.3427673127D-01 E2=     -0.1226458013D+00
     alpha-beta  T2 =       0.1883334215D+00 E2=     -0.7017854621D+00
     beta-beta   T2 =       0.3427673127D-01 E2=     -0.1226458013D+00
 The integrals were generated   1 times.
 ANorm=    0.1121109666D+01
 E2 =    -0.9470770647D+00 EUMP2 =    -0.28044664476266D+03
 Leave Link  906 at Mon Feb 21 20:17:01 2022, MaxMem= 16106127360 cpu:            2702.7 elap:              96.6
 (Enter /sw/contrib/gaussian/g16/B01/g16/l1101.exe)
 Using compressed Sx but separate Hx and Fx, NAtomX=     5.
 Will process      6 centers per pass.
 Leave Link 1101 at Mon Feb 21 20:17:01 2022, MaxMem= 16106127360 cpu:               5.5 elap:               0.2
 (Enter /sw/contrib/gaussian/g16/B01/g16/l1102.exe)
 Leave Link 1102 at Mon Feb 21 20:17:02 2022, MaxMem= 16106127360 cpu:               0.8 elap:               0.1
 (Enter /sw/contrib/gaussian/g16/B01/g16/l1110.exe)
 Forming Gx(P) for the SCF density, NAtomX=     5.
 Integral derivatives from FoFJK, PRISM(SPDF).
 Do as many integral derivatives as possible in FoFJK.
 G2DrvN: MDV=   16106126844.
 G2DrvN: will do     6 centers at a time, making    1 passes.
 Calling FoFCou, ICntrl=  3107 FMM=F I1Cent=   0 AccDes= 0.00D+00.
 FoFJK:  IHMeth= 1 ICntrl=    3107 DoSepK=F KAlg= 0 I1Cent=           0 FoldK=F
 IRaf=         0 NMat=       1 IRICut=       1 DoRegI=T DoRafI=F ISym2E= 1 IDoP0=0 IntGTp=1.
 FoFCou: FMM=F IPFlag=           0 FMFlag=      100000 FMFlg1=           0
         NFxFlg=           0 DoJE=F BraDBF=F KetDBF=F FulRan=T
         wScrn=  0.000000 ICntrl=      3107 IOpCl=  0 I1Cent=           0 NGrid=           0
         NMat0=    1 NMatS0=      1 NMatT0=    0 NMatD0=    1 NMtDS0=    0 NMtDT0=    0
 Petite list used in FoFCou.
 End of G2Drv F.D. properties file   721 does not exist.
 End of G2Drv F.D. properties file   722 does not exist.
 End of G2Drv F.D. properties file   788 does not exist.
 Leave Link 1110 at Mon Feb 21 20:17:05 2022, MaxMem= 16106127360 cpu:              84.0 elap:               3.0
 (Enter /sw/contrib/gaussian/g16/B01/g16/l1002.exe)
 Minotr:  Closed shell wavefunction.
          IDoAtm=11111
          Frozen-core window.
          Direct CPHF calculation.
          Differentiating once with respect to electric field.
                with respect to dipole field.
          Differentiating once with respect to nuclear coordinates.
          Requested convergence is 1.0D-08 RMS, and 1.0D-07 maximum.
          Secondary convergence is 1.0D-12 RMS, and 1.0D-12 maximum.
          NewPWx=T KeepS1=T KeepF1=T KeepIn=T MapXYZ=F SortEE=F KeepMc=T.
 Keep R1 ints in memory in symmetry-blocked form, NReq=348888983.
 FoFCou: FMM=F IPFlag=           0 FMFlag=           0 FMFlg1=           0
         NFxFlg=           0 DoJE=F BraDBF=F KetDBF=F FulRan=T
         wScrn=  0.000000 ICntrl=       600 IOpCl=  0 I1Cent=           0 NGrid=           0
         NMat0=    1 NMatS0=  21528 NMatT0=    0 NMatD0=    1 NMtDS0=    0 NMtDT0=    0
 Petite list used in FoFCou.
          MDV=   16106127360 using IRadAn=       1.
          Solving linear equations simultaneously, MaxMat=       0.
          There are    18 degrees of freedom in the 1st order CPHF.  IDoFFX=6 NUNeed=    18.
     15 vectors produced by pass  0 Test12= 1.70D-14 5.56D-09 XBig12= 8.32D+00 1.09D+00.
 AX will form    15 AO Fock derivatives at one time.
     15 vectors produced by pass  1 Test12= 1.70D-14 5.56D-09 XBig12= 1.37D+00 2.61D-01.
     15 vectors produced by pass  2 Test12= 1.70D-14 5.56D-09 XBig12= 1.47D-01 1.01D-01.
     15 vectors produced by pass  3 Test12= 1.70D-14 5.56D-09 XBig12= 5.18D-03 1.16D-02.
     15 vectors produced by pass  4 Test12= 1.70D-14 5.56D-09 XBig12= 1.02D-04 1.97D-03.
     15 vectors produced by pass  5 Test12= 1.70D-14 5.56D-09 XBig12= 1.47D-06 1.87D-04.
     15 vectors produced by pass  6 Test12= 1.70D-14 5.56D-09 XBig12= 1.17D-08 1.50D-05.
     13 vectors produced by pass  7 Test12= 1.70D-14 5.56D-09 XBig12= 8.64D-11 1.30D-06.
      3 vectors produced by pass  8 Test12= 1.70D-14 5.56D-09 XBig12= 5.95D-13 1.18D-07.
      2 vectors produced by pass  9 Test12= 1.70D-14 5.56D-09 XBig12= 3.77D-15 9.82D-09.
 InvSVY:  IOpt=1 It=  1 EMax= 1.11D-15
 Solved reduced A of dimension   123 with    15 vectors.
 FullF1:  Do perturbations      1 to      18.
 Saving first derivative matrices.
 End of Minotr F.D. properties file   721 does not exist.
 End of Minotr F.D. properties file   722 does not exist.
 End of Minotr F.D. properties file   788 does not exist.
 Leave Link 1002 at Mon Feb 21 20:17:07 2022, MaxMem= 16106127360 cpu:              79.6 elap:               2.9
 (Enter /sw/contrib/gaussian/g16/B01/g16/l811.exe)
 MDV= 16106127360.
 Form MO integral derivatives with frozen-active canonical formalism.
 MOERI=1 MOERIx=1 NAtoms=     5 NAtomX=     5.
 Discarding MO integrals.
 MO basis two electron integral derivatives will not be stored on disk.
 IAlg= 3 DoFC=T DoPWx=T Debug=F.
 Frozen-core window:  NFC=   4 NFV=   0.
 Reordered first order wavefunction length =     18678272
 In DefCFB: NBatch=  1 ICI= 16 ICA=191 LFMax= 96
            Large arrays: LIAPS=   619940160 LIARS=   288257200 words.
 In StABat: MaxSiz= 55 MinSiz= 25 NAtomB=  5
 DoIAMN: NPSUse= 28.
 Leave Link  811 at Mon Feb 21 20:18:27 2022, MaxMem= 16106127360 cpu:            2235.9 elap:              80.0
 (Enter /sw/contrib/gaussian/g16/B01/g16/l804.exe)
 Frozen-core window:  NFC=   4 NFV=   0.
 Closed-shell transformation, MDV= 16106127360 ITran=4 ISComp=1.
 Semi-Direct transformation.
 ModeAB=           2 MOrb=            16 LenV=   16104923135
 LASXX=     67341636 LTotXX=    67341636 LenRXX=    67341636
 LTotAB=    68301760 MaxLAS=    99807120 LenRXY=    99807120
 NonZer=   134683272 LenScr=   202817536 LnRSAI=           0
 LnScr1=           0 LExtra=           0 Total=    369966292
 MaxDsk=          -1 SrtSym=           F ITran=            4
 DoSDTr:  NPSUse= 28
 JobTyp=0 Pass  1:  I=   1 to  16.
 (rs|ai) integrals will be sorted in core.
 Complete sort for first half transformation.
 First half transformation complete.
 Begin second half transformation for I=  10.
 Begin second half transformation for I=  10.
 Complete sort for second half transformation.
 Second half transformation complete.
 Spin components of T(2) and E(2):
     alpha-alpha T2 =       0.3427673127D-01 E2=     -0.1226458013D+00
     alpha-beta  T2 =       0.1883334215D+00 E2=     -0.7017854621D+00
     beta-beta   T2 =       0.3427673127D-01 E2=     -0.1226458013D+00
 ANorm=    0.1585488495D+01
 E2 =    -0.9470770647D+00 EUMP2 =    -0.28044664476266D+03
 Leave Link  804 at Mon Feb 21 20:18:45 2022, MaxMem= 16106127360 cpu:             482.4 elap:              17.3
 (Enter /sw/contrib/gaussian/g16/B01/g16/l1002.exe)
 Minotr:  Closed shell wavefunction.
          Computing MP2/KS-MP2 derivatives.
          Using Z-Vector for PSCF gradient.
          Skipping F1 and S1 gradient terms here.
          IDoAtm=11111
          Frozen-core window.
          Using MO integrals in the linear equations.
          Forming densities via direct SCF.
          Differentiating once with respect to electric field.
                with respect to dipole field.
          Differentiating once with respect to nuclear coordinates.
          Using symmetry in CPHF.
          Requested convergence is 1.0D-10 RMS, and 1.0D-09 maximum.
          NewPWx=F KeepS1=T KeepF1=T KeepIn=T MapXYZ=F SortEE=F KeepMc=T.
          MDV=   16106127360 using IRadAn=       5.
          Solving linear equations separately, MaxMat=       0.
          There are     1 degrees of freedom in the 1st order CPHF.  IDoFFX=0 NUNeed=     1.
 FoFJK:  IHMeth= 1 ICntrl=       0 DoSepK=F KAlg= 0 I1Cent=           0 FoldK=F
 IRaf=         0 NMat=       1 IRICut=       1 DoRegI=T DoRafI=F ISym2E= 0 IDoP0=0 IntGTp=1.
 FoFCou: FMM=F IPFlag=           0 FMFlag=      100000 FMFlg1=           0
         NFxFlg=           0 DoJE=F BraDBF=F KetDBF=F FulRan=T
         wScrn=  0.000000 ICntrl=         0 IOpCl=  0 I1Cent=           0 NGrid=           0
         NMat0=    1 NMatS0=      1 NMatT0=    0 NMatD0=    1 NMtDS0=    0 NMtDT0=    0
 Symmetry not used in FoFCou.
 LinEq1:  Iter=  0 NonCon=     1 RMS=6.03D-03 Max=1.32D-01 NDo=     1
 LinEq1:  Iter=  1 NonCon=     1 RMS=1.97D-03 Max=3.97D-02 NDo=     1
 LinEq1:  Iter=  2 NonCon=     1 RMS=8.99D-04 Max=1.47D-02 NDo=     1
 LinEq1:  Iter=  3 NonCon=     1 RMS=4.02D-04 Max=7.83D-03 NDo=     1
 LinEq1:  Iter=  4 NonCon=     1 RMS=1.24D-04 Max=1.92D-03 NDo=     1
 LinEq1:  Iter=  5 NonCon=     1 RMS=4.69D-05 Max=7.43D-04 NDo=     1
 LinEq1:  Iter=  6 NonCon=     1 RMS=2.09D-05 Max=2.43D-04 NDo=     1
 LinEq1:  Iter=  7 NonCon=     1 RMS=8.51D-06 Max=1.72D-04 NDo=     1
 LinEq1:  Iter=  8 NonCon=     1 RMS=3.60D-06 Max=3.71D-05 NDo=     1
 LinEq1:  Iter=  9 NonCon=     1 RMS=9.83D-07 Max=1.46D-05 NDo=     1
 LinEq1:  Iter= 10 NonCon=     1 RMS=1.98D-07 Max=2.24D-06 NDo=     1
 LinEq1:  Iter= 11 NonCon=     1 RMS=3.75D-08 Max=4.30D-07 NDo=     1
 LinEq1:  Iter= 12 NonCon=     1 RMS=9.04D-09 Max=1.40D-07 NDo=     1
 LinEq1:  Iter= 13 NonCon=     1 RMS=1.61D-09 Max=2.86D-08 NDo=     1
 LinEq1:  Iter= 14 NonCon=     1 RMS=2.95D-10 Max=4.36D-09 NDo=     1
 LinEq1:  Iter= 15 NonCon=     0 RMS=5.30D-11 Max=6.25D-10 NDo=     1
 Linear equations converged to 1.000D-10 1.000D-09 after    15 iterations.
 End of Minotr F.D. properties file   721 does not exist.
 End of Minotr F.D. properties file   722 does not exist.
 End of Minotr F.D. properties file   788 does not exist.
 Leave Link 1002 at Mon Feb 21 20:18:47 2022, MaxMem= 16106127360 cpu:              63.5 elap:               2.3
 (Enter /sw/contrib/gaussian/g16/B01/g16/l1102.exe)
 Use density number 2.
 Symmetrizing basis deriv contribution to polar:
 IMax=3 JMax=2 DiffMx= 0.00D+00
 Leave Link 1102 at Mon Feb 21 20:18:47 2022, MaxMem= 16106127360 cpu:               3.5 elap:               0.2
 (Enter /sw/contrib/gaussian/g16/B01/g16/l1110.exe)
 Forming Gx(P) for generalized density number  2 NAtomX=     5.
 Integral derivatives from FoFJK, PRISM(SPDF).
 Do as many integral derivatives as possible in FoFJK.
 G2DrvN: MDV=   16106126844.
 G2DrvN: will do     6 centers at a time, making    1 passes.
 Calling FoFCou, ICntrl=  3107 FMM=F I1Cent=   0 AccDes= 0.00D+00.
 FoFJK:  IHMeth= 1 ICntrl=    3107 DoSepK=F KAlg= 0 I1Cent=           0 FoldK=F
 IRaf=         0 NMat=       1 IRICut=       1 DoRegI=T DoRafI=F ISym2E= 1 IDoP0=0 IntGTp=1.
 FoFCou: FMM=F IPFlag=           0 FMFlag=      100000 FMFlg1=           0
         NFxFlg=           0 DoJE=F BraDBF=F KetDBF=F FulRan=T
         wScrn=  0.000000 ICntrl=      3107 IOpCl=  0 I1Cent=           0 NGrid=           0
         NMat0=    1 NMatS0=      1 NMatT0=    0 NMatD0=    1 NMtDS0=    0 NMtDT0=    0
 Petite list used in FoFCou.
 End of G2Drv F.D. properties file   721 does not exist.
 End of G2Drv F.D. properties file   722 does not exist.
 End of G2Drv F.D. properties file   788 does not exist.
 Leave Link 1110 at Mon Feb 21 20:18:50 2022, MaxMem= 16106127360 cpu:              83.7 elap:               3.0
 (Enter /sw/contrib/gaussian/g16/B01/g16/l1112.exe)
 MP22nd: MDV=   16106127360
 This link is doing NAtomX=     5 total of    18 degrees of freedom.
 Using ON3 I/O method in MakUI.
 Frozen-core window:  NFC=   4 NFV=   0.
 Using Ix for Sx.
 Use MO integrals over full window.
 Using OV2 memory method for fx*t*t/D, MaxI=    16 DoOO2=F NP=  28.
 R2 and R3 integrals will be kept in memory, NReq=   915591705.
 FoFCou: FMM=F IPFlag=           0 FMFlag=           0 FMFlg1=           0
         NFxFlg=           0 DoJE=F BraDBF=F KetDBF=F FulRan=T
         wScrn=  0.000000 ICntrl=       600 IOpCl=  0 I1Cent=           0 NGrid=           0
         NMat0=    1 NMatS0=      1 NMatT0=    0 NMatD0=    1 NMtDS0=    0 NMtDT0=    0
 Symmetry not used in FoFCou.
 DD1Dir will call FoFMem   1 times, MxPair=       272
 NAB=   136 NAA=     0 NBB=     0.
 Symmetry is being used.
 FoFJK:  IHMeth= 1 ICntrl=       0 DoSepK=F KAlg= 0 I1Cent=           0 FoldK=F
 IRaf=         0 NMat=      18 IRICut=      45 DoRegI=T DoRafI=T ISym2E= 2 IDoP0=3 IntGTp=3.
 Discarding MO integrals.
 Leave Link 1112 at Mon Feb 21 20:19:26 2022, MaxMem= 16106127360 cpu:             986.2 elap:              35.6
 (Enter /sw/contrib/gaussian/g16/B01/g16/l601.exe)
 Copying SCF densities to generalized density rwf, IOpCl= 0 IROHF=0.

 **********************************************************************

            Population analysis using the MP2 Density.

 **********************************************************************

 Orbital symmetries:
       Occupied  (A') (A') (A') (A') (A') (A') (A') (A') (A') (A')
                 (A") (A') (A") (A') (A") (A')
       Virtual   (A') (A") (A') (A') (A") (A') (A') (A') (A") (A')
                 (A") (A') (A') (A') (A") (A') (A') (A") (A') (A')
                 (A') (A') (A') (A') (A") (A') (A') (A") (A') (A')
                 (A") (A') (A") (A') (A') (A") (A') (A') (A") (A')
                 (A") (A') (A") (A') (A') (A") (A') (A') (A") (A')
                 (A") (A') (A') (A') (A") (A') (A") (A') (A") (A')
                 (A') (A') (A") (A') (A') (A") (A') (A") (A') (A')
                 (A") (A') (A') (A") (A") (A') (A') (A") (A') (A')
                 (A') (A") (A') (A") (A') (A") (A') (A") (A') (A')
                 (A") (A') (A') (A") (A') (A") (A') (A") (A') (A')
                 (A") (A') (A") (A') (A') (A") (A') (A') (A") (A')
                 (A") (A') (A') (A') (A") (A') (A') (A') (A") (A')
                 (A") (A') (A") (A') (A') (A") (A") (A') (A") (A')
                 (A') (A') (A') (A") (A") (A") (A') (A') (A') (A')
                 (A") (A') (A") (A') (A') (A") (A') (A') (A') (A')
                 (A") (A') (A') (A") (A') (A") (A') (A") (A') (A")
                 (A') (A") (A') (A') (A") (A") (A") (A') (A") (A')
                 (A") (A') (A") (A') (A") (A') (A") (A') (A") (A')
                 (A') (A') (A') (A') (A') (A') (A') (A') (A') (A')
                 (A')
 The electronic state is 1-A'.
 Alpha  occ. eigenvalues --  -20.68922 -20.68736 -20.65743 -15.81620  -1.62328
 Alpha  occ. eigenvalues --   -1.49270  -1.24818  -0.94974  -0.77115  -0.75685
 Alpha  occ. eigenvalues --   -0.70843  -0.68043  -0.62146  -0.58829  -0.48300
 Alpha  occ. eigenvalues --   -0.47149
 Alpha virt. eigenvalues --    0.03020   0.06899   0.08554   0.10147   0.13384
 Alpha virt. eigenvalues --    0.13409   0.14451   0.15494   0.17871   0.19407
 Alpha virt. eigenvalues --    0.19970   0.20330   0.22136   0.23632   0.23714
 Alpha virt. eigenvalues --    0.26552   0.28542   0.30434   0.30981   0.34188
 Alpha virt. eigenvalues --    0.34902   0.38690   0.42276   0.43237   0.52630
 Alpha virt. eigenvalues --    0.52833   0.55625   0.58050   0.62442   0.63709
 Alpha virt. eigenvalues --    0.67371   0.68450   0.70708   0.71157   0.72436
 Alpha virt. eigenvalues --    0.73087   0.74545   0.79025   0.79280   0.80950
 Alpha virt. eigenvalues --    0.81420   0.82965   0.86664   0.90821   0.92274
 Alpha virt. eigenvalues --    0.92479   0.95857   0.97460   0.98548   1.01824
 Alpha virt. eigenvalues --    1.05114   1.05373   1.08050   1.11605   1.13916
 Alpha virt. eigenvalues --    1.18842   1.22013   1.23216   1.33652   1.34652
 Alpha virt. eigenvalues --    1.38842   1.45023   1.48765   1.50973   1.53664
 Alpha virt. eigenvalues --    1.56439   1.57588   1.61220   1.66244   1.66962
 Alpha virt. eigenvalues --    1.70125   1.79298   1.83016   1.83116   1.87888
 Alpha virt. eigenvalues --    1.90755   1.95589   1.98801   2.00319   2.07126
 Alpha virt. eigenvalues --    2.11852   2.12913   2.15251   2.22038   2.26271
 Alpha virt. eigenvalues --    2.26632   2.28741   2.31377   2.33892   2.38611
 Alpha virt. eigenvalues --    2.42126   2.42392   2.45210   2.46064   2.47312
 Alpha virt. eigenvalues --    2.49818   2.59141   2.59504   2.61589   2.62290
 Alpha virt. eigenvalues --    2.63627   2.66552   2.75406   2.81472   2.84633
 Alpha virt. eigenvalues --    2.87661   2.89531   2.90671   2.95694   3.01762
 Alpha virt. eigenvalues --    3.05954   3.11590   3.20598   3.22427   3.31307
 Alpha virt. eigenvalues --    3.33604   3.51360   3.63575   3.82847   3.83990
 Alpha virt. eigenvalues --    4.14843   4.16843   4.18126   4.24872   4.35185
 Alpha virt. eigenvalues --    4.39286   4.46476   4.51651   4.65438   4.70723
 Alpha virt. eigenvalues --    4.79975   4.81136   4.83161   4.89348   5.01622
 Alpha virt. eigenvalues --    5.07138   5.09441   5.14545   5.17290   5.23745
 Alpha virt. eigenvalues --    5.26458   5.30403   5.32841   5.34653   5.59981
 Alpha virt. eigenvalues --    5.66981   5.75665   5.83050   5.94771   6.15957
 Alpha virt. eigenvalues --    6.30853   6.32991   6.39142   6.48859   6.50102
 Alpha virt. eigenvalues --    6.61294   6.66886   6.69330   6.76078   6.76350
 Alpha virt. eigenvalues --    6.82628   6.89188   7.00855   7.05354   7.05893
 Alpha virt. eigenvalues --    7.09038   7.11811   7.14407   7.18079   7.21469
 Alpha virt. eigenvalues --    7.24296   7.31118   7.32179   7.34108   7.39302
 Alpha virt. eigenvalues --    7.42100   7.47903   7.60402   7.60451   7.61472
 Alpha virt. eigenvalues --    7.65607   7.78096   7.88200   8.06909   8.30504
 Alpha virt. eigenvalues --    8.40881   8.53457  13.34917  14.28407  15.14523
 Alpha virt. eigenvalues --   16.11360
          Condensed to atoms (all electrons):
               1          2          3          4          5
     1  H    0.589931   0.128522   0.019904   0.012253  -0.000666
     2  O    0.128522   8.321821  -0.175317  -0.086988   0.014982
     3  O    0.019904  -0.175317   8.474923  -0.123798  -0.035077
     4  N    0.012253  -0.086988  -0.123798   6.953447  -0.052667
     5  O   -0.000666   0.014982  -0.035077  -0.052667   8.257583
 Mulliken charges:
               1
     1  H    0.250057
     2  O   -0.203021
     3  O   -0.160635
     4  N    0.297754
     5  O   -0.184155
 Sum of Mulliken charges =  -0.00000
 Mulliken charges with hydrogens summed into heavy atoms:
               1
     2  O    0.047036
     3  O   -0.160635
     4  N    0.297754
     5  O   -0.184155
 APT charges:
               1
     1  H    0.298379
     2  O   -0.292843
     3  O   -0.505545
     4  N    0.887014
     5  O   -0.387005
 Sum of APT charges =  -0.00000
 APT charges with hydrogens summed into heavy atoms:
               1
     2  O    0.005536
     3  O   -0.505545
     4  N    0.887014
     5  O   -0.387005
 Electronic spatial extent (au):  <R**2>=            255.0740
 Charge=             -0.0000 electrons
 Dipole moment (field-independent basis, Debye):
    X=              0.4140    Y=              1.2395    Z=              0.0000  Tot=              1.3068
 Quadrupole moment (field-independent basis, Debye-Ang):
   XX=            -22.4335   YY=            -18.5264   ZZ=            -22.0401
   XY=              3.2953   XZ=             -0.0000   YZ=             -0.0000
 Traceless Quadrupole moment (field-independent basis, Debye-Ang):
   XX=             -1.4335   YY=              2.4736   ZZ=             -1.0401
   XY=              3.2953   XZ=             -0.0000   YZ=             -0.0000
 Octapole moment (field-independent basis, Debye-Ang**2):
  XXX=              2.4546  YYY=             11.2533  ZZZ=             -0.0000  XYY=              7.8735
  XXY=              6.4066  XXZ=              0.0000  XZZ=             -1.6127  YZZ=             -0.9348
  YYZ=              0.0000  XYZ=              0.0000
 Hexadecapole moment (field-independent basis, Debye-Ang**3):
 XXXX=           -158.3540 YYYY=            -91.7882 ZZZZ=            -18.3047 XXXY=            -37.3569
 XXXZ=             -0.0000 YYYX=            -31.0661 YYYZ=             -0.0000 ZZZX=             -0.0000
 ZZZY=             -0.0000 XXYY=            -34.2193 XXZZ=            -30.8611 YYZZ=            -21.1152
 XXYZ=             -0.0000 YYXZ=             -0.0000 ZZXY=            -15.2832
 N-N= 1.163086388028D+02 E-N=-8.947392574404D+02  KE= 2.801726062680D+02
 Symmetry A'   KE= 2.662081141036D+02
 Symmetry A"   KE= 1.396449216440D+01
  Exact polarizability:  33.991   9.589  30.688   0.000   0.000  17.999
 Approx polarizability:  29.108   5.249  24.003   0.000   0.000  15.554
 No NMR shielding tensors so no spin-rotation constants.
 Leave Link  601 at Mon Feb 21 20:19:26 2022, MaxMem= 16106127360 cpu:               4.6 elap:               0.2
 (Enter /sw/contrib/gaussian/g16/B01/g16/l701.exe)
 ... and contract with generalized density number  2.
 Compute integral second derivatives.
 Leave Link  701 at Mon Feb 21 20:19:26 2022, MaxMem= 16106127360 cpu:               5.9 elap:               0.2
 (Enter /sw/contrib/gaussian/g16/B01/g16/l702.exe)
 L702 exits ... SP integral derivatives will be done elsewhere.
 Leave Link  702 at Mon Feb 21 20:19:27 2022, MaxMem= 16106127360 cpu:               0.6 elap:               0.0
 (Enter /sw/contrib/gaussian/g16/B01/g16/l703.exe)
 Integral derivatives from FoFJK, PRISM(SPDF).
 Compute integral second derivatives, UseDBF=F ICtDFT=           0.
 Calling FoFJK, ICntrl=  10100127 FMM=F ISym2X=1 I1Cent= 0 IOpClX= 0 NMat=1 NMatS=1 NMatT=0.
 FoFJK:  IHMeth= 1 ICntrl=10100127 DoSepK=F KAlg= 0 I1Cent=           0 FoldK=F
 IRaf=         0 NMat=       1 IRICut=       1 DoRegI=T DoRafI=F ISym2E= 1 IDoP0=0 IntGTp=1.
 FoFCou: FMM=F IPFlag=           0 FMFlag=      100000 FMFlg1=         800
         NFxFlg=           0 DoJE=F BraDBF=F KetDBF=F FulRan=T
         wScrn=  0.000000 ICntrl=  10100127 IOpCl=  0 I1Cent=           0 NGrid=           0
         NMat0=    1 NMatS0=      1 NMatT0=    0 NMatD0=    1 NMtDS0=    0 NMtDT0=    0
 Petite list used in FoFCou.
 Leave Link  703 at Mon Feb 21 20:19:42 2022, MaxMem= 16106127360 cpu:             423.2 elap:              15.2
 (Enter /sw/contrib/gaussian/g16/B01/g16/l716.exe)
 Dipole        = 1.62898740D-01 4.87656812D-01 1.57165452D-32
 Polarizability= 3.39905121D+01 9.58917802D+00 3.06879039D+01
                 3.71611943D-31 7.30090799D-31 1.79992969D+01
 Full mass-weighted force constant matrix:
 Low frequencies --- -274.9290   -0.0013   -0.0009    0.0009   36.3106   40.9324
 Low frequencies ---   67.2947  238.1775  334.1501
 ******    1 imaginary frequencies (negative Signs) ****** 
 Diagonal vibrational polarizability:
       16.3961675      30.8638621      44.9244966
 Harmonic frequencies (cm**-1), IR intensities (KM/Mole), Raman scattering
 activities (A**4/AMU), depolarization ratios for plane and unpolarized
 incident light, reduced masses (AMU), force constants (mDyne/A),
 and normal coordinates:
                      1                      2                      3
                     A"                     A"                     A'
 Frequencies --   -274.8839               237.4946               334.1149
 Red. masses --      1.1344                10.7886                 8.5403
 Frc consts  --      0.0505                 0.3585                 0.5617
 IR Inten    --    125.2178                 0.6875                 9.0283
  Atom  AN      X      Y      Z        X      Y      Z        X      Y      Z
     1   1     0.00   0.00   1.00     0.00   0.00  -0.56     0.55  -0.43   0.00
     2   8    -0.00  -0.00  -0.06     0.00  -0.00  -0.31    -0.08  -0.37   0.00
     3   8     0.00   0.00  -0.04     0.00   0.00   0.33    -0.14   0.45  -0.00
     4   7    -0.00  -0.00   0.06    -0.00  -0.00   0.53     0.03   0.23  -0.00
     5   8    -0.00  -0.00  -0.01    -0.00  -0.00  -0.45     0.16  -0.26   0.00
                      4                      5                      6
                     A'                     A'                     A'
 Frequencies --    412.0282               773.1767               963.9378
 Red. masses --     12.4570                13.1110                15.4958
 Frc consts  --      1.2460                 4.6179                 8.4832
 IR Inten    --    212.5885               156.0434                20.5642
  Atom  AN      X      Y      Z        X      Y      Z        X      Y      Z
     1   1     0.38   0.22   0.00    -0.32   0.19   0.00    -0.15  -0.04   0.00
     2   8     0.31   0.23   0.00     0.43   0.09   0.00    -0.53   0.03   0.00
     3   8     0.19   0.42  -0.00    -0.05  -0.25  -0.00     0.75  -0.02  -0.00
     4   7    -0.35  -0.45  -0.00    -0.16   0.62  -0.00    -0.12   0.23  -0.00
     5   8    -0.22  -0.27   0.00    -0.22  -0.39   0.00    -0.11  -0.21   0.00
                      7                      8                      9
                     A'                     A'                     A'
 Frequencies --   1367.3576              1668.1710              3778.2241
 Red. masses --      1.1306                13.2970                 1.0676
 Frc consts  --      1.2455                21.8014                 8.9788
 IR Inten    --    149.3059               150.8726                82.8528
  Atom  AN      X      Y      Z        X      Y      Z        X      Y      Z
     1   1     0.99  -0.05  -0.00    -0.34   0.00   0.00     0.10   0.99  -0.00
     2   8    -0.03   0.05   0.00    -0.00  -0.04  -0.00    -0.01  -0.06   0.00
     3   8    -0.02  -0.05   0.00     0.00   0.15  -0.00     0.00   0.00   0.00
     4   7     0.02   0.01  -0.00     0.71  -0.05   0.00    -0.00  -0.00  -0.00
     5   8    -0.03  -0.01  -0.00    -0.60  -0.07   0.00     0.00   0.00  -0.00

 -------------------
 - Thermochemistry -
 -------------------
 Temperature   298.150 Kelvin.  Pressure   1.00000 Atm.
 Atom     1 has atomic number  1 and mass   1.00783
 Atom     2 has atomic number  8 and mass  15.99491
 Atom     3 has atomic number  8 and mass  15.99491
 Atom     4 has atomic number  7 and mass  14.00307
 Atom     5 has atomic number  8 and mass  15.99491
 Molecular mass:    62.99564 amu.
 Principal axes and moments of inertia in atomic units:
                           1         2         3
     Eigenvalues --    33.37032 363.97784 397.34816
           X            0.80487  -0.59345   0.00000
           Y            0.59345   0.80487   0.00000
           Z            0.00000  -0.00000   1.00000
 This molecule is an asymmetric top.
 Rotational symmetry number  1.
 Rotational temperatures (Kelvin)      2.59554     0.23796     0.21798
 Rotational constants (GHZ):          54.08223     4.95838     4.54196
    1 imaginary frequencies ignored.
 Zero-point vibrational energy      57029.0 (Joules/Mol)
                                   13.63026 (Kcal/Mol)
 Warning -- explicit consideration of   3 degrees of freedom as
           vibrations may cause significant error
 Vibrational temperatures:    341.70   480.72   592.82  1112.43  1386.89
          (Kelvin)           1967.32  2400.13  5436.02
 
 Zero-point correction=                           0.021721 (Hartree/Particle)
 Thermal correction to Energy=                    0.025875
 Thermal correction to Enthalpy=                  0.026819
 Thermal correction to Gibbs Free Energy=        -0.004435
 Sum of electronic and zero-point Energies=           -280.424924
 Sum of electronic and thermal Energies=              -280.420770
 Sum of electronic and thermal Enthalpies=            -280.419826
 Sum of electronic and thermal Free Energies=         -280.451080
 
                     E (Thermal)             CV                S
                      KCal/Mol        Cal/Mol-Kelvin    Cal/Mol-Kelvin
 Total                   16.237             12.070             65.780
 Electronic               0.000              0.000              0.000
 Translational            0.889              2.981             38.341
 Rotational               0.889              2.981             23.094
 Vibrational             14.459              6.108              4.346
 Vibration     1          0.656              1.783              1.822
 Vibration     2          0.716              1.607              1.240
 Vibration     3          0.776              1.444              0.919
                       Q            Log10(Q)             Ln(Q)
 Total Bot       0.109683D+03          2.040139          4.697595
 Total V=0       0.107446D+13         12.031189         27.702837
 Vib (Bot)       0.224425D-09         -9.648929        -22.217480
 Vib (Bot)    1  0.826560D+00         -0.082726         -0.190483
 Vib (Bot)    2  0.557806D+00         -0.253517         -0.583745
 Vib (Bot)    3  0.428740D+00         -0.367806         -0.846904
 Vib (V=0)       0.219847D+01          0.342121          0.787762
 Vib (V=0)    1  0.146602D+01          0.166141          0.382553
 Vib (V=0)    2  0.124910D+01          0.096596          0.222421
 Vib (V=0)    3  0.115865D+01          0.063952          0.147254
 Electronic      0.100000D+01          0.000000          0.000000
 Translational   0.196526D+08          7.293420         16.793719
 Rotational      0.248685D+05          4.395649         10.121356
 
                                                                title
                                                             IR Spectrum
 
     3                                                                      1          1                                             
     7                                                                      6          3            9      7           4 3   2       
     7                                                                      6          6            6      7           1 3   3       
     8                                                                      8          7            4      3           2 4   7       
 
     X                                                                      X          X            X      X           X X   X       
     X                                                                      X          X            X      X           X             
     X                                                                      X          X                   X           X             
     X                                                                      X          X                   X           X             
     X                                                                      X          X                   X           X             
     X                                                                      X          X                   X           X             
     X                                                                      X          X                   X           X             
     X                                                                      X          X                   X           X             
                                                                            X          X                   X           X             
                                                                            X          X                   X           X             
                                                                            X          X                   X           X             
                                                                            X          X                   X           X             
                                                                            X          X                   X           X             
                                                                            X          X                   X           X             
                                                                                                           X           X             
                                                                                                                       X             
                                                                                                                       X             
                                                                                                                       X             
                                                                                                                       X             
                                                                                                                       X             
 
 ***** Axes restored to original set *****
 -------------------------------------------------------------------
 Center     Atomic                   Forces (Hartrees/Bohr)
 Number     Number              X              Y              Z
 -------------------------------------------------------------------
      1        1           0.000109510    0.000000000    0.000132710
      2        8           0.000117544    0.000000000    0.000554942
      3        8           0.001133074    0.000000000    0.003576874
      4        7           0.003892984    0.000000000   -0.002348943
      5        8          -0.005253112   -0.000000000   -0.001915583
 -------------------------------------------------------------------
 Cartesian Forces:  Max     0.005253112 RMS     0.002103438
 -----------------------------------------------------------------------------------------------
                       Internal Coordinate Forces (Hartree/Bohr or radian)
  Cent   Atom   N1       Length/X         N2         Alpha/Y        N3         Beta/Z          J
 -----------------------------------------------------------------------------------------------
      1  H 
      2  O        1  -0.000133(     1)
      3  O        2  -0.000316(     2)      1  -0.000201(     5)
      4  N        3  -0.004362(     3)      2  -0.001591(     6)      1   0.000000(     8)     0
      5  O        4  -0.005564(     4)      3  -0.001222(     7)      2  -0.000000(     9)     0
 -----------------------------------------------------------------------------------------------
 Internal  Forces:  Max     0.005564144 RMS     0.002453240
 Force constants in Cartesian coordinates: 
                1             2             3             4             5 
      1  0.643070D-01
      2  0.000000D+00 -0.247779D-02
      3  0.521102D-02  0.000000D+00  0.512220D+00
      4 -0.352818D-01  0.000000D+00 -0.160473D-01  0.271694D+00
      5  0.000000D+00  0.317903D-02  0.000000D+00  0.000000D+00  0.171937D-02
      6  0.478450D-01  0.000000D+00 -0.508591D+00  0.328975D-01  0.000000D+00
      7 -0.189515D-01  0.000000D+00  0.122591D-01 -0.220890D+00  0.000000D+00
      8  0.000000D+00  0.108630D-02  0.000000D+00  0.000000D+00 -0.623900D-02
      9 -0.529877D-01  0.000000D+00 -0.571163D-03 -0.198108D-01  0.000000D+00
     10 -0.873805D-02  0.000000D+00 -0.477802D-02 -0.156598D-01  0.000000D+00
     11  0.000000D+00 -0.281947D-02  0.000000D+00  0.000000D+00 -0.469004D-02
     12  0.570098D-02  0.000000D+00 -0.434347D-02  0.116788D-01  0.000000D+00
     13 -0.133561D-02  0.000000D+00  0.335522D-02  0.138340D-03  0.000000D+00
     14  0.000000D+00  0.103194D-02  0.000000D+00  0.000000D+00  0.603064D-02
     15 -0.576933D-02  0.000000D+00  0.128541D-02 -0.871817D-02  0.000000D+00
                6             7             8             9            10 
      6  0.592346D+00
      7 -0.229974D-01  0.338459D+00
      8  0.000000D+00  0.000000D+00  0.499641D-02
      9 -0.775772D-01  0.342749D-01  0.000000D+00  0.165351D+00
     10 -0.495295D-01 -0.753861D-01  0.000000D+00  0.172812D+00  0.817856D+00
     11  0.000000D+00  0.000000D+00  0.725395D-02  0.000000D+00  0.000000D+00
     12  0.184690D-01  0.632534D-01  0.000000D+00 -0.699369D-01 -0.184470D-01
     13 -0.821557D-02 -0.232306D-01  0.000000D+00 -0.134288D+00 -0.718072D+00
     14  0.000000D+00  0.000000D+00 -0.709765D-02  0.000000D+00  0.000000D+00
     15 -0.246473D-01 -0.867900D-01  0.000000D+00 -0.172658D-01 -0.100057D+00
               11            12            13            14            15 
     11  0.116484D-01
     12  0.000000D+00  0.174227D+00
     13  0.000000D+00 -0.621861D-01  0.742500D+00
     14 -0.113929D-01  0.000000D+00  0.000000D+00  0.114279D-01
     15  0.000000D+00 -0.118416D+00  0.201335D+00  0.000000D+00  0.159044D+00
 Force constants in internal coordinates: 
                1             2             3             4             5 
      1  0.512220D+00
      2 -0.102616D-01  0.280643D+00
      3  0.316441D-02  0.108051D-02  0.999993D-01
      4 -0.356924D-02  0.610138D-02  0.148391D+00  0.803367D+00
      5  0.965145D-02  0.655220D-01  0.163711D-02  0.499041D-02  0.215374D+00
      6  0.417694D-02  0.564807D-01  0.369544D-01  0.219113D-01  0.300756D-01
      7 -0.912994D-03  0.363901D-01  0.273451D-01  0.808527D-01  0.212996D-01
      8  0.000000D+00  0.000000D+00  0.000000D+00  0.000000D+00  0.000000D+00
      9  0.000000D+00  0.000000D+00  0.000000D+00  0.000000D+00  0.000000D+00
                6             7             8             9 
      6  0.269216D+00
      7  0.968355D-01  0.468217D+00
      8  0.000000D+00  0.000000D+00 -0.837451D-02
      9  0.000000D+00  0.000000D+00 -0.391559D-02  0.393451D-01
 Leave Link  716 at Mon Feb 21 20:19:42 2022, MaxMem= 16106127360 cpu:               0.9 elap:               0.1
 (Enter /sw/contrib/gaussian/g16/B01/g16/l103.exe)

 GradGradGradGradGradGradGradGradGradGradGradGradGradGradGradGradGradGrad
 Berny optimization.
 Search for a local minimum.
 Step number   1 out of a maximum of    2
 All quantities printed in internal units (Hartrees-Bohrs-Radians)
 Second derivative matrix not updated -- analytic derivatives used.
 The second derivative matrix:
                          r1        r2        r3        r4        a1
           r1           0.51222
           r2          -0.01026   0.28064
           r3           0.00316   0.00108   0.10000
           r4          -0.00357   0.00610   0.14839   0.80337
           a1           0.00965   0.06552   0.00164   0.00499   0.21537
           a2           0.00418   0.05648   0.03695   0.02191   0.03008
           a3          -0.00091   0.03639   0.02735   0.08085   0.02130
           d1           0.00000  -0.00000  -0.00000  -0.00000  -0.00000
           d2          -0.00000   0.00000   0.00000   0.00000   0.00000
                          a2        a3        d1        d2
           a2           0.26922
           a3           0.09684   0.46822
           d1          -0.00000  -0.00000  -0.00837
           d2          -0.00000  -0.00000  -0.00392   0.03935
 ITU=  0
     Eigenvalues ---   -0.00869   0.03966   0.06452   0.17396   0.21503
     Eigenvalues ---    0.31969   0.50554   0.51294   0.85737
 Eigenvalue     1 is  -8.69D-03 should be greater than     0.000000 Eigenvector:
                          d1        d2        a3        a2        r3
   1                    0.99669   0.08124   0.00000   0.00000  -0.00000
                          r4        a1        r2        r1
   1                    0.00000  -0.00000   0.00000  -0.00000
 Angle between quadratic step and forces=  55.63 degrees.
 Linear search not attempted -- first point.
 Variable       Old X    -DE/DX   Delta X   Delta X   Delta X     New X
                                 (Linear)    (Quad)   (Total)
    r1        1.83110  -0.00013   0.00000   0.00002   0.00002   1.83112
    r2        2.74940  -0.00032   0.00000  -0.00099  -0.00099   2.74841
    r3        2.79614  -0.00436   0.00000  -0.04617  -0.04617   2.74996
    r4        2.21236  -0.00556   0.00000   0.00162   0.00162   2.21398
    a1        1.70335  -0.00020   0.00000  -0.00038  -0.00038   1.70297
    a2        1.78543  -0.00159   0.00000   0.00063   0.00063   1.78606
    a3        1.90362  -0.00122   0.00000  -0.00023  -0.00023   1.90340
    d1        3.14159   0.00000   0.00000  -0.00000   0.00000   3.14159
    d2        3.14159  -0.00000   0.00000  -0.00000   0.00000   3.14159
         Item               Value     Threshold  Converged?
 Maximum Force            0.005564     0.000450     NO 
 RMS     Force            0.002453     0.000300     NO 
 Maximum Displacement     0.046172     0.001800     NO 
 RMS     Displacement     0.015406     0.001200     NO 
 Predicted change in Energy=-9.602433D-05
                       ----------------------------
                       ! Non-Optimized Parameters !
                       ! (Angstroms and Degrees)  !
 ----------------------                            ----------------------
 !      Name          Value   Derivative information (Atomic Units)     !
 ------------------------------------------------------------------------
 !       r1          0.969    -DE/DX =   -0.0001                        !
 !       r2          1.4544   -DE/DX =   -0.0003                        !
 !       r3          1.4552   -DE/DX =   -0.0044                        !
 !       r4          1.1716   -DE/DX =   -0.0056                        !
 !       a1         97.573    -DE/DX =   -0.0002                        !
 !       a2        102.3335   -DE/DX =   -0.0016                        !
 !       a3        109.0565   -DE/DX =   -0.0012                        !
 !       d1        180.0      -DE/DX =    0.0                           !
 !       d2        180.0      -DE/DX =    0.0                           !
 ------------------------------------------------------------------------
 GradGradGradGradGradGradGradGradGradGradGradGradGradGradGradGradGradGrad

 Leave Link  103 at Mon Feb 21 20:19:42 2022, MaxMem= 16106127360 cpu:               0.6 elap:               0.0
 (Enter /sw/contrib/gaussian/g16/B01/g16/l9999.exe)

 ----------------------------------------------------------------------

 Electric dipole moment (input orientation):
 (Debye = 10**-18 statcoulomb cm , SI units = C m)
                  (au)            (Debye)         (10**-30 SI)
   Tot        0.514145D+00      0.130683D+01      0.435910D+01
   x         -0.115566D+00     -0.293739D+00     -0.979808D+00
   y          0.000000D+00      0.000000D+00      0.000000D+00
   z         -0.500989D+00     -0.127339D+01     -0.424756D+01

 Dipole polarizability, Alpha (input orientation).
 (esu units = cm**3 , SI units = C**2 m**2 J**-1)
 Alpha(0;0):
               (au)            (10**-24 esu)      (10**-40 SI)
   iso        0.275592D+02      0.408386D+01      0.454390D+01
   aniso      0.221285D+02      0.327911D+01      0.364850D+01
   xx         0.321366D+02      0.476215D+01      0.529860D+01
   yx         0.000000D+00      0.000000D+00      0.000000D+00
   yy         0.179993D+02      0.266722D+01      0.296768D+01
   zx         0.972821D+01      0.144157D+01      0.160397D+01
   zy         0.000000D+00      0.000000D+00      0.000000D+00
   zz         0.325419D+02      0.482220D+01      0.536543D+01

 ----------------------------------------------------------------------

 Dipole orientation:
     1         -0.00000000          0.00000000          0.00000000
     8         -0.41158117          0.00000000         -1.78424281
     8          2.16228213          0.00000000         -2.75089824
     7          1.75927316          0.00000000         -5.51783796
     8          3.72421013          0.00000000         -6.53447245

 Electric dipole moment (dipole orientation):
 (Debye = 10**-18 statcoulomb cm , SI units = C m)
                  (au)            (Debye)         (10**-30 SI)
   Tot        0.514145D+00      0.130683D+01      0.435910D+01
   x          0.000000D+00      0.000000D+00      0.000000D+00
   y          0.000000D+00      0.000000D+00      0.000000D+00
   z          0.514145D+00      0.130683D+01      0.435910D+01

 Dipole polarizability, Alpha (dipole orientation).
 (esu units = cm**3 , SI units = C**2 m**2 J**-1)
 Alpha(0;0):
               (au)            (10**-24 esu)      (10**-40 SI)
   iso        0.275592D+02      0.408386D+01      0.454390D+01
   aniso      0.221285D+02      0.327911D+01      0.364850D+01
   xx         0.278957D+02      0.413371D+01      0.459938D+01
   yx         0.000000D+00      0.000000D+00      0.000000D+00
   yy         0.179993D+02      0.266722D+01      0.296768D+01
   zx        -0.865645D+01     -0.128275D+01     -0.142726D+01
   zy         0.000000D+00      0.000000D+00      0.000000D+00
   zz         0.367827D+02      0.545064D+01      0.606466D+01

 ----------------------------------------------------------------------
 1\1\GINC-N2110\Freq\RMP2-FC\Aug-CC-pVTZ\H1N1O3\CGAVINH\21-Feb-2022\1\\
 #p freq mp2/aug-cc-pvtz density=current\\title\\0,1\H\O,1,r1\O,2,r2,1,
 a1\N,3,r3,2,a2,1,d1,0\O,4,r4,3,a3,2,d2,0\\r1=0.96897556\r2=1.45491931\
 r3=1.47965099\r4=1.17072885\a1=97.59494903\a2=102.29752444\a3=109.0695
 5123\d1=180.\d2=180.\\Version=ES64L-G16RevB.01\State=1-A'\HF=-279.4995
 677\MP2=-280.4466448\RMSD=4.098e-09\RMSF=2.103e-03\ZeroPoint=0.0217212
 \Thermal=0.0258748\Dipole=-0.1155658,0.,-0.5009887\DipoleDeriv=0.26455
 07,0.,0.0463119,0.,0.3549345,0.,0.0821277,0.,0.2756511,-0.3320203,0.,-
 0.2058245,0.,-0.3164696,0.,-0.1126739,0.,-0.2300381,-0.0594664,0.,0.13
 90451,0.,-0.0991902,0.,-0.7420191,0.,-1.3579783,0.9184305,0.,0.9411026
 ,0.,0.0722311,0.,0.9125533,0.,1.6703807,-0.7914945,0.,-0.9206351,0.,-0
 .0115057,0.,-0.139988,0.,-0.3580155\Polar=32.1365643,0.,17.9992969,9.7
 282103,0.,32.5418516\Quadrupole=-1.5051916,-0.7733118,2.2785034,0.,2.1
 289966,0.\PG=CS [SG(H1N1O3)]\NImag=1\\0.06430698,0.,-0.00247779,0.0052
 1102,0.,0.51222020,-0.03528183,0.,-0.01604731,0.27169372,0.,0.00317903
 ,0.,0.,0.00171937,0.04784501,0.,-0.50859098,0.03289750,0.,0.59234645,-
 0.01895149,0.,0.01225910,-0.22089040,0.,-0.02299739,0.33845859,0.,0.00
 108630,0.,0.,-0.00623900,0.,0.,0.00499641,-0.05298768,0.,-0.00057116,-
 0.01981078,0.,-0.07757721,0.03427490,0.,0.16535114,-0.00873805,0.,-0.0
 0477802,-0.01565984,0.,-0.04952954,-0.07538615,0.,0.17281183,0.8178562
 1,0.,-0.00281947,0.,0.,-0.00469004,0.,0.,0.00725395,0.,0.,0.01164844,0
 .00570098,0.,-0.00434347,0.01167877,0.,0.01846902,0.06325335,0.,-0.069
 93694,-0.01844697,0.,0.17422741,-0.00133561,0.,0.00335522,0.00013834,0
 .,-0.00821557,-0.02323055,0.,-0.13428827,-0.71807217,0.,-0.06218614,0.
 74249999,0.,0.00103194,0.,0.,0.00603064,0.,0.,-0.00709765,0.,0.,-0.011
 39287,0.,0.,0.01142794,-0.00576933,0.,0.00128541,-0.00871817,0.,-0.024
 64728,-0.08678996,0.,-0.01726583,-0.10005729,0.,-0.11841602,0.20133475
 ,0.,0.15904371\\-0.00010951,0.,-0.00013271,-0.00011754,0.,-0.00055494,
 -0.00113307,0.,-0.00357687,-0.00389298,0.,0.00234894,0.00525311,0.,0.0
 0191558\\\@


 MISERY NO LONGER LOVES COMPANY.  NOWADAYS IT INSISTS ON IT.

                                              -- BAKER'S LAW
 Job cpu time:       0 days  2 hours  0 minutes 45.5 seconds.
 Elapsed time:       0 days  0 hours  4 minutes 21.8 seconds.
 File lengths (MBytes):  RWF=   7239 Int=      0 D2E=      0 Chk=      8 Scr=      1
 Normal termination of Gaussian 16 at Mon Feb 21 20:19:43 2022.
