 Entering Gaussian System, Link 0=g16
 Input=hoono_r4_1p177594.gjf
 Output=hoono_r4_1p177594.log
 Initial command:
 /sw/contrib/gaussian/g16/B01/g16/l1.exe "/scr/Gau-20299.inp" -scrdir="/scr/"
 Entering Link 1 = /sw/contrib/gaussian/g16/B01/g16/l1.exe PID=     20300.
  
 Copyright (c) 1988-2017, Gaussian, Inc.  All Rights Reserved.
  
 This is part of the Gaussian(R) 16 program.  It is based on
 the Gaussian(R) 09 system (copyright 2009, Gaussian, Inc.),
 the Gaussian(R) 03 system (copyright 2003, Gaussian, Inc.),
 the Gaussian(R) 98 system (copyright 1998, Gaussian, Inc.),
 the Gaussian(R) 94 system (copyright 1995, Gaussian, Inc.),
 the Gaussian 92(TM) system (copyright 1992, Gaussian, Inc.),
 the Gaussian 90(TM) system (copyright 1990, Gaussian, Inc.),
 the Gaussian 88(TM) system (copyright 1988, Gaussian, Inc.),
 the Gaussian 86(TM) system (copyright 1986, Carnegie Mellon
 University), and the Gaussian 82(TM) system (copyright 1983,
 Carnegie Mellon University). Gaussian is a federally registered
 trademark of Gaussian, Inc.
  
 This software contains proprietary and confidential information,
 including trade secrets, belonging to Gaussian, Inc.
  
 This software is provided under written license and may be
 used, copied, transmitted, or stored only in accord with that
 written license.
  
 The following legend is applicable only to US Government
 contracts under FAR:
  
                    RESTRICTED RIGHTS LEGEND
  
 Use, reproduction and disclosure by the US Government is
 subject to restrictions as set forth in subparagraphs (a)
 and (c) of the Commercial Computer Software - Restricted
 Rights clause in FAR 52.227-19.
  
 Gaussian, Inc.
 340 Quinnipiac St., Bldg. 40, Wallingford CT 06492
  
  
 ---------------------------------------------------------------
 Warning -- This program may not be used in any manner that
 competes with the business of Gaussian, Inc. or will provide
 assistance to any competitor of Gaussian, Inc.  The licensee
 of this program is prohibited from giving any competitor of
 Gaussian, Inc. access to this program.  By using this program,
 the user acknowledges that Gaussian, Inc. is engaged in the
 business of creating and licensing software in the field of
 computational chemistry and represents and warrants to the
 licensee that it is not a competitor of Gaussian, Inc. and that
 it will not use this program in any manner prohibited above.
 ---------------------------------------------------------------
  

 Cite this work as:
 Gaussian 16, Revision B.01,
 M. J. Frisch, G. W. Trucks, H. B. Schlegel, G. E. Scuseria, 
 M. A. Robb, J. R. Cheeseman, G. Scalmani, V. Barone, 
 G. A. Petersson, H. Nakatsuji, X. Li, M. Caricato, A. V. Marenich, 
 J. Bloino, B. G. Janesko, R. Gomperts, B. Mennucci, H. P. Hratchian, 
 J. V. Ortiz, A. F. Izmaylov, J. L. Sonnenberg, D. Williams-Young, 
 F. Ding, F. Lipparini, F. Egidi, J. Goings, B. Peng, A. Petrone, 
 T. Henderson, D. Ranasinghe, V. G. Zakrzewski, J. Gao, N. Rega, 
 G. Zheng, W. Liang, M. Hada, M. Ehara, K. Toyota, R. Fukuda, 
 J. Hasegawa, M. Ishida, T. Nakajima, Y. Honda, O. Kitao, H. Nakai, 
 T. Vreven, K. Throssell, J. A. Montgomery, Jr., J. E. Peralta, 
 F. Ogliaro, M. J. Bearpark, J. J. Heyd, E. N. Brothers, K. N. Kudin, 
 V. N. Staroverov, T. A. Keith, R. Kobayashi, J. Normand, 
 K. Raghavachari, A. P. Rendell, J. C. Burant, S. S. Iyengar, 
 J. Tomasi, M. Cossi, J. M. Millam, M. Klene, C. Adamo, R. Cammi, 
 J. W. Ochterski, R. L. Martin, K. Morokuma, O. Farkas, 
 J. B. Foresman, and D. J. Fox, Gaussian, Inc., Wallingford CT, 2016.
 
 ******************************************
 Gaussian 16:  ES64L-G16RevB.01 20-Dec-2017
                21-Feb-2022 
 ******************************************
 %nproc=28
 Will use up to   28 processors via shared memory.
 %mem=120GB
 %chk=hoono_r4_1p177594.chk
 ---------------------------------------
 #p freq mp2/aug-cc-pvtz density=current
 ---------------------------------------
 1/10=4,30=1,38=1/1,3;
 2/12=2,17=6,18=5,40=1/2;
 3/5=16,6=1,7=10,11=9,25=1,30=1,71=2,140=1/1,2,3;
 4//1;
 5/5=2,38=5,98=1/2;
 8/6=3,8=1,10=1,19=11,30=-1/1;
 9/15=3,16=-3/6;
 11/6=1,8=1,15=11,17=12,24=-1,27=1,28=-2,29=300,32=6,42=3/1,2,10;
 10/6=2,21=1/2;
 8/6=4,8=1,10=1,19=11,30=-1/11,4;
 10/5=1,20=4/2;
 11/12=2,14=11,16=1,17=2,28=-2,42=3,76=2/2,10,12;
 6/7=2,8=2,9=2,10=2,22=-1/1;
 7/8=1,10=1,12=2,25=1,44=2/1,2,3,16;
 1/10=4,30=1/3;
 99//99;
 Leave Link    1 at Mon Feb 21 20:23:53 2022, MaxMem= 16106127360 cpu:               3.6 elap:               0.1
 (Enter /sw/contrib/gaussian/g16/B01/g16/l101.exe)
 -----
 title
 -----
 Symbolic Z-matrix:
 Charge =  0 Multiplicity = 1
 H
 O                    1    r1
 O                    2    r2       1    a1
 N                    3    r3       2    a2       1    d1       0
 O                    4    r4       3    a3       2    d2       0
       Variables:
  r1                    0.96898                  
  r2                    1.45492                  
  r3                    1.45878                  
  r4                    1.17759                  
  a1                   97.59495                  
  a2                  102.29752                  
  a3                  109.06955                  
  d1                  180.                       
  d2                  180.                       
 
 ITRead=  0  0  0  0  0
 MicOpt= -1 -1 -1 -1 -1
 NAtoms=      5 NQM=        5 NQMF=       0 NMMI=      0 NMMIF=      0
                NMic=       0 NMicF=      0.
                    Isotopes and Nuclear Properties:
 (Nuclear quadrupole moments (NQMom) in fm**2, nuclear magnetic moments (NMagM)
  in nuclear magnetons)

  Atom         1           2           3           4           5
 IAtWgt=           1          16          16          14          16
 AtmWgt=   1.0078250  15.9949146  15.9949146  14.0030740  15.9949146
 NucSpn=           1           0           0           2           0
 AtZEff=  -0.0000000  -0.0000000  -0.0000000  -0.0000000  -0.0000000
 NQMom=    0.0000000   0.0000000   0.0000000   2.0440000   0.0000000
 NMagM=    2.7928460   0.0000000   0.0000000   0.4037610   0.0000000
 AtZNuc=   1.0000000   8.0000000   8.0000000   7.0000000   8.0000000
 Leave Link  101 at Mon Feb 21 20:23:53 2022, MaxMem= 16106127360 cpu:               2.5 elap:               0.1
 (Enter /sw/contrib/gaussian/g16/B01/g16/l103.exe)

 GradGradGradGradGradGradGradGradGradGradGradGradGradGradGradGradGradGrad
 Berny optimization.
 Initialization pass.
                       ----------------------------
                       !    Initial Parameters    !
                       ! (Angstroms and Degrees)  !
 ----------------------                            ----------------------
 !      Name          Value   Derivative information (Atomic Units)     !
 ------------------------------------------------------------------------
 !       r1          0.969    calculate D2E/DX2 analytically            !
 !       r2          1.4549   calculate D2E/DX2 analytically            !
 !       r3          1.4588   calculate D2E/DX2 analytically            !
 !       r4          1.1776   calculate D2E/DX2 analytically            !
 !       a1         97.5949   calculate D2E/DX2 analytically            !
 !       a2        102.2975   calculate D2E/DX2 analytically            !
 !       a3        109.0696   calculate D2E/DX2 analytically            !
 !       d1        180.0      calculate D2E/DX2 analytically            !
 !       d2        180.0      calculate D2E/DX2 analytically            !
 ------------------------------------------------------------------------
 Trust Radius=3.00D-01 FncErr=1.00D-07 GrdErr=1.00D-07 EigMax=2.50D+02 EigMin=1.00D-04
 Number of steps in this run=      2 maximum allowed number of steps=      2.
 GradGradGradGradGradGradGradGradGradGradGradGradGradGradGradGradGradGrad

 Leave Link  103 at Mon Feb 21 20:23:53 2022, MaxMem= 16106127360 cpu:               0.5 elap:               0.0
 (Enter /sw/contrib/gaussian/g16/B01/g16/l202.exe)
                          Input orientation:                          
 ---------------------------------------------------------------------
 Center     Atomic      Atomic             Coordinates (Angstroms)
 Number     Number       Type             X           Y           Z
 ---------------------------------------------------------------------
      1          1           0        0.000000    0.000000    0.000000
      2          8           0        0.000000    0.000000    0.968976
      3          8           0        1.442156    0.000000    1.161271
      4          7           0        1.561752    0.000000    2.615144
      5          8           0        2.702518    0.000000    2.907342
 ---------------------------------------------------------------------
                    Distance matrix (angstroms):
                    1          2          3          4          5
     1  H    0.000000
     2  O    0.968976   0.000000
     3  O    1.851584   1.454919   0.000000
     4  N    3.045989   2.269127   1.458784   0.000000
     5  O    3.969414   3.325789   2.153435   1.177594   0.000000
 Stoichiometry    HNO3
 Framework group  CS[SG(HNO3)]
 Deg. of freedom     7
 Full point group                 CS      NOp   2
 Largest Abelian subgroup         CS      NOp   2
 Largest concise Abelian subgroup C1      NOp   1
                         Standard orientation:                         
 ---------------------------------------------------------------------
 Center     Atomic      Atomic             Coordinates (Angstroms)
 Number     Number       Type             X           Y           Z
 ---------------------------------------------------------------------
      1          1           0        1.546551    1.691379   -0.000000
      2          8           0        1.453933    0.726840   -0.000000
      3          8           0       -0.000000    0.673272   -0.000000
      4          7           0       -0.258015   -0.762513    0.000000
      5          8           0       -1.421488   -0.944335    0.000000
 ---------------------------------------------------------------------
 Rotational constants (GHZ):          54.9085052           4.9949868           4.5784853
 Leave Link  202 at Mon Feb 21 20:23:53 2022, MaxMem= 16106127360 cpu:               0.4 elap:               0.0
 (Enter /sw/contrib/gaussian/g16/B01/g16/l301.exe)
 Standard basis: Aug-CC-pVTZ (5D, 7F)
 Ernie: Thresh=  0.10000D-02 Tol=  0.10000D-05 Strict=F.
 Ernie:  12 primitive shells out of 131 were deleted.
 There are   166 symmetry adapted cartesian basis functions of A'  symmetry.
 There are    79 symmetry adapted cartesian basis functions of A"  symmetry.
 There are   136 symmetry adapted basis functions of A'  symmetry.
 There are    71 symmetry adapted basis functions of A"  symmetry.
   207 basis functions,   315 primitive gaussians,   245 cartesian basis functions
    16 alpha electrons       16 beta electrons
       nuclear repulsion energy       116.6646841049 Hartrees.
 IExCor=    0 DFT=F Ex=HF Corr=None ExCW=0 ScaHFX=  1.000000
 ScaDFX=  1.000000  1.000000  1.000000  1.000000 ScalE2=  1.000000  1.000000
 IRadAn=      5 IRanWt=     -1 IRanGd=            0 ICorTp=0 IEmpDi=  4
 NAtoms=    5 NActive=    5 NUniq=    5 SFac= 1.00D+00 NAtFMM=   60 NAOKFM=F Big=F
 Integral buffers will be    131072 words long.
 Raffenetti 1 integral format.
 Two-electron integral symmetry is turned on.
 Leave Link  301 at Mon Feb 21 20:23:53 2022, MaxMem= 16106127360 cpu:               2.3 elap:               0.1
 (Enter /sw/contrib/gaussian/g16/B01/g16/l302.exe)
 NPDir=0 NMtPBC=     1 NCelOv=     1 NCel=       1 NClECP=     1 NCelD=      1
         NCelK=      1 NCelE2=     1 NClLst=     1 CellRange=     0.0.
 One-electron integrals computed using PRISM.
 One-electron integral symmetry used in STVInt
 NBasis=   207 RedAO= T EigKep=  1.83D-04  NBF=   136    71
 NBsUse=   207 1.00D-06 EigRej= -1.00D+00 NBFU=   136    71
 Leave Link  302 at Mon Feb 21 20:23:53 2022, MaxMem= 16106127360 cpu:               4.6 elap:               0.2
 (Enter /sw/contrib/gaussian/g16/B01/g16/l303.exe)
 DipDrv:  MaxL=1.
 Leave Link  303 at Mon Feb 21 20:23:54 2022, MaxMem= 16106127360 cpu:               1.1 elap:               0.1
 (Enter /sw/contrib/gaussian/g16/B01/g16/l401.exe)
 ExpMin= 2.53D-02 ExpMax= 1.53D+04 ExpMxC= 5.22D+02 IAcc=3 IRadAn=         5 AccDes= 0.00D+00
 Harris functional with IExCor=  205 and IRadAn=       5 diagonalized for initial guess.
 HarFok:  IExCor=  205 AccDes= 0.00D+00 IRadAn=         5 IDoV= 1 UseB2=F ITyADJ=14
 ICtDFT=  3500011 ScaDFX=  1.000000  1.000000  1.000000  1.000000
 FoFCou: FMM=F IPFlag=           0 FMFlag=      100000 FMFlg1=           0
         NFxFlg=           0 DoJE=T BraDBF=F KetDBF=T FulRan=T
         wScrn=  0.000000 ICntrl=       500 IOpCl=  0 I1Cent=   200000004 NGrid=           0
         NMat0=    1 NMatS0=      1 NMatT0=    0 NMatD0=    1 NMtDS0=    0 NMtDT0=    0
 Petite list used in FoFCou.
 Harris En= -279.628744285278    
 JPrj=0 DoOrth=F DoCkMO=F.
 Initial guess orbital symmetries:
       Occupied  (A') (A') (A') (A') (A') (A') (A') (A') (A') (A')
                 (A") (A') (A') (A") (A") (A')
       Virtual   (A") (A') (A') (A') (A') (A') (A") (A') (A') (A')
                 (A") (A') (A") (A') (A') (A") (A') (A") (A') (A')
                 (A') (A') (A') (A') (A') (A") (A') (A") (A') (A')
                 (A") (A') (A") (A') (A') (A") (A') (A") (A') (A')
                 (A") (A') (A") (A') (A") (A') (A') (A') (A") (A")
                 (A') (A') (A') (A') (A") (A') (A") (A') (A") (A')
                 (A') (A') (A") (A') (A') (A") (A') (A") (A') (A')
                 (A") (A') (A') (A") (A") (A') (A') (A") (A') (A')
                 (A') (A") (A') (A") (A') (A") (A') (A") (A') (A')
                 (A') (A") (A') (A") (A') (A") (A") (A') (A') (A')
                 (A") (A') (A") (A') (A') (A') (A') (A") (A") (A')
                 (A") (A') (A') (A') (A") (A') (A') (A') (A") (A')
                 (A") (A') (A') (A") (A") (A') (A') (A") (A") (A')
                 (A') (A') (A') (A") (A") (A') (A") (A') (A') (A')
                 (A') (A") (A") (A') (A') (A") (A') (A') (A') (A')
                 (A") (A') (A') (A") (A') (A") (A') (A") (A') (A")
                 (A') (A") (A') (A") (A') (A") (A") (A") (A') (A')
                 (A") (A') (A") (A') (A") (A') (A") (A") (A') (A')
                 (A') (A') (A') (A') (A') (A') (A') (A') (A') (A')
                 (A')
 The electronic state of the initial guess is 1-A'.
 Leave Link  401 at Mon Feb 21 20:23:54 2022, MaxMem= 16106127360 cpu:               6.6 elap:               0.3
 (Enter /sw/contrib/gaussian/g16/B01/g16/l502.exe)
 Keep R1 ints in memory in symmetry-blocked form, NReq=348887737.
 FoFCou: FMM=F IPFlag=           0 FMFlag=           0 FMFlg1=           0
         NFxFlg=           0 DoJE=F BraDBF=F KetDBF=F FulRan=T
         wScrn=  0.000000 ICntrl=       600 IOpCl=  0 I1Cent=           0 NGrid=           0
         NMat0=    1 NMatS0=  21528 NMatT0=    0 NMatD0=    1 NMtDS0=    0 NMtDT0=    0
 Petite list used in FoFCou.
 Closed shell SCF:
 Using DIIS extrapolation, IDIIS=  1040.
 NGot= 16106127360 LenX= 15988850015 LenY= 15988789549
 Requested convergence on RMS density matrix=1.00D-08 within 128 cycles.
 Requested convergence on MAX density matrix=1.00D-06.
 Requested convergence on             energy=1.00D-06.
 No special actions if energy rises.

 Cycle   1  Pass 1  IDiag  1:
 E= -279.367809850025    
 DIIS: error= 2.67D-02 at cycle   1 NSaved=   1.
 NSaved= 1 IEnMin= 1 EnMin= -279.367809850025     IErMin= 1 ErrMin= 2.67D-02
 ErrMax= 2.67D-02  0.00D+00 EMaxC= 1.00D-01 BMatC= 4.40D-01 BMatP= 4.40D-01
 IDIUse=3 WtCom= 7.33D-01 WtEn= 2.67D-01
 Coeff-Com:  0.100D+01
 Coeff-En:   0.100D+01
 Coeff:      0.100D+01
 Gap=     0.511 Goal=   None    Shift=    0.000
 GapD=    0.511 DampG=2.000 DampE=0.500 DampFc=1.0000 IDamp=-1.
 RMSDP=1.63D-03 MaxDP=9.96D-02              OVMax= 1.16D-01

 Cycle   2  Pass 1  IDiag  1:
 E= -279.449096926245     Delta-E=       -0.081287076220 Rises=F Damp=F
 DIIS: error= 1.81D-02 at cycle   2 NSaved=   2.
 NSaved= 2 IEnMin= 2 EnMin= -279.449096926245     IErMin= 2 ErrMin= 1.81D-02
 ErrMax= 1.81D-02  0.00D+00 EMaxC= 1.00D-01 BMatC= 7.47D-02 BMatP= 4.40D-01
 IDIUse=3 WtCom= 8.19D-01 WtEn= 1.81D-01
 Coeff-Com:  0.200D+00 0.800D+00
 Coeff-En:   0.154D-01 0.985D+00
 Coeff:      0.167D+00 0.833D+00
 Gap=     0.533 Goal=   None    Shift=    0.000
 RMSDP=9.12D-04 MaxDP=3.78D-02 DE=-8.13D-02 OVMax= 7.01D-02

 Cycle   3  Pass 1  IDiag  1:
 E= -279.479775432959     Delta-E=       -0.030678506714 Rises=F Damp=F
 DIIS: error= 1.05D-02 at cycle   3 NSaved=   3.
 NSaved= 3 IEnMin= 3 EnMin= -279.479775432959     IErMin= 3 ErrMin= 1.05D-02
 ErrMax= 1.05D-02  0.00D+00 EMaxC= 1.00D-01 BMatC= 2.93D-02 BMatP= 7.47D-02
 IDIUse=3 WtCom= 8.95D-01 WtEn= 1.05D-01
 Coeff-Com: -0.332D-01 0.376D+00 0.657D+00
 Coeff-En:   0.000D+00 0.238D+00 0.762D+00
 Coeff:     -0.297D-01 0.361D+00 0.668D+00
 Gap=     0.511 Goal=   None    Shift=    0.000
 RMSDP=3.81D-04 MaxDP=1.58D-02 DE=-3.07D-02 OVMax= 3.93D-02

 Cycle   4  Pass 1  IDiag  1:
 E= -279.499339105723     Delta-E=       -0.019563672763 Rises=F Damp=F
 DIIS: error= 1.31D-03 at cycle   4 NSaved=   4.
 NSaved= 4 IEnMin= 4 EnMin= -279.499339105723     IErMin= 4 ErrMin= 1.31D-03
 ErrMax= 1.31D-03  0.00D+00 EMaxC= 1.00D-01 BMatC= 5.04D-04 BMatP= 2.93D-02
 IDIUse=3 WtCom= 9.87D-01 WtEn= 1.31D-02
 Coeff-Com: -0.117D-01 0.558D-01 0.157D+00 0.798D+00
 Coeff-En:   0.000D+00 0.000D+00 0.000D+00 0.100D+01
 Coeff:     -0.115D-01 0.551D-01 0.155D+00 0.801D+00
 Gap=     0.503 Goal=   None    Shift=    0.000
 RMSDP=9.14D-05 MaxDP=2.78D-03 DE=-1.96D-02 OVMax= 1.13D-02

 Cycle   5  Pass 1  IDiag  1:
 E= -279.500035131564     Delta-E=       -0.000696025841 Rises=F Damp=F
 DIIS: error= 7.45D-04 at cycle   5 NSaved=   5.
 NSaved= 5 IEnMin= 5 EnMin= -279.500035131564     IErMin= 5 ErrMin= 7.45D-04
 ErrMax= 7.45D-04  0.00D+00 EMaxC= 1.00D-01 BMatC= 8.91D-05 BMatP= 5.04D-04
 IDIUse=3 WtCom= 9.93D-01 WtEn= 7.45D-03
 Coeff-Com:  0.622D-02-0.723D-01-0.119D+00 0.181D-01 0.117D+01
 Coeff-En:   0.000D+00 0.000D+00 0.000D+00 0.000D+00 0.100D+01
 Coeff:      0.617D-02-0.718D-01-0.118D+00 0.180D-01 0.117D+01
 Gap=     0.503 Goal=   None    Shift=    0.000
 RMSDP=7.75D-05 MaxDP=2.14D-03 DE=-6.96D-04 OVMax= 1.13D-02

 Cycle   6  Pass 1  IDiag  1:
 E= -279.500360086612     Delta-E=       -0.000324955048 Rises=F Damp=F
 DIIS: error= 2.92D-04 at cycle   6 NSaved=   6.
 NSaved= 6 IEnMin= 6 EnMin= -279.500360086612     IErMin= 6 ErrMin= 2.92D-04
 ErrMax= 2.92D-04  0.00D+00 EMaxC= 1.00D-01 BMatC= 1.71D-05 BMatP= 8.91D-05
 IDIUse=3 WtCom= 9.97D-01 WtEn= 2.92D-03
 Coeff-Com:  0.467D-03 0.322D-02 0.745D-02-0.131D+00-0.253D+00 0.137D+01
 Coeff-En:   0.000D+00 0.000D+00 0.000D+00 0.000D+00 0.000D+00 0.100D+01
 Coeff:      0.466D-03 0.321D-02 0.743D-02-0.131D+00-0.252D+00 0.137D+01
 Gap=     0.503 Goal=   None    Shift=    0.000
 RMSDP=4.63D-05 MaxDP=1.28D-03 DE=-3.25D-04 OVMax= 5.72D-03

 Cycle   7  Pass 1  IDiag  1:
 E= -279.500435449038     Delta-E=       -0.000075362427 Rises=F Damp=F
 DIIS: error= 1.22D-04 at cycle   7 NSaved=   7.
 NSaved= 7 IEnMin= 7 EnMin= -279.500435449038     IErMin= 7 ErrMin= 1.22D-04
 ErrMax= 1.22D-04  0.00D+00 EMaxC= 1.00D-01 BMatC= 4.31D-06 BMatP= 1.71D-05
 IDIUse=3 WtCom= 9.99D-01 WtEn= 1.22D-03
 Coeff-Com: -0.959D-03 0.134D-01 0.264D-01-0.209D-01-0.278D+00 0.357D+00
 Coeff-Com:  0.903D+00
 Coeff-En:   0.000D+00 0.000D+00 0.000D+00 0.000D+00 0.000D+00 0.000D+00
 Coeff-En:   0.100D+01
 Coeff:     -0.958D-03 0.134D-01 0.264D-01-0.208D-01-0.278D+00 0.357D+00
 Coeff:      0.903D+00
 Gap=     0.503 Goal=   None    Shift=    0.000
 RMSDP=1.33D-05 MaxDP=3.80D-04 DE=-7.54D-05 OVMax= 1.57D-03

 Cycle   8  Pass 1  IDiag  1:
 E= -279.500444245539     Delta-E=       -0.000008796500 Rises=F Damp=F
 DIIS: error= 5.99D-05 at cycle   8 NSaved=   8.
 NSaved= 8 IEnMin= 8 EnMin= -279.500444245539     IErMin= 8 ErrMin= 5.99D-05
 ErrMax= 5.99D-05  0.00D+00 EMaxC= 1.00D-01 BMatC= 6.38D-07 BMatP= 4.31D-06
 IDIUse=1 WtCom= 1.00D+00 WtEn= 0.00D+00
 Coeff-Com: -0.447D-03 0.331D-02 0.744D-02 0.277D-01-0.385D-01-0.205D+00
 Coeff-Com:  0.208D+00 0.998D+00
 Coeff:     -0.447D-03 0.331D-02 0.744D-02 0.277D-01-0.385D-01-0.205D+00
 Coeff:      0.208D+00 0.998D+00
 Gap=     0.503 Goal=   None    Shift=    0.000
 RMSDP=6.83D-06 MaxDP=2.04D-04 DE=-8.80D-06 OVMax= 7.35D-04

 Cycle   9  Pass 1  IDiag  1:
 E= -279.500446044280     Delta-E=       -0.000001798741 Rises=F Damp=F
 DIIS: error= 1.68D-05 at cycle   9 NSaved=   9.
 NSaved= 9 IEnMin= 9 EnMin= -279.500446044280     IErMin= 9 ErrMin= 1.68D-05
 ErrMax= 1.68D-05  0.00D+00 EMaxC= 1.00D-01 BMatC= 7.62D-08 BMatP= 6.38D-07
 IDIUse=1 WtCom= 1.00D+00 WtEn= 0.00D+00
 Coeff-Com:  0.131D-03-0.178D-02-0.319D-02-0.250D-02 0.352D-01 0.236D-02
 Coeff-Com: -0.183D+00-0.967D-01 0.125D+01
 Coeff:      0.131D-03-0.178D-02-0.319D-02-0.250D-02 0.352D-01 0.236D-02
 Coeff:     -0.183D+00-0.967D-01 0.125D+01
 Gap=     0.503 Goal=   None    Shift=    0.000
 RMSDP=2.04D-06 MaxDP=7.09D-05 DE=-1.80D-06 OVMax= 1.89D-04

 Cycle  10  Pass 1  IDiag  1:
 E= -279.500446221643     Delta-E=       -0.000000177363 Rises=F Damp=F
 DIIS: error= 4.29D-06 at cycle  10 NSaved=  10.
 NSaved=10 IEnMin=10 EnMin= -279.500446221643     IErMin=10 ErrMin= 4.29D-06
 ErrMax= 4.29D-06  0.00D+00 EMaxC= 1.00D-01 BMatC= 6.11D-09 BMatP= 7.62D-08
 IDIUse=1 WtCom= 1.00D+00 WtEn= 0.00D+00
 Coeff-Com:  0.286D-04-0.205D-03-0.248D-03-0.274D-02 0.868D-03 0.202D-01
 Coeff-Com: -0.124D-01-0.699D-01-0.103D+00 0.117D+01
 Coeff:      0.286D-04-0.205D-03-0.248D-03-0.274D-02 0.868D-03 0.202D-01
 Coeff:     -0.124D-01-0.699D-01-0.103D+00 0.117D+01
 Gap=     0.503 Goal=   None    Shift=    0.000
 RMSDP=5.33D-07 MaxDP=2.24D-05 DE=-1.77D-07 OVMax= 4.63D-05

 Cycle  11  Pass 1  IDiag  1:
 E= -279.500446235881     Delta-E=       -0.000000014238 Rises=F Damp=F
 DIIS: error= 2.18D-06 at cycle  11 NSaved=  11.
 NSaved=11 IEnMin=11 EnMin= -279.500446235881     IErMin=11 ErrMin= 2.18D-06
 ErrMax= 2.18D-06  0.00D+00 EMaxC= 1.00D-01 BMatC= 7.46D-10 BMatP= 6.11D-09
 IDIUse=1 WtCom= 1.00D+00 WtEn= 0.00D+00
 Coeff-Com: -0.225D-04 0.253D-03 0.507D-03 0.586D-03-0.441D-02-0.402D-02
 Coeff-Com:  0.240D-01 0.301D-01-0.143D+00-0.178D+00 0.127D+01
 Coeff:     -0.225D-04 0.253D-03 0.507D-03 0.586D-03-0.441D-02-0.402D-02
 Coeff:      0.240D-01 0.301D-01-0.143D+00-0.178D+00 0.127D+01
 Gap=     0.503 Goal=   None    Shift=    0.000
 RMSDP=1.92D-07 MaxDP=7.04D-06 DE=-1.42D-08 OVMax= 1.85D-05

 Cycle  12  Pass 1  IDiag  1:
 E= -279.500446237975     Delta-E=       -0.000000002094 Rises=F Damp=F
 DIIS: error= 6.15D-07 at cycle  12 NSaved=  12.
 NSaved=12 IEnMin=12 EnMin= -279.500446237975     IErMin=12 ErrMin= 6.15D-07
 ErrMax= 6.15D-07  0.00D+00 EMaxC= 1.00D-01 BMatC= 8.11D-11 BMatP= 7.46D-10
 IDIUse=1 WtCom= 1.00D+00 WtEn= 0.00D+00
 Coeff-Com:  0.145D-05-0.319D-04-0.686D-04 0.196D-03 0.116D-02-0.247D-02
 Coeff-Com: -0.436D-02 0.588D-02 0.433D-01-0.123D+00-0.258D+00 0.134D+01
 Coeff:      0.145D-05-0.319D-04-0.686D-04 0.196D-03 0.116D-02-0.247D-02
 Coeff:     -0.436D-02 0.588D-02 0.433D-01-0.123D+00-0.258D+00 0.134D+01
 Gap=     0.503 Goal=   None    Shift=    0.000
 RMSDP=7.70D-08 MaxDP=3.02D-06 DE=-2.09D-09 OVMax= 7.07D-06

 Cycle  13  Pass 1  IDiag  1:
 E= -279.500446238235     Delta-E=       -0.000000000261 Rises=F Damp=F
 DIIS: error= 1.82D-07 at cycle  13 NSaved=  13.
 NSaved=13 IEnMin=13 EnMin= -279.500446238235     IErMin=13 ErrMin= 1.82D-07
 ErrMax= 1.82D-07  0.00D+00 EMaxC= 1.00D-01 BMatC= 4.53D-12 BMatP= 8.11D-11
 IDIUse=1 WtCom= 1.00D+00 WtEn= 0.00D+00
 Coeff-Com:  0.133D-05-0.144D-04-0.232D-04-0.958D-04 0.123D-03 0.817D-03
 Coeff-Com: -0.104D-02-0.323D-02 0.735D-03 0.427D-01-0.432D-01-0.314D+00
 Coeff-Com:  0.132D+01
 Coeff:      0.133D-05-0.144D-04-0.232D-04-0.958D-04 0.123D-03 0.817D-03
 Coeff:     -0.104D-02-0.323D-02 0.735D-03 0.427D-01-0.432D-01-0.314D+00
 Coeff:      0.132D+01
 Gap=     0.503 Goal=   None    Shift=    0.000
 RMSDP=2.02D-08 MaxDP=5.97D-07 DE=-2.61D-10 OVMax= 1.63D-06

 Cycle  14  Pass 1  IDiag  1:
 E= -279.500446238250     Delta-E=       -0.000000000015 Rises=F Damp=F
 DIIS: error= 2.58D-08 at cycle  14 NSaved=  14.
 NSaved=14 IEnMin=14 EnMin= -279.500446238250     IErMin=14 ErrMin= 2.58D-08
 ErrMax= 2.58D-08  0.00D+00 EMaxC= 1.00D-01 BMatC= 2.21D-13 BMatP= 4.53D-12
 IDIUse=1 WtCom= 1.00D+00 WtEn= 0.00D+00
 Coeff-Com: -0.196D-06 0.319D-05 0.569D-05 0.454D-05-0.848D-04 0.492D-04
 Coeff-Com:  0.305D-03 0.205D-03-0.250D-02 0.174D-02 0.165D-01-0.260D-01
 Coeff-Com: -0.196D+00 0.121D+01
 Coeff:     -0.196D-06 0.319D-05 0.569D-05 0.454D-05-0.848D-04 0.492D-04
 Coeff:      0.305D-03 0.205D-03-0.250D-02 0.174D-02 0.165D-01-0.260D-01
 Coeff:     -0.196D+00 0.121D+01
 Gap=     0.503 Goal=   None    Shift=    0.000
 RMSDP=3.98D-09 MaxDP=9.63D-08 DE=-1.48D-11 OVMax= 3.60D-07

 SCF Done:  E(RHF) =  -279.500446238     A.U. after   14 cycles
            NFock= 14  Conv=0.40D-08     -V/T= 2.0025
 KE= 2.788122856737D+02 PE=-8.946298524628D+02 EE= 2.196524364459D+02
 Leave Link  502 at Mon Feb 21 20:23:57 2022, MaxMem= 16106127360 cpu:              56.9 elap:               3.7
 (Enter /sw/contrib/gaussian/g16/B01/g16/l801.exe)
 ExpMin= 2.53D-02 ExpMax= 1.53D+04 ExpMxC= 5.22D+02 IAcc=3 IRadAn=         5 AccDes= 0.00D+00
 HarFok:  IExCor=  205 AccDes= 0.00D+00 IRadAn=         5 IDoV=-2 UseB2=F ITyADJ=14
 ICtDFT= 12500011 ScaDFX=  1.000000  1.000000  1.000000  1.000000
 Largest valence mixing into a core orbital is  2.09D-04
 Largest core mixing into a valence orbital is  3.65D-05
 Range of M.O.s used for correlation:     5   207
 NBasis=   207 NAE=    16 NBE=    16 NFC=     4 NFV=     0
 NROrb=    203 NOA=    12 NOB=    12 NVA=   191 NVB=   191

 **** Warning!!: The largest alpha MO coefficient is  0.17668697D+02

 Leave Link  801 at Mon Feb 21 20:23:58 2022, MaxMem= 16106127360 cpu:               2.3 elap:               0.1
 (Enter /sw/contrib/gaussian/g16/B01/g16/l906.exe)
 Frozen-core derivative calculation, NFC=   4 NFV=   0.
 FulOut=F Deriv=T AODrv=T NAtomX=     5
   MMem=           0  MDisk=          12 MDiskD=          12
  W3Min=      811440 MinDsk=     2425030 NBas6D=         245
 NBas2D=       30762    NTT=       30135    LW2=     7400000
    MDV= 16105574311 MDiskM=      328644 NBas2p=       30702
 Disk-based method using ON**2 memory for 12 occupieds at a time.
 Permanent disk used for amplitudes=    11516536 words.
 Estimated scratch disk usage=   321251614 words.
 IMap=   1   2   3   4   5   6   7   8   9  10  11  12  13  14  15  16
 Actual    scratch disk usage=   310331678 words.
 JobTyp=1 Pass  1:  I=   5 to  16 NPSUse= 28 ParTrn=T ParDer=T DoDerP=T.
 (rs|ai) integrals will be sorted in core.
 Spin components of T(2) and E(2):
     alpha-alpha T2 =       0.3416836746D-01 E2=     -0.1225549605D+00
     alpha-beta  T2 =       0.1876481000D+00 E2=     -0.7011164398D+00
     beta-beta   T2 =       0.3416836746D-01 E2=     -0.1225549605D+00
 The integrals were generated   1 times.
 ANorm=    0.1120707292D+01
 E2 =    -0.9462263607D+00 EUMP2 =    -0.28044667259899D+03
 Leave Link  906 at Mon Feb 21 20:25:35 2022, MaxMem= 16106127360 cpu:            2728.8 elap:              97.6
 (Enter /sw/contrib/gaussian/g16/B01/g16/l1101.exe)
 Using compressed Sx but separate Hx and Fx, NAtomX=     5.
 Will process      6 centers per pass.
 Leave Link 1101 at Mon Feb 21 20:25:35 2022, MaxMem= 16106127360 cpu:               5.6 elap:               0.2
 (Enter /sw/contrib/gaussian/g16/B01/g16/l1102.exe)
 Leave Link 1102 at Mon Feb 21 20:25:36 2022, MaxMem= 16106127360 cpu:               0.5 elap:               0.0
 (Enter /sw/contrib/gaussian/g16/B01/g16/l1110.exe)
 Forming Gx(P) for the SCF density, NAtomX=     5.
 Integral derivatives from FoFJK, PRISM(SPDF).
 Do as many integral derivatives as possible in FoFJK.
 G2DrvN: MDV=   16106126844.
 G2DrvN: will do     6 centers at a time, making    1 passes.
 Calling FoFCou, ICntrl=  3107 FMM=F I1Cent=   0 AccDes= 0.00D+00.
 FoFJK:  IHMeth= 1 ICntrl=    3107 DoSepK=F KAlg= 0 I1Cent=           0 FoldK=F
 IRaf=         0 NMat=       1 IRICut=       1 DoRegI=T DoRafI=F ISym2E= 1 IDoP0=0 IntGTp=1.
 FoFCou: FMM=F IPFlag=           0 FMFlag=      100000 FMFlg1=           0
         NFxFlg=           0 DoJE=F BraDBF=F KetDBF=F FulRan=T
         wScrn=  0.000000 ICntrl=      3107 IOpCl=  0 I1Cent=           0 NGrid=           0
         NMat0=    1 NMatS0=      1 NMatT0=    0 NMatD0=    1 NMtDS0=    0 NMtDT0=    0
 Petite list used in FoFCou.
 End of G2Drv F.D. properties file   721 does not exist.
 End of G2Drv F.D. properties file   722 does not exist.
 End of G2Drv F.D. properties file   788 does not exist.
 Leave Link 1110 at Mon Feb 21 20:25:39 2022, MaxMem= 16106127360 cpu:              83.1 elap:               3.0
 (Enter /sw/contrib/gaussian/g16/B01/g16/l1002.exe)
 Minotr:  Closed shell wavefunction.
          IDoAtm=11111
          Frozen-core window.
          Direct CPHF calculation.
          Differentiating once with respect to electric field.
                with respect to dipole field.
          Differentiating once with respect to nuclear coordinates.
          Requested convergence is 1.0D-08 RMS, and 1.0D-07 maximum.
          Secondary convergence is 1.0D-12 RMS, and 1.0D-12 maximum.
          NewPWx=T KeepS1=T KeepF1=T KeepIn=T MapXYZ=F SortEE=F KeepMc=T.
 Keep R1 ints in memory in symmetry-blocked form, NReq=348888983.
 FoFCou: FMM=F IPFlag=           0 FMFlag=           0 FMFlg1=           0
         NFxFlg=           0 DoJE=F BraDBF=F KetDBF=F FulRan=T
         wScrn=  0.000000 ICntrl=       600 IOpCl=  0 I1Cent=           0 NGrid=           0
         NMat0=    1 NMatS0=  21528 NMatT0=    0 NMatD0=    1 NMtDS0=    0 NMtDT0=    0
 Petite list used in FoFCou.
          MDV=   16106127360 using IRadAn=       1.
          Solving linear equations simultaneously, MaxMat=       0.
          There are    18 degrees of freedom in the 1st order CPHF.  IDoFFX=6 NUNeed=    18.
     15 vectors produced by pass  0 Test12= 1.70D-14 5.56D-09 XBig12= 8.36D+00 1.05D+00.
 AX will form    15 AO Fock derivatives at one time.
     15 vectors produced by pass  1 Test12= 1.70D-14 5.56D-09 XBig12= 1.37D+00 2.66D-01.
     15 vectors produced by pass  2 Test12= 1.70D-14 5.56D-09 XBig12= 1.45D-01 1.01D-01.
     15 vectors produced by pass  3 Test12= 1.70D-14 5.56D-09 XBig12= 5.10D-03 1.15D-02.
     15 vectors produced by pass  4 Test12= 1.70D-14 5.56D-09 XBig12= 1.04D-04 2.02D-03.
     15 vectors produced by pass  5 Test12= 1.70D-14 5.56D-09 XBig12= 1.46D-06 1.79D-04.
     15 vectors produced by pass  6 Test12= 1.70D-14 5.56D-09 XBig12= 1.15D-08 1.51D-05.
     12 vectors produced by pass  7 Test12= 1.70D-14 5.56D-09 XBig12= 8.53D-11 1.39D-06.
      3 vectors produced by pass  8 Test12= 1.70D-14 5.56D-09 XBig12= 6.04D-13 1.21D-07.
      2 vectors produced by pass  9 Test12= 1.70D-14 5.56D-09 XBig12= 4.06D-15 9.64D-09.
 InvSVY:  IOpt=1 It=  1 EMax= 1.11D-15
 Solved reduced A of dimension   122 with    15 vectors.
 FullF1:  Do perturbations      1 to      18.
 Saving first derivative matrices.
 End of Minotr F.D. properties file   721 does not exist.
 End of Minotr F.D. properties file   722 does not exist.
 End of Minotr F.D. properties file   788 does not exist.
 Leave Link 1002 at Mon Feb 21 20:25:42 2022, MaxMem= 16106127360 cpu:              83.5 elap:               3.0
 (Enter /sw/contrib/gaussian/g16/B01/g16/l811.exe)
 MDV= 16106127360.
 Form MO integral derivatives with frozen-active canonical formalism.
 MOERI=1 MOERIx=1 NAtoms=     5 NAtomX=     5.
 Discarding MO integrals.
 MO basis two electron integral derivatives will not be stored on disk.
 IAlg= 3 DoFC=T DoPWx=T Debug=F.
 Frozen-core window:  NFC=   4 NFV=   0.
 Reordered first order wavefunction length =     18678272
 In DefCFB: NBatch=  1 ICI= 16 ICA=191 LFMax= 96
            Large arrays: LIAPS=   619940160 LIARS=   288257200 words.
 In StABat: MaxSiz= 55 MinSiz= 25 NAtomB=  5
 DoIAMN: NPSUse= 28.
 Leave Link  811 at Mon Feb 21 20:27:04 2022, MaxMem= 16106127360 cpu:            2290.5 elap:              82.0
 (Enter /sw/contrib/gaussian/g16/B01/g16/l804.exe)
 Frozen-core window:  NFC=   4 NFV=   0.
 Closed-shell transformation, MDV= 16106127360 ITran=4 ISComp=1.
 Semi-Direct transformation.
 ModeAB=           2 MOrb=            16 LenV=   16104923065
 LASXX=     67341636 LTotXX=    67341636 LenRXX=    67341636
 LTotAB=    68301760 MaxLAS=    99807120 LenRXY=    99807120
 NonZer=   134683272 LenScr=   202817536 LnRSAI=           0
 LnScr1=           0 LExtra=           0 Total=    369966292
 MaxDsk=          -1 SrtSym=           F ITran=            4
 DoSDTr:  NPSUse= 28
 JobTyp=0 Pass  1:  I=   1 to  16.
 (rs|ai) integrals will be sorted in core.
 Complete sort for first half transformation.
 First half transformation complete.
 Begin second half transformation for I=  10.
 Begin second half transformation for I=  10.
 Complete sort for second half transformation.
 Second half transformation complete.
 Spin components of T(2) and E(2):
     alpha-alpha T2 =       0.3416836746D-01 E2=     -0.1225549605D+00
     alpha-beta  T2 =       0.1876481000D+00 E2=     -0.7011164398D+00
     beta-beta   T2 =       0.3416836746D-01 E2=     -0.1225549605D+00
 ANorm=    0.1584919452D+01
 E2 =    -0.9462263607D+00 EUMP2 =    -0.28044667259899D+03
 Leave Link  804 at Mon Feb 21 20:27:20 2022, MaxMem= 16106127360 cpu:             465.7 elap:              16.7
 (Enter /sw/contrib/gaussian/g16/B01/g16/l1002.exe)
 Minotr:  Closed shell wavefunction.
          Computing MP2/KS-MP2 derivatives.
          Using Z-Vector for PSCF gradient.
          Skipping F1 and S1 gradient terms here.
          IDoAtm=11111
          Frozen-core window.
          Using MO integrals in the linear equations.
          Forming densities via direct SCF.
          Differentiating once with respect to electric field.
                with respect to dipole field.
          Differentiating once with respect to nuclear coordinates.
          Using symmetry in CPHF.
          Requested convergence is 1.0D-10 RMS, and 1.0D-09 maximum.
          NewPWx=F KeepS1=T KeepF1=T KeepIn=T MapXYZ=F SortEE=F KeepMc=T.
          MDV=   16106127360 using IRadAn=       5.
          Solving linear equations separately, MaxMat=       0.
          There are     1 degrees of freedom in the 1st order CPHF.  IDoFFX=0 NUNeed=     1.
 FoFJK:  IHMeth= 1 ICntrl=       0 DoSepK=F KAlg= 0 I1Cent=           0 FoldK=F
 IRaf=         0 NMat=       1 IRICut=       1 DoRegI=T DoRafI=F ISym2E= 0 IDoP0=0 IntGTp=1.
 FoFCou: FMM=F IPFlag=           0 FMFlag=      100000 FMFlg1=           0
         NFxFlg=           0 DoJE=F BraDBF=F KetDBF=F FulRan=T
         wScrn=  0.000000 ICntrl=         0 IOpCl=  0 I1Cent=           0 NGrid=           0
         NMat0=    1 NMatS0=      1 NMatT0=    0 NMatD0=    1 NMtDS0=    0 NMtDT0=    0
 Symmetry not used in FoFCou.
 LinEq1:  Iter=  0 NonCon=     1 RMS=6.00D-03 Max=1.35D-01 NDo=     1
 LinEq1:  Iter=  1 NonCon=     1 RMS=1.93D-03 Max=3.91D-02 NDo=     1
 LinEq1:  Iter=  2 NonCon=     1 RMS=8.82D-04 Max=1.43D-02 NDo=     1
 LinEq1:  Iter=  3 NonCon=     1 RMS=3.95D-04 Max=8.14D-03 NDo=     1
 LinEq1:  Iter=  4 NonCon=     1 RMS=1.22D-04 Max=1.95D-03 NDo=     1
 LinEq1:  Iter=  5 NonCon=     1 RMS=4.77D-05 Max=7.62D-04 NDo=     1
 LinEq1:  Iter=  6 NonCon=     1 RMS=2.12D-05 Max=2.41D-04 NDo=     1
 LinEq1:  Iter=  7 NonCon=     1 RMS=8.54D-06 Max=1.63D-04 NDo=     1
 LinEq1:  Iter=  8 NonCon=     1 RMS=3.64D-06 Max=3.54D-05 NDo=     1
 LinEq1:  Iter=  9 NonCon=     1 RMS=9.86D-07 Max=1.34D-05 NDo=     1
 LinEq1:  Iter= 10 NonCon=     1 RMS=1.94D-07 Max=2.10D-06 NDo=     1
 LinEq1:  Iter= 11 NonCon=     1 RMS=3.58D-08 Max=3.70D-07 NDo=     1
 LinEq1:  Iter= 12 NonCon=     1 RMS=8.66D-09 Max=1.33D-07 NDo=     1
 LinEq1:  Iter= 13 NonCon=     1 RMS=1.57D-09 Max=2.68D-08 NDo=     1
 LinEq1:  Iter= 14 NonCon=     1 RMS=2.84D-10 Max=3.96D-09 NDo=     1
 LinEq1:  Iter= 15 NonCon=     0 RMS=5.03D-11 Max=5.58D-10 NDo=     1
 Linear equations converged to 1.000D-10 1.000D-09 after    15 iterations.
 End of Minotr F.D. properties file   721 does not exist.
 End of Minotr F.D. properties file   722 does not exist.
 End of Minotr F.D. properties file   788 does not exist.
 Leave Link 1002 at Mon Feb 21 20:27:23 2022, MaxMem= 16106127360 cpu:              69.2 elap:               2.5
 (Enter /sw/contrib/gaussian/g16/B01/g16/l1102.exe)
 Use density number 2.
 Symmetrizing basis deriv contribution to polar:
 IMax=3 JMax=2 DiffMx= 0.00D+00
 Leave Link 1102 at Mon Feb 21 20:27:23 2022, MaxMem= 16106127360 cpu:               0.8 elap:               0.1
 (Enter /sw/contrib/gaussian/g16/B01/g16/l1110.exe)
 Forming Gx(P) for generalized density number  2 NAtomX=     5.
 Integral derivatives from FoFJK, PRISM(SPDF).
 Do as many integral derivatives as possible in FoFJK.
 G2DrvN: MDV=   16106126844.
 G2DrvN: will do     6 centers at a time, making    1 passes.
 Calling FoFCou, ICntrl=  3107 FMM=F I1Cent=   0 AccDes= 0.00D+00.
 FoFJK:  IHMeth= 1 ICntrl=    3107 DoSepK=F KAlg= 0 I1Cent=           0 FoldK=F
 IRaf=         0 NMat=       1 IRICut=       1 DoRegI=T DoRafI=F ISym2E= 1 IDoP0=0 IntGTp=1.
 FoFCou: FMM=F IPFlag=           0 FMFlag=      100000 FMFlg1=           0
         NFxFlg=           0 DoJE=F BraDBF=F KetDBF=F FulRan=T
         wScrn=  0.000000 ICntrl=      3107 IOpCl=  0 I1Cent=           0 NGrid=           0
         NMat0=    1 NMatS0=      1 NMatT0=    0 NMatD0=    1 NMtDS0=    0 NMtDT0=    0
 Petite list used in FoFCou.
 End of G2Drv F.D. properties file   721 does not exist.
 End of G2Drv F.D. properties file   722 does not exist.
 End of G2Drv F.D. properties file   788 does not exist.
 Leave Link 1110 at Mon Feb 21 20:27:26 2022, MaxMem= 16106127360 cpu:              83.1 elap:               3.0
 (Enter /sw/contrib/gaussian/g16/B01/g16/l1112.exe)
 MP22nd: MDV=   16106127360
 This link is doing NAtomX=     5 total of    18 degrees of freedom.
 Using ON3 I/O method in MakUI.
 Frozen-core window:  NFC=   4 NFV=   0.
 Using Ix for Sx.
 Use MO integrals over full window.
 Using OV2 memory method for fx*t*t/D, MaxI=    16 DoOO2=F NP=  28.
 R2 and R3 integrals will be kept in memory, NReq=   915591705.
 FoFCou: FMM=F IPFlag=           0 FMFlag=           0 FMFlg1=           0
         NFxFlg=           0 DoJE=F BraDBF=F KetDBF=F FulRan=T
         wScrn=  0.000000 ICntrl=       600 IOpCl=  0 I1Cent=           0 NGrid=           0
         NMat0=    1 NMatS0=      1 NMatT0=    0 NMatD0=    1 NMtDS0=    0 NMtDT0=    0
 Symmetry not used in FoFCou.
 DD1Dir will call FoFMem   1 times, MxPair=       272
 NAB=   136 NAA=     0 NBB=     0.
 Symmetry is being used.
 FoFJK:  IHMeth= 1 ICntrl=       0 DoSepK=F KAlg= 0 I1Cent=           0 FoldK=F
 IRaf=         0 NMat=      18 IRICut=      45 DoRegI=T DoRafI=T ISym2E= 2 IDoP0=3 IntGTp=3.
 Discarding MO integrals.
 Leave Link 1112 at Mon Feb 21 20:28:01 2022, MaxMem= 16106127360 cpu:             969.9 elap:              35.0
 (Enter /sw/contrib/gaussian/g16/B01/g16/l601.exe)
 Copying SCF densities to generalized density rwf, IOpCl= 0 IROHF=0.

 **********************************************************************

            Population analysis using the MP2 Density.

 **********************************************************************

 Orbital symmetries:
       Occupied  (A') (A') (A') (A') (A') (A') (A') (A') (A') (A')
                 (A") (A') (A") (A') (A") (A')
       Virtual   (A') (A") (A') (A') (A') (A") (A') (A') (A") (A')
                 (A") (A') (A') (A') (A") (A') (A') (A") (A') (A')
                 (A') (A') (A') (A') (A") (A') (A') (A") (A') (A')
                 (A") (A') (A") (A') (A') (A") (A') (A') (A") (A')
                 (A") (A') (A") (A') (A') (A") (A') (A') (A") (A')
                 (A") (A') (A') (A') (A") (A') (A") (A') (A") (A')
                 (A') (A') (A") (A') (A') (A") (A') (A") (A') (A')
                 (A") (A') (A') (A") (A") (A') (A') (A") (A') (A')
                 (A') (A") (A') (A") (A') (A") (A') (A") (A') (A')
                 (A") (A') (A') (A") (A') (A") (A') (A") (A') (A')
                 (A") (A') (A") (A') (A') (A") (A') (A') (A") (A')
                 (A") (A') (A') (A') (A") (A') (A') (A') (A") (A')
                 (A") (A') (A") (A') (A') (A") (A") (A') (A") (A')
                 (A') (A') (A') (A") (A") (A") (A') (A') (A') (A')
                 (A") (A') (A") (A') (A') (A") (A') (A') (A') (A')
                 (A") (A') (A') (A") (A') (A") (A') (A") (A') (A")
                 (A') (A") (A') (A') (A") (A") (A") (A') (A") (A')
                 (A") (A') (A") (A') (A") (A') (A") (A') (A") (A')
                 (A') (A') (A') (A') (A') (A') (A') (A') (A') (A')
                 (A')
 The electronic state is 1-A'.
 Alpha  occ. eigenvalues --  -20.69248 -20.68402 -20.66085 -15.81383  -1.61857
 Alpha  occ. eigenvalues --   -1.49559  -1.25510  -0.94901  -0.77203  -0.75738
 Alpha  occ. eigenvalues --   -0.71048  -0.67852  -0.61902  -0.58986  -0.48578
 Alpha  occ. eigenvalues --   -0.47383
 Alpha virt. eigenvalues --    0.02944   0.06956   0.08605   0.10172   0.13386
 Alpha virt. eigenvalues --    0.13409   0.14393   0.15436   0.17814   0.19425
 Alpha virt. eigenvalues --    0.19956   0.20635   0.22058   0.23486   0.23733
 Alpha virt. eigenvalues --    0.26597   0.29274   0.30361   0.31014   0.34351
 Alpha virt. eigenvalues --    0.34950   0.38695   0.42167   0.43155   0.52747
 Alpha virt. eigenvalues --    0.52817   0.55805   0.58149   0.62218   0.63861
 Alpha virt. eigenvalues --    0.67658   0.68400   0.70633   0.71097   0.72387
 Alpha virt. eigenvalues --    0.72900   0.74468   0.79118   0.79162   0.81056
 Alpha virt. eigenvalues --    0.81208   0.82881   0.86765   0.90765   0.92132
 Alpha virt. eigenvalues --    0.92568   0.95623   0.97604   0.98404   1.01613
 Alpha virt. eigenvalues --    1.05155   1.05433   1.08104   1.11672   1.14053
 Alpha virt. eigenvalues --    1.18908   1.21979   1.23165   1.33833   1.35001
 Alpha virt. eigenvalues --    1.38513   1.45309   1.48744   1.50812   1.53783
 Alpha virt. eigenvalues --    1.56693   1.57988   1.61274   1.66253   1.66934
 Alpha virt. eigenvalues --    1.70351   1.79280   1.83186   1.83444   1.87645
 Alpha virt. eigenvalues --    1.91009   1.95801   1.99038   2.00602   2.07742
 Alpha virt. eigenvalues --    2.12077   2.13133   2.14917   2.22407   2.26382
 Alpha virt. eigenvalues --    2.26425   2.28892   2.31351   2.34187   2.38551
 Alpha virt. eigenvalues --    2.42288   2.42717   2.45401   2.46191   2.47563
 Alpha virt. eigenvalues --    2.49992   2.58851   2.59525   2.61959   2.62192
 Alpha virt. eigenvalues --    2.63366   2.66548   2.75481   2.82176   2.85243
 Alpha virt. eigenvalues --    2.88100   2.89240   2.92162   2.95633   3.02356
 Alpha virt. eigenvalues --    3.06918   3.11940   3.20402   3.22476   3.31531
 Alpha virt. eigenvalues --    3.34064   3.51403   3.64278   3.83738   3.84225
 Alpha virt. eigenvalues --    4.14782   4.16196   4.18264   4.24126   4.35081
 Alpha virt. eigenvalues --    4.39214   4.46138   4.51776   4.65341   4.70929
 Alpha virt. eigenvalues --    4.80141   4.82336   4.82729   4.89616   5.02427
 Alpha virt. eigenvalues --    5.07687   5.10068   5.14739   5.17671   5.23979
 Alpha virt. eigenvalues --    5.27151   5.30852   5.32841   5.34951   5.60472
 Alpha virt. eigenvalues --    5.66234   5.76304   5.82605   5.96008   6.16675
 Alpha virt. eigenvalues --    6.30739   6.33758   6.39338   6.49361   6.50530
 Alpha virt. eigenvalues --    6.61272   6.66705   6.69670   6.75660   6.76213
 Alpha virt. eigenvalues --    6.82843   6.89567   7.01118   7.05426   7.05570
 Alpha virt. eigenvalues --    7.08903   7.12101   7.14784   7.18053   7.21999
 Alpha virt. eigenvalues --    7.24014   7.30342   7.31066   7.34294   7.39416
 Alpha virt. eigenvalues --    7.43023   7.48357   7.60571   7.60643   7.61960
 Alpha virt. eigenvalues --    7.66388   7.78323   7.87553   8.08994   8.31190
 Alpha virt. eigenvalues --    8.40832   8.54264  13.37689  14.33722  15.15849
 Alpha virt. eigenvalues --   15.94822
          Condensed to atoms (all electrons):
               1          2          3          4          5
     1  H    0.589357   0.128386   0.020065   0.012346  -0.000649
     2  O    0.128386   8.321052  -0.173465  -0.090407   0.015474
     3  O    0.020065  -0.173465   8.463653  -0.127222  -0.037371
     4  N    0.012346  -0.090407  -0.127222   6.969216  -0.054907
     5  O   -0.000649   0.015474  -0.037371  -0.054907   8.272222
 Mulliken charges:
               1
     1  H    0.250495
     2  O   -0.201040
     3  O   -0.145660
     4  N    0.290975
     5  O   -0.194770
 Sum of Mulliken charges =  -0.00000
 Mulliken charges with hydrogens summed into heavy atoms:
               1
     2  O    0.049455
     3  O   -0.145660
     4  N    0.290975
     5  O   -0.194770
 APT charges:
               1
     1  H    0.299517
     2  O   -0.288347
     3  O   -0.491434
     4  N    0.867155
     5  O   -0.386891
 Sum of APT charges =  -0.00000
 APT charges with hydrogens summed into heavy atoms:
               1
     2  O    0.011170
     3  O   -0.491434
     4  N    0.867155
     5  O   -0.386891
 Electronic spatial extent (au):  <R**2>=            253.5372
 Charge=             -0.0000 electrons
 Dipole moment (field-independent basis, Debye):
    X=              0.5337    Y=              1.3909    Z=             -0.0000  Tot=              1.4898
 Quadrupole moment (field-independent basis, Debye-Ang):
   XX=            -22.5044   YY=            -18.6157   ZZ=            -22.0218
   XY=              3.2332   XZ=             -0.0000   YZ=             -0.0000
 Traceless Quadrupole moment (field-independent basis, Debye-Ang):
   XX=             -1.4571   YY=              2.4316   ZZ=             -0.9744
   XY=              3.2332   XZ=             -0.0000   YZ=             -0.0000
 Octapole moment (field-independent basis, Debye-Ang**2):
  XXX=              2.9132  YYY=             11.4675  ZZZ=              0.0000  XYY=              7.9724
  XXY=              6.6022  XXZ=             -0.0000  XZZ=             -1.5560  YZZ=             -0.8316
  YYZ=             -0.0000  XYZ=             -0.0000
 Hexadecapole moment (field-independent basis, Debye-Ang**3):
 XXXX=           -158.7313 YYYY=            -90.1993 ZZZZ=            -18.2521 XXXY=            -36.9374
 XXXZ=              0.0000 YYYX=            -30.9421 YYYZ=              0.0000 ZZZX=              0.0000
 ZZZY=              0.0000 XXYY=            -34.1051 XXZZ=            -30.9118 YYZZ=            -20.7718
 XXYZ=              0.0000 YYXZ=              0.0000 ZZXY=            -15.1425
 N-N= 1.166646841049D+02 E-N=-8.954221890564D+02  KE= 2.801688484992D+02
 Symmetry A'   KE= 2.662002914140D+02
 Symmetry A"   KE= 1.396855708520D+01
  Exact polarizability:  34.073   9.546  30.345   0.000   0.000  17.941
 Approx polarizability:  29.160   5.161  23.580  -0.000  -0.000  15.552
 No NMR shielding tensors so no spin-rotation constants.
 Leave Link  601 at Mon Feb 21 20:28:01 2022, MaxMem= 16106127360 cpu:               4.2 elap:               0.2
 (Enter /sw/contrib/gaussian/g16/B01/g16/l701.exe)
 ... and contract with generalized density number  2.
 Compute integral second derivatives.
 Leave Link  701 at Mon Feb 21 20:28:01 2022, MaxMem= 16106127360 cpu:               6.2 elap:               0.2
 (Enter /sw/contrib/gaussian/g16/B01/g16/l702.exe)
 L702 exits ... SP integral derivatives will be done elsewhere.
 Leave Link  702 at Mon Feb 21 20:28:01 2022, MaxMem= 16106127360 cpu:               0.5 elap:               0.0
 (Enter /sw/contrib/gaussian/g16/B01/g16/l703.exe)
 Integral derivatives from FoFJK, PRISM(SPDF).
 Compute integral second derivatives, UseDBF=F ICtDFT=           0.
 Calling FoFJK, ICntrl=  10100127 FMM=F ISym2X=1 I1Cent= 0 IOpClX= 0 NMat=1 NMatS=1 NMatT=0.
 FoFJK:  IHMeth= 1 ICntrl=10100127 DoSepK=F KAlg= 0 I1Cent=           0 FoldK=F
 IRaf=         0 NMat=       1 IRICut=       1 DoRegI=T DoRafI=F ISym2E= 1 IDoP0=0 IntGTp=1.
 FoFCou: FMM=F IPFlag=           0 FMFlag=      100000 FMFlg1=         800
         NFxFlg=           0 DoJE=F BraDBF=F KetDBF=F FulRan=T
         wScrn=  0.000000 ICntrl=  10100127 IOpCl=  0 I1Cent=           0 NGrid=           0
         NMat0=    1 NMatS0=      1 NMatT0=    0 NMatD0=    1 NMtDS0=    0 NMtDT0=    0
 Petite list used in FoFCou.
 Leave Link  703 at Mon Feb 21 20:28:17 2022, MaxMem= 16106127360 cpu:             419.8 elap:              15.1
 (Enter /sw/contrib/gaussian/g16/B01/g16/l716.exe)
 Dipole        = 2.09989509D-01 5.47206237D-01-7.19190577D-33
 Polarizability= 3.40733380D+01 9.54606140D+00 3.03449602D+01
                 1.02302466D-31 1.27329872D-31 1.79405447D+01
 Full mass-weighted force constant matrix:
 Low frequencies --- -270.4759   -0.0015    0.0006    0.0007   32.1501   42.8679
 Low frequencies ---   68.3653  251.8158  346.3728
 ******    1 imaginary frequencies (negative Signs) ****** 
 Diagonal vibrational polarizability:
       14.1194366      25.7012842      46.2347423
 Harmonic frequencies (cm**-1), IR intensities (KM/Mole), Raman scattering
 activities (A**4/AMU), depolarization ratios for plane and unpolarized
 incident light, reduced masses (AMU), force constants (mDyne/A),
 and normal coordinates:
                      1                      2                      3
                     A"                     A"                     A'
 Frequencies --   -270.3819               250.2551               346.3004
 Red. masses --      1.1331                11.0482                 8.5336
 Frc consts  --      0.0488                 0.4077                 0.6030
 IR Inten    --    125.0449                 0.4758                 6.6175
  Atom  AN      X      Y      Z        X      Y      Z        X      Y      Z
     1   1    -0.00   0.00   1.00    -0.00  -0.00  -0.54     0.55  -0.43  -0.00
     2   8     0.00   0.00  -0.06    -0.00   0.00  -0.32    -0.09  -0.37  -0.00
     3   8    -0.00  -0.00  -0.04    -0.00  -0.00   0.33    -0.14   0.44   0.00
     4   7     0.00  -0.00   0.05     0.00   0.00   0.54     0.04   0.24   0.00
     5   8    -0.00   0.00  -0.00     0.00   0.00  -0.45     0.16  -0.25  -0.00
                      4                      5                      6
                     A'                     A'                     A'
 Frequencies --    448.0700               785.5089               966.4548
 Red. masses --     12.4160                13.0676                15.3939
 Frc consts  --      1.4687                 4.7506                 8.4716
 IR Inten    --    198.1912               170.6661                23.4773
  Atom  AN      X      Y      Z        X      Y      Z        X      Y      Z
     1   1     0.39   0.21  -0.00    -0.33   0.18  -0.00    -0.17  -0.04   0.00
     2   8     0.32   0.22  -0.00     0.42   0.08  -0.00    -0.52   0.03  -0.00
     3   8     0.18   0.43   0.00    -0.06  -0.26   0.00     0.75  -0.02  -0.00
     4   7    -0.35  -0.42   0.00    -0.14   0.62   0.00    -0.12   0.24   0.00
     5   8    -0.22  -0.29  -0.00    -0.22  -0.38  -0.00    -0.12  -0.22   0.00
                      7                      8                      9
                     A'                     A'                     A'
 Frequencies --   1370.4663              1634.0414              3778.7651
 Red. masses --      1.1381                12.5185                 1.0675
 Frc consts  --      1.2594                19.6938                 8.9813
 IR Inten    --    157.2785               123.0062                83.0609
  Atom  AN      X      Y      Z        X      Y      Z        X      Y      Z
     1   1     0.99  -0.05  -0.00    -0.41   0.01   0.00     0.10   0.99   0.00
     2   8    -0.03   0.05  -0.00    -0.00  -0.04   0.00    -0.01  -0.06  -0.00
     3   8    -0.02  -0.05   0.00     0.00   0.15  -0.00     0.00   0.00  -0.00
     4   7     0.03   0.01   0.00     0.68  -0.06  -0.00    -0.00  -0.00   0.00
     5   8    -0.04  -0.01  -0.00    -0.57  -0.06   0.00     0.00   0.00   0.00

 -------------------
 - Thermochemistry -
 -------------------
 Temperature   298.150 Kelvin.  Pressure   1.00000 Atm.
 Atom     1 has atomic number  1 and mass   1.00783
 Atom     2 has atomic number  8 and mass  15.99491
 Atom     3 has atomic number  8 and mass  15.99491
 Atom     4 has atomic number  7 and mass  14.00307
 Atom     5 has atomic number  8 and mass  15.99491
 Molecular mass:    62.99564 amu.
 Principal axes and moments of inertia in atomic units:
                           1         2         3
     Eigenvalues --    32.86815 361.31051 394.17866
           X            0.80926  -0.58745   0.00000
           Y            0.58745   0.80926   0.00000
           Z            0.00000  -0.00000   1.00000
 This molecule is an asymmetric top.
 Rotational symmetry number  1.
 Rotational temperatures (Kelvin)      2.63519     0.23972     0.21973
 Rotational constants (GHZ):          54.90851     4.99499     4.57849
    1 imaginary frequencies ignored.
 Zero-point vibrational energy      57300.3 (Joules/Mol)
                                   13.69510 (Kcal/Mol)
 Warning -- explicit consideration of   3 degrees of freedom as
           vibrations may cause significant error
 Vibrational temperatures:    360.06   498.25   644.67  1130.17  1390.51
          (Kelvin)           1971.80  2351.02  5436.80
 
 Zero-point correction=                           0.021825 (Hartree/Particle)
 Thermal correction to Energy=                    0.025910
 Thermal correction to Enthalpy=                  0.026854
 Thermal correction to Gibbs Free Energy=        -0.004253
 Sum of electronic and zero-point Energies=           -280.424848
 Sum of electronic and thermal Energies=              -280.420763
 Sum of electronic and thermal Enthalpies=            -280.419819
 Sum of electronic and thermal Free Energies=         -280.450926
 
                     E (Thermal)             CV                S
                      KCal/Mol        Cal/Mol-Kelvin    Cal/Mol-Kelvin
 Total                   16.259             11.926             65.471
 Electronic               0.000              0.000              0.000
 Translational            0.889              2.981             38.341
 Rotational               0.889              2.981             23.064
 Vibrational             14.481              5.964              4.067
 Vibration     1          0.663              1.762              1.729
 Vibration     2          0.724              1.583              1.183
 Vibration     3          0.807              1.365              0.802
                       Q            Log10(Q)             Ln(Q)
 Total Bot       0.904508D+02          1.956412          4.504806
 Total V=0       0.988534D+12         11.994991         27.619488
 Vib (Bot)       0.187920D-09         -9.726027        -22.395005
 Vib (Bot)    1  0.779796D+00         -0.108019         -0.248723
 Vib (Bot)    2  0.534047D+00         -0.272421         -0.627272
 Vib (Bot)    3  0.383322D+00         -0.416436         -0.958879
 Vib (V=0)       0.205377D+01          0.312552          0.719677
 Vib (V=0)    1  0.142633D+01          0.154219          0.355102
 Vib (V=0)    2  0.123158D+01          0.090462          0.208296
 Vib (V=0)    3  0.113003D+01          0.053089          0.122243
 Electronic      0.100000D+01          0.000000          0.000000
 Translational   0.196526D+08          7.293420         16.793719
 Rotational      0.244918D+05          4.389020         10.106092
 
                                                                title
                                                             IR Spectrum
 
     3                                                                        1       1                                              
     7                                                                        6       3             9     7          4   3  2        
     7                                                                        3       7             6     8          4   4  5        
     9                                                                        4       0             6     6          8   6  0        
 
     X                                                                        X       X             X     X          X   X  X        
     X                                                                        X       X             X     X          X               
     X                                                                        X       X                   X          X               
     X                                                                        X       X                   X          X               
     X                                                                        X       X                   X          X               
     X                                                                        X       X                   X          X               
     X                                                                        X       X                   X          X               
     X                                                                        X       X                   X          X               
                                                                              X       X                   X          X               
                                                                              X       X                   X          X               
                                                                              X       X                   X          X               
                                                                              X       X                   X          X               
                                                                                      X                   X          X               
                                                                                      X                   X          X               
                                                                                      X                   X          X               
                                                                                      X                   X          X               
                                                                                                          X          X               
                                                                                                                     X               
                                                                                                                     X               
                                                                                                                     X               
 
 ***** Axes restored to original set *****
 -------------------------------------------------------------------
 Center     Atomic                   Forces (Hartrees/Bohr)
 Number     Number              X              Y              Z
 -------------------------------------------------------------------
      1        1           0.000101471    0.000000000   -0.000044127
      2        8           0.000193400    0.000000000    0.000275662
      3        8           0.000409304    0.000000000    0.001773228
      4        7           0.008728626    0.000000000    0.000941832
      5        8          -0.009432801   -0.000000000   -0.002946595
 -------------------------------------------------------------------
 Cartesian Forces:  Max     0.009432801 RMS     0.003446482
 -----------------------------------------------------------------------------------------------
                       Internal Coordinate Forces (Hartree/Bohr or radian)
  Cent   Atom   N1       Length/X         N2         Alpha/Y        N3         Beta/Z          J
 -----------------------------------------------------------------------------------------------
      1  H 
      2  O        1   0.000044(     1)
      3  O        2  -0.000323(     2)      1  -0.000186(     5)
      4  N        3  -0.002056(     3)      2  -0.000338(     6)      1   0.000000(     8)     0
      5  O        4  -0.009869(     4)      3  -0.001144(     7)      2  -0.000000(     9)     0
 -----------------------------------------------------------------------------------------------
 Internal  Forces:  Max     0.009868946 RMS     0.003385998
 Force constants in Cartesian coordinates: 
                1             2             3             4             5 
      1  0.646783D-01
      2  0.000000D+00 -0.240278D-02
      3  0.528120D-02  0.000000D+00  0.512378D+00
      4 -0.358897D-01  0.000000D+00 -0.162575D-01  0.272624D+00
      5  0.000000D+00  0.311120D-02  0.000000D+00  0.000000D+00  0.206798D-02
      6  0.483492D-01  0.000000D+00 -0.508554D+00  0.332958D-01  0.000000D+00
      7 -0.182842D-01  0.000000D+00  0.125008D-01 -0.220040D+00  0.000000D+00
      8  0.000000D+00  0.989524D-03  0.000000D+00  0.000000D+00 -0.656890D-02
      9 -0.532113D-01  0.000000D+00 -0.475289D-03 -0.192448D-01  0.000000D+00
     10 -0.926210D-02  0.000000D+00 -0.482764D-02 -0.170487D-01  0.000000D+00
     11  0.000000D+00 -0.272461D-02  0.000000D+00  0.000000D+00 -0.492242D-02
     12  0.525470D-02  0.000000D+00 -0.475529D-02  0.113770D-01  0.000000D+00
     13 -0.124235D-02  0.000000D+00  0.330314D-02  0.353904D-03  0.000000D+00
     14  0.000000D+00  0.102667D-02  0.000000D+00  0.000000D+00  0.631214D-02
     15 -0.567388D-02  0.000000D+00  0.140624D-02 -0.917058D-02  0.000000D+00
                6             7             8             9            10 
      6  0.594819D+00
      7 -0.210835D-01  0.341188D+00
      8  0.000000D+00  0.000000D+00  0.483193D-02
      9 -0.787052D-01  0.350885D-01  0.000000D+00  0.179933D+00
     10 -0.524836D-01 -0.782270D-01  0.000000D+00  0.172853D+00  0.788285D+00
     11  0.000000D+00  0.000000D+00  0.806917D-02  0.000000D+00  0.000000D+00
     12  0.167644D-01  0.624467D-01  0.000000D+00 -0.813578D-01 -0.260354D-01
     13 -0.807802D-02 -0.246370D-01  0.000000D+00 -0.135485D+00 -0.683748D+00
     14  0.000000D+00  0.000000D+00 -0.732172D-02  0.000000D+00  0.000000D+00
     15 -0.243245D-01 -0.889524D-01  0.000000D+00 -0.193949D-01 -0.895063D-01
               11            12            13            14            15 
     11  0.132498D-01
     12  0.000000D+00  0.187123D+00
     13  0.000000D+00 -0.530430D-01  0.709273D+00
     14 -0.136719D-01  0.000000D+00  0.000000D+00  0.136549D-01
     15  0.000000D+00 -0.117774D+00  0.193303D+00  0.000000D+00  0.160087D+00
 Force constants in internal coordinates: 
                1             2             3             4             5 
      1  0.512378D+00
      2 -0.103745D-01  0.280975D+00
      3  0.346276D-02  0.255442D-02  0.115825D+00
      4 -0.354877D-02  0.586714D-02  0.150019D+00  0.768389D+00
      5  0.977190D-02  0.652317D-01  0.234198D-02  0.478167D-02  0.216943D+00
      6  0.463910D-02  0.592766D-01  0.409972D-01  0.216710D-01  0.315308D-01
      7 -0.120756D-02  0.374152D-01  0.309106D-01  0.839449D-01  0.211420D-01
      8  0.000000D+00  0.000000D+00  0.000000D+00  0.000000D+00  0.000000D+00
      9  0.000000D+00  0.000000D+00  0.000000D+00  0.000000D+00  0.000000D+00
                6             7             8             9 
      6  0.283309D+00
      7  0.948669D-01  0.478058D+00
      8  0.000000D+00  0.000000D+00 -0.781119D-02
      9  0.000000D+00  0.000000D+00 -0.391857D-02  0.411379D-01
 Leave Link  716 at Mon Feb 21 20:28:17 2022, MaxMem= 16106127360 cpu:               1.0 elap:               0.1
 (Enter /sw/contrib/gaussian/g16/B01/g16/l103.exe)

 GradGradGradGradGradGradGradGradGradGradGradGradGradGradGradGradGradGrad
 Berny optimization.
 Search for a local minimum.
 Step number   1 out of a maximum of    2
 All quantities printed in internal units (Hartrees-Bohrs-Radians)
 Second derivative matrix not updated -- analytic derivatives used.
 The second derivative matrix:
                          r1        r2        r3        r4        a1
           r1           0.51238
           r2          -0.01037   0.28098
           r3           0.00346   0.00255   0.11582
           r4          -0.00355   0.00587   0.15002   0.76839
           a1           0.00977   0.06523   0.00234   0.00478   0.21694
           a2           0.00464   0.05928   0.04100   0.02167   0.03153
           a3          -0.00121   0.03742   0.03091   0.08394   0.02114
           d1           0.00000  -0.00000  -0.00000  -0.00000  -0.00000
           d2          -0.00000   0.00000   0.00000   0.00000   0.00000
                          a2        a3        d1        d2
           a2           0.28331
           a3           0.09487   0.47806
           d1          -0.00000  -0.00000  -0.00781
           d2          -0.00000  -0.00000  -0.00392   0.04114
 ITU=  0
     Eigenvalues ---   -0.00812   0.04145   0.07640   0.17545   0.22546
     Eigenvalues ---    0.32462   0.51010   0.51323   0.83062
 Eigenvalue     1 is  -8.12D-03 should be greater than     0.000000 Eigenvector:
                          d1        d2        a3        a2        r3
   1                    0.99685   0.07930   0.00000   0.00000  -0.00000
                          r4        r2        a1        r1
   1                    0.00000   0.00000  -0.00000  -0.00000
 Angle between quadratic step and forces=   8.55 degrees.
 Linear search not attempted -- first point.
 Variable       Old X    -DE/DX   Delta X   Delta X   Delta X     New X
                                 (Linear)    (Quad)   (Total)
    r1        1.83110   0.00004   0.00000  -0.00000  -0.00000   1.83110
    r2        2.74940  -0.00032   0.00000  -0.00083  -0.00083   2.74856
    r3        2.75670  -0.00206   0.00000  -0.00156  -0.00156   2.75515
    r4        2.22533  -0.00987   0.00000  -0.01253  -0.01253   2.21280
    a1        1.70335  -0.00019   0.00000  -0.00034  -0.00034   1.70301
    a2        1.78543  -0.00034   0.00000   0.00022   0.00022   1.78565
    a3        1.90362  -0.00114   0.00000  -0.00005  -0.00005   1.90357
    d1        3.14159   0.00000   0.00000   0.00000   0.00000   3.14159
    d2        3.14159  -0.00000   0.00000  -0.00000   0.00000   3.14159
         Item               Value     Threshold  Converged?
 Maximum Force            0.009869     0.000450     NO 
 RMS     Force            0.003386     0.000300     NO 
 Maximum Displacement     0.012532     0.001800     NO 
 RMS     Displacement     0.004221     0.001200     NO 
 Predicted change in Energy=-6.359660D-05
                       ----------------------------
                       ! Non-Optimized Parameters !
                       ! (Angstroms and Degrees)  !
 ----------------------                            ----------------------
 !      Name          Value   Derivative information (Atomic Units)     !
 ------------------------------------------------------------------------
 !       r1          0.969    -DE/DX =    0.0                           !
 !       r2          1.4545   -DE/DX =   -0.0003                        !
 !       r3          1.458    -DE/DX =   -0.0021                        !
 !       r4          1.171    -DE/DX =   -0.0099                        !
 !       a1         97.5755   -DE/DX =   -0.0002                        !
 !       a2        102.3102   -DE/DX =   -0.0003                        !
 !       a3        109.0664   -DE/DX =   -0.0011                        !
 !       d1        180.0      -DE/DX =    0.0                           !
 !       d2        180.0      -DE/DX =    0.0                           !
 ------------------------------------------------------------------------
 GradGradGradGradGradGradGradGradGradGradGradGradGradGradGradGradGradGrad

 Leave Link  103 at Mon Feb 21 20:28:17 2022, MaxMem= 16106127360 cpu:               1.0 elap:               0.1
 (Enter /sw/contrib/gaussian/g16/B01/g16/l9999.exe)

 ----------------------------------------------------------------------

 Electric dipole moment (input orientation):
 (Debye = 10**-18 statcoulomb cm , SI units = C m)
                  (au)            (Debye)         (10**-30 SI)
   Tot        0.586115D+00      0.148975D+01      0.496929D+01
   x         -0.156724D+00     -0.398352D+00     -0.132876D+01
   y          0.000000D+00      0.000000D+00      0.000000D+00
   z         -0.564772D+00     -0.143551D+01     -0.478834D+01

 Dipole polarizability, Alpha (input orientation).
 (esu units = cm**3 , SI units = C**2 m**2 J**-1)
 Alpha(0;0):
               (au)            (10**-24 esu)      (10**-40 SI)
   iso        0.274529D+02      0.406811D+01      0.452638D+01
   aniso      0.220771D+02      0.327150D+01      0.364003D+01
   xx         0.322227D+02      0.477492D+01      0.531281D+01
   yx         0.000000D+00      0.000000D+00      0.000000D+00
   yy         0.179405D+02      0.265851D+01      0.295800D+01
   zx         0.972637D+01      0.144130D+01      0.160366D+01
   zy         0.000000D+00      0.000000D+00      0.000000D+00
   zz         0.321956D+02      0.477089D+01      0.530833D+01

 ----------------------------------------------------------------------

 Dipole orientation:
     1          0.00000000          0.00000000         -0.00000000
     8         -0.48962593          0.00000000         -1.76442282
     8          2.03925054          0.00000000         -2.84330132
     7          1.52237859          0.00000000         -5.55111431
     8          3.45196989          0.00000000         -6.65961527

 Electric dipole moment (dipole orientation):
 (Debye = 10**-18 statcoulomb cm , SI units = C m)
                  (au)            (Debye)         (10**-30 SI)
   Tot        0.586115D+00      0.148975D+01      0.496929D+01
   x          0.000000D+00      0.000000D+00      0.000000D+00
   y          0.000000D+00      0.000000D+00      0.000000D+00
   z          0.586115D+00      0.148975D+01      0.496929D+01

 Dipole polarizability, Alpha (dipole orientation).
 (esu units = cm**3 , SI units = C**2 m**2 J**-1)
 Alpha(0;0):
               (au)            (10**-24 esu)      (10**-40 SI)
   iso        0.274529D+02      0.406811D+01      0.452638D+01
   aniso      0.220771D+02      0.327150D+01      0.364003D+01
   xx         0.272086D+02      0.403190D+01      0.448610D+01
   yx         0.000000D+00      0.000000D+00      0.000000D+00
   yy         0.179405D+02      0.265851D+01      0.295800D+01
   zx        -0.834250D+01     -0.123623D+01     -0.137549D+01
   zy         0.000000D+00      0.000000D+00      0.000000D+00
   zz         0.372097D+02      0.551390D+01      0.613505D+01

 ----------------------------------------------------------------------
 1\1\GINC-N2109\Freq\RMP2-FC\Aug-CC-pVTZ\H1N1O3\CGAVINH\21-Feb-2022\1\\
 #p freq mp2/aug-cc-pvtz density=current\\title\\0,1\H\O,1,r1\O,2,r2,1,
 a1\N,3,r3,2,a2,1,d1,0\O,4,r4,3,a3,2,d2,0\\r1=0.96897556\r2=1.45491931\
 r3=1.45878406\r4=1.17759432\a1=97.59494903\a2=102.29752444\a3=109.0695
 5123\d1=180.\d2=180.\\Version=ES64L-G16RevB.01\State=1-A'\HF=-279.5004
 462\MP2=-280.4466726\RMSD=3.978e-09\RMSF=3.446e-03\ZeroPoint=0.0218245
 \Thermal=0.0259099\Dipole=-0.1567239,0.,-0.5647724\DipoleDeriv=0.26639
 05,0.,0.0484001,0.,0.3557791,0.,0.0825907,0.,0.2763821,-0.3293908,0.,-
 0.2083207,0.,-0.3135671,0.,-0.1118206,0.,-0.2220836,-0.0417799,0.,0.14
 93205,0.,-0.084119,0.,-0.7507598,0.,-1.3484036,0.875473,0.,0.892447,0.
 ,0.0656368,0.,0.9162505,0.,1.6603564,-0.7706929,0.,-0.8818469,0.,-0.02
 37299,0.,-0.1362607,0.,-0.3662512\Polar=32.222729,0.,17.9405447,9.7263
 716,0.,32.1955693\Quadrupole=-1.5143495,-0.7244714,2.2388209,0.,2.0847
 765,0.\PG=CS [SG(H1N1O3)]\NImag=1\\0.06467830,0.,-0.00240278,0.0052812
 0,0.,0.51237844,-0.03588968,0.,-0.01625747,0.27262430,0.,0.00311120,0.
 ,0.,0.00206798,0.04834923,0.,-0.50855410,0.03329584,0.,0.59481941,-0.0
 1828417,0.,0.01250077,-0.22003981,0.,-0.02108347,0.34118798,0.,0.00098
 952,0.,0.,-0.00656890,0.,0.,0.00483193,-0.05321126,0.,-0.00047529,-0.0
 1924483,0.,-0.07870520,0.03508848,0.,0.17993320,-0.00926210,0.,-0.0048
 2764,-0.01704872,0.,-0.05248358,-0.07822698,0.,0.17285296,0.78828540,0
 .,-0.00272461,0.,0.,-0.00492242,0.,0.,0.00806917,0.,0.,0.01324981,0.00
 525470,0.,-0.00475529,0.01137704,0.,0.01676442,0.06244666,0.,-0.081357
 79,-0.02603543,0.,0.18712290,-0.00124235,0.,0.00330314,0.00035390,0.,-
 0.00807802,-0.02463702,0.,-0.13548535,-0.68374760,0.,-0.05304297,0.709
 27307,0.,0.00102667,0.,0.,0.00631214,0.,0.,-0.00732172,0.,0.,-0.013671
 95,0.,0.,0.01365487,-0.00567388,0.,0.00140624,-0.00917058,0.,-0.024324
 53,-0.08895243,0.,-0.01939492,-0.08950631,0.,-0.11777425,0.19330319,0.
 ,0.16008746\\-0.00010147,0.,0.00004413,-0.00019340,0.,-0.00027566,-0.0
 0040930,0.,-0.00177323,-0.00872863,0.,-0.00094183,0.00943280,0.,0.0029
 4659\\\@


 IMAGINATION WILL OFTEN CARRY US TO WORLDS THAT NEVER WERE.
 BUT WITHOUT IT, WE GO NOWHERE. -- CARL SAGAN (COSMOS)
 Job cpu time:       0 days  2 hours  1 minutes 36.1 seconds.
 Elapsed time:       0 days  0 hours  4 minutes 23.7 seconds.
 File lengths (MBytes):  RWF=   7239 Int=      0 D2E=      0 Chk=      8 Scr=      1
 Normal termination of Gaussian 16 at Mon Feb 21 20:28:18 2022.
