 Entering Gaussian System, Link 0=g16
 Input=hoono_a3_108p1053.gjf
 Output=hoono_a3_108p1053.log
 Initial command:
 /sw/contrib/gaussian/g16/B01/g16/l1.exe "/scr/Gau-31996.inp" -scrdir="/scr/"
 Entering Link 1 = /sw/contrib/gaussian/g16/B01/g16/l1.exe PID=     31997.
  
 Copyright (c) 1988-2017, Gaussian, Inc.  All Rights Reserved.
  
 This is part of the Gaussian(R) 16 program.  It is based on
 the Gaussian(R) 09 system (copyright 2009, Gaussian, Inc.),
 the Gaussian(R) 03 system (copyright 2003, Gaussian, Inc.),
 the Gaussian(R) 98 system (copyright 1998, Gaussian, Inc.),
 the Gaussian(R) 94 system (copyright 1995, Gaussian, Inc.),
 the Gaussian 92(TM) system (copyright 1992, Gaussian, Inc.),
 the Gaussian 90(TM) system (copyright 1990, Gaussian, Inc.),
 the Gaussian 88(TM) system (copyright 1988, Gaussian, Inc.),
 the Gaussian 86(TM) system (copyright 1986, Carnegie Mellon
 University), and the Gaussian 82(TM) system (copyright 1983,
 Carnegie Mellon University). Gaussian is a federally registered
 trademark of Gaussian, Inc.
  
 This software contains proprietary and confidential information,
 including trade secrets, belonging to Gaussian, Inc.
  
 This software is provided under written license and may be
 used, copied, transmitted, or stored only in accord with that
 written license.
  
 The following legend is applicable only to US Government
 contracts under FAR:
  
                    RESTRICTED RIGHTS LEGEND
  
 Use, reproduction and disclosure by the US Government is
 subject to restrictions as set forth in subparagraphs (a)
 and (c) of the Commercial Computer Software - Restricted
 Rights clause in FAR 52.227-19.
  
 Gaussian, Inc.
 340 Quinnipiac St., Bldg. 40, Wallingford CT 06492
  
  
 ---------------------------------------------------------------
 Warning -- This program may not be used in any manner that
 competes with the business of Gaussian, Inc. or will provide
 assistance to any competitor of Gaussian, Inc.  The licensee
 of this program is prohibited from giving any competitor of
 Gaussian, Inc. access to this program.  By using this program,
 the user acknowledges that Gaussian, Inc. is engaged in the
 business of creating and licensing software in the field of
 computational chemistry and represents and warrants to the
 licensee that it is not a competitor of Gaussian, Inc. and that
 it will not use this program in any manner prohibited above.
 ---------------------------------------------------------------
  

 Cite this work as:
 Gaussian 16, Revision B.01,
 M. J. Frisch, G. W. Trucks, H. B. Schlegel, G. E. Scuseria, 
 M. A. Robb, J. R. Cheeseman, G. Scalmani, V. Barone, 
 G. A. Petersson, H. Nakatsuji, X. Li, M. Caricato, A. V. Marenich, 
 J. Bloino, B. G. Janesko, R. Gomperts, B. Mennucci, H. P. Hratchian, 
 J. V. Ortiz, A. F. Izmaylov, J. L. Sonnenberg, D. Williams-Young, 
 F. Ding, F. Lipparini, F. Egidi, J. Goings, B. Peng, A. Petrone, 
 T. Henderson, D. Ranasinghe, V. G. Zakrzewski, J. Gao, N. Rega, 
 G. Zheng, W. Liang, M. Hada, M. Ehara, K. Toyota, R. Fukuda, 
 J. Hasegawa, M. Ishida, T. Nakajima, Y. Honda, O. Kitao, H. Nakai, 
 T. Vreven, K. Throssell, J. A. Montgomery, Jr., J. E. Peralta, 
 F. Ogliaro, M. J. Bearpark, J. J. Heyd, E. N. Brothers, K. N. Kudin, 
 V. N. Staroverov, T. A. Keith, R. Kobayashi, J. Normand, 
 K. Raghavachari, A. P. Rendell, J. C. Burant, S. S. Iyengar, 
 J. Tomasi, M. Cossi, J. M. Millam, M. Klene, C. Adamo, R. Cammi, 
 J. W. Ochterski, R. L. Martin, K. Morokuma, O. Farkas, 
 J. B. Foresman, and D. J. Fox, Gaussian, Inc., Wallingford CT, 2016.
 
 ******************************************
 Gaussian 16:  ES64L-G16RevB.01 20-Dec-2017
                21-Feb-2022 
 ******************************************
 %nproc=28
 Will use up to   28 processors via shared memory.
 %mem=120GB
 %chk=hoono_a3_108p1053.chk
 ---------------------------------------
 #p freq mp2/aug-cc-pvtz density=current
 ---------------------------------------
 1/10=4,30=1,38=1/1,3;
 2/12=2,17=6,18=5,40=1/2;
 3/5=16,6=1,7=10,11=9,25=1,30=1,71=2,140=1/1,2,3;
 4//1;
 5/5=2,38=5,98=1/2;
 8/6=3,8=1,10=1,19=11,30=-1/1;
 9/15=3,16=-3/6;
 11/6=1,8=1,15=11,17=12,24=-1,27=1,28=-2,29=300,32=6,42=3/1,2,10;
 10/6=2,21=1/2;
 8/6=4,8=1,10=1,19=11,30=-1/11,4;
 10/5=1,20=4/2;
 11/12=2,14=11,16=1,17=2,28=-2,42=3,76=2/2,10,12;
 6/7=2,8=2,9=2,10=2,22=-1/1;
 7/8=1,10=1,12=2,25=1,44=2/1,2,3,16;
 1/10=4,30=1/3;
 99//99;
 Leave Link    1 at Mon Feb 21 20:54:25 2022, MaxMem= 16106127360 cpu:               2.0 elap:               0.1
 (Enter /sw/contrib/gaussian/g16/B01/g16/l101.exe)
 -----
 title
 -----
 Symbolic Z-matrix:
 Charge =  0 Multiplicity = 1
 H
 O                    1    r1
 O                    2    r2       1    a1
 N                    3    r3       2    a2       1    d1       0
 O                    4    r4       3    a3       2    d2       0
       Variables:
  r1                    0.96898                  
  r2                    1.45492                  
  r3                    1.45878                  
  r4                    1.17073                  
  a1                   97.59495                  
  a2                  102.29752                  
  a3                  108.10536                  
  d1                  180.                       
  d2                  180.                       
 
 ITRead=  0  0  0  0  0
 MicOpt= -1 -1 -1 -1 -1
 NAtoms=      5 NQM=        5 NQMF=       0 NMMI=      0 NMMIF=      0
                NMic=       0 NMicF=      0.
                    Isotopes and Nuclear Properties:
 (Nuclear quadrupole moments (NQMom) in fm**2, nuclear magnetic moments (NMagM)
  in nuclear magnetons)

  Atom         1           2           3           4           5
 IAtWgt=           1          16          16          14          16
 AtmWgt=   1.0078250  15.9949146  15.9949146  14.0030740  15.9949146
 NucSpn=           1           0           0           2           0
 AtZEff=  -0.0000000  -0.0000000  -0.0000000  -0.0000000  -0.0000000
 NQMom=    0.0000000   0.0000000   0.0000000   2.0440000   0.0000000
 NMagM=    2.7928460   0.0000000   0.0000000   0.4037610   0.0000000
 AtZNuc=   1.0000000   8.0000000   8.0000000   7.0000000   8.0000000
 Leave Link  101 at Mon Feb 21 20:54:25 2022, MaxMem= 16106127360 cpu:               2.7 elap:               0.1
 (Enter /sw/contrib/gaussian/g16/B01/g16/l103.exe)

 GradGradGradGradGradGradGradGradGradGradGradGradGradGradGradGradGradGrad
 Berny optimization.
 Initialization pass.
                       ----------------------------
                       !    Initial Parameters    !
                       ! (Angstroms and Degrees)  !
 ----------------------                            ----------------------
 !      Name          Value   Derivative information (Atomic Units)     !
 ------------------------------------------------------------------------
 !       r1          0.969    calculate D2E/DX2 analytically            !
 !       r2          1.4549   calculate D2E/DX2 analytically            !
 !       r3          1.4588   calculate D2E/DX2 analytically            !
 !       r4          1.1707   calculate D2E/DX2 analytically            !
 !       a1         97.5949   calculate D2E/DX2 analytically            !
 !       a2        102.2975   calculate D2E/DX2 analytically            !
 !       a3        108.1054   calculate D2E/DX2 analytically            !
 !       d1        180.0      calculate D2E/DX2 analytically            !
 !       d2        180.0      calculate D2E/DX2 analytically            !
 ------------------------------------------------------------------------
 Trust Radius=3.00D-01 FncErr=1.00D-07 GrdErr=1.00D-07 EigMax=2.50D+02 EigMin=1.00D-04
 Number of steps in this run=      2 maximum allowed number of steps=      2.
 GradGradGradGradGradGradGradGradGradGradGradGradGradGradGradGradGradGrad

 Leave Link  103 at Mon Feb 21 20:54:25 2022, MaxMem= 16106127360 cpu:               0.5 elap:               0.0
 (Enter /sw/contrib/gaussian/g16/B01/g16/l202.exe)
                          Input orientation:                          
 ---------------------------------------------------------------------
 Center     Atomic      Atomic             Coordinates (Angstroms)
 Number     Number       Type             X           Y           Z
 ---------------------------------------------------------------------
      1          1           0        0.000000    0.000000    0.000000
      2          8           0        0.000000    0.000000    0.968976
      3          8           0        1.442156    0.000000    1.161271
      4          7           0        1.561752    0.000000    2.615144
      5          8           0        2.700595    0.000000    2.886513
 ---------------------------------------------------------------------
                    Distance matrix (angstroms):
                    1          2          3          4          5
     1  H    0.000000
     2  O    0.968976   0.000000
     3  O    1.851584   1.454919   0.000000
     4  N    3.045989   2.269127   1.458784   0.000000
     5  O    3.952869   3.312124   2.135447   1.170729   0.000000
 Stoichiometry    HNO3
 Framework group  CS[SG(HNO3)]
 Deg. of freedom     7
 Full point group                 CS      NOp   2
 Largest Abelian subgroup         CS      NOp   2
 Largest concise Abelian subgroup C1      NOp   1
                         Standard orientation:                         
 ---------------------------------------------------------------------
 Center     Atomic      Atomic             Coordinates (Angstroms)
 Number     Number       Type             X           Y           Z
 ---------------------------------------------------------------------
      1          1           0        1.548037    1.683981    0.000000
      2          8           0        1.454010    0.719578    0.000000
      3          8           0        0.000000    0.668135    0.000000
      4          7           0       -0.260113   -0.767271   -0.000000
      5          8           0       -1.419915   -0.926849   -0.000000
 ---------------------------------------------------------------------
 Rotational constants (GHZ):          54.6894858           5.0352683           4.6107554
 Leave Link  202 at Mon Feb 21 20:54:25 2022, MaxMem= 16106127360 cpu:               0.3 elap:               0.0
 (Enter /sw/contrib/gaussian/g16/B01/g16/l301.exe)
 Standard basis: Aug-CC-pVTZ (5D, 7F)
 Ernie: Thresh=  0.10000D-02 Tol=  0.10000D-05 Strict=F.
 Ernie:  12 primitive shells out of 131 were deleted.
 There are   166 symmetry adapted cartesian basis functions of A'  symmetry.
 There are    79 symmetry adapted cartesian basis functions of A"  symmetry.
 There are   136 symmetry adapted basis functions of A'  symmetry.
 There are    71 symmetry adapted basis functions of A"  symmetry.
   207 basis functions,   315 primitive gaussians,   245 cartesian basis functions
    16 alpha electrons       16 beta electrons
       nuclear repulsion energy       116.9912107648 Hartrees.
 IExCor=    0 DFT=F Ex=HF Corr=None ExCW=0 ScaHFX=  1.000000
 ScaDFX=  1.000000  1.000000  1.000000  1.000000 ScalE2=  1.000000  1.000000
 IRadAn=      5 IRanWt=     -1 IRanGd=            0 ICorTp=0 IEmpDi=  4
 NAtoms=    5 NActive=    5 NUniq=    5 SFac= 1.00D+00 NAtFMM=   60 NAOKFM=F Big=F
 Integral buffers will be    131072 words long.
 Raffenetti 1 integral format.
 Two-electron integral symmetry is turned on.
 Leave Link  301 at Mon Feb 21 20:54:25 2022, MaxMem= 16106127360 cpu:               1.9 elap:               0.1
 (Enter /sw/contrib/gaussian/g16/B01/g16/l302.exe)
 NPDir=0 NMtPBC=     1 NCelOv=     1 NCel=       1 NClECP=     1 NCelD=      1
         NCelK=      1 NCelE2=     1 NClLst=     1 CellRange=     0.0.
 One-electron integrals computed using PRISM.
 One-electron integral symmetry used in STVInt
 NBasis=   207 RedAO= T EigKep=  1.82D-04  NBF=   136    71
 NBsUse=   207 1.00D-06 EigRej= -1.00D+00 NBFU=   136    71
 Leave Link  302 at Mon Feb 21 20:54:25 2022, MaxMem= 16106127360 cpu:               4.5 elap:               0.2
 (Enter /sw/contrib/gaussian/g16/B01/g16/l303.exe)
 DipDrv:  MaxL=1.
 Leave Link  303 at Mon Feb 21 20:54:25 2022, MaxMem= 16106127360 cpu:               0.9 elap:               0.1
 (Enter /sw/contrib/gaussian/g16/B01/g16/l401.exe)
 ExpMin= 2.53D-02 ExpMax= 1.53D+04 ExpMxC= 5.22D+02 IAcc=3 IRadAn=         5 AccDes= 0.00D+00
 Harris functional with IExCor=  205 and IRadAn=       5 diagonalized for initial guess.
 HarFok:  IExCor=  205 AccDes= 0.00D+00 IRadAn=         5 IDoV= 1 UseB2=F ITyADJ=14
 ICtDFT=  3500011 ScaDFX=  1.000000  1.000000  1.000000  1.000000
 FoFCou: FMM=F IPFlag=           0 FMFlag=      100000 FMFlg1=           0
         NFxFlg=           0 DoJE=T BraDBF=F KetDBF=T FulRan=T
         wScrn=  0.000000 ICntrl=       500 IOpCl=  0 I1Cent=   200000004 NGrid=           0
         NMat0=    1 NMatS0=      1 NMatT0=    0 NMatD0=    1 NMtDS0=    0 NMtDT0=    0
 Petite list used in FoFCou.
 Harris En= -279.628659784604    
 JPrj=0 DoOrth=F DoCkMO=F.
 Initial guess orbital symmetries:
       Occupied  (A') (A') (A') (A') (A') (A') (A') (A') (A') (A')
                 (A") (A') (A') (A") (A") (A')
       Virtual   (A") (A') (A') (A') (A') (A') (A") (A') (A') (A')
                 (A") (A') (A") (A') (A') (A") (A') (A") (A') (A')
                 (A') (A') (A') (A') (A') (A") (A') (A") (A') (A')
                 (A") (A') (A") (A') (A') (A") (A') (A") (A') (A')
                 (A") (A') (A") (A') (A") (A') (A') (A') (A") (A")
                 (A') (A') (A') (A') (A") (A') (A") (A') (A") (A')
                 (A') (A') (A") (A') (A') (A") (A') (A") (A') (A')
                 (A") (A') (A') (A") (A") (A') (A') (A") (A') (A')
                 (A') (A") (A') (A") (A') (A") (A') (A") (A') (A')
                 (A') (A") (A') (A") (A') (A") (A") (A') (A') (A')
                 (A") (A') (A") (A') (A') (A') (A") (A') (A") (A')
                 (A") (A') (A') (A') (A") (A') (A') (A') (A") (A')
                 (A") (A') (A') (A") (A") (A') (A') (A") (A") (A')
                 (A') (A') (A') (A") (A") (A') (A") (A') (A') (A')
                 (A') (A") (A") (A') (A') (A") (A') (A') (A') (A')
                 (A") (A') (A') (A") (A') (A") (A') (A") (A') (A")
                 (A') (A") (A') (A") (A') (A") (A") (A") (A') (A')
                 (A") (A') (A") (A') (A") (A') (A") (A") (A') (A')
                 (A') (A') (A') (A') (A') (A') (A') (A') (A') (A')
                 (A')
 The electronic state of the initial guess is 1-A'.
 Leave Link  401 at Mon Feb 21 20:54:26 2022, MaxMem= 16106127360 cpu:               6.9 elap:               0.3
 (Enter /sw/contrib/gaussian/g16/B01/g16/l502.exe)
 Keep R1 ints in memory in symmetry-blocked form, NReq=348887737.
 FoFCou: FMM=F IPFlag=           0 FMFlag=           0 FMFlg1=           0
         NFxFlg=           0 DoJE=F BraDBF=F KetDBF=F FulRan=T
         wScrn=  0.000000 ICntrl=       600 IOpCl=  0 I1Cent=           0 NGrid=           0
         NMat0=    1 NMatS0=  21528 NMatT0=    0 NMatD0=    1 NMtDS0=    0 NMtDT0=    0
 Petite list used in FoFCou.
 Closed shell SCF:
 Using DIIS extrapolation, IDIIS=  1040.
 NGot= 16106127360 LenX= 15988850015 LenY= 15988789549
 Requested convergence on RMS density matrix=1.00D-08 within 128 cycles.
 Requested convergence on MAX density matrix=1.00D-06.
 Requested convergence on             energy=1.00D-06.
 No special actions if energy rises.

 Cycle   1  Pass 1  IDiag  1:
 E= -279.370119102014    
 DIIS: error= 2.54D-02 at cycle   1 NSaved=   1.
 NSaved= 1 IEnMin= 1 EnMin= -279.370119102014     IErMin= 1 ErrMin= 2.54D-02
 ErrMax= 2.54D-02  0.00D+00 EMaxC= 1.00D-01 BMatC= 4.39D-01 BMatP= 4.39D-01
 IDIUse=3 WtCom= 7.46D-01 WtEn= 2.54D-01
 Coeff-Com:  0.100D+01
 Coeff-En:   0.100D+01
 Coeff:      0.100D+01
 Gap=     0.512 Goal=   None    Shift=    0.000
 GapD=    0.512 DampG=2.000 DampE=0.500 DampFc=1.0000 IDamp=-1.
 RMSDP=1.63D-03 MaxDP=1.00D-01              OVMax= 1.14D-01

 Cycle   2  Pass 1  IDiag  1:
 E= -279.452296503607     Delta-E=       -0.082177401592 Rises=F Damp=F
 DIIS: error= 1.80D-02 at cycle   2 NSaved=   2.
 NSaved= 2 IEnMin= 2 EnMin= -279.452296503607     IErMin= 2 ErrMin= 1.80D-02
 ErrMax= 1.80D-02  0.00D+00 EMaxC= 1.00D-01 BMatC= 7.20D-02 BMatP= 4.39D-01
 IDIUse=3 WtCom= 8.20D-01 WtEn= 1.80D-01
 Coeff-Com:  0.195D+00 0.805D+00
 Coeff-En:   0.000D+00 0.100D+01
 Coeff:      0.160D+00 0.840D+00
 Gap=     0.532 Goal=   None    Shift=    0.000
 RMSDP=9.00D-04 MaxDP=3.75D-02 DE=-8.22D-02 OVMax= 6.96D-02

 Cycle   3  Pass 1  IDiag  1:
 E= -279.481618866924     Delta-E=       -0.029322363317 Rises=F Damp=F
 DIIS: error= 1.05D-02 at cycle   3 NSaved=   3.
 NSaved= 3 IEnMin= 3 EnMin= -279.481618866924     IErMin= 3 ErrMin= 1.05D-02
 ErrMax= 1.05D-02  0.00D+00 EMaxC= 1.00D-01 BMatC= 2.86D-02 BMatP= 7.20D-02
 IDIUse=3 WtCom= 8.95D-01 WtEn= 1.05D-01
 Coeff-Com: -0.330D-01 0.377D+00 0.656D+00
 Coeff-En:   0.000D+00 0.238D+00 0.762D+00
 Coeff:     -0.295D-01 0.363D+00 0.667D+00
 Gap=     0.511 Goal=   None    Shift=    0.000
 RMSDP=3.76D-04 MaxDP=1.56D-02 DE=-2.93D-02 OVMax= 3.81D-02

 Cycle   4  Pass 1  IDiag  1:
 E= -279.500600000036     Delta-E=       -0.018981133111 Rises=F Damp=F
 DIIS: error= 1.28D-03 at cycle   4 NSaved=   4.
 NSaved= 4 IEnMin= 4 EnMin= -279.500600000036     IErMin= 4 ErrMin= 1.28D-03
 ErrMax= 1.28D-03  0.00D+00 EMaxC= 1.00D-01 BMatC= 4.97D-04 BMatP= 2.86D-02
 IDIUse=3 WtCom= 9.87D-01 WtEn= 1.28D-02
 Coeff-Com: -0.117D-01 0.573D-01 0.159D+00 0.795D+00
 Coeff-En:   0.000D+00 0.000D+00 0.000D+00 0.100D+01
 Coeff:     -0.115D-01 0.565D-01 0.157D+00 0.798D+00
 Gap=     0.503 Goal=   None    Shift=    0.000
 RMSDP=9.00D-05 MaxDP=2.76D-03 DE=-1.90D-02 OVMax= 1.12D-02

 Cycle   5  Pass 1  IDiag  1:
 E= -279.501277887701     Delta-E=       -0.000677887665 Rises=F Damp=F
 DIIS: error= 7.33D-04 at cycle   5 NSaved=   5.
 NSaved= 5 IEnMin= 5 EnMin= -279.501277887701     IErMin= 5 ErrMin= 7.33D-04
 ErrMax= 7.33D-04  0.00D+00 EMaxC= 1.00D-01 BMatC= 8.70D-05 BMatP= 4.97D-04
 IDIUse=3 WtCom= 9.93D-01 WtEn= 7.33D-03
 Coeff-Com:  0.616D-02-0.726D-01-0.119D+00 0.178D-01 0.117D+01
 Coeff-En:   0.000D+00 0.000D+00 0.000D+00 0.000D+00 0.100D+01
 Coeff:      0.612D-02-0.720D-01-0.118D+00 0.176D-01 0.117D+01
 Gap=     0.503 Goal=   None    Shift=    0.000
 RMSDP=7.65D-05 MaxDP=2.12D-03 DE=-6.78D-04 OVMax= 1.12D-02

 Cycle   6  Pass 1  IDiag  1:
 E= -279.501593903774     Delta-E=       -0.000316016073 Rises=F Damp=F
 DIIS: error= 2.79D-04 at cycle   6 NSaved=   6.
 NSaved= 6 IEnMin= 6 EnMin= -279.501593903774     IErMin= 6 ErrMin= 2.79D-04
 ErrMax= 2.79D-04  0.00D+00 EMaxC= 1.00D-01 BMatC= 1.67D-05 BMatP= 8.70D-05
 IDIUse=3 WtCom= 9.97D-01 WtEn= 2.79D-03
 Coeff-Com:  0.566D-03 0.194D-02 0.511D-02-0.129D+00-0.235D+00 0.136D+01
 Coeff-En:   0.000D+00 0.000D+00 0.000D+00 0.000D+00 0.000D+00 0.100D+01
 Coeff:      0.564D-03 0.194D-02 0.510D-02-0.129D+00-0.234D+00 0.136D+01
 Gap=     0.503 Goal=   None    Shift=    0.000
 RMSDP=4.52D-05 MaxDP=1.24D-03 DE=-3.16D-04 OVMax= 5.56D-03

 Cycle   7  Pass 1  IDiag  1:
 E= -279.501666379106     Delta-E=       -0.000072475332 Rises=F Damp=F
 DIIS: error= 1.22D-04 at cycle   7 NSaved=   7.
 NSaved= 7 IEnMin= 7 EnMin= -279.501666379106     IErMin= 7 ErrMin= 1.22D-04
 ErrMax= 1.22D-04  0.00D+00 EMaxC= 1.00D-01 BMatC= 4.44D-06 BMatP= 1.67D-05
 IDIUse=3 WtCom= 9.99D-01 WtEn= 1.22D-03
 Coeff-Com: -0.940D-03 0.135D-01 0.265D-01-0.235D-01-0.285D+00 0.385D+00
 Coeff-Com:  0.885D+00
 Coeff-En:   0.000D+00 0.000D+00 0.000D+00 0.000D+00 0.000D+00 0.000D+00
 Coeff-En:   0.100D+01
 Coeff:     -0.939D-03 0.135D-01 0.264D-01-0.234D-01-0.285D+00 0.384D+00
 Coeff:      0.885D+00
 Gap=     0.504 Goal=   None    Shift=    0.000
 RMSDP=1.32D-05 MaxDP=3.73D-04 DE=-7.25D-05 OVMax= 1.54D-03

 Cycle   8  Pass 1  IDiag  1:
 E= -279.501675144093     Delta-E=       -0.000008764988 Rises=F Damp=F
 DIIS: error= 5.64D-05 at cycle   8 NSaved=   8.
 NSaved= 8 IEnMin= 8 EnMin= -279.501675144093     IErMin= 8 ErrMin= 5.64D-05
 ErrMax= 5.64D-05  0.00D+00 EMaxC= 1.00D-01 BMatC= 6.07D-07 BMatP= 4.44D-06
 IDIUse=1 WtCom= 1.00D+00 WtEn= 0.00D+00
 Coeff-Com: -0.447D-03 0.342D-02 0.760D-02 0.273D-01-0.404D-01-0.199D+00
 Coeff-Com:  0.179D+00 0.102D+01
 Coeff:     -0.447D-03 0.342D-02 0.760D-02 0.273D-01-0.404D-01-0.199D+00
 Coeff:      0.179D+00 0.102D+01
 Gap=     0.503 Goal=   None    Shift=    0.000
 RMSDP=6.84D-06 MaxDP=2.02D-04 DE=-8.76D-06 OVMax= 7.35D-04

 Cycle   9  Pass 1  IDiag  1:
 E= -279.501676899759     Delta-E=       -0.000001755665 Rises=F Damp=F
 DIIS: error= 1.61D-05 at cycle   9 NSaved=   9.
 NSaved= 9 IEnMin= 9 EnMin= -279.501676899759     IErMin= 9 ErrMin= 1.61D-05
 ErrMax= 1.61D-05  0.00D+00 EMaxC= 1.00D-01 BMatC= 6.97D-08 BMatP= 6.07D-07
 IDIUse=1 WtCom= 1.00D+00 WtEn= 0.00D+00
 Coeff-Com:  0.124D-03-0.173D-02-0.310D-02-0.211D-02 0.343D-01 0.129D-03
 Coeff-Com: -0.170D+00-0.100D+00 0.124D+01
 Coeff:      0.124D-03-0.173D-02-0.310D-02-0.211D-02 0.343D-01 0.129D-03
 Coeff:     -0.170D+00-0.100D+00 0.124D+01
 Gap=     0.503 Goal=   None    Shift=    0.000
 RMSDP=1.93D-06 MaxDP=6.66D-05 DE=-1.76D-06 OVMax= 1.75D-04

 Cycle  10  Pass 1  IDiag  1:
 E= -279.501677059791     Delta-E=       -0.000000160032 Rises=F Damp=F
 DIIS: error= 4.16D-06 at cycle  10 NSaved=  10.
 NSaved=10 IEnMin=10 EnMin= -279.501677059791     IErMin=10 ErrMin= 4.16D-06
 ErrMax= 4.16D-06  0.00D+00 EMaxC= 1.00D-01 BMatC= 5.49D-09 BMatP= 6.97D-08
 IDIUse=1 WtCom= 1.00D+00 WtEn= 0.00D+00
 Coeff-Com:  0.305D-04-0.237D-03-0.317D-03-0.267D-02 0.156D-02 0.196D-01
 Coeff-Com: -0.132D-01-0.733D-01-0.807D-01 0.115D+01
 Coeff:      0.305D-04-0.237D-03-0.317D-03-0.267D-02 0.156D-02 0.196D-01
 Coeff:     -0.132D-01-0.733D-01-0.807D-01 0.115D+01
 Gap=     0.503 Goal=   None    Shift=    0.000
 RMSDP=4.98D-07 MaxDP=2.10D-05 DE=-1.60D-07 OVMax= 4.13D-05

 Cycle  11  Pass 1  IDiag  1:
 E= -279.501677072160     Delta-E=       -0.000000012369 Rises=F Damp=F
 DIIS: error= 2.01D-06 at cycle  11 NSaved=  11.
 NSaved=11 IEnMin=11 EnMin= -279.501677072160     IErMin=11 ErrMin= 2.01D-06
 ErrMax= 2.01D-06  0.00D+00 EMaxC= 1.00D-01 BMatC= 6.54D-10 BMatP= 5.49D-09
 IDIUse=1 WtCom= 1.00D+00 WtEn= 0.00D+00
 Coeff-Com: -0.212D-04 0.243D-03 0.488D-03 0.525D-03-0.427D-02-0.354D-02
 Coeff-Com:  0.214D-01 0.303D-01-0.138D+00-0.176D+00 0.127D+01
 Coeff:     -0.212D-04 0.243D-03 0.488D-03 0.525D-03-0.427D-02-0.354D-02
 Coeff:      0.214D-01 0.303D-01-0.138D+00-0.176D+00 0.127D+01
 Gap=     0.503 Goal=   None    Shift=    0.000
 RMSDP=1.75D-07 MaxDP=6.35D-06 DE=-1.24D-08 OVMax= 1.74D-05

 Cycle  12  Pass 1  IDiag  1:
 E= -279.501677073946     Delta-E=       -0.000000001786 Rises=F Damp=F
 DIIS: error= 5.79D-07 at cycle  12 NSaved=  12.
 NSaved=12 IEnMin=12 EnMin= -279.501677073946     IErMin=12 ErrMin= 5.79D-07
 ErrMax= 5.79D-07  0.00D+00 EMaxC= 1.00D-01 BMatC= 7.14D-11 BMatP= 6.54D-10
 IDIUse=1 WtCom= 1.00D+00 WtEn= 0.00D+00
 Coeff-Com:  0.125D-05-0.291D-04-0.632D-04 0.181D-03 0.108D-02-0.233D-02
 Coeff-Com: -0.408D-02 0.557D-02 0.414D-01-0.115D+00-0.277D+00 0.135D+01
 Coeff:      0.125D-05-0.291D-04-0.632D-04 0.181D-03 0.108D-02-0.233D-02
 Coeff:     -0.408D-02 0.557D-02 0.414D-01-0.115D+00-0.277D+00 0.135D+01
 Gap=     0.503 Goal=   None    Shift=    0.000
 RMSDP=7.13D-08 MaxDP=2.75D-06 DE=-1.79D-09 OVMax= 6.74D-06

 Cycle  13  Pass 1  IDiag  1:
 E= -279.501677074173     Delta-E=       -0.000000000227 Rises=F Damp=F
 DIIS: error= 1.66D-07 at cycle  13 NSaved=  13.
 NSaved=13 IEnMin=13 EnMin= -279.501677074173     IErMin=13 ErrMin= 1.66D-07
 ErrMax= 1.66D-07  0.00D+00 EMaxC= 1.00D-01 BMatC= 3.97D-12 BMatP= 7.14D-11
 IDIUse=1 WtCom= 1.00D+00 WtEn= 0.00D+00
 Coeff-Com:  0.128D-05-0.140D-04-0.227D-04-0.880D-04 0.125D-03 0.755D-03
 Coeff-Com: -0.880D-03-0.322D-02 0.702D-03 0.410D-01-0.368D-01-0.323D+00
 Coeff-Com:  0.132D+01
 Coeff:      0.128D-05-0.140D-04-0.227D-04-0.880D-04 0.125D-03 0.755D-03
 Coeff:     -0.880D-03-0.322D-02 0.702D-03 0.410D-01-0.368D-01-0.323D+00
 Coeff:      0.132D+01
 Gap=     0.503 Goal=   None    Shift=    0.000
 RMSDP=1.90D-08 MaxDP=5.59D-07 DE=-2.27D-10 OVMax= 1.56D-06

 Cycle  14  Pass 1  IDiag  1:
 E= -279.501677074188     Delta-E=       -0.000000000014 Rises=F Damp=F
 DIIS: error= 2.47D-08 at cycle  14 NSaved=  14.
 NSaved=14 IEnMin=14 EnMin= -279.501677074188     IErMin=14 ErrMin= 2.47D-08
 ErrMax= 2.47D-08  0.00D+00 EMaxC= 1.00D-01 BMatC= 1.92D-13 BMatP= 3.97D-12
 IDIUse=1 WtCom= 1.00D+00 WtEn= 0.00D+00
 Coeff-Com: -0.187D-06 0.307D-05 0.555D-05 0.436D-05-0.819D-04 0.470D-04
 Coeff-Com:  0.282D-03 0.214D-03-0.244D-02 0.155D-02 0.169D-01-0.261D-01
 Coeff-Com: -0.198D+00 0.121D+01
 Coeff:     -0.187D-06 0.307D-05 0.555D-05 0.436D-05-0.819D-04 0.470D-04
 Coeff:      0.282D-03 0.214D-03-0.244D-02 0.155D-02 0.169D-01-0.261D-01
 Coeff:     -0.198D+00 0.121D+01
 Gap=     0.503 Goal=   None    Shift=    0.000
 RMSDP=3.75D-09 MaxDP=8.97D-08 DE=-1.45D-11 OVMax= 3.37D-07

 SCF Done:  E(RHF) =  -279.501677074     A.U. after   14 cycles
            NFock= 14  Conv=0.37D-08     -V/T= 2.0023
 KE= 2.788521193453D+02 PE=-8.953205051222D+02 EE= 2.199754979379D+02
 Leave Link  502 at Mon Feb 21 20:54:29 2022, MaxMem= 16106127360 cpu:              55.8 elap:               3.6
 (Enter /sw/contrib/gaussian/g16/B01/g16/l801.exe)
 ExpMin= 2.53D-02 ExpMax= 1.53D+04 ExpMxC= 5.22D+02 IAcc=3 IRadAn=         5 AccDes= 0.00D+00
 HarFok:  IExCor=  205 AccDes= 0.00D+00 IRadAn=         5 IDoV=-2 UseB2=F ITyADJ=14
 ICtDFT= 12500011 ScaDFX=  1.000000  1.000000  1.000000  1.000000
 Largest valence mixing into a core orbital is  2.08D-04
 Largest core mixing into a valence orbital is  3.64D-05
 Range of M.O.s used for correlation:     5   207
 NBasis=   207 NAE=    16 NBE=    16 NFC=     4 NFV=     0
 NROrb=    203 NOA=    12 NOB=    12 NVA=   191 NVB=   191

 **** Warning!!: The largest alpha MO coefficient is  0.17586962D+02

 Leave Link  801 at Mon Feb 21 20:54:29 2022, MaxMem= 16106127360 cpu:               2.4 elap:               0.1
 (Enter /sw/contrib/gaussian/g16/B01/g16/l906.exe)
 Frozen-core derivative calculation, NFC=   4 NFV=   0.
 FulOut=F Deriv=T AODrv=T NAtomX=     5
   MMem=           0  MDisk=          12 MDiskD=          12
  W3Min=      811440 MinDsk=     2425030 NBas6D=         245
 NBas2D=       30762    NTT=       30135    LW2=     7400000
    MDV= 16105574283 MDiskM=      328644 NBas2p=       30702
 Disk-based method using ON**2 memory for 12 occupieds at a time.
 Permanent disk used for amplitudes=    11516536 words.
 Estimated scratch disk usage=   321251614 words.
 IMap=   1   2   3   4   5   6   7   8   9  10  11  12  13  14  15  16
 Actual    scratch disk usage=   310331678 words.
 JobTyp=1 Pass  1:  I=   5 to  16 NPSUse= 28 ParTrn=T ParDer=T DoDerP=T.
 (rs|ai) integrals will be sorted in core.
 Spin components of T(2) and E(2):
     alpha-alpha T2 =       0.3400255248D-01 E2=     -0.1223886634D+00
     alpha-beta  T2 =       0.1868029838D+00 E2=     -0.7002122118D+00
     beta-beta   T2 =       0.3400255248D-01 E2=     -0.1223886634D+00
 The integrals were generated   1 times.
 ANorm=    0.1120182168D+01
 E2 =    -0.9449895387D+00 EUMP2 =    -0.28044666661285D+03
 Leave Link  906 at Mon Feb 21 20:56:06 2022, MaxMem= 16106127360 cpu:            2710.0 elap:              97.0
 (Enter /sw/contrib/gaussian/g16/B01/g16/l1101.exe)
 Using compressed Sx but separate Hx and Fx, NAtomX=     5.
 Will process      6 centers per pass.
 Leave Link 1101 at Mon Feb 21 20:56:07 2022, MaxMem= 16106127360 cpu:               5.1 elap:               0.2
 (Enter /sw/contrib/gaussian/g16/B01/g16/l1102.exe)
 Leave Link 1102 at Mon Feb 21 20:56:07 2022, MaxMem= 16106127360 cpu:               0.6 elap:               0.0
 (Enter /sw/contrib/gaussian/g16/B01/g16/l1110.exe)
 Forming Gx(P) for the SCF density, NAtomX=     5.
 Integral derivatives from FoFJK, PRISM(SPDF).
 Do as many integral derivatives as possible in FoFJK.
 G2DrvN: MDV=   16106126844.
 G2DrvN: will do     6 centers at a time, making    1 passes.
 Calling FoFCou, ICntrl=  3107 FMM=F I1Cent=   0 AccDes= 0.00D+00.
 FoFJK:  IHMeth= 1 ICntrl=    3107 DoSepK=F KAlg= 0 I1Cent=           0 FoldK=F
 IRaf=         0 NMat=       1 IRICut=       1 DoRegI=T DoRafI=F ISym2E= 1 IDoP0=0 IntGTp=1.
 FoFCou: FMM=F IPFlag=           0 FMFlag=      100000 FMFlg1=           0
         NFxFlg=           0 DoJE=F BraDBF=F KetDBF=F FulRan=T
         wScrn=  0.000000 ICntrl=      3107 IOpCl=  0 I1Cent=           0 NGrid=           0
         NMat0=    1 NMatS0=      1 NMatT0=    0 NMatD0=    1 NMtDS0=    0 NMtDT0=    0
 Petite list used in FoFCou.
 End of G2Drv F.D. properties file   721 does not exist.
 End of G2Drv F.D. properties file   722 does not exist.
 End of G2Drv F.D. properties file   788 does not exist.
 Leave Link 1110 at Mon Feb 21 20:56:10 2022, MaxMem= 16106127360 cpu:              83.6 elap:               3.0
 (Enter /sw/contrib/gaussian/g16/B01/g16/l1002.exe)
 Minotr:  Closed shell wavefunction.
          IDoAtm=11111
          Frozen-core window.
          Direct CPHF calculation.
          Differentiating once with respect to electric field.
                with respect to dipole field.
          Differentiating once with respect to nuclear coordinates.
          Requested convergence is 1.0D-08 RMS, and 1.0D-07 maximum.
          Secondary convergence is 1.0D-12 RMS, and 1.0D-12 maximum.
          NewPWx=T KeepS1=T KeepF1=T KeepIn=T MapXYZ=F SortEE=F KeepMc=T.
 Keep R1 ints in memory in symmetry-blocked form, NReq=348888983.
 FoFCou: FMM=F IPFlag=           0 FMFlag=           0 FMFlg1=           0
         NFxFlg=           0 DoJE=F BraDBF=F KetDBF=F FulRan=T
         wScrn=  0.000000 ICntrl=       600 IOpCl=  0 I1Cent=           0 NGrid=           0
         NMat0=    1 NMatS0=  21528 NMatT0=    0 NMatD0=    1 NMtDS0=    0 NMtDT0=    0
 Petite list used in FoFCou.
          MDV=   16106127360 using IRadAn=       1.
          Solving linear equations simultaneously, MaxMat=       0.
          There are    18 degrees of freedom in the 1st order CPHF.  IDoFFX=6 NUNeed=    18.
     15 vectors produced by pass  0 Test12= 1.70D-14 5.56D-09 XBig12= 8.30D+00 1.08D+00.
 AX will form    15 AO Fock derivatives at one time.
     15 vectors produced by pass  1 Test12= 1.70D-14 5.56D-09 XBig12= 1.35D+00 2.63D-01.
     15 vectors produced by pass  2 Test12= 1.70D-14 5.56D-09 XBig12= 1.41D-01 9.82D-02.
     15 vectors produced by pass  3 Test12= 1.70D-14 5.56D-09 XBig12= 4.93D-03 1.09D-02.
     15 vectors produced by pass  4 Test12= 1.70D-14 5.56D-09 XBig12= 9.83D-05 1.93D-03.
     15 vectors produced by pass  5 Test12= 1.70D-14 5.56D-09 XBig12= 1.40D-06 1.80D-04.
     15 vectors produced by pass  6 Test12= 1.70D-14 5.56D-09 XBig12= 1.13D-08 1.51D-05.
     12 vectors produced by pass  7 Test12= 1.70D-14 5.56D-09 XBig12= 8.30D-11 1.31D-06.
      3 vectors produced by pass  8 Test12= 1.70D-14 5.56D-09 XBig12= 5.82D-13 1.21D-07.
      2 vectors produced by pass  9 Test12= 1.70D-14 5.56D-09 XBig12= 3.78D-15 1.03D-08.
 InvSVY:  IOpt=1 It=  1 EMax= 7.77D-16
 Solved reduced A of dimension   122 with    15 vectors.
 FullF1:  Do perturbations      1 to      18.
 Saving first derivative matrices.
 End of Minotr F.D. properties file   721 does not exist.
 End of Minotr F.D. properties file   722 does not exist.
 End of Minotr F.D. properties file   788 does not exist.
 Leave Link 1002 at Mon Feb 21 20:56:13 2022, MaxMem= 16106127360 cpu:              80.0 elap:               2.9
 (Enter /sw/contrib/gaussian/g16/B01/g16/l811.exe)
 MDV= 16106127360.
 Form MO integral derivatives with frozen-active canonical formalism.
 MOERI=1 MOERIx=1 NAtoms=     5 NAtomX=     5.
 Discarding MO integrals.
 MO basis two electron integral derivatives will not be stored on disk.
 IAlg= 3 DoFC=T DoPWx=T Debug=F.
 Frozen-core window:  NFC=   4 NFV=   0.
 Reordered first order wavefunction length =     18678272
 In DefCFB: NBatch=  1 ICI= 16 ICA=191 LFMax= 96
            Large arrays: LIAPS=   619940160 LIARS=   288257200 words.
 In StABat: MaxSiz= 55 MinSiz= 25 NAtomB=  5
 DoIAMN: NPSUse= 28.
 Leave Link  811 at Mon Feb 21 20:57:33 2022, MaxMem= 16106127360 cpu:            2248.5 elap:              80.4
 (Enter /sw/contrib/gaussian/g16/B01/g16/l804.exe)
 Frozen-core window:  NFC=   4 NFV=   0.
 Closed-shell transformation, MDV= 16106127360 ITran=4 ISComp=1.
 Semi-Direct transformation.
 ModeAB=           2 MOrb=            16 LenV=   16104923037
 LASXX=     67341636 LTotXX=    67341636 LenRXX=    67341636
 LTotAB=    68301760 MaxLAS=    99807120 LenRXY=    99807120
 NonZer=   134683272 LenScr=   202817536 LnRSAI=           0
 LnScr1=           0 LExtra=           0 Total=    369966292
 MaxDsk=          -1 SrtSym=           F ITran=            4
 DoSDTr:  NPSUse= 28
 JobTyp=0 Pass  1:  I=   1 to  16.
 (rs|ai) integrals will be sorted in core.
 Complete sort for first half transformation.
 First half transformation complete.
 Begin second half transformation for I=  10.
 Begin second half transformation for I=  10.
 Complete sort for second half transformation.
 Second half transformation complete.
 Spin components of T(2) and E(2):
     alpha-alpha T2 =       0.3400255248D-01 E2=     -0.1223886634D+00
     alpha-beta  T2 =       0.1868029838D+00 E2=     -0.7002122118D+00
     beta-beta   T2 =       0.3400255248D-01 E2=     -0.1223886634D+00
 ANorm=    0.1584176814D+01
 E2 =    -0.9449895387D+00 EUMP2 =    -0.28044666661285D+03
 Leave Link  804 at Mon Feb 21 20:57:49 2022, MaxMem= 16106127360 cpu:             444.2 elap:              15.9
 (Enter /sw/contrib/gaussian/g16/B01/g16/l1002.exe)
 Minotr:  Closed shell wavefunction.
          Computing MP2/KS-MP2 derivatives.
          Using Z-Vector for PSCF gradient.
          Skipping F1 and S1 gradient terms here.
          IDoAtm=11111
          Frozen-core window.
          Using MO integrals in the linear equations.
          Forming densities via direct SCF.
          Differentiating once with respect to electric field.
                with respect to dipole field.
          Differentiating once with respect to nuclear coordinates.
          Using symmetry in CPHF.
          Requested convergence is 1.0D-10 RMS, and 1.0D-09 maximum.
          NewPWx=F KeepS1=T KeepF1=T KeepIn=T MapXYZ=F SortEE=F KeepMc=T.
          MDV=   16106127360 using IRadAn=       5.
          Solving linear equations separately, MaxMat=       0.
          There are     1 degrees of freedom in the 1st order CPHF.  IDoFFX=0 NUNeed=     1.
 FoFJK:  IHMeth= 1 ICntrl=       0 DoSepK=F KAlg= 0 I1Cent=           0 FoldK=F
 IRaf=         0 NMat=       1 IRICut=       1 DoRegI=T DoRafI=F ISym2E= 0 IDoP0=0 IntGTp=1.
 FoFCou: FMM=F IPFlag=           0 FMFlag=      100000 FMFlg1=           0
         NFxFlg=           0 DoJE=F BraDBF=F KetDBF=F FulRan=T
         wScrn=  0.000000 ICntrl=         0 IOpCl=  0 I1Cent=           0 NGrid=           0
         NMat0=    1 NMatS0=      1 NMatT0=    0 NMatD0=    1 NMtDS0=    0 NMtDT0=    0
 Symmetry not used in FoFCou.
 LinEq1:  Iter=  0 NonCon=     1 RMS=5.94D-03 Max=1.32D-01 NDo=     1
 LinEq1:  Iter=  1 NonCon=     1 RMS=1.90D-03 Max=3.82D-02 NDo=     1
 LinEq1:  Iter=  2 NonCon=     1 RMS=8.65D-04 Max=1.41D-02 NDo=     1
 LinEq1:  Iter=  3 NonCon=     1 RMS=3.85D-04 Max=7.80D-03 NDo=     1
 LinEq1:  Iter=  4 NonCon=     1 RMS=1.19D-04 Max=1.87D-03 NDo=     1
 LinEq1:  Iter=  5 NonCon=     1 RMS=4.42D-05 Max=7.01D-04 NDo=     1
 LinEq1:  Iter=  6 NonCon=     1 RMS=1.98D-05 Max=2.33D-04 NDo=     1
 LinEq1:  Iter=  7 NonCon=     1 RMS=7.98D-06 Max=1.59D-04 NDo=     1
 LinEq1:  Iter=  8 NonCon=     1 RMS=3.43D-06 Max=3.40D-05 NDo=     1
 LinEq1:  Iter=  9 NonCon=     1 RMS=9.43D-07 Max=1.31D-05 NDo=     1
 LinEq1:  Iter= 10 NonCon=     1 RMS=1.85D-07 Max=2.02D-06 NDo=     1
 LinEq1:  Iter= 11 NonCon=     1 RMS=3.47D-08 Max=3.62D-07 NDo=     1
 LinEq1:  Iter= 12 NonCon=     1 RMS=8.34D-09 Max=1.33D-07 NDo=     1
 LinEq1:  Iter= 13 NonCon=     1 RMS=1.50D-09 Max=2.60D-08 NDo=     1
 LinEq1:  Iter= 14 NonCon=     1 RMS=2.72D-10 Max=3.82D-09 NDo=     1
 LinEq1:  Iter= 15 NonCon=     0 RMS=4.95D-11 Max=5.50D-10 NDo=     1
 Linear equations converged to 1.000D-10 1.000D-09 after    15 iterations.
 End of Minotr F.D. properties file   721 does not exist.
 End of Minotr F.D. properties file   722 does not exist.
 End of Minotr F.D. properties file   788 does not exist.
 Leave Link 1002 at Mon Feb 21 20:57:51 2022, MaxMem= 16106127360 cpu:              66.7 elap:               2.5
 (Enter /sw/contrib/gaussian/g16/B01/g16/l1102.exe)
 Use density number 2.
 Symmetrizing basis deriv contribution to polar:
 IMax=3 JMax=2 DiffMx= 0.00D+00
 Leave Link 1102 at Mon Feb 21 20:57:51 2022, MaxMem= 16106127360 cpu:               0.6 elap:               0.0
 (Enter /sw/contrib/gaussian/g16/B01/g16/l1110.exe)
 Forming Gx(P) for generalized density number  2 NAtomX=     5.
 Integral derivatives from FoFJK, PRISM(SPDF).
 Do as many integral derivatives as possible in FoFJK.
 G2DrvN: MDV=   16106126844.
 G2DrvN: will do     6 centers at a time, making    1 passes.
 Calling FoFCou, ICntrl=  3107 FMM=F I1Cent=   0 AccDes= 0.00D+00.
 FoFJK:  IHMeth= 1 ICntrl=    3107 DoSepK=F KAlg= 0 I1Cent=           0 FoldK=F
 IRaf=         0 NMat=       1 IRICut=       1 DoRegI=T DoRafI=F ISym2E= 1 IDoP0=0 IntGTp=1.
 FoFCou: FMM=F IPFlag=           0 FMFlag=      100000 FMFlg1=           0
         NFxFlg=           0 DoJE=F BraDBF=F KetDBF=F FulRan=T
         wScrn=  0.000000 ICntrl=      3107 IOpCl=  0 I1Cent=           0 NGrid=           0
         NMat0=    1 NMatS0=      1 NMatT0=    0 NMatD0=    1 NMtDS0=    0 NMtDT0=    0
 Petite list used in FoFCou.
 End of G2Drv F.D. properties file   721 does not exist.
 End of G2Drv F.D. properties file   722 does not exist.
 End of G2Drv F.D. properties file   788 does not exist.
 Leave Link 1110 at Mon Feb 21 20:57:55 2022, MaxMem= 16106127360 cpu:              83.6 elap:               3.0
 (Enter /sw/contrib/gaussian/g16/B01/g16/l1112.exe)
 MP22nd: MDV=   16106127360
 This link is doing NAtomX=     5 total of    18 degrees of freedom.
 Using ON3 I/O method in MakUI.
 Frozen-core window:  NFC=   4 NFV=   0.
 Using Ix for Sx.
 Use MO integrals over full window.
 Using OV2 memory method for fx*t*t/D, MaxI=    16 DoOO2=F NP=  28.
 R2 and R3 integrals will be kept in memory, NReq=   915591705.
 FoFCou: FMM=F IPFlag=           0 FMFlag=           0 FMFlg1=           0
         NFxFlg=           0 DoJE=F BraDBF=F KetDBF=F FulRan=T
         wScrn=  0.000000 ICntrl=       600 IOpCl=  0 I1Cent=           0 NGrid=           0
         NMat0=    1 NMatS0=      1 NMatT0=    0 NMatD0=    1 NMtDS0=    0 NMtDT0=    0
 Symmetry not used in FoFCou.
 DD1Dir will call FoFMem   1 times, MxPair=       272
 NAB=   136 NAA=     0 NBB=     0.
 Symmetry is being used.
 FoFJK:  IHMeth= 1 ICntrl=       0 DoSepK=F KAlg= 0 I1Cent=           0 FoldK=F
 IRaf=         0 NMat=      18 IRICut=      45 DoRegI=T DoRafI=T ISym2E= 2 IDoP0=3 IntGTp=3.
 Discarding MO integrals.
 Leave Link 1112 at Mon Feb 21 20:58:30 2022, MaxMem= 16106127360 cpu:             978.5 elap:              35.3
 (Enter /sw/contrib/gaussian/g16/B01/g16/l601.exe)
 Copying SCF densities to generalized density rwf, IOpCl= 0 IROHF=0.

 **********************************************************************

            Population analysis using the MP2 Density.

 **********************************************************************

 Orbital symmetries:
       Occupied  (A') (A') (A') (A') (A') (A') (A') (A') (A') (A')
                 (A") (A') (A") (A') (A") (A')
       Virtual   (A') (A") (A') (A') (A') (A") (A') (A') (A") (A')
                 (A") (A') (A') (A') (A") (A') (A') (A") (A') (A')
                 (A') (A') (A') (A') (A") (A') (A') (A") (A') (A')
                 (A") (A') (A") (A') (A') (A") (A') (A") (A') (A')
                 (A") (A') (A") (A') (A') (A") (A') (A') (A") (A')
                 (A") (A') (A') (A') (A") (A') (A") (A') (A") (A')
                 (A') (A') (A") (A') (A') (A") (A') (A") (A') (A')
                 (A") (A') (A') (A") (A") (A') (A') (A") (A') (A')
                 (A') (A") (A') (A") (A") (A') (A') (A") (A') (A')
                 (A") (A') (A') (A") (A') (A") (A') (A") (A') (A')
                 (A") (A') (A") (A') (A') (A") (A') (A') (A") (A')
                 (A") (A') (A') (A') (A") (A') (A') (A') (A") (A')
                 (A") (A') (A") (A') (A') (A") (A") (A') (A") (A')
                 (A') (A') (A') (A") (A") (A") (A') (A') (A') (A')
                 (A") (A') (A") (A') (A') (A") (A') (A') (A') (A')
                 (A") (A') (A') (A") (A') (A") (A') (A") (A') (A")
                 (A') (A") (A') (A") (A') (A") (A") (A') (A") (A')
                 (A") (A') (A") (A') (A") (A') (A") (A") (A') (A')
                 (A') (A') (A') (A') (A') (A') (A') (A') (A') (A')
                 (A')
 The electronic state is 1-A'.
 Alpha  occ. eigenvalues --  -20.69048 -20.68395 -20.65935 -15.81316  -1.62484
 Alpha  occ. eigenvalues --   -1.49502  -1.25362  -0.94832  -0.77225  -0.75952
 Alpha  occ. eigenvalues --   -0.71198  -0.67912  -0.62007  -0.58858  -0.48476
 Alpha  occ. eigenvalues --   -0.47365
 Alpha virt. eigenvalues --    0.02970   0.07126   0.08613   0.10170   0.13390
 Alpha virt. eigenvalues --    0.13390   0.14413   0.15446   0.17836   0.19413
 Alpha virt. eigenvalues --    0.19985   0.20654   0.22080   0.23638   0.23751
 Alpha virt. eigenvalues --    0.26673   0.29265   0.30360   0.31030   0.34373
 Alpha virt. eigenvalues --    0.34961   0.38754   0.42240   0.43198   0.52822
 Alpha virt. eigenvalues --    0.52851   0.55812   0.58070   0.62541   0.64028
 Alpha virt. eigenvalues --    0.67472   0.68461   0.70501   0.71152   0.72369
 Alpha virt. eigenvalues --    0.72922   0.74373   0.79252   0.79323   0.81087
 Alpha virt. eigenvalues --    0.81308   0.83103   0.86819   0.90893   0.92226
 Alpha virt. eigenvalues --    0.92836   0.95646   0.97567   0.98486   1.01684
 Alpha virt. eigenvalues --    1.05194   1.05495   1.08289   1.11736   1.14177
 Alpha virt. eigenvalues --    1.19011   1.21892   1.23316   1.33933   1.35193
 Alpha virt. eigenvalues --    1.38767   1.45500   1.48763   1.50792   1.53772
 Alpha virt. eigenvalues --    1.56788   1.57953   1.61270   1.66456   1.67100
 Alpha virt. eigenvalues --    1.70229   1.79251   1.83017   1.83507   1.88020
 Alpha virt. eigenvalues --    1.90850   1.95660   1.99322   2.00353   2.08006
 Alpha virt. eigenvalues --    2.12248   2.13090   2.15109   2.22585   2.26540
 Alpha virt. eigenvalues --    2.26702   2.28948   2.31454   2.34649   2.38628
 Alpha virt. eigenvalues --    2.42629   2.42854   2.45194   2.45992   2.47809
 Alpha virt. eigenvalues --    2.50082   2.58891   2.59835   2.62246   2.62405
 Alpha virt. eigenvalues --    2.63429   2.67049   2.75425   2.81820   2.85089
 Alpha virt. eigenvalues --    2.89070   2.89355   2.93584   2.95388   3.02665
 Alpha virt. eigenvalues --    3.06507   3.12554   3.20496   3.22451   3.31865
 Alpha virt. eigenvalues --    3.33859   3.52405   3.63950   3.83844   3.84423
 Alpha virt. eigenvalues --    4.14938   4.16670   4.18457   4.25796   4.34923
 Alpha virt. eigenvalues --    4.39348   4.46337   4.52016   4.65775   4.71177
 Alpha virt. eigenvalues --    4.80272   4.82822   4.83062   4.89632   5.02440
 Alpha virt. eigenvalues --    5.07665   5.10625   5.14573   5.17494   5.24394
 Alpha virt. eigenvalues --    5.27387   5.30535   5.33058   5.35271   5.60369
 Alpha virt. eigenvalues --    5.67354   5.78075   5.82912   5.95684   6.16937
 Alpha virt. eigenvalues --    6.31040   6.33666   6.39478   6.49563   6.50812
 Alpha virt. eigenvalues --    6.61487   6.66813   6.70397   6.75801   6.76471
 Alpha virt. eigenvalues --    6.83575   6.89437   7.01616   7.05700   7.05831
 Alpha virt. eigenvalues --    7.09153   7.12338   7.15130   7.18226   7.22593
 Alpha virt. eigenvalues --    7.24245   7.30765   7.32543   7.34739   7.39892
 Alpha virt. eigenvalues --    7.43112   7.48330   7.60914   7.61385   7.63020
 Alpha virt. eigenvalues --    7.66875   7.79657   7.88170   8.09394   8.31530
 Alpha virt. eigenvalues --    8.40919   8.54358  13.39890  14.38218  15.16750
 Alpha virt. eigenvalues --   16.15654
          Condensed to atoms (all electrons):
               1          2          3          4          5
     1  H    0.589629   0.128084   0.020213   0.012489  -0.000620
     2  O    0.128084   8.324753  -0.175318  -0.089581   0.015754
     3  O    0.020213  -0.175318   8.469647  -0.126258  -0.042512
     4  N    0.012489  -0.089581  -0.126258   6.964639  -0.054150
     5  O   -0.000620   0.015754  -0.042512  -0.054150   8.275131
 Mulliken charges:
               1
     1  H    0.250206
     2  O   -0.203693
     3  O   -0.145771
     4  N    0.292860
     5  O   -0.193602
 Sum of Mulliken charges =  -0.00000
 Mulliken charges with hydrogens summed into heavy atoms:
               1
     2  O    0.046513
     3  O   -0.145771
     4  N    0.292860
     5  O   -0.193602
 APT charges:
               1
     1  H    0.298419
     2  O   -0.289525
     3  O   -0.488246
     4  N    0.869898
     5  O   -0.390547
 Sum of APT charges =  -0.00000
 APT charges with hydrogens summed into heavy atoms:
               1
     2  O    0.008894
     3  O   -0.488246
     4  N    0.869898
     5  O   -0.390547
 Electronic spatial extent (au):  <R**2>=            252.1005
 Charge=             -0.0000 electrons
 Dipole moment (field-independent basis, Debye):
    X=              0.5107    Y=              1.3479    Z=              0.0000  Tot=              1.4414
 Quadrupole moment (field-independent basis, Debye-Ang):
   XX=            -22.4998   YY=            -18.6097   ZZ=            -22.0055
   XY=              3.2322   XZ=             -0.0000   YZ=             -0.0000
 Traceless Quadrupole moment (field-independent basis, Debye-Ang):
   XX=             -1.4615   YY=              2.4287   ZZ=             -0.9672
   XY=              3.2322   XZ=             -0.0000   YZ=             -0.0000
 Octapole moment (field-independent basis, Debye-Ang**2):
  XXX=              2.8133  YYY=             11.2772  ZZZ=             -0.0000  XYY=              7.8799
  XXY=              6.5693  XXZ=              0.0000  XZZ=             -1.5847  YZZ=             -0.8493
  YYZ=              0.0000  XYZ=              0.0000
 Hexadecapole moment (field-independent basis, Debye-Ang**3):
 XXXX=           -158.5996 YYYY=            -88.9149 ZZZZ=            -18.2272 XXXY=            -36.4596
 XXXZ=             -0.0000 YYYX=            -30.5116 YYYZ=             -0.0000 ZZZX=             -0.0000
 ZZZY=             -0.0000 XXYY=            -33.9555 XXZZ=            -30.8815 YYZZ=            -20.5155
 XXYZ=             -0.0000 YYXZ=             -0.0000 ZZXY=            -14.9513
 N-N= 1.169912107648D+02 E-N=-8.961029080937D+02  KE= 2.802039581879D+02
 Symmetry A'   KE= 2.662300604886D+02
 Symmetry A"   KE= 1.397389769926D+01
  Exact polarizability:  33.977   9.382  30.107   0.000   0.000  17.910
 Approx polarizability:  29.034   4.979  23.424   0.000   0.000  15.513
 No NMR shielding tensors so no spin-rotation constants.
 Leave Link  601 at Mon Feb 21 20:58:30 2022, MaxMem= 16106127360 cpu:               5.2 elap:               0.2
 (Enter /sw/contrib/gaussian/g16/B01/g16/l701.exe)
 ... and contract with generalized density number  2.
 Compute integral second derivatives.
 Leave Link  701 at Mon Feb 21 20:58:31 2022, MaxMem= 16106127360 cpu:              10.1 elap:               0.4
 (Enter /sw/contrib/gaussian/g16/B01/g16/l702.exe)
 L702 exits ... SP integral derivatives will be done elsewhere.
 Leave Link  702 at Mon Feb 21 20:58:31 2022, MaxMem= 16106127360 cpu:               0.6 elap:               0.0
 (Enter /sw/contrib/gaussian/g16/B01/g16/l703.exe)
 Integral derivatives from FoFJK, PRISM(SPDF).
 Compute integral second derivatives, UseDBF=F ICtDFT=           0.
 Calling FoFJK, ICntrl=  10100127 FMM=F ISym2X=1 I1Cent= 0 IOpClX= 0 NMat=1 NMatS=1 NMatT=0.
 FoFJK:  IHMeth= 1 ICntrl=10100127 DoSepK=F KAlg= 0 I1Cent=           0 FoldK=F
 IRaf=         0 NMat=       1 IRICut=       1 DoRegI=T DoRafI=F ISym2E= 1 IDoP0=0 IntGTp=1.
 FoFCou: FMM=F IPFlag=           0 FMFlag=      100000 FMFlg1=         800
         NFxFlg=           0 DoJE=F BraDBF=F KetDBF=F FulRan=T
         wScrn=  0.000000 ICntrl=  10100127 IOpCl=  0 I1Cent=           0 NGrid=           0
         NMat0=    1 NMatS0=      1 NMatT0=    0 NMatD0=    1 NMtDS0=    0 NMtDT0=    0
 Petite list used in FoFCou.
 Leave Link  703 at Mon Feb 21 20:58:46 2022, MaxMem= 16106127360 cpu:             421.5 elap:              15.1
 (Enter /sw/contrib/gaussian/g16/B01/g16/l716.exe)
 Dipole        = 2.00923623D-01 5.30288980D-01 2.36590911D-32
 Polarizability= 3.39772224D+01 9.38150015D+00 3.01067718D+01
                 4.10727814D-31 8.52110602D-31 1.79097921D+01
 Full mass-weighted force constant matrix:
 Low frequencies --- -266.2147  -32.4833  -21.3650   -0.0009   -0.0008    0.0008
 Low frequencies ---   74.9593  230.1912  341.5810
 ******    1 imaginary frequencies (negative Signs) ****** 
 Diagonal vibrational polarizability:
       13.6458183      24.1833863      47.7403343
 Harmonic frequencies (cm**-1), IR intensities (KM/Mole), Raman scattering
 activities (A**4/AMU), depolarization ratios for plane and unpolarized
 incident light, reduced masses (AMU), force constants (mDyne/A),
 and normal coordinates:
                      1                      2                      3
                     A"                     A"                     A'
 Frequencies --   -266.1871               229.5610               341.5764
 Red. masses --      1.1355                10.8978                 8.6444
 Frc consts  --      0.0474                 0.3384                 0.5942
 IR Inten    --    124.9507                 0.5554                 3.5378
  Atom  AN      X      Y      Z        X      Y      Z        X      Y      Z
     1   1     0.00  -0.00   1.00     0.00  -0.00  -0.55     0.53  -0.44   0.00
     2   8    -0.00  -0.00  -0.06    -0.00  -0.00  -0.32    -0.10  -0.38   0.00
     3   8     0.00   0.00  -0.04    -0.00   0.00   0.34    -0.15   0.42  -0.00
     4   7    -0.00   0.00   0.06     0.00   0.00   0.53     0.05   0.27  -0.00
     5   8     0.00  -0.00  -0.01     0.00  -0.00  -0.45     0.17  -0.25   0.00
                      4                      5                      6
                     A'                     A'                     A'
 Frequencies --    459.5745               784.0599               968.1556
 Red. masses --     12.1937                12.9382                15.4598
 Frc consts  --      1.5174                 4.6862                 8.5378
 IR Inten    --    200.0786               166.3220                21.0724
  Atom  AN      X      Y      Z        X      Y      Z        X      Y      Z
     1   1     0.43   0.18   0.00    -0.34   0.19  -0.00    -0.16  -0.04  -0.00
     2   8     0.32   0.19   0.00     0.42   0.09   0.00    -0.52   0.03   0.00
     3   8     0.17   0.45  -0.00    -0.06  -0.26  -0.00     0.75  -0.01  -0.00
     4   7    -0.35  -0.40  -0.00    -0.14   0.62  -0.00    -0.12   0.24  -0.00
     5   8    -0.21  -0.30   0.00    -0.22  -0.37   0.00    -0.12  -0.22   0.00
                      7                      8                      9
                     A'                     A'                     A'
 Frequencies --   1371.3865              1677.5845              3778.5309
 Red. masses --      1.1332                13.2510                 1.0675
 Frc consts  --      1.2557                21.9719                 8.9801
 IR Inten    --    151.2022               137.6823                81.7670
  Atom  AN      X      Y      Z        X      Y      Z        X      Y      Z
     1   1     0.99  -0.05   0.00    -0.34   0.00  -0.00     0.10   0.99  -0.00
     2   8    -0.03   0.05   0.00    -0.00  -0.04  -0.00    -0.01  -0.06   0.00
     3   8    -0.02  -0.05  -0.00     0.00   0.15   0.00     0.00   0.00   0.00
     4   7     0.02   0.01  -0.00     0.70  -0.06   0.00    -0.00  -0.00  -0.00
     5   8    -0.03  -0.01   0.00    -0.60  -0.06  -0.00     0.00   0.00  -0.00

 -------------------
 - Thermochemistry -
 -------------------
 Temperature   298.150 Kelvin.  Pressure   1.00000 Atm.
 Atom     1 has atomic number  1 and mass   1.00783
 Atom     2 has atomic number  8 and mass  15.99491
 Atom     3 has atomic number  8 and mass  15.99491
 Atom     4 has atomic number  7 and mass  14.00307
 Atom     5 has atomic number  8 and mass  15.99491
 Molecular mass:    62.99564 amu.
 Principal axes and moments of inertia in atomic units:
                           1         2         3
     Eigenvalues --    32.99978 358.42007 391.41985
           X            0.81243  -0.58305   0.00000
           Y            0.58305   0.81243   0.00000
           Z            0.00000  -0.00000   1.00000
 This molecule is an asymmetric top.
 Rotational symmetry number  1.
 Rotational temperatures (Kelvin)      2.62468     0.24165     0.22128
 Rotational constants (GHZ):          54.68949     5.03527     4.61076
    1 imaginary frequencies ignored.
 Zero-point vibrational energy      57483.1 (Joules/Mol)
                                   13.73880 (Kcal/Mol)
 Warning -- explicit consideration of   3 degrees of freedom as
           vibrations may cause significant error
 Vibrational temperatures:    330.29   491.45   661.23  1128.09  1392.96
          (Kelvin)           1973.12  2413.67  5436.46
 
 Zero-point correction=                           0.021894 (Hartree/Particle)
 Thermal correction to Energy=                    0.026005
 Thermal correction to Enthalpy=                  0.026949
 Thermal correction to Gibbs Free Energy=        -0.004220
 Sum of electronic and zero-point Energies=           -280.424772
 Sum of electronic and thermal Energies=              -280.420662
 Sum of electronic and thermal Enthalpies=            -280.419718
 Sum of electronic and thermal Free Energies=         -280.450887
 
                     E (Thermal)             CV                S
                      KCal/Mol        Cal/Mol-Kelvin    Cal/Mol-Kelvin
 Total                   16.318             11.937             65.601
 Electronic               0.000              0.000              0.000
 Translational            0.889              2.981             38.341
 Rotational               0.889              2.981             23.053
 Vibrational             14.541              5.975              4.207
 Vibration     1          0.652              1.796              1.882
 Vibration     2          0.721              1.592              1.205
 Vibration     3          0.817              1.340              0.767
                       Q            Log10(Q)             Ln(Q)
 Total Bot       0.873299D+02          1.941163          4.469693
 Total V=0       0.102748D+13         12.011773         27.658129
 Vib (Bot)       0.182442D-09         -9.738875        -22.424589
 Vib (Bot)    1  0.858142D+00         -0.066441         -0.152986
 Vib (Bot)    2  0.543069D+00         -0.265145         -0.610519
 Vib (Bot)    3  0.370229D+00         -0.431530         -0.993634
 Vib (V=0)       0.214652D+01          0.331734          0.763847
 Vib (V=0)    1  0.149318D+01          0.174112          0.400908
 Vib (V=0)    2  0.123819D+01          0.092787          0.213650
 Vib (V=0)    3  0.112215D+01          0.050050          0.115246
 Electronic      0.100000D+01          0.000000          0.000000
 Translational   0.196526D+08          7.293420         16.793719
 Rotational      0.243567D+05          4.386619         10.100563
 
                                                                title
                                                             IR Spectrum
 
     3                                                                      1         1                                              
     7                                                                      6         3             9     7          4   3   2       
     7                                                                      7         7             6     8          6   4   3       
     9                                                                      8         1             8     4          0   2   0       
 
     X                                                                      X         X             X     X          X   X   X       
     X                                                                      X         X             X     X          X               
     X                                                                      X         X                   X          X               
     X                                                                      X         X                   X          X               
     X                                                                      X         X                   X          X               
     X                                                                      X         X                   X          X               
     X                                                                      X         X                   X          X               
     X                                                                      X         X                   X          X               
                                                                            X         X                   X          X               
                                                                            X         X                   X          X               
                                                                            X         X                   X          X               
                                                                            X         X                   X          X               
                                                                            X         X                   X          X               
                                                                            X         X                   X          X               
                                                                                      X                   X          X               
                                                                                                          X          X               
                                                                                                          X          X               
                                                                                                                     X               
                                                                                                                     X               
                                                                                                                     X               
 
 ***** Axes restored to original set *****
 -------------------------------------------------------------------
 Center     Atomic                   Forces (Hartrees/Bohr)
 Number     Number              X              Y              Z
 -------------------------------------------------------------------
      1        1          -0.000129733   -0.000000000    0.000021492
      2        8          -0.000182469   -0.000000000   -0.000726396
      3        8          -0.003256360   -0.000000000    0.000492530
      4        7           0.002618887   -0.000000000   -0.003817782
      5        8           0.000949675    0.000000000    0.004030157
 -------------------------------------------------------------------
 Cartesian Forces:  Max     0.004030157 RMS     0.001825793
 -----------------------------------------------------------------------------------------------
                       Internal Coordinate Forces (Hartree/Bohr or radian)
  Cent   Atom   N1       Length/X         N2         Alpha/Y        N3         Beta/Z          J
 -----------------------------------------------------------------------------------------------
      1  H 
      2  O        1  -0.000021(     1)
      3  O        2   0.000403(     2)      1   0.000238(     5)
      4  N        3   0.000504(     3)      2   0.001570(     6)      1  -0.000000(     8)     0
      5  O        4   0.001858(     4)      3   0.008186(     7)      2   0.000000(     9)     0
 -----------------------------------------------------------------------------------------------
 Internal  Forces:  Max     0.008186304 RMS     0.002855909
 Force constants in Cartesian coordinates: 
                1             2             3             4             5 
      1  0.646451D-01
      2  0.000000D+00 -0.232003D-02
      3  0.541539D-02  0.000000D+00  0.512313D+00
      4 -0.357486D-01  0.000000D+00 -0.163387D-01  0.273188D+00
      5  0.000000D+00  0.295218D-02  0.000000D+00  0.000000D+00  0.211642D-02
      6  0.481528D-01  0.000000D+00 -0.508498D+00  0.341586D-01  0.000000D+00
      7 -0.183355D-01  0.000000D+00  0.124466D-01 -0.219894D+00  0.000000D+00
      8  0.000000D+00  0.103159D-02  0.000000D+00  0.000000D+00 -0.679093D-02
      9 -0.531895D-01  0.000000D+00 -0.586852D-03 -0.195086D-01  0.000000D+00
     10 -0.910889D-02  0.000000D+00 -0.484731D-02 -0.177015D-01  0.000000D+00
     11  0.000000D+00 -0.269939D-02  0.000000D+00  0.000000D+00 -0.460015D-02
     12  0.544668D-02  0.000000D+00 -0.454392D-02  0.116745D-01  0.000000D+00
     13 -0.145203D-02  0.000000D+00  0.332399D-02  0.156363D-03  0.000000D+00
     14  0.000000D+00  0.103565D-02  0.000000D+00  0.000000D+00  0.632248D-02
     15 -0.582533D-02  0.000000D+00  0.131522D-02 -0.998576D-02  0.000000D+00
                6             7             8             9            10 
      6  0.594527D+00
      7 -0.213554D-01  0.342894D+00
      8  0.000000D+00  0.000000D+00  0.491765D-02
      9 -0.785263D-01  0.390211D-01  0.000000D+00  0.182912D+00
     10 -0.519577D-01 -0.763433D-01  0.000000D+00  0.172622D+00  0.829076D+00
     11  0.000000D+00  0.000000D+00  0.671028D-02  0.000000D+00  0.000000D+00
     12  0.175138D-01  0.623175D-01  0.000000D+00 -0.834437D-01 -0.252608D-01
     13 -0.899823D-02 -0.283212D-01  0.000000D+00 -0.138945D+00 -0.725922D+00
     14  0.000000D+00  0.000000D+00 -0.586858D-02  0.000000D+00  0.000000D+00
     15 -0.250165D-01 -0.924299D-01  0.000000D+00 -0.203549D-01 -0.905563D-01
               11            12            13            14            15 
     11  0.111115D-01
     12  0.000000D+00  0.184516D+00
     13  0.000000D+00 -0.541779D-01  0.755539D+00
     14 -0.105222D-01  0.000000D+00  0.000000D+00  0.903270D-02
     15  0.000000D+00 -0.114042D+00  0.198797D+00  0.000000D+00  0.158098D+00
 Force constants in internal coordinates: 
                1             2             3             4             5 
      1  0.512313D+00
      2 -0.103232D-01  0.281958D+00
      3  0.334271D-02  0.308041D-02  0.119359D+00
      4 -0.353832D-02  0.633775D-02  0.154804D+00  0.813090D+00
      5  0.978641D-02  0.654123D-01  0.227653D-02  0.505887D-02  0.216711D+00
      6  0.458140D-02  0.597754D-01  0.404679D-01  0.231663D-01  0.313798D-01
      7 -0.112590D-02  0.394270D-01  0.384336D-01  0.908173D-01  0.215937D-01
      8  0.000000D+00  0.000000D+00  0.000000D+00  0.000000D+00  0.000000D+00
      9  0.000000D+00  0.000000D+00  0.000000D+00  0.000000D+00  0.000000D+00
                6             7             8             9 
      6  0.282699D+00
      7  0.973627D-01  0.496243D+00
      8  0.000000D+00  0.000000D+00 -0.771209D-02
      9  0.000000D+00  0.000000D+00 -0.395214D-02  0.412366D-01
 Leave Link  716 at Mon Feb 21 20:58:46 2022, MaxMem= 16106127360 cpu:               0.7 elap:               0.0
 (Enter /sw/contrib/gaussian/g16/B01/g16/l103.exe)

 GradGradGradGradGradGradGradGradGradGradGradGradGradGradGradGradGradGrad
 Berny optimization.
 Search for a local minimum.
 Step number   1 out of a maximum of    2
 All quantities printed in internal units (Hartrees-Bohrs-Radians)
 Second derivative matrix not updated -- analytic derivatives used.
 The second derivative matrix:
                          r1        r2        r3        r4        a1
           r1           0.51231
           r2          -0.01032   0.28196
           r3           0.00334   0.00308   0.11936
           r4          -0.00354   0.00634   0.15480   0.81309
           a1           0.00979   0.06541   0.00228   0.00506   0.21671
           a2           0.00458   0.05978   0.04047   0.02317   0.03138
           a3          -0.00113   0.03943   0.03843   0.09082   0.02159
           d1           0.00000  -0.00000  -0.00000  -0.00000  -0.00000
           d2          -0.00000   0.00000   0.00000   0.00000   0.00000
                          a2        a3        d1        d2
           a2           0.28270
           a3           0.09736   0.49624
           d1          -0.00000  -0.00000  -0.00771
           d2          -0.00000  -0.00000  -0.00395   0.04124
 ITU=  0
     Eigenvalues ---   -0.00803   0.04155   0.07992   0.17536   0.22475
     Eigenvalues ---    0.32651   0.51298   0.52517   0.87767
 Eigenvalue     1 is  -8.03D-03 should be greater than     0.000000 Eigenvector:
                          d1        d2        a3        a2        r3
   1                    0.99680   0.07996   0.00000   0.00000  -0.00000
                          r4        a1        r2        r1
   1                    0.00000  -0.00000   0.00000  -0.00000
 Angle between quadratic step and forces=  18.72 degrees.
 Linear search not attempted -- first point.
 Variable       Old X    -DE/DX   Delta X   Delta X   Delta X     New X
                                 (Linear)    (Quad)   (Total)
    r1        1.83110  -0.00002   0.00000   0.00000   0.00000   1.83110
    r2        2.74940   0.00040   0.00000  -0.00087  -0.00087   2.74853
    r3        2.75670   0.00050   0.00000  -0.00233  -0.00233   2.75437
    r4        2.21236   0.00186   0.00000   0.00088   0.00088   2.21324
    a1        1.70335   0.00024   0.00000  -0.00033  -0.00033   1.70302
    a2        1.78543   0.00157   0.00000   0.00034   0.00034   1.78577
    a3        1.88679   0.00819   0.00000   0.01653   0.01653   1.90333
    d1        3.14159  -0.00000   0.00000  -0.00000   0.00000   3.14159
    d2        3.14159   0.00000   0.00000  -0.00000   0.00000   3.14159
         Item               Value     Threshold  Converged?
 Maximum Force            0.008186     0.000450     NO 
 RMS     Force            0.002856     0.000300     NO 
 Maximum Displacement     0.016532     0.001800     NO 
 RMS     Displacement     0.005583     0.001200     NO 
 Predicted change in Energy=-6.795443D-05
                       ----------------------------
                       ! Non-Optimized Parameters !
                       ! (Angstroms and Degrees)  !
 ----------------------                            ----------------------
 !      Name          Value   Derivative information (Atomic Units)     !
 ------------------------------------------------------------------------
 !       r1          0.969    -DE/DX =    0.0                           !
 !       r2          1.4545   -DE/DX =    0.0004                        !
 !       r3          1.4576   -DE/DX =    0.0005                        !
 !       r4          1.1712   -DE/DX =    0.0019                        !
 !       a1         97.5759   -DE/DX =    0.0002                        !
 !       a2        102.3172   -DE/DX =    0.0016                        !
 !       a3        109.0526   -DE/DX =    0.0082                        !
 !       d1        180.0      -DE/DX =    0.0                           !
 !       d2        180.0      -DE/DX =    0.0                           !
 ------------------------------------------------------------------------
 GradGradGradGradGradGradGradGradGradGradGradGradGradGradGradGradGradGrad

 Leave Link  103 at Mon Feb 21 20:58:46 2022, MaxMem= 16106127360 cpu:               1.3 elap:               0.1
 (Enter /sw/contrib/gaussian/g16/B01/g16/l9999.exe)

 ----------------------------------------------------------------------

 Electric dipole moment (input orientation):
 (Debye = 10**-18 statcoulomb cm , SI units = C m)
                  (au)            (Debye)         (10**-30 SI)
   Tot        0.567077D+00      0.144137D+01      0.480788D+01
   x         -0.148517D+00     -0.377493D+00     -0.125918D+01
   y          0.000000D+00      0.000000D+00      0.000000D+00
   z         -0.547284D+00     -0.139106D+01     -0.464006D+01

 Dipole polarizability, Alpha (input orientation).
 (esu units = cm**3 , SI units = C**2 m**2 J**-1)
 Alpha(0;0):
               (au)            (10**-24 esu)      (10**-40 SI)
   iso        0.273313D+02      0.405008D+01      0.450632D+01
   aniso      0.217943D+02      0.322958D+01      0.359340D+01
   xx         0.321286D+02      0.476097D+01      0.529730D+01
   yx         0.000000D+00      0.000000D+00      0.000000D+00
   yy         0.179098D+02      0.265396D+01      0.295293D+01
   zx         0.957863D+01      0.141941D+01      0.157930D+01
   zy         0.000000D+00      0.000000D+00      0.000000D+00
   zz         0.319554D+02      0.473530D+01      0.526873D+01

 ----------------------------------------------------------------------

 Dipole orientation:
     1          0.00000000          0.00000000         -0.00000000
     8         -0.47956288          0.00000000         -1.76718446
     8          2.05542085          0.00000000         -2.83163385
     7          1.55398858          0.00000000         -5.54234843
     8          3.49666714          0.00000000         -6.60089604

 Electric dipole moment (dipole orientation):
 (Debye = 10**-18 statcoulomb cm , SI units = C m)
                  (au)            (Debye)         (10**-30 SI)
   Tot        0.567077D+00      0.144137D+01      0.480788D+01
   x          0.000000D+00      0.000000D+00      0.000000D+00
   y          0.000000D+00      0.000000D+00      0.000000D+00
   z          0.567077D+00      0.144137D+01      0.480788D+01

 Dipole polarizability, Alpha (dipole orientation).
 (esu units = cm**3 , SI units = C**2 m**2 J**-1)
 Alpha(0;0):
               (au)            (10**-24 esu)      (10**-40 SI)
   iso        0.273313D+02      0.405008D+01      0.450632D+01
   aniso      0.217943D+02      0.322958D+01      0.359340D+01
   xx         0.272746D+02      0.404168D+01      0.449698D+01
   yx         0.000000D+00      0.000000D+00      0.000000D+00
   yy         0.179098D+02      0.265396D+01      0.295293D+01
   zx        -0.830841D+01     -0.123118D+01     -0.136987D+01
   zy         0.000000D+00      0.000000D+00      0.000000D+00
   zz         0.368094D+02      0.545459D+01      0.606905D+01

 ----------------------------------------------------------------------
 1\1\GINC-N2109\Freq\RMP2-FC\Aug-CC-pVTZ\H1N1O3\CGAVINH\21-Feb-2022\1\\
 #p freq mp2/aug-cc-pvtz density=current\\title\\0,1\H\O,1,r1\O,2,r2,1,
 a1\N,3,r3,2,a2,1,d1,0\O,4,r4,3,a3,2,d2,0\\r1=0.96897556\r2=1.45491931\
 r3=1.45878406\r4=1.17072885\a1=97.59494903\a2=102.29752444\a3=108.1053
 6085\d1=180.\d2=180.\\Version=ES64L-G16RevB.01\State=1-A'\HF=-279.5016
 771\MP2=-280.4466666\RMSD=3.749e-09\RMSF=1.826e-03\ZeroPoint=0.0218942
 \Thermal=0.0260045\Dipole=-0.148517,0.,-0.5472837\DipoleDeriv=0.265802
 9,0.,0.0480063,0.,0.3553645,0.,0.081322,0.,0.2740899,-0.330354,0.,-0.2
 076459,0.,-0.3144409,0.,-0.1125276,0.,-0.2237798,-0.040777,0.,0.151937
 7,0.,-0.0881132,0.,-0.7473942,0.,-1.3358476,0.896805,0.,0.9043611,0.,0
 .0693324,0.,0.9149683,0.,1.6435578,-0.7914768,0.,-0.8966591,0.,-0.0221
 428,0.,-0.1363685,0.,-0.3580203\Polar=32.1286376,0.,17.9097921,9.57862
 91,0.,31.9553565\Quadrupole=-1.5235184,-0.7190831,2.2426015,0.,2.07849
 05,0.\PG=CS [SG(H1N1O3)]\NImag=1\\0.06464507,0.,-0.00232003,0.00541539
 ,0.,0.51231329,-0.03574861,0.,-0.01633872,0.27318799,0.,0.00295218,0.,
 0.,0.00211642,0.04815277,0.,-0.50849774,0.03415858,0.,0.59452678,-0.01
 833554,0.,0.01244664,-0.21989426,0.,-0.02135539,0.34289429,0.,0.001031
 59,0.,0.,-0.00679093,0.,0.,0.00491765,-0.05318951,0.,-0.00058685,-0.01
 950857,0.,-0.07852630,0.03902111,0.,0.18291177,-0.00910889,0.,-0.00484
 731,-0.01770148,0.,-0.05195774,-0.07634332,0.,0.17262210,0.82907598,0.
 ,-0.00269939,0.,0.,-0.00460015,0.,0.,0.00671028,0.,0.,0.01111150,0.005
 44668,0.,-0.00454392,0.01167447,0.,0.01751378,0.06231751,0.,-0.0834437
 2,-0.02526078,0.,0.18451574,-0.00145203,0.,0.00332399,0.00015636,0.,-0
 .00899823,-0.02832117,0.,-0.13894513,-0.72592228,0.,-0.05417788,0.7555
 3912,0.,0.00103565,0.,0.,0.00632248,0.,0.,-0.00586858,0.,0.,-0.0105222
 4,0.,0.,0.00903270,-0.00582533,0.,0.00131522,-0.00998576,0.,-0.0250165
 1,-0.09242988,0.,-0.02035490,-0.09055627,0.,-0.11404189,0.19879724,0.,
 0.15809808\\0.00012973,0.,-0.00002149,0.00018247,0.,0.00072640,0.00325
 636,0.,-0.00049253,-0.00261889,0.,0.00381778,-0.00094968,0.,-0.0040301
 6\\\@


 I KNOW YOU BELIEVE YOU UNDERSTAND WHAT YOU THINK I SAID,
 BUT I AM NOT SURE YOU REALIZE THAT WHAT YOU HEARD IS NOT WHAT I MEANT.
 Job cpu time:       0 days  2 hours  0 minutes 20.4 seconds.
 Elapsed time:       0 days  0 hours  4 minutes 21.1 seconds.
 File lengths (MBytes):  RWF=   7239 Int=      0 D2E=      0 Chk=      8 Scr=      1
 Normal termination of Gaussian 16 at Mon Feb 21 20:58:47 2022.
