 Entering Gaussian System, Link 0=g16
 Input=hoono_r1_0p963985.gjf
 Output=hoono_r1_0p963985.log
 Initial command:
 /sw/contrib/gaussian/g16/B01/g16/l1.exe "/scr/Gau-11662.inp" -scrdir="/scr/"
 Entering Link 1 = /sw/contrib/gaussian/g16/B01/g16/l1.exe PID=     11663.
  
 Copyright (c) 1988-2017, Gaussian, Inc.  All Rights Reserved.
  
 This is part of the Gaussian(R) 16 program.  It is based on
 the Gaussian(R) 09 system (copyright 2009, Gaussian, Inc.),
 the Gaussian(R) 03 system (copyright 2003, Gaussian, Inc.),
 the Gaussian(R) 98 system (copyright 1998, Gaussian, Inc.),
 the Gaussian(R) 94 system (copyright 1995, Gaussian, Inc.),
 the Gaussian 92(TM) system (copyright 1992, Gaussian, Inc.),
 the Gaussian 90(TM) system (copyright 1990, Gaussian, Inc.),
 the Gaussian 88(TM) system (copyright 1988, Gaussian, Inc.),
 the Gaussian 86(TM) system (copyright 1986, Carnegie Mellon
 University), and the Gaussian 82(TM) system (copyright 1983,
 Carnegie Mellon University). Gaussian is a federally registered
 trademark of Gaussian, Inc.
  
 This software contains proprietary and confidential information,
 including trade secrets, belonging to Gaussian, Inc.
  
 This software is provided under written license and may be
 used, copied, transmitted, or stored only in accord with that
 written license.
  
 The following legend is applicable only to US Government
 contracts under FAR:
  
                    RESTRICTED RIGHTS LEGEND
  
 Use, reproduction and disclosure by the US Government is
 subject to restrictions as set forth in subparagraphs (a)
 and (c) of the Commercial Computer Software - Restricted
 Rights clause in FAR 52.227-19.
  
 Gaussian, Inc.
 340 Quinnipiac St., Bldg. 40, Wallingford CT 06492
  
  
 ---------------------------------------------------------------
 Warning -- This program may not be used in any manner that
 competes with the business of Gaussian, Inc. or will provide
 assistance to any competitor of Gaussian, Inc.  The licensee
 of this program is prohibited from giving any competitor of
 Gaussian, Inc. access to this program.  By using this program,
 the user acknowledges that Gaussian, Inc. is engaged in the
 business of creating and licensing software in the field of
 computational chemistry and represents and warrants to the
 licensee that it is not a competitor of Gaussian, Inc. and that
 it will not use this program in any manner prohibited above.
 ---------------------------------------------------------------
  

 Cite this work as:
 Gaussian 16, Revision B.01,
 M. J. Frisch, G. W. Trucks, H. B. Schlegel, G. E. Scuseria, 
 M. A. Robb, J. R. Cheeseman, G. Scalmani, V. Barone, 
 G. A. Petersson, H. Nakatsuji, X. Li, M. Caricato, A. V. Marenich, 
 J. Bloino, B. G. Janesko, R. Gomperts, B. Mennucci, H. P. Hratchian, 
 J. V. Ortiz, A. F. Izmaylov, J. L. Sonnenberg, D. Williams-Young, 
 F. Ding, F. Lipparini, F. Egidi, J. Goings, B. Peng, A. Petrone, 
 T. Henderson, D. Ranasinghe, V. G. Zakrzewski, J. Gao, N. Rega, 
 G. Zheng, W. Liang, M. Hada, M. Ehara, K. Toyota, R. Fukuda, 
 J. Hasegawa, M. Ishida, T. Nakajima, Y. Honda, O. Kitao, H. Nakai, 
 T. Vreven, K. Throssell, J. A. Montgomery, Jr., J. E. Peralta, 
 F. Ogliaro, M. J. Bearpark, J. J. Heyd, E. N. Brothers, K. N. Kudin, 
 V. N. Staroverov, T. A. Keith, R. Kobayashi, J. Normand, 
 K. Raghavachari, A. P. Rendell, J. C. Burant, S. S. Iyengar, 
 J. Tomasi, M. Cossi, J. M. Millam, M. Klene, C. Adamo, R. Cammi, 
 J. W. Ochterski, R. L. Martin, K. Morokuma, O. Farkas, 
 J. B. Foresman, and D. J. Fox, Gaussian, Inc., Wallingford CT, 2016.
 
 ******************************************
 Gaussian 16:  ES64L-G16RevB.01 20-Dec-2017
                21-Feb-2022 
 ******************************************
 %nproc=28
 Will use up to   28 processors via shared memory.
 %mem=120GB
 %chk=hoono_r1_0p963985.chk
 ---------------------------------------
 #p freq mp2/aug-cc-pvtz density=current
 ---------------------------------------
 1/10=4,30=1,38=1/1,3;
 2/12=2,17=6,18=5,40=1/2;
 3/5=16,6=1,7=10,11=9,25=1,30=1,71=2,140=1/1,2,3;
 4//1;
 5/5=2,38=5,98=1/2;
 8/6=3,8=1,10=1,19=11,30=-1/1;
 9/15=3,16=-3/6;
 11/6=1,8=1,15=11,17=12,24=-1,27=1,28=-2,29=300,32=6,42=3/1,2,10;
 10/6=2,21=1/2;
 8/6=4,8=1,10=1,19=11,30=-1/11,4;
 10/5=1,20=4/2;
 11/12=2,14=11,16=1,17=2,28=-2,42=3,76=2/2,10,12;
 6/7=2,8=2,9=2,10=2,22=-1/1;
 7/8=1,10=1,12=2,25=1,44=2/1,2,3,16;
 1/10=4,30=1/3;
 99//99;
 Leave Link    1 at Mon Feb 21 20:01:47 2022, MaxMem= 16106127360 cpu:               2.1 elap:               0.1
 (Enter /sw/contrib/gaussian/g16/B01/g16/l101.exe)
 -----
 title
 -----
 Symbolic Z-matrix:
 Charge =  0 Multiplicity = 1
 H
 O                    1    r1
 O                    2    r2       1    a1
 N                    3    r3       2    a2       1    d1       0
 O                    4    r4       3    a3       2    d2       0
       Variables:
  r1                    0.96399                  
  r2                    1.45492                  
  r3                    1.45878                  
  r4                    1.17073                  
  a1                   97.59495                  
  a2                  102.29752                  
  a3                  109.06955                  
  d1                  180.                       
  d2                  180.                       
 
 ITRead=  0  0  0  0  0
 MicOpt= -1 -1 -1 -1 -1
 NAtoms=      5 NQM=        5 NQMF=       0 NMMI=      0 NMMIF=      0
                NMic=       0 NMicF=      0.
                    Isotopes and Nuclear Properties:
 (Nuclear quadrupole moments (NQMom) in fm**2, nuclear magnetic moments (NMagM)
  in nuclear magnetons)

  Atom         1           2           3           4           5
 IAtWgt=           1          16          16          14          16
 AtmWgt=   1.0078250  15.9949146  15.9949146  14.0030740  15.9949146
 NucSpn=           1           0           0           2           0
 AtZEff=  -0.0000000  -0.0000000  -0.0000000  -0.0000000  -0.0000000
 NQMom=    0.0000000   0.0000000   0.0000000   2.0440000   0.0000000
 NMagM=    2.7928460   0.0000000   0.0000000   0.4037610   0.0000000
 AtZNuc=   1.0000000   8.0000000   8.0000000   7.0000000   8.0000000
 Leave Link  101 at Mon Feb 21 20:01:47 2022, MaxMem= 16106127360 cpu:               3.3 elap:               0.2
 (Enter /sw/contrib/gaussian/g16/B01/g16/l103.exe)

 GradGradGradGradGradGradGradGradGradGradGradGradGradGradGradGradGradGrad
 Berny optimization.
 Initialization pass.
                       ----------------------------
                       !    Initial Parameters    !
                       ! (Angstroms and Degrees)  !
 ----------------------                            ----------------------
 !      Name          Value   Derivative information (Atomic Units)     !
 ------------------------------------------------------------------------
 !       r1          0.964    calculate D2E/DX2 analytically            !
 !       r2          1.4549   calculate D2E/DX2 analytically            !
 !       r3          1.4588   calculate D2E/DX2 analytically            !
 !       r4          1.1707   calculate D2E/DX2 analytically            !
 !       a1         97.5949   calculate D2E/DX2 analytically            !
 !       a2        102.2975   calculate D2E/DX2 analytically            !
 !       a3        109.0696   calculate D2E/DX2 analytically            !
 !       d1        180.0      calculate D2E/DX2 analytically            !
 !       d2        180.0      calculate D2E/DX2 analytically            !
 ------------------------------------------------------------------------
 Trust Radius=3.00D-01 FncErr=1.00D-07 GrdErr=1.00D-07 EigMax=2.50D+02 EigMin=1.00D-04
 Number of steps in this run=      2 maximum allowed number of steps=      2.
 GradGradGradGradGradGradGradGradGradGradGradGradGradGradGradGradGradGrad

 Leave Link  103 at Mon Feb 21 20:01:47 2022, MaxMem= 16106127360 cpu:               1.3 elap:               0.1
 (Enter /sw/contrib/gaussian/g16/B01/g16/l202.exe)
                          Input orientation:                          
 ---------------------------------------------------------------------
 Center     Atomic      Atomic             Coordinates (Angstroms)
 Number     Number       Type             X           Y           Z
 ---------------------------------------------------------------------
      1          1           0        0.000000    0.000000    0.000000
      2          8           0        0.000000    0.000000    0.963985
      3          8           0        1.442156    0.000000    1.156281
      4          7           0        1.561752    0.000000    2.610154
      5          8           0        2.695867    0.000000    2.900649
 ---------------------------------------------------------------------
                    Distance matrix (angstroms):
                    1          2          3          4          5
     1  H    0.000000
     2  O    0.963985   0.000000
     3  O    1.848458   1.454919   0.000000
     4  N    3.041705   2.269127   1.458784   0.000000
     5  O    3.959983   3.319392   2.148165   1.170729   0.000000
 Stoichiometry    HNO3
 Framework group  CS[SG(HNO3)]
 Deg. of freedom     7
 Full point group                 CS      NOp   2
 Largest Abelian subgroup         CS      NOp   2
 Largest concise Abelian subgroup C1      NOp   1
                         Standard orientation:                         
 ---------------------------------------------------------------------
 Center     Atomic      Atomic             Coordinates (Angstroms)
 Number     Number       Type             X           Y           Z
 ---------------------------------------------------------------------
      1          1           0        1.548599    1.682440    0.000000
      2          8           0        1.454062    0.723101    0.000000
      3          8           0        0.000000    0.673164    0.000000
      4          7           0       -0.261600   -0.761972   -0.000000
      5          8           0       -1.418737   -0.939845   -0.000000
 ---------------------------------------------------------------------
 Rotational constants (GHZ):          54.9759292           5.0118840           4.5931493
 Leave Link  202 at Mon Feb 21 20:01:47 2022, MaxMem= 16106127360 cpu:               0.6 elap:               0.1
 (Enter /sw/contrib/gaussian/g16/B01/g16/l301.exe)
 Standard basis: Aug-CC-pVTZ (5D, 7F)
 Ernie: Thresh=  0.10000D-02 Tol=  0.10000D-05 Strict=F.
 Ernie:  12 primitive shells out of 131 were deleted.
 There are   166 symmetry adapted cartesian basis functions of A'  symmetry.
 There are    79 symmetry adapted cartesian basis functions of A"  symmetry.
 There are   136 symmetry adapted basis functions of A'  symmetry.
 There are    71 symmetry adapted basis functions of A"  symmetry.
   207 basis functions,   315 primitive gaussians,   245 cartesian basis functions
    16 alpha electrons       16 beta electrons
       nuclear repulsion energy       116.9011931489 Hartrees.
 IExCor=    0 DFT=F Ex=HF Corr=None ExCW=0 ScaHFX=  1.000000
 ScaDFX=  1.000000  1.000000  1.000000  1.000000 ScalE2=  1.000000  1.000000
 IRadAn=      5 IRanWt=     -1 IRanGd=            0 ICorTp=0 IEmpDi=  4
 NAtoms=    5 NActive=    5 NUniq=    5 SFac= 1.00D+00 NAtFMM=   60 NAOKFM=F Big=F
 Integral buffers will be    131072 words long.
 Raffenetti 1 integral format.
 Two-electron integral symmetry is turned on.
 Leave Link  301 at Mon Feb 21 20:01:47 2022, MaxMem= 16106127360 cpu:               2.4 elap:               0.1
 (Enter /sw/contrib/gaussian/g16/B01/g16/l302.exe)
 NPDir=0 NMtPBC=     1 NCelOv=     1 NCel=       1 NClECP=     1 NCelD=      1
         NCelK=      1 NCelE2=     1 NClLst=     1 CellRange=     0.0.
 One-electron integrals computed using PRISM.
 One-electron integral symmetry used in STVInt
 NBasis=   207 RedAO= T EigKep=  1.81D-04  NBF=   136    71
 NBsUse=   207 1.00D-06 EigRej= -1.00D+00 NBFU=   136    71
 Leave Link  302 at Mon Feb 21 20:01:47 2022, MaxMem= 16106127360 cpu:               4.5 elap:               0.2
 (Enter /sw/contrib/gaussian/g16/B01/g16/l303.exe)
 DipDrv:  MaxL=1.
 Leave Link  303 at Mon Feb 21 20:01:47 2022, MaxMem= 16106127360 cpu:               1.9 elap:               0.1
 (Enter /sw/contrib/gaussian/g16/B01/g16/l401.exe)
 ExpMin= 2.53D-02 ExpMax= 1.53D+04 ExpMxC= 5.22D+02 IAcc=3 IRadAn=         5 AccDes= 0.00D+00
 Harris functional with IExCor=  205 and IRadAn=       5 diagonalized for initial guess.
 HarFok:  IExCor=  205 AccDes= 0.00D+00 IRadAn=         5 IDoV= 1 UseB2=F ITyADJ=14
 ICtDFT=  3500011 ScaDFX=  1.000000  1.000000  1.000000  1.000000
 FoFCou: FMM=F IPFlag=           0 FMFlag=      100000 FMFlg1=           0
         NFxFlg=           0 DoJE=T BraDBF=F KetDBF=T FulRan=T
         wScrn=  0.000000 ICntrl=       500 IOpCl=  0 I1Cent=   200000004 NGrid=           0
         NMat0=    1 NMatS0=      1 NMatT0=    0 NMatD0=    1 NMtDS0=    0 NMtDT0=    0
 Petite list used in FoFCou.
 Harris En= -279.628742876239    
 JPrj=0 DoOrth=F DoCkMO=F.
 Initial guess orbital symmetries:
       Occupied  (A') (A') (A') (A') (A') (A') (A') (A') (A') (A')
                 (A") (A') (A') (A") (A") (A')
       Virtual   (A") (A') (A') (A') (A') (A') (A") (A') (A') (A')
                 (A") (A') (A") (A') (A') (A") (A') (A") (A') (A')
                 (A') (A') (A') (A') (A') (A") (A') (A") (A') (A')
                 (A") (A') (A") (A') (A') (A") (A') (A") (A') (A')
                 (A") (A') (A") (A') (A") (A') (A') (A') (A") (A")
                 (A') (A') (A') (A') (A") (A') (A") (A') (A") (A')
                 (A') (A') (A") (A') (A') (A") (A') (A") (A') (A')
                 (A") (A') (A') (A") (A") (A') (A') (A") (A') (A')
                 (A') (A") (A') (A") (A') (A") (A') (A") (A') (A')
                 (A') (A") (A') (A") (A') (A") (A") (A') (A') (A")
                 (A') (A') (A") (A') (A') (A') (A') (A") (A") (A')
                 (A") (A') (A') (A') (A") (A') (A') (A') (A") (A')
                 (A") (A') (A') (A") (A") (A') (A") (A') (A") (A')
                 (A') (A') (A') (A") (A") (A') (A") (A') (A') (A')
                 (A') (A") (A") (A') (A') (A") (A') (A') (A') (A')
                 (A") (A') (A') (A") (A') (A") (A') (A") (A') (A")
                 (A') (A") (A') (A") (A') (A") (A") (A") (A') (A')
                 (A") (A') (A") (A') (A") (A') (A") (A") (A') (A')
                 (A') (A') (A') (A') (A') (A') (A') (A') (A') (A')
                 (A')
 The electronic state of the initial guess is 1-A'.
 Leave Link  401 at Mon Feb 21 20:01:48 2022, MaxMem= 16106127360 cpu:               6.8 elap:               0.3
 (Enter /sw/contrib/gaussian/g16/B01/g16/l502.exe)
 Keep R1 ints in memory in symmetry-blocked form, NReq=348887737.
 FoFCou: FMM=F IPFlag=           0 FMFlag=           0 FMFlg1=           0
         NFxFlg=           0 DoJE=F BraDBF=F KetDBF=F FulRan=T
         wScrn=  0.000000 ICntrl=       600 IOpCl=  0 I1Cent=           0 NGrid=           0
         NMat0=    1 NMatS0=  21528 NMatT0=    0 NMatD0=    1 NMtDS0=    0 NMtDT0=    0
 Petite list used in FoFCou.
 Closed shell SCF:
 Using DIIS extrapolation, IDIIS=  1040.
 NGot= 16106127360 LenX= 15988850015 LenY= 15988789549
 Requested convergence on RMS density matrix=1.00D-08 within 128 cycles.
 Requested convergence on MAX density matrix=1.00D-06.
 Requested convergence on             energy=1.00D-06.
 No special actions if energy rises.

 Cycle   1  Pass 1  IDiag  1:
 E= -279.370363494419    
 DIIS: error= 2.63D-02 at cycle   1 NSaved=   1.
 NSaved= 1 IEnMin= 1 EnMin= -279.370363494419     IErMin= 1 ErrMin= 2.63D-02
 ErrMax= 2.63D-02  0.00D+00 EMaxC= 1.00D-01 BMatC= 4.39D-01 BMatP= 4.39D-01
 IDIUse=3 WtCom= 7.37D-01 WtEn= 2.63D-01
 Coeff-Com:  0.100D+01
 Coeff-En:   0.100D+01
 Coeff:      0.100D+01
 Gap=     0.513 Goal=   None    Shift=    0.000
 GapD=    0.513 DampG=2.000 DampE=0.500 DampFc=1.0000 IDamp=-1.
 RMSDP=1.62D-03 MaxDP=9.92D-02              OVMax= 1.13D-01

 Cycle   2  Pass 1  IDiag  1:
 E= -279.452379967984     Delta-E=       -0.082016473565 Rises=F Damp=F
 DIIS: error= 1.80D-02 at cycle   2 NSaved=   2.
 NSaved= 2 IEnMin= 2 EnMin= -279.452379967984     IErMin= 2 ErrMin= 1.80D-02
 ErrMax= 1.80D-02  0.00D+00 EMaxC= 1.00D-01 BMatC= 7.22D-02 BMatP= 4.39D-01
 IDIUse=3 WtCom= 8.20D-01 WtEn= 1.80D-01
 Coeff-Com:  0.196D+00 0.804D+00
 Coeff-En:   0.000D+00 0.100D+01
 Coeff:      0.160D+00 0.840D+00
 Gap=     0.530 Goal=   None    Shift=    0.000
 RMSDP=9.03D-04 MaxDP=3.73D-02 DE=-8.20D-02 OVMax= 6.93D-02

 Cycle   3  Pass 1  IDiag  1:
 E= -279.481687636548     Delta-E=       -0.029307668563 Rises=F Damp=F
 DIIS: error= 1.04D-02 at cycle   3 NSaved=   3.
 NSaved= 3 IEnMin= 3 EnMin= -279.481687636548     IErMin= 3 ErrMin= 1.04D-02
 ErrMax= 1.04D-02  0.00D+00 EMaxC= 1.00D-01 BMatC= 2.88D-02 BMatP= 7.22D-02
 IDIUse=3 WtCom= 8.96D-01 WtEn= 1.04D-01
 Coeff-Com: -0.330D-01 0.378D+00 0.655D+00
 Coeff-En:   0.000D+00 0.240D+00 0.760D+00
 Coeff:     -0.295D-01 0.364D+00 0.666D+00
 Gap=     0.510 Goal=   None    Shift=    0.000
 RMSDP=3.77D-04 MaxDP=1.54D-02 DE=-2.93D-02 OVMax= 3.82D-02

 Cycle   4  Pass 1  IDiag  1:
 E= -279.500825298196     Delta-E=       -0.019137661648 Rises=F Damp=F
 DIIS: error= 1.31D-03 at cycle   4 NSaved=   4.
 NSaved= 4 IEnMin= 4 EnMin= -279.500825298196     IErMin= 4 ErrMin= 1.31D-03
 ErrMax= 1.31D-03  0.00D+00 EMaxC= 1.00D-01 BMatC= 4.98D-04 BMatP= 2.88D-02
 IDIUse=3 WtCom= 9.87D-01 WtEn= 1.31D-02
 Coeff-Com: -0.117D-01 0.579D-01 0.160D+00 0.794D+00
 Coeff-En:   0.000D+00 0.000D+00 0.000D+00 0.100D+01
 Coeff:     -0.116D-01 0.571D-01 0.158D+00 0.797D+00
 Gap=     0.502 Goal=   None    Shift=    0.000
 RMSDP=9.03D-05 MaxDP=2.78D-03 DE=-1.91D-02 OVMax= 1.12D-02

 Cycle   5  Pass 1  IDiag  1:
 E= -279.501503552568     Delta-E=       -0.000678254373 Rises=F Damp=F
 DIIS: error= 7.36D-04 at cycle   5 NSaved=   5.
 NSaved= 5 IEnMin= 5 EnMin= -279.501503552568     IErMin= 5 ErrMin= 7.36D-04
 ErrMax= 7.36D-04  0.00D+00 EMaxC= 1.00D-01 BMatC= 8.71D-05 BMatP= 4.98D-04
 IDIUse=3 WtCom= 9.93D-01 WtEn= 7.36D-03
 Coeff-Com:  0.613D-02-0.722D-01-0.118D+00 0.177D-01 0.117D+01
 Coeff-En:   0.000D+00 0.000D+00 0.000D+00 0.000D+00 0.100D+01
 Coeff:      0.609D-02-0.717D-01-0.117D+00 0.176D-01 0.117D+01
 Gap=     0.502 Goal=   None    Shift=    0.000
 RMSDP=7.64D-05 MaxDP=2.11D-03 DE=-6.78D-04 OVMax= 1.11D-02

 Cycle   6  Pass 1  IDiag  1:
 E= -279.501819471824     Delta-E=       -0.000315919256 Rises=F Damp=F
 DIIS: error= 2.86D-04 at cycle   6 NSaved=   6.
 NSaved= 6 IEnMin= 6 EnMin= -279.501819471824     IErMin= 6 ErrMin= 2.86D-04
 ErrMax= 2.86D-04  0.00D+00 EMaxC= 1.00D-01 BMatC= 1.67D-05 BMatP= 8.71D-05
 IDIUse=3 WtCom= 9.97D-01 WtEn= 2.86D-03
 Coeff-Com:  0.584D-03 0.174D-02 0.473D-02-0.129D+00-0.235D+00 0.136D+01
 Coeff-En:   0.000D+00 0.000D+00 0.000D+00 0.000D+00 0.000D+00 0.100D+01
 Coeff:      0.582D-03 0.174D-02 0.472D-02-0.128D+00-0.234D+00 0.136D+01
 Gap=     0.503 Goal=   None    Shift=    0.000
 RMSDP=4.54D-05 MaxDP=1.25D-03 DE=-3.16D-04 OVMax= 5.55D-03

 Cycle   7  Pass 1  IDiag  1:
 E= -279.501892300077     Delta-E=       -0.000072828253 Rises=F Damp=F
 DIIS: error= 1.22D-04 at cycle   7 NSaved=   7.
 NSaved= 7 IEnMin= 7 EnMin= -279.501892300077     IErMin= 7 ErrMin= 1.22D-04
 ErrMax= 1.22D-04  0.00D+00 EMaxC= 1.00D-01 BMatC= 4.49D-06 BMatP= 1.67D-05
 IDIUse=3 WtCom= 9.99D-01 WtEn= 1.22D-03
 Coeff-Com: -0.941D-03 0.135D-01 0.265D-01-0.234D-01-0.288D+00 0.390D+00
 Coeff-Com:  0.882D+00
 Coeff-En:   0.000D+00 0.000D+00 0.000D+00 0.000D+00 0.000D+00 0.000D+00
 Coeff-En:   0.100D+01
 Coeff:     -0.940D-03 0.135D-01 0.265D-01-0.234D-01-0.287D+00 0.389D+00
 Coeff:      0.882D+00
 Gap=     0.503 Goal=   None    Shift=    0.000
 RMSDP=1.33D-05 MaxDP=3.78D-04 DE=-7.28D-05 OVMax= 1.55D-03

 Cycle   8  Pass 1  IDiag  1:
 E= -279.501901165894     Delta-E=       -0.000008865817 Rises=F Damp=F
 DIIS: error= 5.77D-05 at cycle   8 NSaved=   8.
 NSaved= 8 IEnMin= 8 EnMin= -279.501901165894     IErMin= 8 ErrMin= 5.77D-05
 ErrMax= 5.77D-05  0.00D+00 EMaxC= 1.00D-01 BMatC= 6.05D-07 BMatP= 4.49D-06
 IDIUse=1 WtCom= 1.00D+00 WtEn= 0.00D+00
 Coeff-Com: -0.448D-03 0.343D-02 0.758D-02 0.273D-01-0.405D-01-0.198D+00
 Coeff-Com:  0.173D+00 0.103D+01
 Coeff:     -0.448D-03 0.343D-02 0.758D-02 0.273D-01-0.405D-01-0.198D+00
 Coeff:      0.173D+00 0.103D+01
 Gap=     0.502 Goal=   None    Shift=    0.000
 RMSDP=6.89D-06 MaxDP=2.03D-04 DE=-8.87D-06 OVMax= 7.45D-04

 Cycle   9  Pass 1  IDiag  1:
 E= -279.501902934400     Delta-E=       -0.000001768506 Rises=F Damp=F
 DIIS: error= 1.58D-05 at cycle   9 NSaved=   9.
 NSaved= 9 IEnMin= 9 EnMin= -279.501902934400     IErMin= 9 ErrMin= 1.58D-05
 ErrMax= 1.58D-05  0.00D+00 EMaxC= 1.00D-01 BMatC= 6.93D-08 BMatP= 6.05D-07
 IDIUse=1 WtCom= 1.00D+00 WtEn= 0.00D+00
 Coeff-Com:  0.123D-03-0.172D-02-0.308D-02-0.211D-02 0.343D-01 0.318D-04
 Coeff-Com: -0.168D+00-0.102D+00 0.124D+01
 Coeff:      0.123D-03-0.172D-02-0.308D-02-0.211D-02 0.343D-01 0.318D-04
 Coeff:     -0.168D+00-0.102D+00 0.124D+01
 Gap=     0.502 Goal=   None    Shift=    0.000
 RMSDP=1.94D-06 MaxDP=6.64D-05 DE=-1.77D-06 OVMax= 1.75D-04

 Cycle  10  Pass 1  IDiag  1:
 E= -279.501903094421     Delta-E=       -0.000000160021 Rises=F Damp=F
 DIIS: error= 4.12D-06 at cycle  10 NSaved=  10.
 NSaved=10 IEnMin=10 EnMin= -279.501903094421     IErMin=10 ErrMin= 4.12D-06
 ErrMax= 4.12D-06  0.00D+00 EMaxC= 1.00D-01 BMatC= 5.52D-09 BMatP= 6.93D-08
 IDIUse=1 WtCom= 1.00D+00 WtEn= 0.00D+00
 Coeff-Com:  0.306D-04-0.238D-03-0.316D-03-0.267D-02 0.152D-02 0.196D-01
 Coeff-Com: -0.129D-01-0.736D-01-0.821D-01 0.115D+01
 Coeff:      0.306D-04-0.238D-03-0.316D-03-0.267D-02 0.152D-02 0.196D-01
 Coeff:     -0.129D-01-0.736D-01-0.821D-01 0.115D+01
 Gap=     0.502 Goal=   None    Shift=    0.000
 RMSDP=5.04D-07 MaxDP=2.10D-05 DE=-1.60D-07 OVMax= 4.17D-05

 Cycle  11  Pass 1  IDiag  1:
 E= -279.501903106908     Delta-E=       -0.000000012487 Rises=F Damp=F
 DIIS: error= 2.03D-06 at cycle  11 NSaved=  11.
 NSaved=11 IEnMin=11 EnMin= -279.501903106908     IErMin=11 ErrMin= 2.03D-06
 ErrMax= 2.03D-06  0.00D+00 EMaxC= 1.00D-01 BMatC= 6.58D-10 BMatP= 5.52D-09
 IDIUse=1 WtCom= 1.00D+00 WtEn= 0.00D+00
 Coeff-Com: -0.212D-04 0.243D-03 0.486D-03 0.533D-03-0.428D-02-0.354D-02
 Coeff-Com:  0.211D-01 0.308D-01-0.139D+00-0.178D+00 0.127D+01
 Coeff:     -0.212D-04 0.243D-03 0.486D-03 0.533D-03-0.428D-02-0.354D-02
 Coeff:      0.211D-01 0.308D-01-0.139D+00-0.178D+00 0.127D+01
 Gap=     0.502 Goal=   None    Shift=    0.000
 RMSDP=1.78D-07 MaxDP=6.51D-06 DE=-1.25D-08 OVMax= 1.73D-05

 Cycle  12  Pass 1  IDiag  1:
 E= -279.501903108709     Delta-E=       -0.000000001802 Rises=F Damp=F
 DIIS: error= 5.87D-07 at cycle  12 NSaved=  12.
 NSaved=12 IEnMin=12 EnMin= -279.501903108709     IErMin=12 ErrMin= 5.87D-07
 ErrMax= 5.87D-07  0.00D+00 EMaxC= 1.00D-01 BMatC= 7.16D-11 BMatP= 6.58D-10
 IDIUse=1 WtCom= 1.00D+00 WtEn= 0.00D+00
 Coeff-Com:  0.125D-05-0.291D-04-0.632D-04 0.180D-03 0.109D-02-0.231D-02
 Coeff-Com: -0.412D-02 0.550D-02 0.417D-01-0.115D+00-0.279D+00 0.135D+01
 Coeff:      0.125D-05-0.291D-04-0.632D-04 0.180D-03 0.109D-02-0.231D-02
 Coeff:     -0.412D-02 0.550D-02 0.417D-01-0.115D+00-0.279D+00 0.135D+01
 Gap=     0.502 Goal=   None    Shift=    0.000
 RMSDP=7.18D-08 MaxDP=2.83D-06 DE=-1.80D-09 OVMax= 6.69D-06

 Cycle  13  Pass 1  IDiag  1:
 E= -279.501903108938     Delta-E=       -0.000000000229 Rises=F Damp=F
 DIIS: error= 1.69D-07 at cycle  13 NSaved=  13.
 NSaved=13 IEnMin=13 EnMin= -279.501903108938     IErMin=13 ErrMin= 1.69D-07
 ErrMax= 1.69D-07  0.00D+00 EMaxC= 1.00D-01 BMatC= 4.01D-12 BMatP= 7.16D-11
 IDIUse=1 WtCom= 1.00D+00 WtEn= 0.00D+00
 Coeff-Com:  0.128D-05-0.139D-04-0.224D-04-0.888D-04 0.120D-03 0.761D-03
 Coeff-Com: -0.849D-03-0.325D-02 0.554D-03 0.413D-01-0.361D-01-0.326D+00
 Coeff-Com:  0.132D+01
 Coeff:      0.128D-05-0.139D-04-0.224D-04-0.888D-04 0.120D-03 0.761D-03
 Coeff:     -0.849D-03-0.325D-02 0.554D-03 0.413D-01-0.361D-01-0.326D+00
 Coeff:      0.132D+01
 Gap=     0.502 Goal=   None    Shift=    0.000
 RMSDP=1.91D-08 MaxDP=5.60D-07 DE=-2.29D-10 OVMax= 1.56D-06

 Cycle  14  Pass 1  IDiag  1:
 E= -279.501903108951     Delta-E=       -0.000000000012 Rises=F Damp=F
 DIIS: error= 2.44D-08 at cycle  14 NSaved=  14.
 NSaved=14 IEnMin=14 EnMin= -279.501903108951     IErMin=14 ErrMin= 2.44D-08
 ErrMax= 2.44D-08  0.00D+00 EMaxC= 1.00D-01 BMatC= 1.96D-13 BMatP= 4.01D-12
 IDIUse=1 WtCom= 1.00D+00 WtEn= 0.00D+00
 Coeff-Com: -0.189D-06 0.310D-05 0.556D-05 0.457D-05-0.823D-04 0.457D-04
 Coeff-Com:  0.281D-03 0.223D-03-0.244D-02 0.147D-02 0.170D-01-0.255D-01
 Coeff-Com: -0.200D+00 0.121D+01
 Coeff:     -0.189D-06 0.310D-05 0.556D-05 0.457D-05-0.823D-04 0.457D-04
 Coeff:      0.281D-03 0.223D-03-0.244D-02 0.147D-02 0.170D-01-0.255D-01
 Coeff:     -0.200D+00 0.121D+01
 Gap=     0.502 Goal=   None    Shift=    0.000
 RMSDP=3.79D-09 MaxDP=9.13D-08 DE=-1.24D-11 OVMax= 3.41D-07

 SCF Done:  E(RHF) =  -279.501903109     A.U. after   14 cycles
            NFock= 14  Conv=0.38D-08     -V/T= 2.0023
 KE= 2.788547799345D+02 PE=-8.951306377379D+02 EE= 2.198727615455D+02
 Leave Link  502 at Mon Feb 21 20:01:51 2022, MaxMem= 16106127360 cpu:              54.8 elap:               3.6
 (Enter /sw/contrib/gaussian/g16/B01/g16/l801.exe)
 ExpMin= 2.53D-02 ExpMax= 1.53D+04 ExpMxC= 5.22D+02 IAcc=3 IRadAn=         5 AccDes= 0.00D+00
 HarFok:  IExCor=  205 AccDes= 0.00D+00 IRadAn=         5 IDoV=-2 UseB2=F ITyADJ=14
 ICtDFT= 12500011 ScaDFX=  1.000000  1.000000  1.000000  1.000000
 Largest valence mixing into a core orbital is  2.08D-04
 Largest core mixing into a valence orbital is  3.63D-05
 Range of M.O.s used for correlation:     5   207
 NBasis=   207 NAE=    16 NBE=    16 NFC=     4 NFV=     0
 NROrb=    203 NOA=    12 NOB=    12 NVA=   191 NVB=   191

 **** Warning!!: The largest alpha MO coefficient is  0.17759871D+02

 Leave Link  801 at Mon Feb 21 20:01:51 2022, MaxMem= 16106127360 cpu:               2.2 elap:               0.1
 (Enter /sw/contrib/gaussian/g16/B01/g16/l906.exe)
 Frozen-core derivative calculation, NFC=   4 NFV=   0.
 FulOut=F Deriv=T AODrv=T NAtomX=     5
   MMem=           0  MDisk=          12 MDiskD=          12
  W3Min=      811440 MinDsk=     2425030 NBas6D=         245
 NBas2D=       30762    NTT=       30135    LW2=     7400000
    MDV= 16105574283 MDiskM=      328644 NBas2p=       30702
 Disk-based method using ON**2 memory for 12 occupieds at a time.
 Permanent disk used for amplitudes=    11516536 words.
 Estimated scratch disk usage=   321251614 words.
 IMap=   1   2   3   4   5   6   7   8   9  10  11  12  13  14  15  16
 Actual    scratch disk usage=   310331678 words.
 JobTyp=1 Pass  1:  I=   5 to  16 NPSUse= 28 ParTrn=T ParDer=T DoDerP=T.
 (rs|ai) integrals will be sorted in core.
 Spin components of T(2) and E(2):
     alpha-alpha T2 =       0.3400099269D-01 E2=     -0.1223738033D+00
     alpha-beta  T2 =       0.1867042513D+00 E2=     -0.7000610188D+00
     beta-beta   T2 =       0.3400099269D-01 E2=     -0.1223738033D+00
 The integrals were generated   1 times.
 ANorm=    0.1120136704D+01
 E2 =    -0.9448086253D+00 EUMP2 =    -0.28044671173429D+03
 Leave Link  906 at Mon Feb 21 20:03:29 2022, MaxMem= 16106127360 cpu:            2724.4 elap:              97.4
 (Enter /sw/contrib/gaussian/g16/B01/g16/l1101.exe)
 Using compressed Sx but separate Hx and Fx, NAtomX=     5.
 Will process      6 centers per pass.
 Leave Link 1101 at Mon Feb 21 20:03:29 2022, MaxMem= 16106127360 cpu:               6.4 elap:               0.3
 (Enter /sw/contrib/gaussian/g16/B01/g16/l1102.exe)
 Leave Link 1102 at Mon Feb 21 20:03:29 2022, MaxMem= 16106127360 cpu:               0.6 elap:               0.0
 (Enter /sw/contrib/gaussian/g16/B01/g16/l1110.exe)
 Forming Gx(P) for the SCF density, NAtomX=     5.
 Integral derivatives from FoFJK, PRISM(SPDF).
 Do as many integral derivatives as possible in FoFJK.
 G2DrvN: MDV=   16106126844.
 G2DrvN: will do     6 centers at a time, making    1 passes.
 Calling FoFCou, ICntrl=  3107 FMM=F I1Cent=   0 AccDes= 0.00D+00.
 FoFJK:  IHMeth= 1 ICntrl=    3107 DoSepK=F KAlg= 0 I1Cent=           0 FoldK=F
 IRaf=         0 NMat=       1 IRICut=       1 DoRegI=T DoRafI=F ISym2E= 1 IDoP0=0 IntGTp=1.
 FoFCou: FMM=F IPFlag=           0 FMFlag=      100000 FMFlg1=           0
         NFxFlg=           0 DoJE=F BraDBF=F KetDBF=F FulRan=T
         wScrn=  0.000000 ICntrl=      3107 IOpCl=  0 I1Cent=           0 NGrid=           0
         NMat0=    1 NMatS0=      1 NMatT0=    0 NMatD0=    1 NMtDS0=    0 NMtDT0=    0
 Petite list used in FoFCou.
 End of G2Drv F.D. properties file   721 does not exist.
 End of G2Drv F.D. properties file   722 does not exist.
 End of G2Drv F.D. properties file   788 does not exist.
 Leave Link 1110 at Mon Feb 21 20:03:32 2022, MaxMem= 16106127360 cpu:              83.5 elap:               3.0
 (Enter /sw/contrib/gaussian/g16/B01/g16/l1002.exe)
 Minotr:  Closed shell wavefunction.
          IDoAtm=11111
          Frozen-core window.
          Direct CPHF calculation.
          Differentiating once with respect to electric field.
                with respect to dipole field.
          Differentiating once with respect to nuclear coordinates.
          Requested convergence is 1.0D-08 RMS, and 1.0D-07 maximum.
          Secondary convergence is 1.0D-12 RMS, and 1.0D-12 maximum.
          NewPWx=T KeepS1=T KeepF1=T KeepIn=T MapXYZ=F SortEE=F KeepMc=T.
 Keep R1 ints in memory in symmetry-blocked form, NReq=348888983.
 FoFCou: FMM=F IPFlag=           0 FMFlag=           0 FMFlg1=           0
         NFxFlg=           0 DoJE=F BraDBF=F KetDBF=F FulRan=T
         wScrn=  0.000000 ICntrl=       600 IOpCl=  0 I1Cent=           0 NGrid=           0
         NMat0=    1 NMatS0=  21528 NMatT0=    0 NMatD0=    1 NMtDS0=    0 NMtDT0=    0
 Petite list used in FoFCou.
          MDV=   16106127360 using IRadAn=       1.
          Solving linear equations simultaneously, MaxMat=       0.
          There are    18 degrees of freedom in the 1st order CPHF.  IDoFFX=6 NUNeed=    18.
     15 vectors produced by pass  0 Test12= 1.70D-14 5.56D-09 XBig12= 8.28D+00 1.06D+00.
 AX will form    15 AO Fock derivatives at one time.
     15 vectors produced by pass  1 Test12= 1.70D-14 5.56D-09 XBig12= 1.34D+00 2.64D-01.
     15 vectors produced by pass  2 Test12= 1.70D-14 5.56D-09 XBig12= 1.41D-01 9.79D-02.
     15 vectors produced by pass  3 Test12= 1.70D-14 5.56D-09 XBig12= 4.97D-03 1.10D-02.
     15 vectors produced by pass  4 Test12= 1.70D-14 5.56D-09 XBig12= 9.96D-05 1.94D-03.
     15 vectors produced by pass  5 Test12= 1.70D-14 5.56D-09 XBig12= 1.41D-06 1.78D-04.
     15 vectors produced by pass  6 Test12= 1.70D-14 5.56D-09 XBig12= 1.11D-08 1.46D-05.
     13 vectors produced by pass  7 Test12= 1.70D-14 5.56D-09 XBig12= 8.22D-11 1.28D-06.
      3 vectors produced by pass  8 Test12= 1.70D-14 5.56D-09 XBig12= 5.71D-13 1.22D-07.
      2 vectors produced by pass  9 Test12= 1.70D-14 5.56D-09 XBig12= 3.70D-15 9.88D-09.
 InvSVY:  IOpt=1 It=  1 EMax= 7.77D-16
 Solved reduced A of dimension   123 with    15 vectors.
 FullF1:  Do perturbations      1 to      18.
 Saving first derivative matrices.
 End of Minotr F.D. properties file   721 does not exist.
 End of Minotr F.D. properties file   722 does not exist.
 End of Minotr F.D. properties file   788 does not exist.
 Leave Link 1002 at Mon Feb 21 20:03:35 2022, MaxMem= 16106127360 cpu:              79.5 elap:               2.9
 (Enter /sw/contrib/gaussian/g16/B01/g16/l811.exe)
 MDV= 16106127360.
 Form MO integral derivatives with frozen-active canonical formalism.
 MOERI=1 MOERIx=1 NAtoms=     5 NAtomX=     5.
 Discarding MO integrals.
 MO basis two electron integral derivatives will not be stored on disk.
 IAlg= 3 DoFC=T DoPWx=T Debug=F.
 Frozen-core window:  NFC=   4 NFV=   0.
 Reordered first order wavefunction length =     18678272
 In DefCFB: NBatch=  1 ICI= 16 ICA=191 LFMax= 96
            Large arrays: LIAPS=   619940160 LIARS=   288257200 words.
 In StABat: MaxSiz= 55 MinSiz= 25 NAtomB=  5
 DoIAMN: NPSUse= 28.
 Leave Link  811 at Mon Feb 21 20:04:58 2022, MaxMem= 16106127360 cpu:            2308.0 elap:              82.7
 (Enter /sw/contrib/gaussian/g16/B01/g16/l804.exe)
 Frozen-core window:  NFC=   4 NFV=   0.
 Closed-shell transformation, MDV= 16106127360 ITran=4 ISComp=1.
 Semi-Direct transformation.
 ModeAB=           2 MOrb=            16 LenV=   16104923051
 LASXX=     67341636 LTotXX=    67341636 LenRXX=    67341636
 LTotAB=    68301760 MaxLAS=    99807120 LenRXY=    99807120
 NonZer=   134683272 LenScr=   202817536 LnRSAI=           0
 LnScr1=           0 LExtra=           0 Total=    369966292
 MaxDsk=          -1 SrtSym=           F ITran=            4
 DoSDTr:  NPSUse= 28
 JobTyp=0 Pass  1:  I=   1 to  16.
 (rs|ai) integrals will be sorted in core.
 Complete sort for first half transformation.
 First half transformation complete.
 Begin second half transformation for I=  10.
 Begin second half transformation for I=  10.
 Complete sort for second half transformation.
 Second half transformation complete.
 Spin components of T(2) and E(2):
     alpha-alpha T2 =       0.3400099269D-01 E2=     -0.1223738033D+00
     alpha-beta  T2 =       0.1867042513D+00 E2=     -0.7000610188D+00
     beta-beta   T2 =       0.3400099269D-01 E2=     -0.1223738033D+00
 ANorm=    0.1584112519D+01
 E2 =    -0.9448086253D+00 EUMP2 =    -0.28044671173429D+03
 Leave Link  804 at Mon Feb 21 20:05:13 2022, MaxMem= 16106127360 cpu:             432.8 elap:              15.5
 (Enter /sw/contrib/gaussian/g16/B01/g16/l1002.exe)
 Minotr:  Closed shell wavefunction.
          Computing MP2/KS-MP2 derivatives.
          Using Z-Vector for PSCF gradient.
          Skipping F1 and S1 gradient terms here.
          IDoAtm=11111
          Frozen-core window.
          Using MO integrals in the linear equations.
          Forming densities via direct SCF.
          Differentiating once with respect to electric field.
                with respect to dipole field.
          Differentiating once with respect to nuclear coordinates.
          Using symmetry in CPHF.
          Requested convergence is 1.0D-10 RMS, and 1.0D-09 maximum.
          NewPWx=F KeepS1=T KeepF1=T KeepIn=T MapXYZ=F SortEE=F KeepMc=T.
          MDV=   16106127360 using IRadAn=       5.
          Solving linear equations separately, MaxMat=       0.
          There are     1 degrees of freedom in the 1st order CPHF.  IDoFFX=0 NUNeed=     1.
 FoFJK:  IHMeth= 1 ICntrl=       0 DoSepK=F KAlg= 0 I1Cent=           0 FoldK=F
 IRaf=         0 NMat=       1 IRICut=       1 DoRegI=T DoRafI=F ISym2E= 0 IDoP0=0 IntGTp=1.
 FoFCou: FMM=F IPFlag=           0 FMFlag=      100000 FMFlg1=           0
         NFxFlg=           0 DoJE=F BraDBF=F KetDBF=F FulRan=T
         wScrn=  0.000000 ICntrl=         0 IOpCl=  0 I1Cent=           0 NGrid=           0
         NMat0=    1 NMatS0=      1 NMatT0=    0 NMatD0=    1 NMtDS0=    0 NMtDT0=    0
 Symmetry not used in FoFCou.
 LinEq1:  Iter=  0 NonCon=     1 RMS=5.95D-03 Max=1.33D-01 NDo=     1
 LinEq1:  Iter=  1 NonCon=     1 RMS=1.90D-03 Max=3.83D-02 NDo=     1
 LinEq1:  Iter=  2 NonCon=     1 RMS=8.68D-04 Max=1.42D-02 NDo=     1
 LinEq1:  Iter=  3 NonCon=     1 RMS=3.87D-04 Max=7.81D-03 NDo=     1
 LinEq1:  Iter=  4 NonCon=     1 RMS=1.19D-04 Max=1.90D-03 NDo=     1
 LinEq1:  Iter=  5 NonCon=     1 RMS=4.56D-05 Max=7.25D-04 NDo=     1
 LinEq1:  Iter=  6 NonCon=     1 RMS=2.04D-05 Max=2.34D-04 NDo=     1
 LinEq1:  Iter=  7 NonCon=     1 RMS=8.16D-06 Max=1.60D-04 NDo=     1
 LinEq1:  Iter=  8 NonCon=     1 RMS=3.47D-06 Max=3.43D-05 NDo=     1
 LinEq1:  Iter=  9 NonCon=     1 RMS=9.42D-07 Max=1.31D-05 NDo=     1
 LinEq1:  Iter= 10 NonCon=     1 RMS=1.85D-07 Max=2.01D-06 NDo=     1
 LinEq1:  Iter= 11 NonCon=     1 RMS=3.44D-08 Max=3.56D-07 NDo=     1
 LinEq1:  Iter= 12 NonCon=     1 RMS=8.29D-09 Max=1.29D-07 NDo=     1
 LinEq1:  Iter= 13 NonCon=     1 RMS=1.50D-09 Max=2.58D-08 NDo=     1
 LinEq1:  Iter= 14 NonCon=     1 RMS=2.72D-10 Max=3.81D-09 NDo=     1
 LinEq1:  Iter= 15 NonCon=     0 RMS=4.89D-11 Max=5.51D-10 NDo=     1
 Linear equations converged to 1.000D-10 1.000D-09 after    15 iterations.
 End of Minotr F.D. properties file   721 does not exist.
 End of Minotr F.D. properties file   722 does not exist.
 End of Minotr F.D. properties file   788 does not exist.
 Leave Link 1002 at Mon Feb 21 20:05:16 2022, MaxMem= 16106127360 cpu:              66.2 elap:               2.4
 (Enter /sw/contrib/gaussian/g16/B01/g16/l1102.exe)
 Use density number 2.
 Symmetrizing basis deriv contribution to polar:
 IMax=3 JMax=2 DiffMx= 0.00D+00
 Leave Link 1102 at Mon Feb 21 20:05:16 2022, MaxMem= 16106127360 cpu:               0.6 elap:               0.1
 (Enter /sw/contrib/gaussian/g16/B01/g16/l1110.exe)
 Forming Gx(P) for generalized density number  2 NAtomX=     5.
 Integral derivatives from FoFJK, PRISM(SPDF).
 Do as many integral derivatives as possible in FoFJK.
 G2DrvN: MDV=   16106126844.
 G2DrvN: will do     6 centers at a time, making    1 passes.
 Calling FoFCou, ICntrl=  3107 FMM=F I1Cent=   0 AccDes= 0.00D+00.
 FoFJK:  IHMeth= 1 ICntrl=    3107 DoSepK=F KAlg= 0 I1Cent=           0 FoldK=F
 IRaf=         0 NMat=       1 IRICut=       1 DoRegI=T DoRafI=F ISym2E= 1 IDoP0=0 IntGTp=1.
 FoFCou: FMM=F IPFlag=           0 FMFlag=      100000 FMFlg1=           0
         NFxFlg=           0 DoJE=F BraDBF=F KetDBF=F FulRan=T
         wScrn=  0.000000 ICntrl=      3107 IOpCl=  0 I1Cent=           0 NGrid=           0
         NMat0=    1 NMatS0=      1 NMatT0=    0 NMatD0=    1 NMtDS0=    0 NMtDT0=    0
 Petite list used in FoFCou.
 End of G2Drv F.D. properties file   721 does not exist.
 End of G2Drv F.D. properties file   722 does not exist.
 End of G2Drv F.D. properties file   788 does not exist.
 Leave Link 1110 at Mon Feb 21 20:05:19 2022, MaxMem= 16106127360 cpu:              83.4 elap:               3.0
 (Enter /sw/contrib/gaussian/g16/B01/g16/l1112.exe)
 MP22nd: MDV=   16106127360
 This link is doing NAtomX=     5 total of    18 degrees of freedom.
 Using ON3 I/O method in MakUI.
 Frozen-core window:  NFC=   4 NFV=   0.
 Using Ix for Sx.
 Use MO integrals over full window.
 Using OV2 memory method for fx*t*t/D, MaxI=    16 DoOO2=F NP=  28.
 R2 and R3 integrals will be kept in memory, NReq=   915591705.
 FoFCou: FMM=F IPFlag=           0 FMFlag=           0 FMFlg1=           0
         NFxFlg=           0 DoJE=F BraDBF=F KetDBF=F FulRan=T
         wScrn=  0.000000 ICntrl=       600 IOpCl=  0 I1Cent=           0 NGrid=           0
         NMat0=    1 NMatS0=      1 NMatT0=    0 NMatD0=    1 NMtDS0=    0 NMtDT0=    0
 Symmetry not used in FoFCou.
 DD1Dir will call FoFMem   1 times, MxPair=       272
 NAB=   136 NAA=     0 NBB=     0.
 Symmetry is being used.
 FoFJK:  IHMeth= 1 ICntrl=       0 DoSepK=F KAlg= 0 I1Cent=           0 FoldK=F
 IRaf=         0 NMat=      18 IRICut=      45 DoRegI=T DoRafI=T ISym2E= 2 IDoP0=3 IntGTp=3.
 Discarding MO integrals.
 Leave Link 1112 at Mon Feb 21 20:06:01 2022, MaxMem= 16106127360 cpu:            1158.7 elap:              42.1
 (Enter /sw/contrib/gaussian/g16/B01/g16/l601.exe)
 Copying SCF densities to generalized density rwf, IOpCl= 0 IROHF=0.

 **********************************************************************

            Population analysis using the MP2 Density.

 **********************************************************************

 Orbital symmetries:
       Occupied  (A') (A') (A') (A') (A') (A') (A') (A') (A') (A')
                 (A") (A') (A") (A') (A") (A')
       Virtual   (A') (A") (A') (A') (A") (A') (A') (A') (A") (A')
                 (A") (A') (A') (A') (A") (A') (A') (A") (A') (A')
                 (A') (A') (A') (A') (A") (A') (A') (A") (A') (A')
                 (A") (A') (A") (A') (A') (A") (A') (A') (A") (A')
                 (A") (A') (A") (A') (A') (A") (A') (A') (A") (A')
                 (A") (A') (A') (A') (A") (A') (A") (A') (A") (A')
                 (A') (A') (A") (A') (A') (A") (A') (A") (A') (A')
                 (A") (A') (A') (A") (A") (A') (A') (A") (A') (A')
                 (A') (A") (A') (A") (A') (A") (A') (A") (A') (A')
                 (A") (A') (A') (A") (A') (A") (A') (A") (A') (A')
                 (A") (A') (A") (A') (A') (A") (A') (A') (A") (A')
                 (A") (A') (A') (A') (A") (A') (A') (A') (A") (A')
                 (A") (A') (A") (A') (A') (A") (A") (A') (A") (A')
                 (A') (A') (A') (A") (A") (A") (A') (A') (A') (A')
                 (A") (A') (A") (A') (A') (A") (A') (A') (A') (A')
                 (A") (A') (A') (A") (A') (A") (A') (A") (A') (A")
                 (A') (A") (A') (A") (A') (A") (A") (A') (A") (A')
                 (A") (A') (A") (A') (A") (A') (A") (A") (A') (A')
                 (A') (A') (A') (A') (A') (A') (A') (A') (A') (A')
                 (A')
 The electronic state is 1-A'.
 Alpha  occ. eigenvalues --  -20.69102 -20.68439 -20.65959 -15.81294  -1.62415
 Alpha  occ. eigenvalues --   -1.49637  -1.25539  -0.94818  -0.77320  -0.75958
 Alpha  occ. eigenvalues --   -0.71191  -0.68013  -0.62061  -0.58967  -0.48540
 Alpha  occ. eigenvalues --   -0.47264
 Alpha virt. eigenvalues --    0.02972   0.07160   0.08592   0.10171   0.13392
 Alpha virt. eigenvalues --    0.13394   0.14428   0.15472   0.17819   0.19416
 Alpha virt. eigenvalues --    0.19979   0.20637   0.22080   0.23528   0.23733
 Alpha virt. eigenvalues --    0.26617   0.29352   0.30411   0.31065   0.34339
 Alpha virt. eigenvalues --    0.34946   0.38729   0.42260   0.43232   0.52730
 Alpha virt. eigenvalues --    0.52918   0.55849   0.58157   0.62589   0.63828
 Alpha virt. eigenvalues --    0.67440   0.68492   0.70637   0.71133   0.72452
 Alpha virt. eigenvalues --    0.72942   0.74476   0.79142   0.79211   0.81039
 Alpha virt. eigenvalues --    0.81265   0.83066   0.86816   0.90822   0.92217
 Alpha virt. eigenvalues --    0.92639   0.95702   0.97693   0.98531   1.01747
 Alpha virt. eigenvalues --    1.05177   1.05483   1.08282   1.11843   1.14179
 Alpha virt. eigenvalues --    1.18932   1.22108   1.23363   1.33870   1.35019
 Alpha virt. eigenvalues --    1.38616   1.45487   1.48918   1.50982   1.53790
 Alpha virt. eigenvalues --    1.56696   1.57942   1.61383   1.66376   1.66936
 Alpha virt. eigenvalues --    1.70333   1.79332   1.83144   1.83459   1.87813
 Alpha virt. eigenvalues --    1.91068   1.95887   1.99234   2.00665   2.07775
 Alpha virt. eigenvalues --    2.12159   2.13196   2.14983   2.22472   2.26406
 Alpha virt. eigenvalues --    2.26499   2.28959   2.31484   2.34435   2.38710
 Alpha virt. eigenvalues --    2.42447   2.42926   2.45412   2.46292   2.47696
 Alpha virt. eigenvalues --    2.50165   2.58765   2.59679   2.62073   2.62532
 Alpha virt. eigenvalues --    2.63443   2.66675   2.75753   2.82324   2.85583
 Alpha virt. eigenvalues --    2.88451   2.89379   2.92460   2.95794   3.02599
 Alpha virt. eigenvalues --    3.06846   3.12094   3.20454   3.22704   3.31736
 Alpha virt. eigenvalues --    3.34214   3.51686   3.64543   3.83849   3.84998
 Alpha virt. eigenvalues --    4.15318   4.16479   4.18491   4.25810   4.35595
 Alpha virt. eigenvalues --    4.39433   4.46492   4.52105   4.66233   4.71257
 Alpha virt. eigenvalues --    4.80577   4.82462   4.83740   4.89585   5.02323
 Alpha virt. eigenvalues --    5.07752   5.10806   5.14762   5.18181   5.24952
 Alpha virt. eigenvalues --    5.27391   5.30929   5.34156   5.35642   5.60906
 Alpha virt. eigenvalues --    5.67363   5.77084   5.83167   5.95794   6.16750
 Alpha virt. eigenvalues --    6.30885   6.33747   6.39563   6.49361   6.50540
 Alpha virt. eigenvalues --    6.61454   6.66751   6.69961   6.75751   6.76327
 Alpha virt. eigenvalues --    6.83280   6.89827   7.01652   7.05725   7.05727
 Alpha virt. eigenvalues --    7.09066   7.12547   7.15080   7.18180   7.22632
 Alpha virt. eigenvalues --    7.25024   7.31227   7.32529   7.34884   7.39918
 Alpha virt. eigenvalues --    7.43238   7.48449   7.60832   7.61898   7.62787
 Alpha virt. eigenvalues --    7.66733   7.79490   7.88695   8.09508   8.31620
 Alpha virt. eigenvalues --    8.41554   8.54604  13.39248  14.39860  15.23481
 Alpha virt. eigenvalues --   16.15239
          Condensed to atoms (all electrons):
               1          2          3          4          5
     1  H    0.594983   0.126448   0.020631   0.012537  -0.000666
     2  O    0.126448   8.320440  -0.174223  -0.090827   0.015562
     3  O    0.020631  -0.174223   8.469931  -0.130112  -0.038739
     4  N    0.012537  -0.090827  -0.130112   6.972069  -0.055748
     5  O   -0.000666   0.015562  -0.038739  -0.055748   8.272852
 Mulliken charges:
               1
     1  H    0.246068
     2  O   -0.197400
     3  O   -0.147488
     4  N    0.292080
     5  O   -0.193260
 Sum of Mulliken charges =   0.00000
 Mulliken charges with hydrogens summed into heavy atoms:
               1
     2  O    0.048668
     3  O   -0.147488
     4  N    0.292080
     5  O   -0.193260
 APT charges:
               1
     1  H    0.299425
     2  O   -0.289034
     3  O   -0.495326
     4  N    0.876761
     5  O   -0.391825
 Sum of APT charges =   0.00000
 APT charges with hydrogens summed into heavy atoms:
               1
     2  O    0.010391
     3  O   -0.495326
     4  N    0.876761
     5  O   -0.391825
 Electronic spatial extent (au):  <R**2>=            252.8381
 Charge=             -0.0000 electrons
 Dipole moment (field-independent basis, Debye):
    X=              0.5056    Y=              1.3544    Z=             -0.0000  Tot=              1.4457
 Quadrupole moment (field-independent basis, Debye-Ang):
   XX=            -22.4668   YY=            -18.6351   ZZ=            -22.0041
   XY=              3.2461   XZ=             -0.0000   YZ=              0.0000
 Traceless Quadrupole moment (field-independent basis, Debye-Ang):
   XX=             -1.4315   YY=              2.4002   ZZ=             -0.9687
   XY=              3.2461   XZ=             -0.0000   YZ=              0.0000
 Octapole moment (field-independent basis, Debye-Ang**2):
  XXX=              2.8706  YYY=             11.2400  ZZZ=             -0.0000  XYY=              7.8749
  XXY=              6.5671  XXZ=              0.0000  XZZ=             -1.5699  YZZ=             -0.8476
  YYZ=              0.0000  XYZ=              0.0000
 Hexadecapole moment (field-independent basis, Debye-Ang**3):
 XXXX=           -158.3894 YYYY=            -89.8047 ZZZZ=            -18.2308 XXXY=            -36.6684
 XXXZ=             -0.0000 YYYX=            -30.8094 YYYZ=             -0.0000 ZZZX=             -0.0000
 ZZZY=             -0.0000 XXYY=            -33.9962 XXZZ=            -30.8526 YYZZ=            -20.6482
 XXYZ=             -0.0000 YYXZ=             -0.0000 ZZXY=            -15.0425
 N-N= 1.169011931489D+02 E-N=-8.959141868132D+02  KE= 2.802060637993D+02
 Symmetry A'   KE= 2.662343030835D+02
 Symmetry A"   KE= 1.397176071585D+01
  Exact polarizability:  33.978   9.448  30.183   0.000  -0.000  17.915
 Approx polarizability:  28.994   5.099  23.469   0.000   0.000  15.514
 No NMR shielding tensors so no spin-rotation constants.
 Leave Link  601 at Mon Feb 21 20:06:01 2022, MaxMem= 16106127360 cpu:               6.1 elap:               0.3
 (Enter /sw/contrib/gaussian/g16/B01/g16/l701.exe)
 ... and contract with generalized density number  2.
 Compute integral second derivatives.
 Leave Link  701 at Mon Feb 21 20:06:02 2022, MaxMem= 16106127360 cpu:               6.4 elap:               0.3
 (Enter /sw/contrib/gaussian/g16/B01/g16/l702.exe)
 L702 exits ... SP integral derivatives will be done elsewhere.
 Leave Link  702 at Mon Feb 21 20:06:02 2022, MaxMem= 16106127360 cpu:               0.5 elap:               0.0
 (Enter /sw/contrib/gaussian/g16/B01/g16/l703.exe)
 Integral derivatives from FoFJK, PRISM(SPDF).
 Compute integral second derivatives, UseDBF=F ICtDFT=           0.
 Calling FoFJK, ICntrl=  10100127 FMM=F ISym2X=1 I1Cent= 0 IOpClX= 0 NMat=1 NMatS=1 NMatT=0.
 FoFJK:  IHMeth= 1 ICntrl=10100127 DoSepK=F KAlg= 0 I1Cent=           0 FoldK=F
 IRaf=         0 NMat=       1 IRICut=       1 DoRegI=T DoRafI=F ISym2E= 1 IDoP0=0 IntGTp=1.
 FoFCou: FMM=F IPFlag=           0 FMFlag=      100000 FMFlg1=         800
         NFxFlg=           0 DoJE=F BraDBF=F KetDBF=F FulRan=T
         wScrn=  0.000000 ICntrl=  10100127 IOpCl=  0 I1Cent=           0 NGrid=           0
         NMat0=    1 NMatS0=      1 NMatT0=    0 NMatD0=    1 NMtDS0=    0 NMtDT0=    0
 Petite list used in FoFCou.
 Leave Link  703 at Mon Feb 21 20:06:17 2022, MaxMem= 16106127360 cpu:             420.7 elap:              15.1
 (Enter /sw/contrib/gaussian/g16/B01/g16/l716.exe)
 Dipole        = 1.98925380D-01 5.32857379D-01-2.23855391D-33
 Polarizability= 3.39782407D+01 9.44830469D+00 3.01831318D+01
                 1.15680163D-31-2.00127058D-31 1.79152524D+01
 Full mass-weighted force constant matrix:
 Low frequencies --- -381.8655  -45.9356  -24.8969    0.0005    0.0007    0.0013
 Low frequencies ---    4.7012  228.5402  336.5863
 ******    1 imaginary frequencies (negative Signs) ****** 
 Diagonal vibrational polarizability:
       14.0078938      25.2419065      23.7103138
 Harmonic frequencies (cm**-1), IR intensities (KM/Mole), Raman scattering
 activities (A**4/AMU), depolarization ratios for plane and unpolarized
 incident light, reduced masses (AMU), force constants (mDyne/A),
 and normal coordinates:
                      1                      2                      3
                     A"                     A"                     A'
 Frequencies --   -379.0242               228.4738               336.5652
 Red. masses --      1.1274                11.5523                 8.3984
 Frc consts  --      0.0954                 0.3553                 0.5605
 IR Inten    --    125.7556                 0.2967                 4.9905
  Atom  AN      X      Y      Z        X      Y      Z        X      Y      Z
     1   1     0.00  -0.00   1.00     0.00  -0.00  -0.51     0.56  -0.44   0.00
     2   8    -0.00  -0.00  -0.06     0.00  -0.00  -0.33    -0.09  -0.37   0.00
     3   8    -0.00   0.00  -0.04    -0.00   0.00   0.34    -0.14   0.43  -0.00
     4   7    -0.00   0.00   0.05    -0.00   0.00   0.55     0.04   0.25  -0.00
     5   8     0.00  -0.00  -0.00     0.00  -0.00  -0.46     0.16  -0.25   0.00
                      4                      5                      6
                     A'                     A'                     A'
 Frequencies --    451.7404               783.5465               966.9499
 Red. masses --     12.3101                12.6842                15.4959
 Frc consts  --      1.4801                 4.5882                 8.5364
 IR Inten    --    199.4029               167.1440                23.7339
  Atom  AN      X      Y      Z        X      Y      Z        X      Y      Z
     1   1     0.41   0.20   0.00    -0.37   0.18   0.00    -0.15  -0.04  -0.00
     2   8     0.32   0.21   0.00     0.42   0.08   0.00    -0.52   0.03  -0.00
     3   8     0.18   0.44  -0.00    -0.06  -0.26  -0.00     0.75  -0.02   0.00
     4   7    -0.35  -0.41  -0.00    -0.14   0.61  -0.00    -0.12   0.25   0.00
     5   8    -0.22  -0.30   0.00    -0.21  -0.37   0.00    -0.12  -0.22  -0.00
                      7                      8                      9
                     A'                     A'                     A'
 Frequencies --   1354.8540              1677.2321              3843.8076
 Red. masses --      1.1376                13.3189                 1.0675
 Frc consts  --      1.2303                22.0752                 9.2930
 IR Inten    --    153.7827               141.4138                83.1552
  Atom  AN      X      Y      Z        X      Y      Z        X      Y      Z
     1   1     0.99  -0.05  -0.00    -0.33   0.00   0.00     0.10   0.99   0.00
     2   8    -0.03   0.06  -0.00    -0.00  -0.04  -0.00    -0.01  -0.06  -0.00
     3   8    -0.02  -0.05   0.00     0.00   0.15  -0.00     0.00   0.00  -0.00
     4   7     0.02   0.01   0.00     0.71  -0.05   0.00    -0.00  -0.00   0.00
     5   8    -0.03  -0.01  -0.00    -0.60  -0.07   0.00     0.00   0.00   0.00

 -------------------
 - Thermochemistry -
 -------------------
 Temperature   298.150 Kelvin.  Pressure   1.00000 Atm.
 Atom     1 has atomic number  1 and mass   1.00783
 Atom     2 has atomic number  8 and mass  15.99491
 Atom     3 has atomic number  8 and mass  15.99491
 Atom     4 has atomic number  7 and mass  14.00307
 Atom     5 has atomic number  8 and mass  15.99491
 Molecular mass:    62.99564 amu.
 Principal axes and moments of inertia in atomic units:
                           1         2         3
     Eigenvalues --    32.82784 360.09237 392.92022
           X            0.81021  -0.58615   0.00000
           Y            0.58615   0.81021   0.00000
           Z           -0.00000   0.00000   1.00000
 This molecule is an asymmetric top.
 Rotational symmetry number  1.
 Rotational temperatures (Kelvin)      2.63843     0.24053     0.22044
 Rotational constants (GHZ):          54.97593     5.01188     4.59315
    1 imaginary frequencies ignored.
 Zero-point vibrational energy      57679.0 (Joules/Mol)
                                   13.78560 (Kcal/Mol)
 Warning -- explicit consideration of   3 degrees of freedom as
           vibrations may cause significant error
 Vibrational temperatures:    328.72   484.24   649.95  1127.35  1391.23
          (Kelvin)           1949.33  2413.16  5530.38
 
 Zero-point correction=                           0.021969 (Hartree/Particle)
 Thermal correction to Energy=                    0.026094
 Thermal correction to Enthalpy=                  0.027038
 Thermal correction to Gibbs Free Energy=        -0.004160
 Sum of electronic and zero-point Energies=           -280.424743
 Sum of electronic and thermal Energies=              -280.420618
 Sum of electronic and thermal Enthalpies=            -280.419674
 Sum of electronic and thermal Free Energies=         -280.450872
 
                     E (Thermal)             CV                S
                      KCal/Mol        Cal/Mol-Kelvin    Cal/Mol-Kelvin
 Total                   16.374             11.975             65.661
 Electronic               0.000              0.000              0.000
 Translational            0.889              2.981             38.341
 Rotational               0.889              2.981             23.056
 Vibrational             14.597              6.013              4.265
 Vibration     1          0.651              1.798              1.891
 Vibration     2          0.717              1.602              1.228
 Vibration     3          0.810              1.357              0.791
                       Q            Log10(Q)             Ln(Q)
 Total Bot       0.819174D+02          1.913376          4.405711
 Total V=0       0.104302D+13         12.018294         27.673144
 Vib (Bot)       0.170856D-09         -9.767370        -22.490200
 Vib (Bot)    1  0.862634D+00         -0.064173         -0.147765
 Vib (Bot)    2  0.552899D+00         -0.257355         -0.592581
 Vib (Bot)    3  0.379077D+00         -0.421272         -0.970015
 Vib (V=0)       0.217545D+01          0.337548          0.777233
 Vib (V=0)    1  0.149706D+01          0.175241          0.403506
 Vib (V=0)    2  0.124545D+01          0.095327          0.219497
 Vib (V=0)    3  0.112745D+01          0.052099          0.119963
 Electronic      0.100000D+01          0.000000          0.000000
 Translational   0.196526D+08          7.293420         16.793719
 Rotational      0.243964D+05          4.387326         10.102191
 
                                                                title
                                                             IR Spectrum
 
     3                                                                       1          1                                            
     8                                                                       6          3            9     7          4  3   2       
     4                                                                       7          5            6     8          5  3   2       
     4                                                                       7          5            7     4          2  7   8       
 
     X                                                                       X          X            X     X          X  X   X       
     X                                                                       X          X            X     X          X              
     X                                                                       X          X                  X          X              
     X                                                                       X          X                  X          X              
     X                                                                       X          X                  X          X              
     X                                                                       X          X                  X          X              
     X                                                                       X          X                  X          X              
     X                                                                       X          X                  X          X              
                                                                             X          X                  X          X              
                                                                             X          X                  X          X              
                                                                             X          X                  X          X              
                                                                             X          X                  X          X              
                                                                             X          X                  X          X              
                                                                             X          X                  X          X              
                                                                                        X                  X          X              
                                                                                                           X          X              
                                                                                                           X          X              
                                                                                                                      X              
                                                                                                                      X              
                                                                                                                      X              
 
 ***** Axes restored to original set *****
 -------------------------------------------------------------------
 Center     Atomic                   Forces (Hartrees/Bohr)
 Number     Number              X              Y              Z
 -------------------------------------------------------------------
      1        1           0.000017209   -0.000000000   -0.004913063
      2        8           0.000322804    0.000000000    0.004974259
      3        8          -0.000309126   -0.000000000   -0.000006627
      4        7          -0.000374283   -0.000000000   -0.000114233
      5        8           0.000343396    0.000000000    0.000059662
 -------------------------------------------------------------------
 Cartesian Forces:  Max     0.004974259 RMS     0.001813949
 -----------------------------------------------------------------------------------------------
                       Internal Coordinate Forces (Hartree/Bohr or radian)
  Cent   Atom   N1       Length/X         N2         Alpha/Y        N3         Beta/Z          J
 -----------------------------------------------------------------------------------------------
      1  H 
      2  O        1   0.004913(     1)
      3  O        2  -0.000345(     2)      1  -0.000031(     5)
      4  N        3  -0.000057(     3)      2  -0.000012(     6)      1  -0.000000(     8)     0
      5  O        4   0.000347(     4)      3  -0.000061(     7)      2   0.000000(     9)     0
 -----------------------------------------------------------------------------------------------
 Internal  Forces:  Max     0.004913063 RMS     0.001646075
 Force constants in Cartesian coordinates: 
                1             2             3             4             5 
      1  0.627621D-01
      2  0.000000D+00 -0.508188D-02
      3  0.535441D-02  0.000000D+00  0.530166D+00
      4 -0.336485D-01  0.000000D+00 -0.164747D-01  0.270483D+00
      5  0.000000D+00  0.576089D-02  0.000000D+00  0.000000D+00 -0.538500D-03
      6  0.486153D-01  0.000000D+00 -0.526355D+00  0.333867D-01  0.000000D+00
      7 -0.185376D-01  0.000000D+00  0.126545D-01 -0.220133D+00  0.000000D+00
      8  0.000000D+00  0.101914D-02  0.000000D+00  0.000000D+00 -0.665584D-02
      9 -0.535672D-01  0.000000D+00 -0.432256D-03 -0.192145D-01  0.000000D+00
     10 -0.932425D-02  0.000000D+00 -0.487678D-02 -0.171058D-01  0.000000D+00
     11  0.000000D+00 -0.273280D-02  0.000000D+00  0.000000D+00 -0.490566D-02
     12  0.538088D-02  0.000000D+00 -0.479739D-02  0.115809D-01  0.000000D+00
     13 -0.125175D-02  0.000000D+00  0.334259D-02  0.404519D-03  0.000000D+00
     14  0.000000D+00  0.103464D-02  0.000000D+00  0.000000D+00  0.633911D-02
     15 -0.578334D-02  0.000000D+00  0.141842D-02 -0.927839D-02  0.000000D+00
                6             7             8             9            10 
      6  0.612660D+00
      7 -0.213412D-01  0.341669D+00
      8  0.000000D+00  0.000000D+00  0.427219D-02
      9 -0.787806D-01  0.360613D-01  0.000000D+00  0.181310D+00
     10 -0.525439D-01 -0.781117D-01  0.000000D+00  0.174981D+00  0.828522D+00
     11  0.000000D+00  0.000000D+00  0.853192D-02  0.000000D+00  0.000000D+00
     12  0.171540D-01  0.629767D-01  0.000000D+00 -0.818110D-01 -0.178694D-01
     13 -0.811687D-02 -0.248870D-01  0.000000D+00 -0.138261D+00 -0.723980D+00
     14  0.000000D+00  0.000000D+00 -0.716740D-02  0.000000D+00  0.000000D+00
     15 -0.246790D-01 -0.903513D-01  0.000000D+00 -0.202862D-01 -0.996911D-01
               11            12            13            14            15 
     11  0.855069D-02
     12  0.000000D+00  0.186716D+00
     13  0.000000D+00 -0.620690D-01  0.749714D+00
     14 -0.944414D-02  0.000000D+00  0.000000D+00  0.923779D-02
     15  0.000000D+00 -0.117262D+00  0.205104D+00  0.000000D+00  0.160808D+00
 Force constants in internal coordinates: 
                1             2             3             4             5 
      1  0.530166D+00
      2 -0.105190D-01  0.281449D+00
      3  0.349337D-02  0.244990D-02  0.117280D+00
      4 -0.359001D-02  0.589215D-02  0.153053D+00  0.812058D+00
      5  0.977121D-02  0.655642D-01  0.231030D-02  0.482309D-02  0.217225D+00
      6  0.465639D-02  0.591911D-01  0.410775D-01  0.218543D-01  0.314379D-01
      7 -0.120498D-02  0.377780D-01  0.321216D-01  0.847422D-01  0.213285D-01
      8  0.000000D+00  0.000000D+00  0.000000D+00  0.000000D+00  0.000000D+00
      9  0.000000D+00  0.000000D+00  0.000000D+00  0.000000D+00  0.000000D+00
                6             7             8             9 
      6  0.282986D+00
      7  0.958265D-01  0.482706D+00
      8  0.000000D+00  0.000000D+00 -0.777108D-02
      9  0.000000D+00  0.000000D+00 -0.390572D-02  0.410936D-01
 Leave Link  716 at Mon Feb 21 20:06:17 2022, MaxMem= 16106127360 cpu:               0.7 elap:               0.0
 (Enter /sw/contrib/gaussian/g16/B01/g16/l103.exe)

 GradGradGradGradGradGradGradGradGradGradGradGradGradGradGradGradGradGrad
 Berny optimization.
 Search for a local minimum.
 Step number   1 out of a maximum of    2
 All quantities printed in internal units (Hartrees-Bohrs-Radians)
 Second derivative matrix not updated -- analytic derivatives used.
 The second derivative matrix:
                          r1        r2        r3        r4        a1
           r1           0.53017
           r2          -0.01052   0.28145
           r3           0.00349   0.00245   0.11728
           r4          -0.00359   0.00589   0.15305   0.81206
           a1           0.00977   0.06556   0.00231   0.00482   0.21723
           a2           0.00466   0.05919   0.04108   0.02185   0.03144
           a3          -0.00120   0.03778   0.03212   0.08474   0.02133
           d1           0.00000  -0.00000  -0.00000  -0.00000  -0.00000
           d2          -0.00000   0.00000   0.00000   0.00000   0.00000
                          a2        a3        d1        d2
           a2           0.28299
           a3           0.09583   0.48271
           d1          -0.00000  -0.00000  -0.00777
           d2          -0.00000  -0.00000  -0.00391   0.04109
 ITU=  0
     Eigenvalues ---   -0.00808   0.04140   0.07830   0.17550   0.22549
     Eigenvalues ---    0.32541   0.51729   0.53088   0.87099
 Eigenvalue     1 is  -8.08D-03 should be greater than     0.000000 Eigenvector:
                          d1        d2        a3        a2        r3
   1                    0.99686   0.07918   0.00000   0.00000  -0.00000
                          r4        a1        r2        r1
   1                    0.00000  -0.00000   0.00000  -0.00000
 Angle between quadratic step and forces=  11.17 degrees.
 Linear search not attempted -- first point.
 Variable       Old X    -DE/DX   Delta X   Delta X   Delta X     New X
                                 (Linear)    (Quad)   (Total)
    r1        1.82167   0.00491   0.00000   0.00927   0.00927   1.83094
    r2        2.74940  -0.00035   0.00000  -0.00085  -0.00085   2.74855
    r3        2.75670  -0.00006   0.00000  -0.00190  -0.00190   2.75481
    r4        2.21236   0.00035   0.00000   0.00084   0.00084   2.21319
    a1        1.70335  -0.00003   0.00000  -0.00033  -0.00033   1.70302
    a2        1.78543  -0.00001   0.00000   0.00026   0.00026   1.78569
    a3        1.90362  -0.00006   0.00000  -0.00009  -0.00009   1.90353
    d1        3.14159  -0.00000   0.00000  -0.00000   0.00000   3.14159
    d2        3.14159   0.00000   0.00000   0.00000   0.00000   3.14159
         Item               Value     Threshold  Converged?
 Maximum Force            0.004913     0.000450     NO 
 RMS     Force            0.001646     0.000300     NO 
 Maximum Displacement     0.009272     0.001800     NO 
 RMS     Displacement     0.003183     0.001200     NO 
 Predicted change in Energy=-2.312883D-05
                       ----------------------------
                       ! Non-Optimized Parameters !
                       ! (Angstroms and Degrees)  !
 ----------------------                            ----------------------
 !      Name          Value   Derivative information (Atomic Units)     !
 ------------------------------------------------------------------------
 !       r1          0.9689   -DE/DX =    0.0049                        !
 !       r2          1.4545   -DE/DX =   -0.0003                        !
 !       r3          1.4578   -DE/DX =   -0.0001                        !
 !       r4          1.1712   -DE/DX =    0.0003                        !
 !       a1         97.5759   -DE/DX =    0.0                           !
 !       a2        102.3125   -DE/DX =    0.0                           !
 !       a3        109.0641   -DE/DX =   -0.0001                        !
 !       d1        180.0      -DE/DX =    0.0                           !
 !       d2        180.0      -DE/DX =    0.0                           !
 ------------------------------------------------------------------------
 GradGradGradGradGradGradGradGradGradGradGradGradGradGradGradGradGradGrad

 Leave Link  103 at Mon Feb 21 20:06:17 2022, MaxMem= 16106127360 cpu:               0.5 elap:               0.0
 (Enter /sw/contrib/gaussian/g16/B01/g16/l9999.exe)

 ----------------------------------------------------------------------

 Electric dipole moment (input orientation):
 (Debye = 10**-18 statcoulomb cm , SI units = C m)
                  (au)            (Debye)         (10**-30 SI)
   Tot        0.568778D+00      0.144569D+01      0.482230D+01
   x         -0.145710D+00     -0.370357D+00     -0.123538D+01
   y          0.000000D+00      0.000000D+00      0.000000D+00
   z         -0.549797D+00     -0.139745D+01     -0.466138D+01

 Dipole polarizability, Alpha (input orientation).
 (esu units = cm**3 , SI units = C**2 m**2 J**-1)
 Alpha(0;0):
               (au)            (10**-24 esu)      (10**-40 SI)
   iso        0.273589D+02      0.405417D+01      0.451087D+01
   aniso      0.218923D+02      0.324410D+01      0.360955D+01
   xx         0.320975D+02      0.475636D+01      0.529216D+01
   yx         0.000000D+00      0.000000D+00      0.000000D+00
   yy         0.179153D+02      0.265477D+01      0.295383D+01
   zx         0.963695D+01      0.142805D+01      0.158892D+01
   zy         0.000000D+00      0.000000D+00      0.000000D+00
   zz         0.320639D+02      0.475138D+01      0.528662D+01

 ----------------------------------------------------------------------

 Dipole orientation:
     1          0.00000000          0.00000000          0.00000000
     8         -0.46667512          0.00000000         -1.76087751
     8          2.07456680          0.00000000         -2.81029856
     7          1.58919352          0.00000000         -5.52393461
     8          3.52021091          0.00000000         -6.60360810

 Electric dipole moment (dipole orientation):
 (Debye = 10**-18 statcoulomb cm , SI units = C m)
                  (au)            (Debye)         (10**-30 SI)
   Tot        0.568778D+00      0.144569D+01      0.482230D+01
   x          0.000000D+00      0.000000D+00      0.000000D+00
   y          0.000000D+00      0.000000D+00      0.000000D+00
   z          0.568778D+00      0.144569D+01      0.482230D+01

 Dipole polarizability, Alpha (dipole orientation).
 (esu units = cm**3 , SI units = C**2 m**2 J**-1)
 Alpha(0;0):
               (au)            (10**-24 esu)      (10**-40 SI)
   iso        0.273589D+02      0.405417D+01      0.451087D+01
   aniso      0.218923D+02      0.324410D+01      0.360955D+01
   xx         0.273225D+02      0.404877D+01      0.450487D+01
   yx         0.000000D+00      0.000000D+00      0.000000D+00
   yy         0.179153D+02      0.265477D+01      0.295383D+01
   zx        -0.838037D+01     -0.124184D+01     -0.138174D+01
   zy         0.000000D+00      0.000000D+00      0.000000D+00
   zz         0.368389D+02      0.545896D+01      0.607391D+01

 ----------------------------------------------------------------------
 1\1\GINC-N2108\Freq\RMP2-FC\Aug-CC-pVTZ\H1N1O3\CGAVINH\21-Feb-2022\1\\
 #p freq mp2/aug-cc-pvtz density=current\\title\\0,1\H\O,1,r1\O,2,r2,1,
 a1\N,3,r3,2,a2,1,d1,0\O,4,r4,3,a3,2,d2,0\\r1=0.96398533\r2=1.45491931\
 r3=1.45878406\r4=1.17072885\a1=97.59494903\a2=102.29752444\a3=109.0695
 5123\d1=180.\d2=180.\\Version=ES64L-G16RevB.01\State=1-A'\HF=-279.5019
 031\MP2=-280.4467117\RMSD=3.789e-09\RMSF=1.814e-03\ZeroPoint=0.0219688
 \Thermal=0.0260939\Dipole=-0.1457096,0.,-0.5497972\DipoleDeriv=0.26575
 22,0.,0.04843,0.,0.3562502,0.,0.0831223,0.,0.2762712,-0.3280963,0.,-0.
 2063244,0.,-0.315154,0.,-0.1130458,0.,-0.2238515,-0.0463935,0.,0.14656
 98,0.,-0.0867327,0.,-0.751406,0.,-1.3528522,0.8952373,0.,0.9096321,0.,
 0.0661783,0.,0.9226145,0.,1.6688673,-0.7864997,0.,-0.8983074,0.,-0.020
 5419,0.,-0.141285,0.,-0.3684348\Polar=32.0974981,0.,17.9152524,9.63695
 45,0.,32.0638744\Quadrupole=-1.5079428,-0.7202359,2.2281787,0.,2.08897
 34,0.\PG=CS [SG(H1N1O3)]\NImag=1\\0.06276209,0.,-0.00508188,0.00535441
 ,0.,0.53016599,-0.03364849,0.,-0.01647468,0.27048259,0.,0.00576089,0.,
 0.,-0.00053850,0.04861530,0.,-0.52635476,0.03338668,0.,0.61266030,-0.0
 1853760,0.,0.01265446,-0.22013286,0.,-0.02134123,0.34166917,0.,0.00101
 914,0.,0.,-0.00665584,0.,0.,0.00427219,-0.05356725,0.,-0.00043226,-0.0
 1921446,0.,-0.07878056,0.03606132,0.,0.18131004,-0.00932425,0.,-0.0048
 7678,-0.01710577,0.,-0.05254388,-0.07811170,0.,0.17498119,0.82852164,0
 .,-0.00273280,0.,0.,-0.00490566,0.,0.,0.00853192,0.,0.,0.00855069,0.00
 538088,0.,-0.00479739,0.01158085,0.,0.01715400,0.06297672,0.,-0.081810
 98,-0.01786944,0.,0.18671605,-0.00125175,0.,0.00334259,0.00040452,0.,-
 0.00811687,-0.02488701,0.,-0.13826081,-0.72397992,0.,-0.06206901,0.749
 71416,0.,0.00103464,0.,0.,0.00633911,0.,0.,-0.00716740,0.,0.,-0.009444
 14,0.,0.,0.00923779,-0.00578334,0.,0.00141842,-0.00927839,0.,-0.024678
 96,-0.09035127,0.,-0.02028624,-0.09969108,0.,-0.11726167,0.20510409,0.
 ,0.16080845\\-0.00001721,0.,0.00491306,-0.00032280,0.,-0.00497426,0.00
 030913,0.,0.00000663,0.00037428,0.,0.00011423,-0.00034340,0.,-0.000059
 66\\\@


 GARBAGE IN, GARBAGE OUT
 Job cpu time:       0 days  2 hours  4 minutes 21.3 seconds.
 Elapsed time:       0 days  0 hours  4 minutes 30.0 seconds.
 File lengths (MBytes):  RWF=   7239 Int=      0 D2E=      0 Chk=      8 Scr=      1
 Normal termination of Gaussian 16 at Mon Feb 21 20:06:18 2022.
