 Entering Gaussian System, Link 0=g16
 Input=hoono_r3_1p473539.gjf
 Output=hoono_r3_1p473539.log
 Initial command:
 /sw/contrib/gaussian/g16/B01/g16/l1.exe "/scr/Gau-17987.inp" -scrdir="/scr/"
 Entering Link 1 = /sw/contrib/gaussian/g16/B01/g16/l1.exe PID=     17988.
  
 Copyright (c) 1988-2017, Gaussian, Inc.  All Rights Reserved.
  
 This is part of the Gaussian(R) 16 program.  It is based on
 the Gaussian(R) 09 system (copyright 2009, Gaussian, Inc.),
 the Gaussian(R) 03 system (copyright 2003, Gaussian, Inc.),
 the Gaussian(R) 98 system (copyright 1998, Gaussian, Inc.),
 the Gaussian(R) 94 system (copyright 1995, Gaussian, Inc.),
 the Gaussian 92(TM) system (copyright 1992, Gaussian, Inc.),
 the Gaussian 90(TM) system (copyright 1990, Gaussian, Inc.),
 the Gaussian 88(TM) system (copyright 1988, Gaussian, Inc.),
 the Gaussian 86(TM) system (copyright 1986, Carnegie Mellon
 University), and the Gaussian 82(TM) system (copyright 1983,
 Carnegie Mellon University). Gaussian is a federally registered
 trademark of Gaussian, Inc.
  
 This software contains proprietary and confidential information,
 including trade secrets, belonging to Gaussian, Inc.
  
 This software is provided under written license and may be
 used, copied, transmitted, or stored only in accord with that
 written license.
  
 The following legend is applicable only to US Government
 contracts under FAR:
  
                    RESTRICTED RIGHTS LEGEND
  
 Use, reproduction and disclosure by the US Government is
 subject to restrictions as set forth in subparagraphs (a)
 and (c) of the Commercial Computer Software - Restricted
 Rights clause in FAR 52.227-19.
  
 Gaussian, Inc.
 340 Quinnipiac St., Bldg. 40, Wallingford CT 06492
  
  
 ---------------------------------------------------------------
 Warning -- This program may not be used in any manner that
 competes with the business of Gaussian, Inc. or will provide
 assistance to any competitor of Gaussian, Inc.  The licensee
 of this program is prohibited from giving any competitor of
 Gaussian, Inc. access to this program.  By using this program,
 the user acknowledges that Gaussian, Inc. is engaged in the
 business of creating and licensing software in the field of
 computational chemistry and represents and warrants to the
 licensee that it is not a competitor of Gaussian, Inc. and that
 it will not use this program in any manner prohibited above.
 ---------------------------------------------------------------
  

 Cite this work as:
 Gaussian 16, Revision B.01,
 M. J. Frisch, G. W. Trucks, H. B. Schlegel, G. E. Scuseria, 
 M. A. Robb, J. R. Cheeseman, G. Scalmani, V. Barone, 
 G. A. Petersson, H. Nakatsuji, X. Li, M. Caricato, A. V. Marenich, 
 J. Bloino, B. G. Janesko, R. Gomperts, B. Mennucci, H. P. Hratchian, 
 J. V. Ortiz, A. F. Izmaylov, J. L. Sonnenberg, D. Williams-Young, 
 F. Ding, F. Lipparini, F. Egidi, J. Goings, B. Peng, A. Petrone, 
 T. Henderson, D. Ranasinghe, V. G. Zakrzewski, J. Gao, N. Rega, 
 G. Zheng, W. Liang, M. Hada, M. Ehara, K. Toyota, R. Fukuda, 
 J. Hasegawa, M. Ishida, T. Nakajima, Y. Honda, O. Kitao, H. Nakai, 
 T. Vreven, K. Throssell, J. A. Montgomery, Jr., J. E. Peralta, 
 F. Ogliaro, M. J. Bearpark, J. J. Heyd, E. N. Brothers, K. N. Kudin, 
 V. N. Staroverov, T. A. Keith, R. Kobayashi, J. Normand, 
 K. Raghavachari, A. P. Rendell, J. C. Burant, S. S. Iyengar, 
 J. Tomasi, M. Cossi, J. M. Millam, M. Klene, C. Adamo, R. Cammi, 
 J. W. Ochterski, R. L. Martin, K. Morokuma, O. Farkas, 
 J. B. Foresman, and D. J. Fox, Gaussian, Inc., Wallingford CT, 2016.
 
 ******************************************
 Gaussian 16:  ES64L-G16RevB.01 20-Dec-2017
                21-Feb-2022 
 ******************************************
 %nproc=28
 Will use up to   28 processors via shared memory.
 %mem=120GB
 %chk=hoono_r3_1p473539.chk
 ---------------------------------------
 #p freq mp2/aug-cc-pvtz density=current
 ---------------------------------------
 1/10=4,30=1,38=1/1,3;
 2/12=2,17=6,18=5,40=1/2;
 3/5=16,6=1,7=10,11=9,25=1,30=1,71=2,140=1/1,2,3;
 4//1;
 5/5=2,38=5,98=1/2;
 8/6=3,8=1,10=1,19=11,30=-1/1;
 9/15=3,16=-3/6;
 11/6=1,8=1,15=11,17=12,24=-1,27=1,28=-2,29=300,32=6,42=3/1,2,10;
 10/6=2,21=1/2;
 8/6=4,8=1,10=1,19=11,30=-1/11,4;
 10/5=1,20=4/2;
 11/12=2,14=11,16=1,17=2,28=-2,42=3,76=2/2,10,12;
 6/7=2,8=2,9=2,10=2,22=-1/1;
 7/8=1,10=1,12=2,25=1,44=2/1,2,3,16;
 1/10=4,30=1/3;
 99//99;
 Leave Link    1 at Mon Feb 21 20:12:29 2022, MaxMem= 16106127360 cpu:               2.6 elap:               0.1
 (Enter /sw/contrib/gaussian/g16/B01/g16/l101.exe)
 -----
 title
 -----
 Symbolic Z-matrix:
 Charge =  0 Multiplicity = 1
 H
 O                    1    r1
 O                    2    r2       1    a1
 N                    3    r3       2    a2       1    d1       0
 O                    4    r4       3    a3       2    d2       0
       Variables:
  r1                    0.96898                  
  r2                    1.45492                  
  r3                    1.47354                  
  r4                    1.17073                  
  a1                   97.59495                  
  a2                  102.29752                  
  a3                  109.06955                  
  d1                  180.                       
  d2                  180.                       
 
 ITRead=  0  0  0  0  0
 MicOpt= -1 -1 -1 -1 -1
 NAtoms=      5 NQM=        5 NQMF=       0 NMMI=      0 NMMIF=      0
                NMic=       0 NMicF=      0.
                    Isotopes and Nuclear Properties:
 (Nuclear quadrupole moments (NQMom) in fm**2, nuclear magnetic moments (NMagM)
  in nuclear magnetons)

  Atom         1           2           3           4           5
 IAtWgt=           1          16          16          14          16
 AtmWgt=   1.0078250  15.9949146  15.9949146  14.0030740  15.9949146
 NucSpn=           1           0           0           2           0
 AtZEff=  -0.0000000  -0.0000000  -0.0000000  -0.0000000  -0.0000000
 NQMom=    0.0000000   0.0000000   0.0000000   2.0440000   0.0000000
 NMagM=    2.7928460   0.0000000   0.0000000   0.4037610   0.0000000
 AtZNuc=   1.0000000   8.0000000   8.0000000   7.0000000   8.0000000
 Leave Link  101 at Mon Feb 21 20:12:30 2022, MaxMem= 16106127360 cpu:               3.5 elap:               0.2
 (Enter /sw/contrib/gaussian/g16/B01/g16/l103.exe)

 GradGradGradGradGradGradGradGradGradGradGradGradGradGradGradGradGradGrad
 Berny optimization.
 Initialization pass.
                       ----------------------------
                       !    Initial Parameters    !
                       ! (Angstroms and Degrees)  !
 ----------------------                            ----------------------
 !      Name          Value   Derivative information (Atomic Units)     !
 ------------------------------------------------------------------------
 !       r1          0.969    calculate D2E/DX2 analytically            !
 !       r2          1.4549   calculate D2E/DX2 analytically            !
 !       r3          1.4735   calculate D2E/DX2 analytically            !
 !       r4          1.1707   calculate D2E/DX2 analytically            !
 !       a1         97.5949   calculate D2E/DX2 analytically            !
 !       a2        102.2975   calculate D2E/DX2 analytically            !
 !       a3        109.0696   calculate D2E/DX2 analytically            !
 !       d1        180.0      calculate D2E/DX2 analytically            !
 !       d2        180.0      calculate D2E/DX2 analytically            !
 ------------------------------------------------------------------------
 Trust Radius=3.00D-01 FncErr=1.00D-07 GrdErr=1.00D-07 EigMax=2.50D+02 EigMin=1.00D-04
 Number of steps in this run=      2 maximum allowed number of steps=      2.
 GradGradGradGradGradGradGradGradGradGradGradGradGradGradGradGradGradGrad

 Leave Link  103 at Mon Feb 21 20:12:30 2022, MaxMem= 16106127360 cpu:               1.5 elap:               0.1
 (Enter /sw/contrib/gaussian/g16/B01/g16/l202.exe)
                          Input orientation:                          
 ---------------------------------------------------------------------
 Center     Atomic      Atomic             Coordinates (Angstroms)
 Number     Number       Type             X           Y           Z
 ---------------------------------------------------------------------
      1          1           0        0.000000    0.000000    0.000000
      2          8           0        0.000000    0.000000    0.968976
      3          8           0        1.442156    0.000000    1.161271
      4          7           0        1.562961    0.000000    2.629850
      5          8           0        2.697077    0.000000    2.920344
 ---------------------------------------------------------------------
                    Distance matrix (angstroms):
                    1          2          3          4          5
     1  H    0.000000
     2  O    0.968976   0.000000
     3  O    1.851584   1.454919   0.000000
     4  N    3.059241   2.280647   1.473539   0.000000
     5  O    3.975253   3.328974   2.160826   1.170729   0.000000
 Stoichiometry    HNO3
 Framework group  CS[SG(HNO3)]
 Deg. of freedom     7
 Full point group                 CS      NOp   2
 Largest Abelian subgroup         CS      NOp   2
 Largest concise Abelian subgroup C1      NOp   1
                         Standard orientation:                         
 ---------------------------------------------------------------------
 Center     Atomic      Atomic             Coordinates (Angstroms)
 Number     Number       Type             X           Y           Z
 ---------------------------------------------------------------------
      1          1           0        1.547259    1.696846    0.000000
      2          8           0        1.453970    0.732372    0.000000
      3          8           0        0.000000    0.679814    0.000000
      4          7           0       -0.261633   -0.770312   -0.000000
      5          8           0       -1.418448   -0.950269   -0.000000
 ---------------------------------------------------------------------
 Rotational constants (GHZ):          54.3343627           4.9737906           4.5566710
 Leave Link  202 at Mon Feb 21 20:12:30 2022, MaxMem= 16106127360 cpu:               1.7 elap:               0.1
 (Enter /sw/contrib/gaussian/g16/B01/g16/l301.exe)
 Standard basis: Aug-CC-pVTZ (5D, 7F)
 Ernie: Thresh=  0.10000D-02 Tol=  0.10000D-05 Strict=F.
 Ernie:  12 primitive shells out of 131 were deleted.
 There are   166 symmetry adapted cartesian basis functions of A'  symmetry.
 There are    79 symmetry adapted cartesian basis functions of A"  symmetry.
 There are   136 symmetry adapted basis functions of A'  symmetry.
 There are    71 symmetry adapted basis functions of A"  symmetry.
   207 basis functions,   315 primitive gaussians,   245 cartesian basis functions
    16 alpha electrons       16 beta electrons
       nuclear repulsion energy       116.4725065756 Hartrees.
 IExCor=    0 DFT=F Ex=HF Corr=None ExCW=0 ScaHFX=  1.000000
 ScaDFX=  1.000000  1.000000  1.000000  1.000000 ScalE2=  1.000000  1.000000
 IRadAn=      5 IRanWt=     -1 IRanGd=            0 ICorTp=0 IEmpDi=  4
 NAtoms=    5 NActive=    5 NUniq=    5 SFac= 1.00D+00 NAtFMM=   60 NAOKFM=F Big=F
 Integral buffers will be    131072 words long.
 Raffenetti 1 integral format.
 Two-electron integral symmetry is turned on.
 Leave Link  301 at Mon Feb 21 20:12:30 2022, MaxMem= 16106127360 cpu:               1.2 elap:               0.1
 (Enter /sw/contrib/gaussian/g16/B01/g16/l302.exe)
 NPDir=0 NMtPBC=     1 NCelOv=     1 NCel=       1 NClECP=     1 NCelD=      1
         NCelK=      1 NCelE2=     1 NClLst=     1 CellRange=     0.0.
 One-electron integrals computed using PRISM.
 One-electron integral symmetry used in STVInt
 NBasis=   207 RedAO= T EigKep=  1.83D-04  NBF=   136    71
 NBsUse=   207 1.00D-06 EigRej= -1.00D+00 NBFU=   136    71
 Leave Link  302 at Mon Feb 21 20:12:30 2022, MaxMem= 16106127360 cpu:               4.1 elap:               0.2
 (Enter /sw/contrib/gaussian/g16/B01/g16/l303.exe)
 DipDrv:  MaxL=1.
 Leave Link  303 at Mon Feb 21 20:12:30 2022, MaxMem= 16106127360 cpu:               0.7 elap:               0.1
 (Enter /sw/contrib/gaussian/g16/B01/g16/l401.exe)
 ExpMin= 2.53D-02 ExpMax= 1.53D+04 ExpMxC= 5.22D+02 IAcc=3 IRadAn=         5 AccDes= 0.00D+00
 Harris functional with IExCor=  205 and IRadAn=       5 diagonalized for initial guess.
 HarFok:  IExCor=  205 AccDes= 0.00D+00 IRadAn=         5 IDoV= 1 UseB2=F ITyADJ=14
 ICtDFT=  3500011 ScaDFX=  1.000000  1.000000  1.000000  1.000000
 FoFCou: FMM=F IPFlag=           0 FMFlag=      100000 FMFlg1=           0
         NFxFlg=           0 DoJE=T BraDBF=F KetDBF=T FulRan=T
         wScrn=  0.000000 ICntrl=       500 IOpCl=  0 I1Cent=   200000004 NGrid=           0
         NMat0=    1 NMatS0=      1 NMatT0=    0 NMatD0=    1 NMtDS0=    0 NMtDT0=    0
 Petite list used in FoFCou.
 Harris En= -279.628108342765    
 JPrj=0 DoOrth=F DoCkMO=F.
 Initial guess orbital symmetries:
       Occupied  (A') (A') (A') (A') (A') (A') (A') (A') (A') (A')
                 (A") (A') (A') (A") (A") (A')
       Virtual   (A") (A') (A') (A') (A') (A') (A") (A') (A') (A')
                 (A") (A') (A") (A') (A') (A") (A') (A") (A') (A')
                 (A') (A') (A') (A') (A') (A") (A') (A") (A') (A')
                 (A") (A') (A") (A') (A') (A") (A') (A") (A') (A')
                 (A") (A') (A") (A') (A") (A') (A') (A') (A") (A")
                 (A') (A') (A') (A') (A") (A') (A") (A') (A") (A')
                 (A') (A') (A") (A') (A') (A") (A') (A") (A') (A')
                 (A") (A') (A') (A") (A") (A') (A') (A") (A') (A')
                 (A') (A") (A') (A") (A') (A") (A') (A") (A') (A')
                 (A') (A") (A') (A") (A') (A") (A") (A') (A') (A')
                 (A") (A') (A") (A') (A') (A') (A') (A") (A") (A')
                 (A") (A') (A') (A') (A") (A') (A') (A') (A") (A')
                 (A") (A') (A') (A") (A") (A') (A') (A") (A") (A')
                 (A') (A') (A') (A") (A") (A') (A") (A') (A') (A')
                 (A') (A") (A") (A') (A') (A") (A') (A') (A') (A')
                 (A") (A') (A') (A") (A') (A") (A') (A") (A") (A')
                 (A') (A") (A') (A") (A') (A") (A") (A") (A') (A')
                 (A") (A') (A") (A') (A") (A') (A") (A") (A') (A')
                 (A') (A') (A') (A') (A') (A') (A') (A') (A') (A')
                 (A')
 The electronic state of the initial guess is 1-A'.
 Leave Link  401 at Mon Feb 21 20:12:30 2022, MaxMem= 16106127360 cpu:               6.3 elap:               0.3
 (Enter /sw/contrib/gaussian/g16/B01/g16/l502.exe)
 Keep R1 ints in memory in symmetry-blocked form, NReq=348887737.
 FoFCou: FMM=F IPFlag=           0 FMFlag=           0 FMFlg1=           0
         NFxFlg=           0 DoJE=F BraDBF=F KetDBF=F FulRan=T
         wScrn=  0.000000 ICntrl=       600 IOpCl=  0 I1Cent=           0 NGrid=           0
         NMat0=    1 NMatS0=  21528 NMatT0=    0 NMatD0=    1 NMtDS0=    0 NMtDT0=    0
 Petite list used in FoFCou.
 Closed shell SCF:
 Using DIIS extrapolation, IDIIS=  1040.
 NGot= 16106127360 LenX= 15988850015 LenY= 15988789549
 Requested convergence on RMS density matrix=1.00D-08 within 128 cycles.
 Requested convergence on MAX density matrix=1.00D-06.
 Requested convergence on             energy=1.00D-06.
 No special actions if energy rises.

 Cycle   1  Pass 1  IDiag  1:
 E= -279.370522881318    
 DIIS: error= 2.72D-02 at cycle   1 NSaved=   1.
 NSaved= 1 IEnMin= 1 EnMin= -279.370522881318     IErMin= 1 ErrMin= 2.72D-02
 ErrMax= 2.72D-02  0.00D+00 EMaxC= 1.00D-01 BMatC= 4.36D-01 BMatP= 4.36D-01
 IDIUse=3 WtCom= 7.28D-01 WtEn= 2.72D-01
 Coeff-Com:  0.100D+01
 Coeff-En:   0.100D+01
 Coeff:      0.100D+01
 Gap=     0.506 Goal=   None    Shift=    0.000
 GapD=    0.506 DampG=2.000 DampE=0.500 DampFc=1.0000 IDamp=-1.
 RMSDP=1.61D-03 MaxDP=1.00D-01              OVMax= 1.10D-01

 Cycle   2  Pass 1  IDiag  1:
 E= -279.452726624055     Delta-E=       -0.082203742737 Rises=F Damp=F
 DIIS: error= 1.77D-02 at cycle   2 NSaved=   2.
 NSaved= 2 IEnMin= 2 EnMin= -279.452726624055     IErMin= 2 ErrMin= 1.77D-02
 ErrMax= 1.77D-02  0.00D+00 EMaxC= 1.00D-01 BMatC= 6.89D-02 BMatP= 4.36D-01
 IDIUse=3 WtCom= 8.23D-01 WtEn= 1.77D-01
 Coeff-Com:  0.189D+00 0.811D+00
 Coeff-En:   0.000D+00 0.100D+01
 Coeff:      0.156D+00 0.844D+00
 Gap=     0.527 Goal=   None    Shift=    0.000
 RMSDP=8.85D-04 MaxDP=3.68D-02 DE=-8.22D-02 OVMax= 7.04D-02

 Cycle   3  Pass 1  IDiag  1:
 E= -279.480481002448     Delta-E=       -0.027754378393 Rises=F Damp=F
 DIIS: error= 1.06D-02 at cycle   3 NSaved=   3.
 NSaved= 3 IEnMin= 3 EnMin= -279.480481002448     IErMin= 3 ErrMin= 1.06D-02
 ErrMax= 1.06D-02  0.00D+00 EMaxC= 1.00D-01 BMatC= 2.81D-02 BMatP= 6.89D-02
 IDIUse=3 WtCom= 8.94D-01 WtEn= 1.06D-01
 Coeff-Com: -0.326D-01 0.381D+00 0.652D+00
 Coeff-En:   0.000D+00 0.243D+00 0.757D+00
 Coeff:     -0.291D-01 0.366D+00 0.663D+00
 Gap=     0.510 Goal=   None    Shift=    0.000
 RMSDP=3.73D-04 MaxDP=1.57D-02 DE=-2.78D-02 OVMax= 3.67D-02

 Cycle   4  Pass 1  IDiag  1:
 E= -279.499098736196     Delta-E=       -0.018617733748 Rises=F Damp=F
 DIIS: error= 1.31D-03 at cycle   4 NSaved=   4.
 NSaved= 4 IEnMin= 4 EnMin= -279.499098736196     IErMin= 4 ErrMin= 1.31D-03
 ErrMax= 1.31D-03  0.00D+00 EMaxC= 1.00D-01 BMatC= 5.10D-04 BMatP= 2.81D-02
 IDIUse=3 WtCom= 9.87D-01 WtEn= 1.31D-02
 Coeff-Com: -0.120D-01 0.623D-01 0.166D+00 0.784D+00
 Coeff-En:   0.000D+00 0.000D+00 0.000D+00 0.100D+01
 Coeff:     -0.118D-01 0.615D-01 0.164D+00 0.787D+00
 Gap=     0.502 Goal=   None    Shift=    0.000
 RMSDP=9.04D-05 MaxDP=2.82D-03 DE=-1.86D-02 OVMax= 1.15D-02

 Cycle   5  Pass 1  IDiag  1:
 E= -279.499790908448     Delta-E=       -0.000692172252 Rises=F Damp=F
 DIIS: error= 7.62D-04 at cycle   5 NSaved=   5.
 NSaved= 5 IEnMin= 5 EnMin= -279.499790908448     IErMin= 5 ErrMin= 7.62D-04
 ErrMax= 7.62D-04  0.00D+00 EMaxC= 1.00D-01 BMatC= 8.99D-05 BMatP= 5.10D-04
 IDIUse=3 WtCom= 9.92D-01 WtEn= 7.62D-03
 Coeff-Com:  0.624D-02-0.743D-01-0.121D+00 0.142D-01 0.117D+01
 Coeff-En:   0.000D+00 0.000D+00 0.000D+00 0.000D+00 0.100D+01
 Coeff:      0.619D-02-0.737D-01-0.120D+00 0.141D-01 0.117D+01
 Gap=     0.502 Goal=   None    Shift=    0.000
 RMSDP=7.82D-05 MaxDP=2.14D-03 DE=-6.92D-04 OVMax= 1.13D-02

 Cycle   6  Pass 1  IDiag  1:
 E= -279.500121556383     Delta-E=       -0.000330647935 Rises=F Damp=F
 DIIS: error= 2.85D-04 at cycle   6 NSaved=   6.
 NSaved= 6 IEnMin= 6 EnMin= -279.500121556383     IErMin= 6 ErrMin= 2.85D-04
 ErrMax= 2.85D-04  0.00D+00 EMaxC= 1.00D-01 BMatC= 1.72D-05 BMatP= 8.99D-05
 IDIUse=3 WtCom= 9.97D-01 WtEn= 2.85D-03
 Coeff-Com:  0.642D-03 0.117D-02 0.401D-02-0.126D+00-0.238D+00 0.136D+01
 Coeff-En:   0.000D+00 0.000D+00 0.000D+00 0.000D+00 0.000D+00 0.100D+01
 Coeff:      0.640D-03 0.116D-02 0.400D-02-0.126D+00-0.237D+00 0.136D+01
 Gap=     0.502 Goal=   None    Shift=    0.000
 RMSDP=4.66D-05 MaxDP=1.29D-03 DE=-3.31D-04 OVMax= 5.66D-03

 Cycle   7  Pass 1  IDiag  1:
 E= -279.500198271181     Delta-E=       -0.000076714798 Rises=F Damp=F
 DIIS: error= 1.34D-04 at cycle   7 NSaved=   7.
 NSaved= 7 IEnMin= 7 EnMin= -279.500198271181     IErMin= 7 ErrMin= 1.34D-04
 ErrMax= 1.34D-04  0.00D+00 EMaxC= 1.00D-01 BMatC= 4.89D-06 BMatP= 1.72D-05
 IDIUse=3 WtCom= 9.99D-01 WtEn= 1.34D-03
 Coeff-Com: -0.958D-03 0.141D-01 0.276D-01-0.243D-01-0.299D+00 0.416D+00
 Coeff-Com:  0.867D+00
 Coeff-En:   0.000D+00 0.000D+00 0.000D+00 0.000D+00 0.000D+00 0.000D+00
 Coeff-En:   0.100D+01
 Coeff:     -0.957D-03 0.140D-01 0.275D-01-0.243D-01-0.299D+00 0.416D+00
 Coeff:      0.867D+00
 Gap=     0.502 Goal=   None    Shift=    0.000
 RMSDP=1.37D-05 MaxDP=3.92D-04 DE=-7.67D-05 OVMax= 1.59D-03

 Cycle   8  Pass 1  IDiag  1:
 E= -279.500207822114     Delta-E=       -0.000009550932 Rises=F Damp=F
 DIIS: error= 5.81D-05 at cycle   8 NSaved=   8.
 NSaved= 8 IEnMin= 8 EnMin= -279.500207822114     IErMin= 8 ErrMin= 5.81D-05
 ErrMax= 5.81D-05  0.00D+00 EMaxC= 1.00D-01 BMatC= 6.40D-07 BMatP= 4.89D-06
 IDIUse=1 WtCom= 1.00D+00 WtEn= 0.00D+00
 Coeff-Com: -0.470D-03 0.365D-02 0.805D-02 0.277D-01-0.406D-01-0.201D+00
 Coeff-Com:  0.156D+00 0.105D+01
 Coeff:     -0.470D-03 0.365D-02 0.805D-02 0.277D-01-0.406D-01-0.201D+00
 Coeff:      0.156D+00 0.105D+01
 Gap=     0.502 Goal=   None    Shift=    0.000
 RMSDP=7.32D-06 MaxDP=2.11D-04 DE=-9.55D-06 OVMax= 8.13D-04

 Cycle   9  Pass 1  IDiag  1:
 E= -279.500209752499     Delta-E=       -0.000001930385 Rises=F Damp=F
 DIIS: error= 1.57D-05 at cycle   9 NSaved=   9.
 NSaved= 9 IEnMin= 9 EnMin= -279.500209752499     IErMin= 9 ErrMin= 1.57D-05
 ErrMax= 1.57D-05  0.00D+00 EMaxC= 1.00D-01 BMatC= 7.03D-08 BMatP= 6.40D-07
 IDIUse=1 WtCom= 1.00D+00 WtEn= 0.00D+00
 Coeff-Com:  0.131D-03-0.181D-02-0.326D-02-0.268D-02 0.349D-01 0.296D-02
 Coeff-Com: -0.162D+00-0.125D+00 0.126D+01
 Coeff:      0.131D-03-0.181D-02-0.326D-02-0.268D-02 0.349D-01 0.296D-02
 Coeff:     -0.162D+00-0.125D+00 0.126D+01
 Gap=     0.502 Goal=   None    Shift=    0.000
 RMSDP=1.99D-06 MaxDP=6.79D-05 DE=-1.93D-06 OVMax= 1.76D-04

 Cycle  10  Pass 1  IDiag  1:
 E= -279.500209917326     Delta-E=       -0.000000164827 Rises=F Damp=F
 DIIS: error= 4.17D-06 at cycle  10 NSaved=  10.
 NSaved=10 IEnMin=10 EnMin= -279.500209917326     IErMin=10 ErrMin= 4.17D-06
 ErrMax= 4.17D-06  0.00D+00 EMaxC= 1.00D-01 BMatC= 5.47D-09 BMatP= 7.03D-08
 IDIUse=1 WtCom= 1.00D+00 WtEn= 0.00D+00
 Coeff-Com:  0.294D-04-0.225D-03-0.288D-03-0.257D-02 0.115D-02 0.189D-01
 Coeff-Com: -0.945D-02-0.716D-01-0.885D-01 0.115D+01
 Coeff:      0.294D-04-0.225D-03-0.288D-03-0.257D-02 0.115D-02 0.189D-01
 Coeff:     -0.945D-02-0.716D-01-0.885D-01 0.115D+01
 Gap=     0.502 Goal=   None    Shift=    0.000
 RMSDP=4.99D-07 MaxDP=2.09D-05 DE=-1.65D-07 OVMax= 4.00D-05

 Cycle  11  Pass 1  IDiag  1:
 E= -279.500209929536     Delta-E=       -0.000000012210 Rises=F Damp=F
 DIIS: error= 2.03D-06 at cycle  11 NSaved=  11.
 NSaved=11 IEnMin=11 EnMin= -279.500209929536     IErMin=11 ErrMin= 2.03D-06
 ErrMax= 2.03D-06  0.00D+00 EMaxC= 1.00D-01 BMatC= 6.47D-10 BMatP= 5.47D-09
 IDIUse=1 WtCom= 1.00D+00 WtEn= 0.00D+00
 Coeff-Com: -0.214D-04 0.246D-03 0.494D-03 0.534D-03-0.418D-02-0.359D-02
 Coeff-Com:  0.197D-01 0.315D-01-0.137D+00-0.164D+00 0.126D+01
 Coeff:     -0.214D-04 0.246D-03 0.494D-03 0.534D-03-0.418D-02-0.359D-02
 Coeff:      0.197D-01 0.315D-01-0.137D+00-0.164D+00 0.126D+01
 Gap=     0.502 Goal=   None    Shift=    0.000
 RMSDP=1.73D-07 MaxDP=6.21D-06 DE=-1.22D-08 OVMax= 1.73D-05

 Cycle  12  Pass 1  IDiag  1:
 E= -279.500209931284     Delta-E=       -0.000000001749 Rises=F Damp=F
 DIIS: error= 6.03D-07 at cycle  12 NSaved=  12.
 NSaved=12 IEnMin=12 EnMin= -279.500209931284     IErMin=12 ErrMin= 6.03D-07
 ErrMax= 6.03D-07  0.00D+00 EMaxC= 1.00D-01 BMatC= 7.43D-11 BMatP= 6.47D-10
 IDIUse=1 WtCom= 1.00D+00 WtEn= 0.00D+00
 Coeff-Com:  0.137D-05-0.309D-04-0.670D-04 0.161D-03 0.112D-02-0.226D-02
 Coeff-Com: -0.414D-02 0.510D-02 0.420D-01-0.120D+00-0.274D+00 0.135D+01
 Coeff:      0.137D-05-0.309D-04-0.670D-04 0.161D-03 0.112D-02-0.226D-02
 Coeff:     -0.414D-02 0.510D-02 0.420D-01-0.120D+00-0.274D+00 0.135D+01
 Gap=     0.502 Goal=   None    Shift=    0.000
 RMSDP=7.18D-08 MaxDP=2.81D-06 DE=-1.75D-09 OVMax= 6.95D-06

 Cycle  13  Pass 1  IDiag  1:
 E= -279.500209931521     Delta-E=       -0.000000000237 Rises=F Damp=F
 DIIS: error= 1.75D-07 at cycle  13 NSaved=  13.
 NSaved=13 IEnMin=13 EnMin= -279.500209931521     IErMin=13 ErrMin= 1.75D-07
 ErrMax= 1.75D-07  0.00D+00 EMaxC= 1.00D-01 BMatC= 4.42D-12 BMatP= 7.43D-11
 IDIUse=1 WtCom= 1.00D+00 WtEn= 0.00D+00
 Coeff-Com:  0.132D-05-0.144D-04-0.231D-04-0.898D-04 0.113D-03 0.790D-03
 Coeff-Com: -0.761D-03-0.340D-02 0.501D-03 0.434D-01-0.385D-01-0.341D+00
 Coeff-Com:  0.134D+01
 Coeff:      0.132D-05-0.144D-04-0.231D-04-0.898D-04 0.113D-03 0.790D-03
 Coeff:     -0.761D-03-0.340D-02 0.501D-03 0.434D-01-0.385D-01-0.341D+00
 Coeff:      0.134D+01
 Gap=     0.502 Goal=   None    Shift=    0.000
 RMSDP=2.00D-08 MaxDP=6.08D-07 DE=-2.37D-10 OVMax= 1.74D-06

 Cycle  14  Pass 1  IDiag  1:
 E= -279.500209931536     Delta-E=       -0.000000000014 Rises=F Damp=F
 DIIS: error= 2.64D-08 at cycle  14 NSaved=  14.
 NSaved=14 IEnMin=14 EnMin= -279.500209931536     IErMin=14 ErrMin= 2.64D-08
 ErrMax= 2.64D-08  0.00D+00 EMaxC= 1.00D-01 BMatC= 2.20D-13 BMatP= 4.42D-12
 IDIUse=1 WtCom= 1.00D+00 WtEn= 0.00D+00
 Coeff-Com: -0.210D-06 0.341D-05 0.615D-05 0.563D-05-0.868D-04 0.435D-04
 Coeff-Com:  0.278D-03 0.269D-03-0.255D-02 0.163D-02 0.176D-01-0.251D-01
 Coeff-Com: -0.208D+00 0.122D+01
 Coeff:     -0.210D-06 0.341D-05 0.615D-05 0.563D-05-0.868D-04 0.435D-04
 Coeff:      0.278D-03 0.269D-03-0.255D-02 0.163D-02 0.176D-01-0.251D-01
 Coeff:     -0.208D+00 0.122D+01
 Gap=     0.502 Goal=   None    Shift=    0.000
 RMSDP=4.00D-09 MaxDP=9.85D-08 DE=-1.43D-11 OVMax= 3.66D-07

 SCF Done:  E(RHF) =  -279.500209932     A.U. after   14 cycles
            NFock= 14  Conv=0.40D-08     -V/T= 2.0024
 KE= 2.788219049064D+02 PE=-8.942678408161D+02 EE= 2.194732194025D+02
 Leave Link  502 at Mon Feb 21 20:12:34 2022, MaxMem= 16106127360 cpu:              51.8 elap:               3.4
 (Enter /sw/contrib/gaussian/g16/B01/g16/l801.exe)
 ExpMin= 2.53D-02 ExpMax= 1.53D+04 ExpMxC= 5.22D+02 IAcc=3 IRadAn=         5 AccDes= 0.00D+00
 HarFok:  IExCor=  205 AccDes= 0.00D+00 IRadAn=         5 IDoV=-2 UseB2=F ITyADJ=14
 ICtDFT= 12500011 ScaDFX=  1.000000  1.000000  1.000000  1.000000
 Largest valence mixing into a core orbital is  2.09D-04
 Largest core mixing into a valence orbital is  3.68D-05
 Range of M.O.s used for correlation:     5   207
 NBasis=   207 NAE=    16 NBE=    16 NFC=     4 NFV=     0
 NROrb=    203 NOA=    12 NOB=    12 NVA=   191 NVB=   191

 **** Warning!!: The largest alpha MO coefficient is  0.17406800D+02

 Leave Link  801 at Mon Feb 21 20:12:34 2022, MaxMem= 16106127360 cpu:               2.1 elap:               0.1
 (Enter /sw/contrib/gaussian/g16/B01/g16/l906.exe)
 Frozen-core derivative calculation, NFC=   4 NFV=   0.
 FulOut=F Deriv=T AODrv=T NAtomX=     5
   MMem=           0  MDisk=          12 MDiskD=          12
  W3Min=      811440 MinDsk=     2425030 NBas6D=         245
 NBas2D=       30762    NTT=       30135    LW2=     7400000
    MDV= 16105574325 MDiskM=      328644 NBas2p=       30702
 Disk-based method using ON**2 memory for 12 occupieds at a time.
 Permanent disk used for amplitudes=    11516536 words.
 Estimated scratch disk usage=   321251614 words.
 IMap=   1   2   3   4   5   6   7   8   9  10  11  12  13  14  15  16
 Actual    scratch disk usage=   310331678 words.
 JobTyp=1 Pass  1:  I=   5 to  16 NPSUse= 28 ParTrn=T ParDer=T DoDerP=T.
 (rs|ai) integrals will be sorted in core.
 Spin components of T(2) and E(2):
     alpha-alpha T2 =       0.3420267784D-01 E2=     -0.1225745459D+00
     alpha-beta  T2 =       0.1878949158D+00 E2=     -0.7013293424D+00
     beta-beta   T2 =       0.3420267784D-01 E2=     -0.1225745459D+00
 The integrals were generated   1 times.
 ANorm=    0.1120848014D+01
 E2 =    -0.9464784341D+00 EUMP2 =    -0.28044668836567D+03
 Leave Link  906 at Mon Feb 21 20:14:11 2022, MaxMem= 16106127360 cpu:            2707.0 elap:              96.8
 (Enter /sw/contrib/gaussian/g16/B01/g16/l1101.exe)
 Using compressed Sx but separate Hx and Fx, NAtomX=     5.
 Will process      6 centers per pass.
 Leave Link 1101 at Mon Feb 21 20:14:11 2022, MaxMem= 16106127360 cpu:               5.4 elap:               0.2
 (Enter /sw/contrib/gaussian/g16/B01/g16/l1102.exe)
 Leave Link 1102 at Mon Feb 21 20:14:11 2022, MaxMem= 16106127360 cpu:               1.8 elap:               0.1
 (Enter /sw/contrib/gaussian/g16/B01/g16/l1110.exe)
 Forming Gx(P) for the SCF density, NAtomX=     5.
 Integral derivatives from FoFJK, PRISM(SPDF).
 Do as many integral derivatives as possible in FoFJK.
 G2DrvN: MDV=   16106126844.
 G2DrvN: will do     6 centers at a time, making    1 passes.
 Calling FoFCou, ICntrl=  3107 FMM=F I1Cent=   0 AccDes= 0.00D+00.
 FoFJK:  IHMeth= 1 ICntrl=    3107 DoSepK=F KAlg= 0 I1Cent=           0 FoldK=F
 IRaf=         0 NMat=       1 IRICut=       1 DoRegI=T DoRafI=F ISym2E= 1 IDoP0=0 IntGTp=1.
 FoFCou: FMM=F IPFlag=           0 FMFlag=      100000 FMFlg1=           0
         NFxFlg=           0 DoJE=F BraDBF=F KetDBF=F FulRan=T
         wScrn=  0.000000 ICntrl=      3107 IOpCl=  0 I1Cent=           0 NGrid=           0
         NMat0=    1 NMatS0=      1 NMatT0=    0 NMatD0=    1 NMtDS0=    0 NMtDT0=    0
 Petite list used in FoFCou.
 End of G2Drv F.D. properties file   721 does not exist.
 End of G2Drv F.D. properties file   722 does not exist.
 End of G2Drv F.D. properties file   788 does not exist.
 Leave Link 1110 at Mon Feb 21 20:14:14 2022, MaxMem= 16106127360 cpu:              83.5 elap:               3.0
 (Enter /sw/contrib/gaussian/g16/B01/g16/l1002.exe)
 Minotr:  Closed shell wavefunction.
          IDoAtm=11111
          Frozen-core window.
          Direct CPHF calculation.
          Differentiating once with respect to electric field.
                with respect to dipole field.
          Differentiating once with respect to nuclear coordinates.
          Requested convergence is 1.0D-08 RMS, and 1.0D-07 maximum.
          Secondary convergence is 1.0D-12 RMS, and 1.0D-12 maximum.
          NewPWx=T KeepS1=T KeepF1=T KeepIn=T MapXYZ=F SortEE=F KeepMc=T.
 Keep R1 ints in memory in symmetry-blocked form, NReq=348888983.
 FoFCou: FMM=F IPFlag=           0 FMFlag=           0 FMFlg1=           0
         NFxFlg=           0 DoJE=F BraDBF=F KetDBF=F FulRan=T
         wScrn=  0.000000 ICntrl=       600 IOpCl=  0 I1Cent=           0 NGrid=           0
         NMat0=    1 NMatS0=  21528 NMatT0=    0 NMatD0=    1 NMtDS0=    0 NMtDT0=    0
 Petite list used in FoFCou.
          MDV=   16106127360 using IRadAn=       1.
          Solving linear equations simultaneously, MaxMat=       0.
          There are    18 degrees of freedom in the 1st order CPHF.  IDoFFX=6 NUNeed=    18.
     15 vectors produced by pass  0 Test12= 1.70D-14 5.56D-09 XBig12= 8.31D+00 1.08D+00.
 AX will form    15 AO Fock derivatives at one time.
     15 vectors produced by pass  1 Test12= 1.70D-14 5.56D-09 XBig12= 1.36D+00 2.65D-01.
     15 vectors produced by pass  2 Test12= 1.70D-14 5.56D-09 XBig12= 1.45D-01 1.00D-01.
     15 vectors produced by pass  3 Test12= 1.70D-14 5.56D-09 XBig12= 5.11D-03 1.14D-02.
     15 vectors produced by pass  4 Test12= 1.70D-14 5.56D-09 XBig12= 1.01D-04 1.96D-03.
     15 vectors produced by pass  5 Test12= 1.70D-14 5.56D-09 XBig12= 1.45D-06 1.84D-04.
     15 vectors produced by pass  6 Test12= 1.70D-14 5.56D-09 XBig12= 1.15D-08 1.50D-05.
     13 vectors produced by pass  7 Test12= 1.70D-14 5.56D-09 XBig12= 8.51D-11 1.30D-06.
      3 vectors produced by pass  8 Test12= 1.70D-14 5.56D-09 XBig12= 5.88D-13 1.19D-07.
      2 vectors produced by pass  9 Test12= 1.70D-14 5.56D-09 XBig12= 3.74D-15 9.84D-09.
 InvSVY:  IOpt=1 It=  1 EMax= 8.88D-16
 Solved reduced A of dimension   123 with    15 vectors.
 FullF1:  Do perturbations      1 to      18.
 Saving first derivative matrices.
 End of Minotr F.D. properties file   721 does not exist.
 End of Minotr F.D. properties file   722 does not exist.
 End of Minotr F.D. properties file   788 does not exist.
 Leave Link 1002 at Mon Feb 21 20:14:17 2022, MaxMem= 16106127360 cpu:              81.9 elap:               3.0
 (Enter /sw/contrib/gaussian/g16/B01/g16/l811.exe)
 MDV= 16106127360.
 Form MO integral derivatives with frozen-active canonical formalism.
 MOERI=1 MOERIx=1 NAtoms=     5 NAtomX=     5.
 Discarding MO integrals.
 MO basis two electron integral derivatives will not be stored on disk.
 IAlg= 3 DoFC=T DoPWx=T Debug=F.
 Frozen-core window:  NFC=   4 NFV=   0.
 Reordered first order wavefunction length =     18678272
 In DefCFB: NBatch=  1 ICI= 16 ICA=191 LFMax= 96
            Large arrays: LIAPS=   619940160 LIARS=   288257200 words.
 In StABat: MaxSiz= 55 MinSiz= 25 NAtomB=  5
 DoIAMN: NPSUse= 28.
 Leave Link  811 at Mon Feb 21 20:15:37 2022, MaxMem= 16106127360 cpu:            2227.7 elap:              79.7
 (Enter /sw/contrib/gaussian/g16/B01/g16/l804.exe)
 Frozen-core window:  NFC=   4 NFV=   0.
 Closed-shell transformation, MDV= 16106127360 ITran=4 ISComp=1.
 Semi-Direct transformation.
 ModeAB=           2 MOrb=            16 LenV=   16104923121
 LASXX=     67341636 LTotXX=    67341636 LenRXX=    67341636
 LTotAB=    68301760 MaxLAS=    99807120 LenRXY=    99807120
 NonZer=   134683272 LenScr=   202817536 LnRSAI=           0
 LnScr1=           0 LExtra=           0 Total=    369966292
 MaxDsk=          -1 SrtSym=           F ITran=            4
 DoSDTr:  NPSUse= 28
 JobTyp=0 Pass  1:  I=   1 to  16.
 (rs|ai) integrals will be sorted in core.
 Complete sort for first half transformation.
 First half transformation complete.
 Begin second half transformation for I=  10.
 Begin second half transformation for I=  10.
 Complete sort for second half transformation.
 Second half transformation complete.
 Spin components of T(2) and E(2):
     alpha-alpha T2 =       0.3420267784D-01 E2=     -0.1225745459D+00
     alpha-beta  T2 =       0.1878949158D+00 E2=     -0.7013293424D+00
     beta-beta   T2 =       0.3420267784D-01 E2=     -0.1225745459D+00
 ANorm=    0.1585118463D+01
 E2 =    -0.9464784341D+00 EUMP2 =    -0.28044668836567D+03
 Leave Link  804 at Mon Feb 21 20:15:53 2022, MaxMem= 16106127360 cpu:             442.6 elap:              15.9
 (Enter /sw/contrib/gaussian/g16/B01/g16/l1002.exe)
 Minotr:  Closed shell wavefunction.
          Computing MP2/KS-MP2 derivatives.
          Using Z-Vector for PSCF gradient.
          Skipping F1 and S1 gradient terms here.
          IDoAtm=11111
          Frozen-core window.
          Using MO integrals in the linear equations.
          Forming densities via direct SCF.
          Differentiating once with respect to electric field.
                with respect to dipole field.
          Differentiating once with respect to nuclear coordinates.
          Using symmetry in CPHF.
          Requested convergence is 1.0D-10 RMS, and 1.0D-09 maximum.
          NewPWx=F KeepS1=T KeepF1=T KeepIn=T MapXYZ=F SortEE=F KeepMc=T.
          MDV=   16106127360 using IRadAn=       5.
          Solving linear equations separately, MaxMat=       0.
          There are     1 degrees of freedom in the 1st order CPHF.  IDoFFX=0 NUNeed=     1.
 FoFJK:  IHMeth= 1 ICntrl=       0 DoSepK=F KAlg= 0 I1Cent=           0 FoldK=F
 IRaf=         0 NMat=       1 IRICut=       1 DoRegI=T DoRafI=F ISym2E= 0 IDoP0=0 IntGTp=1.
 FoFCou: FMM=F IPFlag=           0 FMFlag=      100000 FMFlg1=           0
         NFxFlg=           0 DoJE=F BraDBF=F KetDBF=F FulRan=T
         wScrn=  0.000000 ICntrl=         0 IOpCl=  0 I1Cent=           0 NGrid=           0
         NMat0=    1 NMatS0=      1 NMatT0=    0 NMatD0=    1 NMtDS0=    0 NMtDT0=    0
 Symmetry not used in FoFCou.
 LinEq1:  Iter=  0 NonCon=     1 RMS=6.01D-03 Max=1.32D-01 NDo=     1
 LinEq1:  Iter=  1 NonCon=     1 RMS=1.95D-03 Max=3.93D-02 NDo=     1
 LinEq1:  Iter=  2 NonCon=     1 RMS=8.90D-04 Max=1.47D-02 NDo=     1
 LinEq1:  Iter=  3 NonCon=     1 RMS=3.97D-04 Max=7.82D-03 NDo=     1
 LinEq1:  Iter=  4 NonCon=     1 RMS=1.23D-04 Max=1.94D-03 NDo=     1
 LinEq1:  Iter=  5 NonCon=     1 RMS=4.65D-05 Max=7.38D-04 NDo=     1
 LinEq1:  Iter=  6 NonCon=     1 RMS=2.07D-05 Max=2.41D-04 NDo=     1
 LinEq1:  Iter=  7 NonCon=     1 RMS=8.40D-06 Max=1.69D-04 NDo=     1
 LinEq1:  Iter=  8 NonCon=     1 RMS=3.56D-06 Max=3.63D-05 NDo=     1
 LinEq1:  Iter=  9 NonCon=     1 RMS=9.72D-07 Max=1.42D-05 NDo=     1
 LinEq1:  Iter= 10 NonCon=     1 RMS=1.94D-07 Max=2.21D-06 NDo=     1
 LinEq1:  Iter= 11 NonCon=     1 RMS=3.66D-08 Max=4.07D-07 NDo=     1
 LinEq1:  Iter= 12 NonCon=     1 RMS=8.83D-09 Max=1.37D-07 NDo=     1
 LinEq1:  Iter= 13 NonCon=     1 RMS=1.58D-09 Max=2.79D-08 NDo=     1
 LinEq1:  Iter= 14 NonCon=     1 RMS=2.88D-10 Max=4.20D-09 NDo=     1
 LinEq1:  Iter= 15 NonCon=     0 RMS=5.19D-11 Max=6.05D-10 NDo=     1
 Linear equations converged to 1.000D-10 1.000D-09 after    15 iterations.
 End of Minotr F.D. properties file   721 does not exist.
 End of Minotr F.D. properties file   722 does not exist.
 End of Minotr F.D. properties file   788 does not exist.
 Leave Link 1002 at Mon Feb 21 20:15:55 2022, MaxMem= 16106127360 cpu:              64.0 elap:               2.3
 (Enter /sw/contrib/gaussian/g16/B01/g16/l1102.exe)
 Use density number 2.
 Symmetrizing basis deriv contribution to polar:
 IMax=3 JMax=2 DiffMx= 0.00D+00
 Leave Link 1102 at Mon Feb 21 20:15:55 2022, MaxMem= 16106127360 cpu:               0.6 elap:               0.1
 (Enter /sw/contrib/gaussian/g16/B01/g16/l1110.exe)
 Forming Gx(P) for generalized density number  2 NAtomX=     5.
 Integral derivatives from FoFJK, PRISM(SPDF).
 Do as many integral derivatives as possible in FoFJK.
 G2DrvN: MDV=   16106126844.
 G2DrvN: will do     6 centers at a time, making    1 passes.
 Calling FoFCou, ICntrl=  3107 FMM=F I1Cent=   0 AccDes= 0.00D+00.
 FoFJK:  IHMeth= 1 ICntrl=    3107 DoSepK=F KAlg= 0 I1Cent=           0 FoldK=F
 IRaf=         0 NMat=       1 IRICut=       1 DoRegI=T DoRafI=F ISym2E= 1 IDoP0=0 IntGTp=1.
 FoFCou: FMM=F IPFlag=           0 FMFlag=      100000 FMFlg1=           0
         NFxFlg=           0 DoJE=F BraDBF=F KetDBF=F FulRan=T
         wScrn=  0.000000 ICntrl=      3107 IOpCl=  0 I1Cent=           0 NGrid=           0
         NMat0=    1 NMatS0=      1 NMatT0=    0 NMatD0=    1 NMtDS0=    0 NMtDT0=    0
 Petite list used in FoFCou.
 End of G2Drv F.D. properties file   721 does not exist.
 End of G2Drv F.D. properties file   722 does not exist.
 End of G2Drv F.D. properties file   788 does not exist.
 Leave Link 1110 at Mon Feb 21 20:15:58 2022, MaxMem= 16106127360 cpu:              83.5 elap:               3.0
 (Enter /sw/contrib/gaussian/g16/B01/g16/l1112.exe)
 MP22nd: MDV=   16106127360
 This link is doing NAtomX=     5 total of    18 degrees of freedom.
 Using ON3 I/O method in MakUI.
 Frozen-core window:  NFC=   4 NFV=   0.
 Using Ix for Sx.
 Use MO integrals over full window.
 Using OV2 memory method for fx*t*t/D, MaxI=    16 DoOO2=F NP=  28.
 R2 and R3 integrals will be kept in memory, NReq=   915591705.
 FoFCou: FMM=F IPFlag=           0 FMFlag=           0 FMFlg1=           0
         NFxFlg=           0 DoJE=F BraDBF=F KetDBF=F FulRan=T
         wScrn=  0.000000 ICntrl=       600 IOpCl=  0 I1Cent=           0 NGrid=           0
         NMat0=    1 NMatS0=      1 NMatT0=    0 NMatD0=    1 NMtDS0=    0 NMtDT0=    0
 Symmetry not used in FoFCou.
 DD1Dir will call FoFMem   1 times, MxPair=       272
 NAB=   136 NAA=     0 NBB=     0.
 Symmetry is being used.
 FoFJK:  IHMeth= 1 ICntrl=       0 DoSepK=F KAlg= 0 I1Cent=           0 FoldK=F
 IRaf=         0 NMat=      18 IRICut=      45 DoRegI=T DoRafI=T ISym2E= 2 IDoP0=3 IntGTp=3.
 Discarding MO integrals.
 Leave Link 1112 at Mon Feb 21 20:16:24 2022, MaxMem= 16106127360 cpu:             724.8 elap:              26.0
 (Enter /sw/contrib/gaussian/g16/B01/g16/l601.exe)
 Copying SCF densities to generalized density rwf, IOpCl= 0 IROHF=0.

 **********************************************************************

            Population analysis using the MP2 Density.

 **********************************************************************

 Orbital symmetries:
       Occupied  (A') (A') (A') (A') (A') (A') (A') (A') (A') (A')
                 (A") (A') (A") (A') (A") (A')
       Virtual   (A') (A") (A') (A') (A") (A') (A') (A') (A") (A')
                 (A") (A') (A') (A') (A") (A') (A') (A") (A') (A')
                 (A') (A') (A') (A') (A") (A') (A') (A") (A') (A')
                 (A") (A') (A") (A') (A') (A") (A') (A') (A") (A')
                 (A") (A') (A") (A') (A') (A") (A') (A') (A") (A')
                 (A") (A') (A') (A') (A") (A') (A") (A') (A") (A')
                 (A') (A') (A") (A') (A') (A") (A') (A") (A') (A')
                 (A") (A') (A') (A") (A") (A') (A') (A") (A') (A')
                 (A') (A") (A') (A") (A') (A") (A') (A") (A') (A')
                 (A") (A') (A') (A") (A') (A") (A') (A") (A') (A')
                 (A") (A') (A") (A') (A') (A") (A') (A') (A") (A')
                 (A") (A') (A') (A') (A") (A') (A') (A') (A") (A')
                 (A") (A') (A") (A') (A') (A") (A") (A') (A") (A')
                 (A') (A') (A') (A") (A") (A") (A') (A') (A') (A')
                 (A") (A') (A") (A') (A') (A") (A') (A') (A') (A')
                 (A") (A') (A') (A") (A') (A") (A') (A") (A') (A")
                 (A') (A") (A') (A') (A") (A") (A") (A') (A") (A')
                 (A") (A') (A") (A') (A") (A') (A") (A") (A') (A')
                 (A') (A') (A') (A') (A') (A') (A') (A') (A') (A')
                 (A')
 The electronic state is 1-A'.
 Alpha  occ. eigenvalues --  -20.68839 -20.68779 -20.65818 -15.81521  -1.62344
 Alpha  occ. eigenvalues --   -1.49361  -1.25000  -0.94923  -0.77162  -0.75751
 Alpha  occ. eigenvalues --   -0.70937  -0.68012  -0.62118  -0.58863  -0.48366
 Alpha  occ. eigenvalues --   -0.47181
 Alpha virt. eigenvalues --    0.03003   0.06977   0.08566   0.10155   0.13387
 Alpha virt. eigenvalues --    0.13406   0.14439   0.15482   0.17858   0.19411
 Alpha virt. eigenvalues --    0.19973   0.20426   0.22121   0.23607   0.23721
 Alpha virt. eigenvalues --    0.26574   0.28771   0.30421   0.30992   0.34233
 Alpha virt. eigenvalues --    0.34921   0.38693   0.42254   0.43215   0.52661
 Alpha virt. eigenvalues --    0.52860   0.55690   0.58084   0.62487   0.63744
 Alpha virt. eigenvalues --    0.67394   0.68449   0.70689   0.71145   0.72428
 Alpha virt. eigenvalues --    0.73043   0.74521   0.79063   0.79258   0.80973
 Alpha virt. eigenvalues --    0.81376   0.82991   0.86711   0.90824   0.92251
 Alpha virt. eigenvalues --    0.92523   0.95800   0.97546   0.98523   1.01771
 Alpha virt. eigenvalues --    1.05138   1.05405   1.08104   1.11653   1.13974
 Alpha virt. eigenvalues --    1.18873   1.22033   1.23230   1.33720   1.34768
 Alpha virt. eigenvalues --    1.38780   1.45119   1.48769   1.50954   1.53706
 Alpha virt. eigenvalues --    1.56515   1.57698   1.61251   1.66298   1.66960
 Alpha virt. eigenvalues --    1.70186   1.79304   1.83049   1.83220   1.87870
 Alpha virt. eigenvalues --    1.90831   1.95600   1.98922   2.00401   2.07309
 Alpha virt. eigenvalues --    2.11926   2.12998   2.15177   2.22157   2.26346
 Alpha virt. eigenvalues --    2.26583   2.28789   2.31394   2.34041   2.38614
 Alpha virt. eigenvalues --    2.42221   2.42536   2.45264   2.46125   2.47419
 Alpha virt. eigenvalues --    2.49909   2.59085   2.59548   2.61736   2.62345
 Alpha virt. eigenvalues --    2.63577   2.66607   2.75507   2.81782   2.84906
 Alpha virt. eigenvalues --    2.87884   2.89490   2.91179   2.95728   3.01977
 Alpha virt. eigenvalues --    3.06212   3.11747   3.20584   3.22466   3.31411
 Alpha virt. eigenvalues --    3.33763   3.51464   3.63799   3.83138   3.84117
 Alpha virt. eigenvalues --    4.14852   4.16677   4.18192   4.25127   4.35178
 Alpha virt. eigenvalues --    4.39294   4.46431   4.51732   4.65655   4.70829
 Alpha virt. eigenvalues --    4.80170   4.81476   4.83082   4.89417   5.01828
 Alpha virt. eigenvalues --    5.07316   5.09718   5.14512   5.17473   5.23888
 Alpha virt. eigenvalues --    5.26682   5.30527   5.32868   5.34906   5.60195
 Alpha virt. eigenvalues --    5.67094   5.76050   5.83005   5.95093   6.16223
 Alpha virt. eigenvalues --    6.30858   6.33231   6.39213   6.49007   6.50229
 Alpha virt. eigenvalues --    6.61317   6.66863   6.69495   6.75983   6.76349
 Alpha virt. eigenvalues --    6.82820   6.89370   7.00989   7.05433   7.05833
 Alpha virt. eigenvalues --    7.09029   7.11992   7.14570   7.18099   7.21784
 Alpha virt. eigenvalues --    7.24262   7.31000   7.32275   7.34299   7.39490
 Alpha virt. eigenvalues --    7.42410   7.48062   7.60548   7.60901   7.61716
 Alpha virt. eigenvalues --    7.65874   7.78343   7.88332   8.07591   8.30793
 Alpha virt. eigenvalues --    8.40897   8.53737  13.36007  14.31510  15.14998
 Alpha virt. eigenvalues --   16.12467
          Condensed to atoms (all electrons):
               1          2          3          4          5
     1  H    0.589811   0.128485   0.019948   0.012298  -0.000662
     2  O    0.128485   8.321771  -0.174821  -0.087967   0.015134
     3  O    0.019948  -0.174821   8.473355  -0.125648  -0.036114
     4  N    0.012298  -0.087967  -0.125648   6.958891  -0.053594
     5  O   -0.000662   0.015134  -0.036114  -0.053594   8.262056
 Mulliken charges:
               1
     1  H    0.250120
     2  O   -0.202601
     3  O   -0.156720
     4  N    0.296021
     5  O   -0.186820
 Sum of Mulliken charges =  -0.00000
 Mulliken charges with hydrogens summed into heavy atoms:
               1
     2  O    0.047519
     3  O   -0.156720
     4  N    0.296021
     5  O   -0.186820
 APT charges:
               1
     1  H    0.298616
     2  O   -0.291487
     3  O   -0.502874
     4  N    0.884302
     5  O   -0.388556
 Sum of APT charges =  -0.00000
 APT charges with hydrogens summed into heavy atoms:
               1
     2  O    0.007128
     3  O   -0.502874
     4  N    0.884302
     5  O   -0.388556
 Electronic spatial extent (au):  <R**2>=            254.4334
 Charge=             -0.0000 electrons
 Dipole moment (field-independent basis, Debye):
    X=              0.4415    Y=              1.2752    Z=              0.0000  Tot=              1.3495
 Quadrupole moment (field-independent basis, Debye-Ang):
   XX=            -22.4438   YY=            -18.5527   ZZ=            -22.0315
   XY=              3.2838   XZ=              0.0000   YZ=              0.0000
 Traceless Quadrupole moment (field-independent basis, Debye-Ang):
   XX=             -1.4345   YY=              2.4566   ZZ=             -1.0221
   XY=              3.2838   XZ=              0.0000   YZ=              0.0000
 Octapole moment (field-independent basis, Debye-Ang**2):
  XXX=              2.5732  YYY=             11.2677  ZZZ=             -0.0000  XYY=              7.8848
  XXY=              6.4578  XXZ=              0.0000  XZZ=             -1.6028  YZZ=             -0.9112
  YYZ=              0.0000  XYZ=              0.0000
 Hexadecapole moment (field-independent basis, Debye-Ang**3):
 XXXX=           -158.3833 YYYY=            -91.1852 ZZZZ=            -18.2860 XXXY=            -37.1598
 XXXZ=             -0.0000 YYYX=            -30.9696 YYYZ=             -0.0000 ZZZX=             -0.0000
 ZZZY=             -0.0000 XXYY=            -34.1434 XXZZ=            -30.8639 YYZZ=            -20.9843
 XXYZ=             -0.0000 YYXZ=             -0.0000 ZZXY=            -15.2176
 N-N= 1.164725065756D+02 E-N=-8.950636427232D+02  KE= 2.801796598135D+02
 Symmetry A'   KE= 2.662132116046D+02
 Symmetry A"   KE= 1.396644820894D+01
  Exact polarizability:  33.993   9.555  30.560   0.000  -0.000  17.978
 Approx polarizability:  29.078   5.206  23.859   0.000   0.000  15.545
 No NMR shielding tensors so no spin-rotation constants.
 Leave Link  601 at Mon Feb 21 20:16:24 2022, MaxMem= 16106127360 cpu:               4.6 elap:               0.2
 (Enter /sw/contrib/gaussian/g16/B01/g16/l701.exe)
 ... and contract with generalized density number  2.
 Compute integral second derivatives.
 Leave Link  701 at Mon Feb 21 20:16:25 2022, MaxMem= 16106127360 cpu:               6.4 elap:               0.3
 (Enter /sw/contrib/gaussian/g16/B01/g16/l702.exe)
 L702 exits ... SP integral derivatives will be done elsewhere.
 Leave Link  702 at Mon Feb 21 20:16:25 2022, MaxMem= 16106127360 cpu:               0.5 elap:               0.0
 (Enter /sw/contrib/gaussian/g16/B01/g16/l703.exe)
 Integral derivatives from FoFJK, PRISM(SPDF).
 Compute integral second derivatives, UseDBF=F ICtDFT=           0.
 Calling FoFJK, ICntrl=  10100127 FMM=F ISym2X=1 I1Cent= 0 IOpClX= 0 NMat=1 NMatS=1 NMatT=0.
 FoFJK:  IHMeth= 1 ICntrl=10100127 DoSepK=F KAlg= 0 I1Cent=           0 FoldK=F
 IRaf=         0 NMat=       1 IRICut=       1 DoRegI=T DoRafI=F ISym2E= 1 IDoP0=0 IntGTp=1.
 FoFCou: FMM=F IPFlag=           0 FMFlag=      100000 FMFlg1=         800
         NFxFlg=           0 DoJE=F BraDBF=F KetDBF=F FulRan=T
         wScrn=  0.000000 ICntrl=  10100127 IOpCl=  0 I1Cent=           0 NGrid=           0
         NMat0=    1 NMatS0=      1 NMatT0=    0 NMatD0=    1 NMtDS0=    0 NMtDT0=    0
 Petite list used in FoFCou.
 Leave Link  703 at Mon Feb 21 20:16:40 2022, MaxMem= 16106127360 cpu:             421.5 elap:              15.1
 (Enter /sw/contrib/gaussian/g16/B01/g16/l716.exe)
 Dipole        = 1.73701569D-01 5.01704066D-01 6.47221052D-33
 Polarizability= 3.39929591D+01 9.55480105D+00 3.05596451D+01
                 1.29048646D-31-1.14052243D-32 1.79780385D+01
 Full mass-weighted force constant matrix:
 Low frequencies --- -273.2590   -0.0014   -0.0006    0.0004   31.0050   34.8100
 Low frequencies ---   57.5641  235.3860  336.3024
 ******    1 imaginary frequencies (negative Signs) ****** 
 Diagonal vibrational polarizability:
       15.6713614      29.1134951      45.4341076
 Harmonic frequencies (cm**-1), IR intensities (KM/Mole), Raman scattering
 activities (A**4/AMU), depolarization ratios for plane and unpolarized
 incident light, reduced masses (AMU), force constants (mDyne/A),
 and normal coordinates:
                      1                      2                      3
                     A"                     A"                     A'
 Frequencies --   -273.2323               235.0644               336.2860
 Red. masses --      1.1356                10.7135                 8.5654
 Frc consts  --      0.0500                 0.3488                 0.5707
 IR Inten    --    125.0810                 0.7108                 7.2792
  Atom  AN      X      Y      Z        X      Y      Z        X      Y      Z
     1   1     0.00  -0.00   1.00    -0.00   0.00  -0.56     0.55  -0.43  -0.00
     2   8     0.00   0.00  -0.06    -0.00   0.00  -0.31    -0.08  -0.37  -0.00
     3   8    -0.00  -0.00  -0.04    -0.00  -0.00   0.33    -0.14   0.44   0.00
     4   7     0.00  -0.00   0.06     0.00  -0.00   0.53     0.03   0.24   0.00
     5   8     0.00   0.00  -0.01     0.00   0.00  -0.44     0.16  -0.26  -0.00
                      4                      5                      6
                     A'                     A'                     A'
 Frequencies --    423.2573               776.4614               964.9230
 Red. masses --     12.4049                13.0633                15.4679
 Frc consts  --      1.3093                 4.6403                 8.4853
 IR Inten    --    210.0798               160.0037                21.1382
  Atom  AN      X      Y      Z        X      Y      Z        X      Y      Z
     1   1     0.39   0.21  -0.00    -0.33   0.19   0.00    -0.16  -0.04  -0.00
     2   8     0.31   0.22  -0.00     0.43   0.09  -0.00    -0.53   0.03  -0.00
     3   8     0.19   0.43   0.00    -0.05  -0.25   0.00     0.75  -0.02   0.00
     4   7    -0.35  -0.43   0.00    -0.15   0.62   0.00    -0.12   0.24   0.00
     5   8    -0.22  -0.28  -0.00    -0.22  -0.39  -0.00    -0.11  -0.22  -0.00
                      7                      8                      9
                     A'                     A'                     A'
 Frequencies --   1368.4834              1670.7757              3778.3672
 Red. masses --      1.1314                13.2694                 1.0676
 Frc consts  --      1.2484                21.8241                 8.9794
 IR Inten    --    150.4032               147.7538                82.7689
  Atom  AN      X      Y      Z        X      Y      Z        X      Y      Z
     1   1     0.99  -0.05   0.00    -0.34   0.00  -0.00     0.10   0.99  -0.00
     2   8    -0.03   0.05   0.00    -0.00  -0.04  -0.00    -0.01  -0.06   0.00
     3   8    -0.02  -0.05  -0.00     0.00   0.15   0.00     0.00   0.00   0.00
     4   7     0.02   0.01  -0.00     0.71  -0.05   0.00    -0.00  -0.00  -0.00
     5   8    -0.03  -0.01   0.00    -0.60  -0.07  -0.00     0.00   0.00  -0.00

 -------------------
 - Thermochemistry -
 -------------------
 Temperature   298.150 Kelvin.  Pressure   1.00000 Atm.
 Atom     1 has atomic number  1 and mass   1.00783
 Atom     2 has atomic number  8 and mass  15.99491
 Atom     3 has atomic number  8 and mass  15.99491
 Atom     4 has atomic number  7 and mass  14.00307
 Atom     5 has atomic number  8 and mass  15.99491
 Molecular mass:    62.99564 amu.
 Principal axes and moments of inertia in atomic units:
                           1         2         3
     Eigenvalues --    33.21547 362.85026 396.06572
           X            0.80642  -0.59135   0.00000
           Y            0.59135   0.80642   0.00000
           Z            0.00000  -0.00000   1.00000
 This molecule is an asymmetric top.
 Rotational symmetry number  1.
 Rotational temperatures (Kelvin)      2.60764     0.23870     0.21869
 Rotational constants (GHZ):          54.33436     4.97379     4.55667
    1 imaginary frequencies ignored.
 Zero-point vibrational energy      57143.3 (Joules/Mol)
                                   13.65758 (Kcal/Mol)
 Warning -- explicit consideration of   3 degrees of freedom as
           vibrations may cause significant error
 Vibrational temperatures:    338.21   483.84   608.97  1117.15  1388.31
          (Kelvin)           1968.94  2403.87  5436.23
 
 Zero-point correction=                           0.021765 (Hartree/Particle)
 Thermal correction to Energy=                    0.025908
 Thermal correction to Enthalpy=                  0.026852
 Thermal correction to Gibbs Free Energy=        -0.004381
 Sum of electronic and zero-point Energies=           -280.424924
 Sum of electronic and thermal Energies=              -280.420781
 Sum of electronic and thermal Enthalpies=            -280.419836
 Sum of electronic and thermal Free Energies=         -280.451070
 
                     E (Thermal)             CV                S
                      KCal/Mol        Cal/Mol-Kelvin    Cal/Mol-Kelvin
 Total                   16.257             12.038             65.736
 Electronic               0.000              0.000              0.000
 Translational            0.889              2.981             38.341
 Rotational               0.889              2.981             23.083
 Vibrational             14.480              6.076              4.312
 Vibration     1          0.655              1.787              1.840
 Vibration     2          0.717              1.603              1.230
 Vibration     3          0.785              1.420              0.881
                       Q            Log10(Q)             Ln(Q)
 Total Bot       0.103557D+03          2.015181          4.640126
 Total V=0       0.106233D+13         12.026260         27.691486
 Vib (Bot)       0.213058D-09         -9.671502        -22.269455
 Vib (Bot)    1  0.836016D+00         -0.077785         -0.179107
 Vib (Bot)    2  0.553454D+00         -0.256918         -0.591576
 Vib (Bot)    3  0.413817D+00         -0.383192         -0.882331
 Vib (V=0)       0.218563D+01          0.339577          0.781905
 Vib (V=0)    1  0.147413D+01          0.168535          0.388066
 Vib (V=0)    2  0.124586D+01          0.095470          0.219828
 Vib (V=0)    3  0.114903D+01          0.060333          0.138921
 Electronic      0.100000D+01          0.000000          0.000000
 Translational   0.196526D+08          7.293420         16.793719
 Rotational      0.247322D+05          4.393263         10.115862
 
                                                                title
                                                             IR Spectrum
 
     3                                                                      1          1                                             
     7                                                                      6          3            9     7           4  3   2       
     7                                                                      7          6            6     7           2  3   3       
     8                                                                      1          8            5     6           3  6   5       
 
     X                                                                      X          X            X     X           X  X   X       
     X                                                                      X          X            X     X           X              
     X                                                                      X          X                  X           X              
     X                                                                      X          X                  X           X              
     X                                                                      X          X                  X           X              
     X                                                                      X          X                  X           X              
     X                                                                      X          X                  X           X              
     X                                                                      X          X                  X           X              
                                                                            X          X                  X           X              
                                                                            X          X                  X           X              
                                                                            X          X                  X           X              
                                                                            X          X                  X           X              
                                                                            X          X                  X           X              
                                                                            X          X                  X           X              
                                                                                                          X           X              
                                                                                                                      X              
                                                                                                                      X              
                                                                                                                      X              
                                                                                                                      X              
                                                                                                                      X              
 
 ***** Axes restored to original set *****
 -------------------------------------------------------------------
 Center     Atomic                   Forces (Hartrees/Bohr)
 Number     Number              X              Y              Z
 -------------------------------------------------------------------
      1        1           0.000098620    0.000000000    0.000095665
      2        8           0.000135663    0.000000000    0.000426608
      3        8           0.000762134    0.000000000    0.002586282
      4        7           0.002624704    0.000000000   -0.001762035
      5        8          -0.003621121   -0.000000000   -0.001346520
 -------------------------------------------------------------------
 Cartesian Forces:  Max     0.003621121 RMS     0.001469886
 -----------------------------------------------------------------------------------------------
                       Internal Coordinate Forces (Hartree/Bohr or radian)
  Cent   Atom   N1       Length/X         N2         Alpha/Y        N3         Beta/Z          J
 -----------------------------------------------------------------------------------------------
      1  H 
      2  O        1  -0.000096(     1)
      3  O        2  -0.000301(     2)      1  -0.000181(     5)
      4  N        3  -0.003180(     3)      2  -0.001158(     6)      1   0.000000(     8)     0
      5  O        4  -0.003842(     4)      3  -0.000898(     7)      2  -0.000000(     9)     0
 -----------------------------------------------------------------------------------------------
 Internal  Forces:  Max     0.003841990 RMS     0.001736884
 Force constants in Cartesian coordinates: 
                1             2             3             4             5 
      1  0.644066D-01
      2  0.000000D+00 -0.244392D-02
      3  0.523844D-02  0.000000D+00  0.512262D+00
      4 -0.354335D-01  0.000000D+00 -0.161244D-01  0.272022D+00
      5  0.000000D+00  0.314399D-02  0.000000D+00  0.000000D+00  0.183348D-02
      6  0.479636D-01  0.000000D+00 -0.508576D+00  0.330741D-01  0.000000D+00
      7 -0.187763D-01  0.000000D+00  0.123419D-01 -0.220716D+00  0.000000D+00
      8  0.000000D+00  0.105930D-02  0.000000D+00  0.000000D+00 -0.633922D-02
      9 -0.530450D-01  0.000000D+00 -0.544697D-03 -0.197174D-01  0.000000D+00
     10 -0.888798D-02  0.000000D+00 -0.480562D-02 -0.160756D-01  0.000000D+00
     11  0.000000D+00 -0.279111D-02  0.000000D+00  0.000000D+00 -0.475933D-02
     12  0.560940D-02  0.000000D+00 -0.446112D-02  0.116533D-01  0.000000D+00
     13 -0.130890D-02  0.000000D+00  0.334967D-02  0.202576D-03  0.000000D+00
     14  0.000000D+00  0.103174D-02  0.000000D+00  0.000000D+00  0.612108D-02
     15 -0.576641D-02  0.000000D+00  0.131926D-02 -0.888550D-02  0.000000D+00
                6             7             8             9            10 
      6  0.593010D+00
      7 -0.224658D-01  0.339393D+00
      8  0.000000D+00  0.000000D+00  0.479583D-02
      9 -0.778803D-01  0.347150D-01  0.000000D+00  0.169679D+00
     10 -0.503857D-01 -0.762018D-01  0.000000D+00  0.173563D+00  0.820891D+00
     11  0.000000D+00  0.000000D+00  0.760527D-02  0.000000D+00  0.000000D+00
     12  0.181060D-01  0.632408D-01  0.000000D+00 -0.731076D-01 -0.184515D-01
     13 -0.818619D-02 -0.236995D-01  0.000000D+00 -0.135516D+00 -0.719725D+00
     14  0.000000D+00  0.000000D+00 -0.712119D-02  0.000000D+00  0.000000D+00
     15 -0.246598D-01 -0.878320D-01  0.000000D+00 -0.181463D-01 -0.999203D-01
               11            12            13            14            15 
     11  0.107651D-01
     12  0.000000D+00  0.177529D+00
     13  0.000000D+00 -0.620520D-01  0.744531D+00
     14 -0.108199D-01  0.000000D+00  0.000000D+00  0.107883D-01
     15  0.000000D+00 -0.118066D+00  0.202404D+00  0.000000D+00  0.159553D+00
 Force constants in internal coordinates: 
                1             2             3             4             5 
      1  0.512262D+00
      2 -0.103032D-01  0.280843D+00
      3  0.325064D-02  0.146698D-02  0.104710D+00
      4 -0.357226D-02  0.605074D-02  0.149820D+00  0.805819D+00
      5  0.969078D-02  0.654629D-01  0.181741D-02  0.494171D-02  0.215776D+00
      6  0.431192D-02  0.572465D-01  0.380978D-01  0.218999D-01  0.304370D-01
      7 -0.988587D-03  0.367846D-01  0.287168D-01  0.819719D-01  0.213150D-01
      8  0.000000D+00  0.000000D+00  0.000000D+00  0.000000D+00  0.000000D+00
      9  0.000000D+00  0.000000D+00  0.000000D+00  0.000000D+00  0.000000D+00
                6             7             8             9 
      6  0.273127D+00
      7  0.965852D-01  0.472463D+00
      8  0.000000D+00  0.000000D+00 -0.819891D-02
      9  0.000000D+00  0.000000D+00 -0.391487D-02  0.398519D-01
 Leave Link  716 at Mon Feb 21 20:16:40 2022, MaxMem= 16106127360 cpu:               1.0 elap:               0.1
 (Enter /sw/contrib/gaussian/g16/B01/g16/l103.exe)

 GradGradGradGradGradGradGradGradGradGradGradGradGradGradGradGradGradGrad
 Berny optimization.
 Search for a local minimum.
 Step number   1 out of a maximum of    2
 All quantities printed in internal units (Hartrees-Bohrs-Radians)
 Second derivative matrix not updated -- analytic derivatives used.
 The second derivative matrix:
                          r1        r2        r3        r4        a1
           r1           0.51226
           r2          -0.01030   0.28084
           r3           0.00325   0.00147   0.10471
           r4          -0.00357   0.00605   0.14982   0.80582
           a1           0.00969   0.06546   0.00182   0.00494   0.21578
           a2           0.00431   0.05725   0.03810   0.02190   0.03044
           a3          -0.00099   0.03678   0.02872   0.08197   0.02132
           d1           0.00000  -0.00000  -0.00000  -0.00000  -0.00000
           d2          -0.00000   0.00000   0.00000   0.00000   0.00000
                          a2        a3        d1        d2
           a2           0.27313
           a3           0.09659   0.47246
           d1          -0.00000  -0.00000  -0.00820
           d2          -0.00000  -0.00000  -0.00391   0.03985
 ITU=  0
     Eigenvalues ---   -0.00852   0.04017   0.06825   0.17436   0.21806
     Eigenvalues ---    0.32113   0.50892   0.51303   0.86124
 Eigenvalue     1 is  -8.52D-03 should be greater than     0.000000 Eigenvector:
                          d1        d2        a3        a2        r3
   1                    0.99674   0.08068   0.00000   0.00000  -0.00000
                          r4        a1        r2        r1
   1                    0.00000  -0.00000   0.00000  -0.00000
 Angle between quadratic step and forces=  54.48 degrees.
 Linear search not attempted -- first point.
 Variable       Old X    -DE/DX   Delta X   Delta X   Delta X     New X
                                 (Linear)    (Quad)   (Total)
    r1        1.83110  -0.00010   0.00000   0.00001   0.00001   1.83111
    r2        2.74940  -0.00030   0.00000  -0.00092  -0.00092   2.74848
    r3        2.78459  -0.00318   0.00000  -0.03224  -0.03224   2.75234
    r4        2.21236  -0.00384   0.00000   0.00124   0.00124   2.21360
    a1        1.70335  -0.00018   0.00000  -0.00036  -0.00036   1.70299
    a2        1.78543  -0.00116   0.00000   0.00045   0.00045   1.78588
    a3        1.90362  -0.00090   0.00000  -0.00016  -0.00016   1.90346
    d1        3.14159   0.00000   0.00000  -0.00000   0.00000   3.14159
    d2        3.14159  -0.00000   0.00000  -0.00000   0.00000   3.14159
         Item               Value     Threshold  Converged?
 Maximum Force            0.003842     0.000450     NO 
 RMS     Force            0.001737     0.000300     NO 
 Maximum Displacement     0.032242     0.001800     NO 
 RMS     Displacement     0.010762     0.001200     NO 
 Predicted change in Energy=-4.886220D-05
                       ----------------------------
                       ! Non-Optimized Parameters !
                       ! (Angstroms and Degrees)  !
 ----------------------                            ----------------------
 !      Name          Value   Derivative information (Atomic Units)     !
 ------------------------------------------------------------------------
 !       r1          0.969    -DE/DX =   -0.0001                        !
 !       r2          1.4544   -DE/DX =   -0.0003                        !
 !       r3          1.4565   -DE/DX =   -0.0032                        !
 !       r4          1.1714   -DE/DX =   -0.0038                        !
 !       a1         97.5741   -DE/DX =   -0.0002                        !
 !       a2        102.3232   -DE/DX =   -0.0012                        !
 !       a3        109.0604   -DE/DX =   -0.0009                        !
 !       d1        180.0      -DE/DX =    0.0                           !
 !       d2        180.0      -DE/DX =    0.0                           !
 ------------------------------------------------------------------------
 GradGradGradGradGradGradGradGradGradGradGradGradGradGradGradGradGradGrad

 Leave Link  103 at Mon Feb 21 20:16:40 2022, MaxMem= 16106127360 cpu:               0.5 elap:               0.0
 (Enter /sw/contrib/gaussian/g16/B01/g16/l9999.exe)

 ----------------------------------------------------------------------

 Electric dipole moment (input orientation):
 (Debye = 10**-18 statcoulomb cm , SI units = C m)
                  (au)            (Debye)         (10**-30 SI)
   Tot        0.530923D+00      0.134947D+01      0.450135D+01
   x         -0.124593D+00     -0.316683D+00     -0.105634D+01
   y          0.000000D+00      0.000000D+00      0.000000D+00
   z         -0.516097D+00     -0.131179D+01     -0.437565D+01

 Dipole polarizability, Alpha (input orientation).
 (esu units = cm**3 , SI units = C**2 m**2 J**-1)
 Alpha(0;0):
               (au)            (10**-24 esu)      (10**-40 SI)
   iso        0.275102D+02      0.407659D+01      0.453582D+01
   aniso      0.220718D+02      0.327070D+01      0.363915D+01
   xx         0.321299D+02      0.476116D+01      0.529750D+01
   yx         0.000000D+00      0.000000D+00      0.000000D+00
   yy         0.179780D+02      0.266407D+01      0.296418D+01
   zx         0.970668D+01      0.143838D+01      0.160042D+01
   zy         0.000000D+00      0.000000D+00      0.000000D+00
   zz         0.324227D+02      0.480455D+01      0.534578D+01

 ----------------------------------------------------------------------

 Dipole orientation:
     1          0.00000000          0.00000000         -0.00000000
     8         -0.42970744          0.00000000         -1.77996432
     8          2.13419087          0.00000000         -2.77274854
     7          1.70484097          0.00000000         -5.52403465
     8          3.65933610          0.00000000         -6.56060196

 Electric dipole moment (dipole orientation):
 (Debye = 10**-18 statcoulomb cm , SI units = C m)
                  (au)            (Debye)         (10**-30 SI)
   Tot        0.530923D+00      0.134947D+01      0.450135D+01
   x          0.000000D+00      0.000000D+00      0.000000D+00
   y          0.000000D+00      0.000000D+00      0.000000D+00
   z          0.530923D+00      0.134947D+01      0.450135D+01

 Dipole polarizability, Alpha (dipole orientation).
 (esu units = cm**3 , SI units = C**2 m**2 J**-1)
 Alpha(0;0):
               (au)            (10**-24 esu)      (10**-40 SI)
   iso        0.275102D+02      0.407659D+01      0.453582D+01
   aniso      0.220718D+02      0.327070D+01      0.363915D+01
   xx         0.277175D+02      0.410730D+01      0.456999D+01
   yx         0.000000D+00      0.000000D+00      0.000000D+00
   yy         0.179780D+02      0.266407D+01      0.296418D+01
   zx        -0.857077D+01     -0.127006D+01     -0.141313D+01
   zy         0.000000D+00      0.000000D+00      0.000000D+00
   zz         0.368351D+02      0.545840D+01      0.607329D+01

 ----------------------------------------------------------------------
 1\1\GINC-N2228\Freq\RMP2-FC\Aug-CC-pVTZ\H1N1O3\CGAVINH\21-Feb-2022\1\\
 #p freq mp2/aug-cc-pvtz density=current\\title\\0,1\H\O,1,r1\O,2,r2,1,
 a1\N,3,r3,2,a2,1,d1,0\O,4,r4,3,a3,2,d2,0\\r1=0.96897556\r2=1.45491931\
 r3=1.47353921\r4=1.17072885\a1=97.59494903\a2=102.29752444\a3=109.0695
 5123\d1=180.\d2=180.\\Version=ES64L-G16RevB.01\State=1-A'\HF=-279.5002
 099\MP2=-280.4466884\RMSD=4.003e-09\RMSF=1.470e-03\ZeroPoint=0.0217647
 \Thermal=0.0259077\Dipole=-0.1245927,0.,-0.5160968\DipoleDeriv=0.26508
 59,0.,0.0468929,0.,0.3551165,0.,0.0821388,0.,0.2756445,-0.3308375,0.,-
 0.2061249,0.,-0.3158094,0.,-0.1122058,0.,-0.2278149,-0.0557411,0.,0.14
 16211,0.,-0.0955931,0.,-0.7453291,0.,-1.3572875,0.9117386,0.,0.9320131
 ,0.,0.0704332,0.,0.9158447,0.,1.6707336,-0.790246,0.,-0.9144022,0.,-0.
 0141471,0.,-0.1404487,0.,-0.3612757\Polar=32.1298905,0.,17.9780385,9.7
 066832,0.,32.4227138\Quadrupole=-1.5076092,-0.7599234,2.2675326,0.,2.1
 189376,0.\PG=CS [SG(H1N1O3)]\NImag=1\\0.06440663,0.,-0.00244392,0.0052
 3844,0.,0.51226238,-0.03543350,0.,-0.01612443,0.27202230,0.,0.00314399
 ,0.,0.,0.00183348,0.04796361,0.,-0.50857583,0.03307408,0.,0.59300991,-
 0.01877625,0.,0.01234194,-0.22071577,0.,-0.02246582,0.33939338,0.,0.00
 105930,0.,0.,-0.00633922,0.,0.,0.00479583,-0.05304505,0.,-0.00054470,-
 0.01971745,0.,-0.07788026,0.03471504,0.,0.16967889,-0.00888798,0.,-0.0
 0480562,-0.01607560,0.,-0.05038569,-0.07620182,0.,0.17356308,0.8208905
 6,0.,-0.00279111,0.,0.,-0.00475933,0.,0.,0.00760527,0.,0.,0.01076509,0
 .00560940,0.,-0.00446112,0.01165329,0.,0.01810603,0.06324082,0.,-0.073
 10761,-0.01845150,0.,0.17752908,-0.00130890,0.,0.00334967,0.00020258,0
 .,-0.00818619,-0.02369953,0.,-0.13551562,-0.71972516,0.,-0.06205201,0.
 74453101,0.,0.00103174,0.,0.,0.00612108,0.,0.,-0.00712119,0.,0.,-0.010
 81993,0.,0.,0.01078830,-0.00576641,0.,0.00131926,-0.00888550,0.,-0.024
 65985,-0.08783197,0.,-0.01814633,-0.09992028,0.,-0.11806638,0.20240416
 ,0.,0.15955329\\-0.00009862,0.,-0.00009567,-0.00013566,0.,-0.00042661,
 -0.00076213,0.,-0.00258628,-0.00262470,0.,0.00176203,0.00362112,0.,0.0
 0134652\\\@


 A DANDELION FROM A LOVER MEANS MORE THAN AN ORCHID FROM A FRIEND.
 Job cpu time:       0 days  1 hours 55 minutes 34.7 seconds.
 Elapsed time:       0 days  0 hours  4 minutes 10.4 seconds.
 File lengths (MBytes):  RWF=   7239 Int=      0 D2E=      0 Chk=      8 Scr=      1
 Normal termination of Gaussian 16 at Mon Feb 21 20:16:41 2022.
