 Entering Gaussian System, Link 0=g16
 Input=hoono_r3_1p484340.gjf
 Output=hoono_r3_1p484340.log
 Initial command:
 /sw/contrib/gaussian/g16/B01/g16/l1.exe "/scr/Gau-14143.inp" -scrdir="/scr/"
 Entering Link 1 = /sw/contrib/gaussian/g16/B01/g16/l1.exe PID=     14144.
  
 Copyright (c) 1988-2017, Gaussian, Inc.  All Rights Reserved.
  
 This is part of the Gaussian(R) 16 program.  It is based on
 the Gaussian(R) 09 system (copyright 2009, Gaussian, Inc.),
 the Gaussian(R) 03 system (copyright 2003, Gaussian, Inc.),
 the Gaussian(R) 98 system (copyright 1998, Gaussian, Inc.),
 the Gaussian(R) 94 system (copyright 1995, Gaussian, Inc.),
 the Gaussian 92(TM) system (copyright 1992, Gaussian, Inc.),
 the Gaussian 90(TM) system (copyright 1990, Gaussian, Inc.),
 the Gaussian 88(TM) system (copyright 1988, Gaussian, Inc.),
 the Gaussian 86(TM) system (copyright 1986, Carnegie Mellon
 University), and the Gaussian 82(TM) system (copyright 1983,
 Carnegie Mellon University). Gaussian is a federally registered
 trademark of Gaussian, Inc.
  
 This software contains proprietary and confidential information,
 including trade secrets, belonging to Gaussian, Inc.
  
 This software is provided under written license and may be
 used, copied, transmitted, or stored only in accord with that
 written license.
  
 The following legend is applicable only to US Government
 contracts under FAR:
  
                    RESTRICTED RIGHTS LEGEND
  
 Use, reproduction and disclosure by the US Government is
 subject to restrictions as set forth in subparagraphs (a)
 and (c) of the Commercial Computer Software - Restricted
 Rights clause in FAR 52.227-19.
  
 Gaussian, Inc.
 340 Quinnipiac St., Bldg. 40, Wallingford CT 06492
  
  
 ---------------------------------------------------------------
 Warning -- This program may not be used in any manner that
 competes with the business of Gaussian, Inc. or will provide
 assistance to any competitor of Gaussian, Inc.  The licensee
 of this program is prohibited from giving any competitor of
 Gaussian, Inc. access to this program.  By using this program,
 the user acknowledges that Gaussian, Inc. is engaged in the
 business of creating and licensing software in the field of
 computational chemistry and represents and warrants to the
 licensee that it is not a competitor of Gaussian, Inc. and that
 it will not use this program in any manner prohibited above.
 ---------------------------------------------------------------
  

 Cite this work as:
 Gaussian 16, Revision B.01,
 M. J. Frisch, G. W. Trucks, H. B. Schlegel, G. E. Scuseria, 
 M. A. Robb, J. R. Cheeseman, G. Scalmani, V. Barone, 
 G. A. Petersson, H. Nakatsuji, X. Li, M. Caricato, A. V. Marenich, 
 J. Bloino, B. G. Janesko, R. Gomperts, B. Mennucci, H. P. Hratchian, 
 J. V. Ortiz, A. F. Izmaylov, J. L. Sonnenberg, D. Williams-Young, 
 F. Ding, F. Lipparini, F. Egidi, J. Goings, B. Peng, A. Petrone, 
 T. Henderson, D. Ranasinghe, V. G. Zakrzewski, J. Gao, N. Rega, 
 G. Zheng, W. Liang, M. Hada, M. Ehara, K. Toyota, R. Fukuda, 
 J. Hasegawa, M. Ishida, T. Nakajima, Y. Honda, O. Kitao, H. Nakai, 
 T. Vreven, K. Throssell, J. A. Montgomery, Jr., J. E. Peralta, 
 F. Ogliaro, M. J. Bearpark, J. J. Heyd, E. N. Brothers, K. N. Kudin, 
 V. N. Staroverov, T. A. Keith, R. Kobayashi, J. Normand, 
 K. Raghavachari, A. P. Rendell, J. C. Burant, S. S. Iyengar, 
 J. Tomasi, M. Cossi, J. M. Millam, M. Klene, C. Adamo, R. Cammi, 
 J. W. Ochterski, R. L. Martin, K. Morokuma, O. Farkas, 
 J. B. Foresman, and D. J. Fox, Gaussian, Inc., Wallingford CT, 2016.
 
 ******************************************
 Gaussian 16:  ES64L-G16RevB.01 20-Dec-2017
                21-Feb-2022 
 ******************************************
 %nproc=28
 Will use up to   28 processors via shared memory.
 %mem=120GB
 %chk=hoono_r3_1p484340.chk
 ---------------------------------------
 #p freq mp2/aug-cc-pvtz density=current
 ---------------------------------------
 1/10=4,30=1,38=1/1,3;
 2/12=2,17=6,18=5,40=1/2;
 3/5=16,6=1,7=10,11=9,25=1,30=1,71=2,140=1/1,2,3;
 4//1;
 5/5=2,38=5,98=1/2;
 8/6=3,8=1,10=1,19=11,30=-1/1;
 9/15=3,16=-3/6;
 11/6=1,8=1,15=11,17=12,24=-1,27=1,28=-2,29=300,32=6,42=3/1,2,10;
 10/6=2,21=1/2;
 8/6=4,8=1,10=1,19=11,30=-1/11,4;
 10/5=1,20=4/2;
 11/12=2,14=11,16=1,17=2,28=-2,42=3,76=2/2,10,12;
 6/7=2,8=2,9=2,10=2,22=-1/1;
 7/8=1,10=1,12=2,25=1,44=2/1,2,3,16;
 1/10=4,30=1/3;
 99//99;
 Leave Link    1 at Mon Feb 21 20:15:43 2022, MaxMem= 16106127360 cpu:               2.3 elap:               0.1
 (Enter /sw/contrib/gaussian/g16/B01/g16/l101.exe)
 -----
 title
 -----
 Symbolic Z-matrix:
 Charge =  0 Multiplicity = 1
 H
 O                    1    r1
 O                    2    r2       1    a1
 N                    3    r3       2    a2       1    d1       0
 O                    4    r4       3    a3       2    d2       0
       Variables:
  r1                    0.96898                  
  r2                    1.45492                  
  r3                    1.48434                  
  r4                    1.17073                  
  a1                   97.59495                  
  a2                  102.29752                  
  a3                  109.06955                  
  d1                  180.                       
  d2                  180.                       
 
 ITRead=  0  0  0  0  0
 MicOpt= -1 -1 -1 -1 -1
 NAtoms=      5 NQM=        5 NQMF=       0 NMMI=      0 NMMIF=      0
                NMic=       0 NMicF=      0.
                    Isotopes and Nuclear Properties:
 (Nuclear quadrupole moments (NQMom) in fm**2, nuclear magnetic moments (NMagM)
  in nuclear magnetons)

  Atom         1           2           3           4           5
 IAtWgt=           1          16          16          14          16
 AtmWgt=   1.0078250  15.9949146  15.9949146  14.0030740  15.9949146
 NucSpn=           1           0           0           2           0
 AtZEff=  -0.0000000  -0.0000000  -0.0000000  -0.0000000  -0.0000000
 NQMom=    0.0000000   0.0000000   0.0000000   2.0440000   0.0000000
 NMagM=    2.7928460   0.0000000   0.0000000   0.4037610   0.0000000
 AtZNuc=   1.0000000   8.0000000   8.0000000   7.0000000   8.0000000
 Leave Link  101 at Mon Feb 21 20:15:43 2022, MaxMem= 16106127360 cpu:               3.0 elap:               0.1
 (Enter /sw/contrib/gaussian/g16/B01/g16/l103.exe)

 GradGradGradGradGradGradGradGradGradGradGradGradGradGradGradGradGradGrad
 Berny optimization.
 Initialization pass.
                       ----------------------------
                       !    Initial Parameters    !
                       ! (Angstroms and Degrees)  !
 ----------------------                            ----------------------
 !      Name          Value   Derivative information (Atomic Units)     !
 ------------------------------------------------------------------------
 !       r1          0.969    calculate D2E/DX2 analytically            !
 !       r2          1.4549   calculate D2E/DX2 analytically            !
 !       r3          1.4843   calculate D2E/DX2 analytically            !
 !       r4          1.1707   calculate D2E/DX2 analytically            !
 !       a1         97.5949   calculate D2E/DX2 analytically            !
 !       a2        102.2975   calculate D2E/DX2 analytically            !
 !       a3        109.0696   calculate D2E/DX2 analytically            !
 !       d1        180.0      calculate D2E/DX2 analytically            !
 !       d2        180.0      calculate D2E/DX2 analytically            !
 ------------------------------------------------------------------------
 Trust Radius=3.00D-01 FncErr=1.00D-07 GrdErr=1.00D-07 EigMax=2.50D+02 EigMin=1.00D-04
 Number of steps in this run=      2 maximum allowed number of steps=      2.
 GradGradGradGradGradGradGradGradGradGradGradGradGradGradGradGradGradGrad

 Leave Link  103 at Mon Feb 21 20:15:43 2022, MaxMem= 16106127360 cpu:               0.5 elap:               0.0
 (Enter /sw/contrib/gaussian/g16/B01/g16/l202.exe)
                          Input orientation:                          
 ---------------------------------------------------------------------
 Center     Atomic      Atomic             Coordinates (Angstroms)
 Number     Number       Type             X           Y           Z
 ---------------------------------------------------------------------
      1          1           0        0.000000    0.000000    0.000000
      2          8           0        0.000000    0.000000    0.968976
      3          8           0        1.442156    0.000000    1.161271
      4          7           0        1.563847    0.000000    2.640615
      5          8           0        2.697963    0.000000    2.931110
 ---------------------------------------------------------------------
                    Distance matrix (angstroms):
                    1          2          3          4          5
     1  H    0.000000
     2  O    0.968976   0.000000
     3  O    1.851584   1.454919   0.000000
     4  N    3.068951   2.289103   1.484341   0.000000
     5  O    3.983768   3.336011   2.170111   1.170729   0.000000
 Stoichiometry    HNO3
 Framework group  CS[SG(HNO3)]
 Deg. of freedom     7
 Full point group                 CS      NOp   2
 Largest Abelian subgroup         CS      NOp   2
 Largest concise Abelian subgroup C1      NOp   1
                         Standard orientation:                         
 ---------------------------------------------------------------------
 Center     Atomic      Atomic             Coordinates (Angstroms)
 Number     Number       Type             X           Y           Z
 ---------------------------------------------------------------------
      1          1           0        1.545922    1.703860   -0.000000
      2          8           0        1.453899    0.739264   -0.000000
      3          8           0       -0.000000    0.684798   -0.000000
      4          7           0       -0.261633   -0.776303    0.000000
      5          8           0       -1.418211   -0.957779    0.000000
 ---------------------------------------------------------------------
 Rotational constants (GHZ):          53.8906868           4.9465819           4.5307116
 Leave Link  202 at Mon Feb 21 20:15:43 2022, MaxMem= 16106127360 cpu:               0.5 elap:               0.0
 (Enter /sw/contrib/gaussian/g16/B01/g16/l301.exe)
 Standard basis: Aug-CC-pVTZ (5D, 7F)
 Ernie: Thresh=  0.10000D-02 Tol=  0.10000D-05 Strict=F.
 Ernie:  12 primitive shells out of 131 were deleted.
 There are   166 symmetry adapted cartesian basis functions of A'  symmetry.
 There are    79 symmetry adapted cartesian basis functions of A"  symmetry.
 There are   136 symmetry adapted basis functions of A'  symmetry.
 There are    71 symmetry adapted basis functions of A"  symmetry.
   207 basis functions,   315 primitive gaussians,   245 cartesian basis functions
    16 alpha electrons       16 beta electrons
       nuclear repulsion energy       116.1835304819 Hartrees.
 IExCor=    0 DFT=F Ex=HF Corr=None ExCW=0 ScaHFX=  1.000000
 ScaDFX=  1.000000  1.000000  1.000000  1.000000 ScalE2=  1.000000  1.000000
 IRadAn=      5 IRanWt=     -1 IRanGd=            0 ICorTp=0 IEmpDi=  4
 NAtoms=    5 NActive=    5 NUniq=    5 SFac= 1.00D+00 NAtFMM=   60 NAOKFM=F Big=F
 Integral buffers will be    131072 words long.
 Raffenetti 1 integral format.
 Two-electron integral symmetry is turned on.
 Leave Link  301 at Mon Feb 21 20:15:44 2022, MaxMem= 16106127360 cpu:               2.3 elap:               0.1
 (Enter /sw/contrib/gaussian/g16/B01/g16/l302.exe)
 NPDir=0 NMtPBC=     1 NCelOv=     1 NCel=       1 NClECP=     1 NCelD=      1
         NCelK=      1 NCelE2=     1 NClLst=     1 CellRange=     0.0.
 One-electron integrals computed using PRISM.
 One-electron integral symmetry used in STVInt
 NBasis=   207 RedAO= T EigKep=  1.84D-04  NBF=   136    71
 NBsUse=   207 1.00D-06 EigRej= -1.00D+00 NBFU=   136    71
 Leave Link  302 at Mon Feb 21 20:15:44 2022, MaxMem= 16106127360 cpu:               6.7 elap:               0.3
 (Enter /sw/contrib/gaussian/g16/B01/g16/l303.exe)
 DipDrv:  MaxL=1.
 Leave Link  303 at Mon Feb 21 20:15:44 2022, MaxMem= 16106127360 cpu:               0.8 elap:               0.1
 (Enter /sw/contrib/gaussian/g16/B01/g16/l401.exe)
 ExpMin= 2.53D-02 ExpMax= 1.53D+04 ExpMxC= 5.22D+02 IAcc=3 IRadAn=         5 AccDes= 0.00D+00
 Harris functional with IExCor=  205 and IRadAn=       5 diagonalized for initial guess.
 HarFok:  IExCor=  205 AccDes= 0.00D+00 IRadAn=         5 IDoV= 1 UseB2=F ITyADJ=14
 ICtDFT=  3500011 ScaDFX=  1.000000  1.000000  1.000000  1.000000
 FoFCou: FMM=F IPFlag=           0 FMFlag=      100000 FMFlg1=           0
         NFxFlg=           0 DoJE=T BraDBF=F KetDBF=T FulRan=T
         wScrn=  0.000000 ICntrl=       500 IOpCl=  0 I1Cent=   200000004 NGrid=           0
         NMat0=    1 NMatS0=      1 NMatT0=    0 NMatD0=    1 NMtDS0=    0 NMtDT0=    0
 Petite list used in FoFCou.
 Harris En= -279.627652568982    
 JPrj=0 DoOrth=F DoCkMO=F.
 Initial guess orbital symmetries:
       Occupied  (A') (A') (A') (A') (A') (A') (A') (A') (A') (A')
                 (A") (A') (A') (A") (A") (A')
       Virtual   (A") (A') (A') (A') (A') (A') (A") (A') (A') (A')
                 (A") (A') (A") (A') (A') (A") (A') (A") (A') (A')
                 (A') (A') (A') (A') (A') (A") (A') (A") (A') (A')
                 (A") (A') (A") (A') (A') (A") (A') (A") (A') (A')
                 (A") (A') (A") (A') (A") (A') (A') (A') (A") (A")
                 (A') (A') (A') (A') (A") (A') (A") (A') (A") (A')
                 (A') (A') (A") (A') (A') (A") (A') (A") (A') (A')
                 (A") (A') (A') (A") (A") (A') (A') (A") (A') (A')
                 (A') (A") (A') (A") (A') (A") (A') (A") (A') (A')
                 (A') (A") (A') (A") (A') (A") (A") (A') (A') (A')
                 (A") (A') (A") (A') (A') (A') (A") (A') (A") (A')
                 (A") (A') (A') (A') (A") (A') (A') (A') (A") (A')
                 (A") (A') (A') (A") (A") (A') (A') (A") (A") (A')
                 (A') (A') (A') (A") (A") (A') (A") (A') (A') (A')
                 (A') (A") (A") (A') (A') (A") (A') (A') (A') (A')
                 (A") (A') (A') (A") (A') (A") (A') (A") (A") (A')
                 (A') (A") (A') (A") (A') (A") (A") (A") (A') (A')
                 (A") (A') (A") (A') (A') (A") (A") (A") (A') (A')
                 (A') (A') (A') (A') (A') (A') (A') (A') (A') (A')
                 (A')
 The electronic state of the initial guess is 1-A'.
 Leave Link  401 at Mon Feb 21 20:15:44 2022, MaxMem= 16106127360 cpu:               7.3 elap:               0.3
 (Enter /sw/contrib/gaussian/g16/B01/g16/l502.exe)
 Keep R1 ints in memory in symmetry-blocked form, NReq=348887737.
 FoFCou: FMM=F IPFlag=           0 FMFlag=           0 FMFlg1=           0
         NFxFlg=           0 DoJE=F BraDBF=F KetDBF=F FulRan=T
         wScrn=  0.000000 ICntrl=       600 IOpCl=  0 I1Cent=           0 NGrid=           0
         NMat0=    1 NMatS0=  21528 NMatT0=    0 NMatD0=    1 NMtDS0=    0 NMtDT0=    0
 Petite list used in FoFCou.
 Closed shell SCF:
 Using DIIS extrapolation, IDIIS=  1040.
 NGot= 16106127360 LenX= 15988850015 LenY= 15988789549
 Requested convergence on RMS density matrix=1.00D-08 within 128 cycles.
 Requested convergence on MAX density matrix=1.00D-06.
 Requested convergence on             energy=1.00D-06.
 No special actions if energy rises.

 Cycle   1  Pass 1  IDiag  1:
 E= -279.370429401776    
 DIIS: error= 2.74D-02 at cycle   1 NSaved=   1.
 NSaved= 1 IEnMin= 1 EnMin= -279.370429401776     IErMin= 1 ErrMin= 2.74D-02
 ErrMax= 2.74D-02  0.00D+00 EMaxC= 1.00D-01 BMatC= 4.35D-01 BMatP= 4.35D-01
 IDIUse=3 WtCom= 7.26D-01 WtEn= 2.74D-01
 Coeff-Com:  0.100D+01
 Coeff-En:   0.100D+01
 Coeff:      0.100D+01
 Gap=     0.500 Goal=   None    Shift=    0.000
 GapD=    0.500 DampG=2.000 DampE=0.500 DampFc=1.0000 IDamp=-1.
 RMSDP=1.60D-03 MaxDP=1.01D-01              OVMax= 1.06D-01

 Cycle   2  Pass 1  IDiag  1:
 E= -279.452866646261     Delta-E=       -0.082437244486 Rises=F Damp=F
 DIIS: error= 1.76D-02 at cycle   2 NSaved=   2.
 NSaved= 2 IEnMin= 2 EnMin= -279.452866646261     IErMin= 2 ErrMin= 1.76D-02
 ErrMax= 1.76D-02  0.00D+00 EMaxC= 1.00D-01 BMatC= 6.67D-02 BMatP= 4.35D-01
 IDIUse=3 WtCom= 8.24D-01 WtEn= 1.76D-01
 Coeff-Com:  0.185D+00 0.815D+00
 Coeff-En:   0.000D+00 0.100D+01
 Coeff:      0.153D+00 0.847D+00
 Gap=     0.525 Goal=   None    Shift=    0.000
 RMSDP=8.74D-04 MaxDP=3.64D-02 DE=-8.24D-02 OVMax= 7.10D-02

 Cycle   3  Pass 1  IDiag  1:
 E= -279.479691166276     Delta-E=       -0.026824520015 Rises=F Damp=F
 DIIS: error= 1.06D-02 at cycle   3 NSaved=   3.
 NSaved= 3 IEnMin= 3 EnMin= -279.479691166276     IErMin= 3 ErrMin= 1.06D-02
 ErrMax= 1.06D-02  0.00D+00 EMaxC= 1.00D-01 BMatC= 2.75D-02 BMatP= 6.67D-02
 IDIUse=3 WtCom= 8.94D-01 WtEn= 1.06D-01
 Coeff-Com: -0.323D-01 0.382D+00 0.650D+00
 Coeff-En:   0.000D+00 0.244D+00 0.756D+00
 Coeff:     -0.288D-01 0.367D+00 0.662D+00
 Gap=     0.509 Goal=   None    Shift=    0.000
 RMSDP=3.70D-04 MaxDP=1.60D-02 DE=-2.68D-02 OVMax= 3.56D-02

 Cycle   4  Pass 1  IDiag  1:
 E= -279.497926495076     Delta-E=       -0.018235328800 Rises=F Damp=F
 DIIS: error= 1.33D-03 at cycle   4 NSaved=   4.
 NSaved= 4 IEnMin= 4 EnMin= -279.497926495076     IErMin= 4 ErrMin= 1.33D-03
 ErrMax= 1.33D-03  0.00D+00 EMaxC= 1.00D-01 BMatC= 5.22D-04 BMatP= 2.75D-02
 IDIUse=3 WtCom= 9.87D-01 WtEn= 1.33D-02
 Coeff-Com: -0.122D-01 0.656D-01 0.171D+00 0.776D+00
 Coeff-En:   0.000D+00 0.000D+00 0.000D+00 0.100D+01
 Coeff:     -0.120D-01 0.648D-01 0.169D+00 0.779D+00
 Gap=     0.502 Goal=   None    Shift=    0.000
 RMSDP=9.04D-05 MaxDP=2.84D-03 DE=-1.82D-02 OVMax= 1.17D-02

 Cycle   5  Pass 1  IDiag  1:
 E= -279.498630031378     Delta-E=       -0.000703536302 Rises=F Damp=F
 DIIS: error= 7.80D-04 at cycle   5 NSaved=   5.
 NSaved= 5 IEnMin= 5 EnMin= -279.498630031378     IErMin= 5 ErrMin= 7.80D-04
 ErrMax= 7.80D-04  0.00D+00 EMaxC= 1.00D-01 BMatC= 9.19D-05 BMatP= 5.22D-04
 IDIUse=3 WtCom= 9.92D-01 WtEn= 7.80D-03
 Coeff-Com:  0.631D-02-0.756D-01-0.124D+00 0.100D-01 0.118D+01
 Coeff-En:   0.000D+00 0.000D+00 0.000D+00 0.000D+00 0.100D+01
 Coeff:      0.626D-02-0.750D-01-0.123D+00 0.992D-02 0.118D+01
 Gap=     0.502 Goal=   None    Shift=    0.000
 RMSDP=7.96D-05 MaxDP=2.16D-03 DE=-7.04D-04 OVMax= 1.15D-02

 Cycle   6  Pass 1  IDiag  1:
 E= -279.498971857394     Delta-E=       -0.000341826016 Rises=F Damp=F
 DIIS: error= 2.85D-04 at cycle   6 NSaved=   6.
 NSaved= 6 IEnMin= 6 EnMin= -279.498971857394     IErMin= 6 ErrMin= 2.85D-04
 ErrMax= 2.85D-04  0.00D+00 EMaxC= 1.00D-01 BMatC= 1.75D-05 BMatP= 9.19D-05
 IDIUse=3 WtCom= 9.97D-01 WtEn= 2.85D-03
 Coeff-Com:  0.676D-03 0.832D-03 0.366D-02-0.124D+00-0.242D+00 0.136D+01
 Coeff-En:   0.000D+00 0.000D+00 0.000D+00 0.000D+00 0.000D+00 0.100D+01
 Coeff:      0.674D-03 0.830D-03 0.365D-02-0.123D+00-0.242D+00 0.136D+01
 Gap=     0.502 Goal=   None    Shift=    0.000
 RMSDP=4.76D-05 MaxDP=1.33D-03 DE=-3.42D-04 OVMax= 5.76D-03

 Cycle   7  Pass 1  IDiag  1:
 E= -279.499051466546     Delta-E=       -0.000079609152 Rises=F Damp=F
 DIIS: error= 1.41D-04 at cycle   7 NSaved=   7.
 NSaved= 7 IEnMin= 7 EnMin= -279.499051466546     IErMin= 7 ErrMin= 1.41D-04
 ErrMax= 1.41D-04  0.00D+00 EMaxC= 1.00D-01 BMatC= 5.17D-06 BMatP= 1.75D-05
 IDIUse=3 WtCom= 9.99D-01 WtEn= 1.41D-03
 Coeff-Com: -0.971D-03 0.144D-01 0.284D-01-0.243D-01-0.307D+00 0.432D+00
 Coeff-Com:  0.857D+00
 Coeff-En:   0.000D+00 0.000D+00 0.000D+00 0.000D+00 0.000D+00 0.000D+00
 Coeff-En:   0.100D+01
 Coeff:     -0.970D-03 0.144D-01 0.284D-01-0.242D-01-0.307D+00 0.432D+00
 Coeff:      0.858D+00
 Gap=     0.502 Goal=   None    Shift=    0.000
 RMSDP=1.40D-05 MaxDP=4.02D-04 DE=-7.96D-05 OVMax= 1.62D-03

 Cycle   8  Pass 1  IDiag  1:
 E= -279.499061504707     Delta-E=       -0.000010038161 Rises=F Damp=F
 DIIS: error= 5.87D-05 at cycle   8 NSaved=   8.
 NSaved= 8 IEnMin= 8 EnMin= -279.499061504707     IErMin= 8 ErrMin= 5.87D-05
 ErrMax= 5.87D-05  0.00D+00 EMaxC= 1.00D-01 BMatC= 6.64D-07 BMatP= 5.17D-06
 IDIUse=1 WtCom= 1.00D+00 WtEn= 0.00D+00
 Coeff-Com: -0.486D-03 0.381D-02 0.840D-02 0.278D-01-0.404D-01-0.203D+00
 Coeff-Com:  0.146D+00 0.106D+01
 Coeff:     -0.486D-03 0.381D-02 0.840D-02 0.278D-01-0.404D-01-0.203D+00
 Coeff:      0.146D+00 0.106D+01
 Gap=     0.502 Goal=   None    Shift=    0.000
 RMSDP=7.62D-06 MaxDP=2.16D-04 DE=-1.00D-05 OVMax= 8.61D-04

 Cycle   9  Pass 1  IDiag  1:
 E= -279.499063549271     Delta-E=       -0.000002044563 Rises=F Damp=F
 DIIS: error= 1.60D-05 at cycle   9 NSaved=   9.
 NSaved= 9 IEnMin= 9 EnMin= -279.499063549271     IErMin= 9 ErrMin= 1.60D-05
 ErrMax= 1.60D-05  0.00D+00 EMaxC= 1.00D-01 BMatC= 7.12D-08 BMatP= 6.64D-07
 IDIUse=1 WtCom= 1.00D+00 WtEn= 0.00D+00
 Coeff-Com:  0.138D-03-0.188D-02-0.341D-02-0.313D-02 0.355D-01 0.515D-02
 Coeff-Com: -0.159D+00-0.140D+00 0.127D+01
 Coeff:      0.138D-03-0.188D-02-0.341D-02-0.313D-02 0.355D-01 0.515D-02
 Coeff:     -0.159D+00-0.140D+00 0.127D+01
 Gap=     0.502 Goal=   None    Shift=    0.000
 RMSDP=2.03D-06 MaxDP=6.90D-05 DE=-2.04D-06 OVMax= 1.77D-04

 Cycle  10  Pass 1  IDiag  1:
 E= -279.499063717909     Delta-E=       -0.000000168639 Rises=F Damp=F
 DIIS: error= 4.19D-06 at cycle  10 NSaved=  10.
 NSaved=10 IEnMin=10 EnMin= -279.499063717909     IErMin=10 ErrMin= 4.19D-06
 ErrMax= 4.19D-06  0.00D+00 EMaxC= 1.00D-01 BMatC= 5.42D-09 BMatP= 7.12D-08
 IDIUse=1 WtCom= 1.00D+00 WtEn= 0.00D+00
 Coeff-Com:  0.279D-04-0.210D-03-0.256D-03-0.247D-02 0.770D-03 0.184D-01
 Coeff-Com: -0.686D-02-0.694D-01-0.962D-01 0.116D+01
 Coeff:      0.279D-04-0.210D-03-0.256D-03-0.247D-02 0.770D-03 0.184D-01
 Coeff:     -0.686D-02-0.694D-01-0.962D-01 0.116D+01
 Gap=     0.502 Goal=   None    Shift=    0.000
 RMSDP=4.97D-07 MaxDP=2.07D-05 DE=-1.69D-07 OVMax= 3.96D-05

 Cycle  11  Pass 1  IDiag  1:
 E= -279.499063729918     Delta-E=       -0.000000012009 Rises=F Damp=F
 DIIS: error= 2.02D-06 at cycle  11 NSaved=  11.
 NSaved=11 IEnMin=11 EnMin= -279.499063729918     IErMin=11 ErrMin= 2.02D-06
 ErrMax= 2.02D-06  0.00D+00 EMaxC= 1.00D-01 BMatC= 6.37D-10 BMatP= 5.42D-09
 IDIUse=1 WtCom= 1.00D+00 WtEn= 0.00D+00
 Coeff-Com: -0.214D-04 0.248D-03 0.499D-03 0.534D-03-0.410D-02-0.363D-02
 Coeff-Com:  0.189D-01 0.317D-01-0.136D+00-0.154D+00 0.125D+01
 Coeff:     -0.214D-04 0.248D-03 0.499D-03 0.534D-03-0.410D-02-0.363D-02
 Coeff:      0.189D-01 0.317D-01-0.136D+00-0.154D+00 0.125D+01
 Gap=     0.502 Goal=   None    Shift=    0.000
 RMSDP=1.69D-07 MaxDP=5.98D-06 DE=-1.20D-08 OVMax= 1.72D-05

 Cycle  12  Pass 1  IDiag  1:
 E= -279.499063731623     Delta-E=       -0.000000001705 Rises=F Damp=F
 DIIS: error= 6.11D-07 at cycle  12 NSaved=  12.
 NSaved=12 IEnMin=12 EnMin= -279.499063731623     IErMin=12 ErrMin= 6.11D-07
 ErrMax= 6.11D-07  0.00D+00 EMaxC= 1.00D-01 BMatC= 7.60D-11 BMatP= 6.37D-10
 IDIUse=1 WtCom= 1.00D+00 WtEn= 0.00D+00
 Coeff-Com:  0.148D-05-0.322D-04-0.700D-04 0.145D-03 0.115D-02-0.222D-02
 Coeff-Com: -0.416D-02 0.483D-02 0.421D-01-0.124D+00-0.267D+00 0.135D+01
 Coeff:      0.148D-05-0.322D-04-0.700D-04 0.145D-03 0.115D-02-0.222D-02
 Coeff:     -0.416D-02 0.483D-02 0.421D-01-0.124D+00-0.267D+00 0.135D+01
 Gap=     0.502 Goal=   None    Shift=    0.000
 RMSDP=7.17D-08 MaxDP=2.79D-06 DE=-1.70D-09 OVMax= 7.09D-06

 Cycle  13  Pass 1  IDiag  1:
 E= -279.499063731865     Delta-E=       -0.000000000242 Rises=F Damp=F
 DIIS: error= 1.84D-07 at cycle  13 NSaved=  13.
 NSaved=13 IEnMin=13 EnMin= -279.499063731865     IErMin=13 ErrMin= 1.84D-07
 ErrMax= 1.84D-07  0.00D+00 EMaxC= 1.00D-01 BMatC= 4.72D-12 BMatP= 7.60D-11
 IDIUse=1 WtCom= 1.00D+00 WtEn= 0.00D+00
 Coeff-Com:  0.135D-05-0.147D-04-0.235D-04-0.898D-04 0.106D-03 0.812D-03
 Coeff-Com: -0.703D-03-0.350D-02 0.441D-03 0.450D-01-0.410D-01-0.351D+00
 Coeff-Com:  0.135D+01
 Coeff:      0.135D-05-0.147D-04-0.235D-04-0.898D-04 0.106D-03 0.812D-03
 Coeff:     -0.703D-03-0.350D-02 0.441D-03 0.450D-01-0.410D-01-0.351D+00
 Coeff:      0.135D+01
 Gap=     0.502 Goal=   None    Shift=    0.000
 RMSDP=2.06D-08 MaxDP=6.41D-07 DE=-2.42D-10 OVMax= 1.87D-06

 Cycle  14  Pass 1  IDiag  1:
 E= -279.499063731882     Delta-E=       -0.000000000017 Rises=F Damp=F
 DIIS: error= 2.82D-08 at cycle  14 NSaved=  14.
 NSaved=14 IEnMin=14 EnMin= -279.499063731882     IErMin=14 ErrMin= 2.82D-08
 ErrMax= 2.82D-08  0.00D+00 EMaxC= 1.00D-01 BMatC= 2.39D-13 BMatP= 4.72D-12
 IDIUse=1 WtCom= 1.00D+00 WtEn= 0.00D+00
 Coeff-Com: -0.227D-06 0.364D-05 0.664D-05 0.647D-05-0.902D-04 0.415D-04
 Coeff-Com:  0.278D-03 0.302D-03-0.264D-02 0.177D-02 0.181D-01-0.246D-01
 Coeff-Com: -0.214D+00 0.122D+01
 Coeff:     -0.227D-06 0.364D-05 0.664D-05 0.647D-05-0.902D-04 0.415D-04
 Coeff:      0.278D-03 0.302D-03-0.264D-02 0.177D-02 0.181D-01-0.246D-01
 Coeff:     -0.214D+00 0.122D+01
 Gap=     0.502 Goal=   None    Shift=    0.000
 RMSDP=4.17D-09 MaxDP=1.06D-07 DE=-1.68D-11 OVMax= 3.85D-07

 SCF Done:  E(RHF) =  -279.499063732     A.U. after   14 cycles
            NFock= 14  Conv=0.42D-08     -V/T= 2.0025
 KE= 2.788054376153D+02 PE=-8.936871228786D+02 EE= 2.191990910494D+02
 Leave Link  502 at Mon Feb 21 20:15:48 2022, MaxMem= 16106127360 cpu:              55.1 elap:               3.6
 (Enter /sw/contrib/gaussian/g16/B01/g16/l801.exe)
 ExpMin= 2.53D-02 ExpMax= 1.53D+04 ExpMxC= 5.22D+02 IAcc=3 IRadAn=         5 AccDes= 0.00D+00
 HarFok:  IExCor=  205 AccDes= 0.00D+00 IRadAn=         5 IDoV=-2 UseB2=F ITyADJ=14
 ICtDFT= 12500011 ScaDFX=  1.000000  1.000000  1.000000  1.000000
 Largest valence mixing into a core orbital is  2.09D-04
 Largest core mixing into a valence orbital is  3.71D-05
 Range of M.O.s used for correlation:     5   207
 NBasis=   207 NAE=    16 NBE=    16 NFC=     4 NFV=     0
 NROrb=    203 NOA=    12 NOB=    12 NVA=   191 NVB=   191

 **** Warning!!: The largest alpha MO coefficient is  0.17221399D+02

 Leave Link  801 at Mon Feb 21 20:15:48 2022, MaxMem= 16106127360 cpu:               2.2 elap:               0.1
 (Enter /sw/contrib/gaussian/g16/B01/g16/l906.exe)
 Frozen-core derivative calculation, NFC=   4 NFV=   0.
 FulOut=F Deriv=T AODrv=T NAtomX=     5
   MMem=           0  MDisk=          12 MDiskD=          12
  W3Min=      811440 MinDsk=     2425030 NBas6D=         245
 NBas2D=       30762    NTT=       30135    LW2=     7400000
    MDV= 16105574353 MDiskM=      328644 NBas2p=       30702
 Disk-based method using ON**2 memory for 12 occupieds at a time.
 Permanent disk used for amplitudes=    11516536 words.
 Estimated scratch disk usage=   321251614 words.
 IMap=   1   2   3   4   5   6   7   8   9  10  11  12  13  14  15  16
 Actual    scratch disk usage=   310331678 words.
 JobTyp=1 Pass  1:  I=   5 to  16 NPSUse= 28 ParTrn=T ParDer=T DoDerP=T.
 (rs|ai) integrals will be sorted in core.
 Spin components of T(2) and E(2):
     alpha-alpha T2 =       0.3433373576D-01 E2=     -0.1227008988D+00
     alpha-beta  T2 =       0.1886719972D+00 E2=     -0.7021366969D+00
     beta-beta   T2 =       0.3433373576D-01 E2=     -0.1227008988D+00
 The integrals were generated   1 times.
 ANorm=    0.1121311495D+01
 E2 =    -0.9475384945D+00 EUMP2 =    -0.28044660222639D+03
 Leave Link  906 at Mon Feb 21 20:17:25 2022, MaxMem= 16106127360 cpu:            2704.4 elap:              96.7
 (Enter /sw/contrib/gaussian/g16/B01/g16/l1101.exe)
 Using compressed Sx but separate Hx and Fx, NAtomX=     5.
 Will process      6 centers per pass.
 Leave Link 1101 at Mon Feb 21 20:17:25 2022, MaxMem= 16106127360 cpu:               5.7 elap:               0.2
 (Enter /sw/contrib/gaussian/g16/B01/g16/l1102.exe)
 Leave Link 1102 at Mon Feb 21 20:17:25 2022, MaxMem= 16106127360 cpu:               1.3 elap:               0.1
 (Enter /sw/contrib/gaussian/g16/B01/g16/l1110.exe)
 Forming Gx(P) for the SCF density, NAtomX=     5.
 Integral derivatives from FoFJK, PRISM(SPDF).
 Do as many integral derivatives as possible in FoFJK.
 G2DrvN: MDV=   16106126844.
 G2DrvN: will do     6 centers at a time, making    1 passes.
 Calling FoFCou, ICntrl=  3107 FMM=F I1Cent=   0 AccDes= 0.00D+00.
 FoFJK:  IHMeth= 1 ICntrl=    3107 DoSepK=F KAlg= 0 I1Cent=           0 FoldK=F
 IRaf=         0 NMat=       1 IRICut=       1 DoRegI=T DoRafI=F ISym2E= 1 IDoP0=0 IntGTp=1.
 FoFCou: FMM=F IPFlag=           0 FMFlag=      100000 FMFlg1=           0
         NFxFlg=           0 DoJE=F BraDBF=F KetDBF=F FulRan=T
         wScrn=  0.000000 ICntrl=      3107 IOpCl=  0 I1Cent=           0 NGrid=           0
         NMat0=    1 NMatS0=      1 NMatT0=    0 NMatD0=    1 NMtDS0=    0 NMtDT0=    0
 Petite list used in FoFCou.
 End of G2Drv F.D. properties file   721 does not exist.
 End of G2Drv F.D. properties file   722 does not exist.
 End of G2Drv F.D. properties file   788 does not exist.
 Leave Link 1110 at Mon Feb 21 20:17:28 2022, MaxMem= 16106127360 cpu:              83.2 elap:               3.0
 (Enter /sw/contrib/gaussian/g16/B01/g16/l1002.exe)
 Minotr:  Closed shell wavefunction.
          IDoAtm=11111
          Frozen-core window.
          Direct CPHF calculation.
          Differentiating once with respect to electric field.
                with respect to dipole field.
          Differentiating once with respect to nuclear coordinates.
          Requested convergence is 1.0D-08 RMS, and 1.0D-07 maximum.
          Secondary convergence is 1.0D-12 RMS, and 1.0D-12 maximum.
          NewPWx=T KeepS1=T KeepF1=T KeepIn=T MapXYZ=F SortEE=F KeepMc=T.
 Keep R1 ints in memory in symmetry-blocked form, NReq=348888983.
 FoFCou: FMM=F IPFlag=           0 FMFlag=           0 FMFlg1=           0
         NFxFlg=           0 DoJE=F BraDBF=F KetDBF=F FulRan=T
         wScrn=  0.000000 ICntrl=       600 IOpCl=  0 I1Cent=           0 NGrid=           0
         NMat0=    1 NMatS0=  21528 NMatT0=    0 NMatD0=    1 NMtDS0=    0 NMtDT0=    0
 Petite list used in FoFCou.
          MDV=   16106127360 using IRadAn=       1.
          Solving linear equations simultaneously, MaxMat=       0.
          There are    18 degrees of freedom in the 1st order CPHF.  IDoFFX=6 NUNeed=    18.
     15 vectors produced by pass  0 Test12= 1.70D-14 5.56D-09 XBig12= 8.33D+00 1.10D+00.
 AX will form    15 AO Fock derivatives at one time.
     15 vectors produced by pass  1 Test12= 1.70D-14 5.56D-09 XBig12= 1.37D+00 2.56D-01.
     15 vectors produced by pass  2 Test12= 1.70D-14 5.56D-09 XBig12= 1.48D-01 1.02D-01.
     15 vectors produced by pass  3 Test12= 1.70D-14 5.56D-09 XBig12= 5.23D-03 1.17D-02.
     15 vectors produced by pass  4 Test12= 1.70D-14 5.56D-09 XBig12= 1.02D-04 1.98D-03.
     15 vectors produced by pass  5 Test12= 1.70D-14 5.56D-09 XBig12= 1.49D-06 1.88D-04.
     15 vectors produced by pass  6 Test12= 1.70D-14 5.56D-09 XBig12= 1.18D-08 1.49D-05.
     13 vectors produced by pass  7 Test12= 1.70D-14 5.56D-09 XBig12= 8.73D-11 1.31D-06.
      3 vectors produced by pass  8 Test12= 1.70D-14 5.56D-09 XBig12= 6.01D-13 1.17D-07.
      2 vectors produced by pass  9 Test12= 1.70D-14 5.56D-09 XBig12= 3.79D-15 9.80D-09.
 InvSVY:  IOpt=1 It=  1 EMax= 1.67D-15
 Solved reduced A of dimension   123 with    15 vectors.
 FullF1:  Do perturbations      1 to      18.
 Saving first derivative matrices.
 End of Minotr F.D. properties file   721 does not exist.
 End of Minotr F.D. properties file   722 does not exist.
 End of Minotr F.D. properties file   788 does not exist.
 Leave Link 1002 at Mon Feb 21 20:17:31 2022, MaxMem= 16106127360 cpu:              79.3 elap:               2.9
 (Enter /sw/contrib/gaussian/g16/B01/g16/l811.exe)
 MDV= 16106127360.
 Form MO integral derivatives with frozen-active canonical formalism.
 MOERI=1 MOERIx=1 NAtoms=     5 NAtomX=     5.
 Discarding MO integrals.
 MO basis two electron integral derivatives will not be stored on disk.
 IAlg= 3 DoFC=T DoPWx=T Debug=F.
 Frozen-core window:  NFC=   4 NFV=   0.
 Reordered first order wavefunction length =     18678272
 In DefCFB: NBatch=  1 ICI= 16 ICA=191 LFMax= 96
            Large arrays: LIAPS=   619940160 LIARS=   288257200 words.
 In StABat: MaxSiz= 55 MinSiz= 25 NAtomB=  5
 DoIAMN: NPSUse= 28.
 Leave Link  811 at Mon Feb 21 20:18:54 2022, MaxMem= 16106127360 cpu:            2306.1 elap:              82.6
 (Enter /sw/contrib/gaussian/g16/B01/g16/l804.exe)
 Frozen-core window:  NFC=   4 NFV=   0.
 Closed-shell transformation, MDV= 16106127360 ITran=4 ISComp=1.
 Semi-Direct transformation.
 ModeAB=           2 MOrb=            16 LenV=   16104923149
 LASXX=     67341636 LTotXX=    67341636 LenRXX=    67341636
 LTotAB=    68301760 MaxLAS=    99807120 LenRXY=    99807120
 NonZer=   134683272 LenScr=   202817536 LnRSAI=           0
 LnScr1=           0 LExtra=           0 Total=    369966292
 MaxDsk=          -1 SrtSym=           F ITran=            4
 DoSDTr:  NPSUse= 28
 JobTyp=0 Pass  1:  I=   1 to  16.
 (rs|ai) integrals will be sorted in core.
 Complete sort for first half transformation.
 First half transformation complete.
 Begin second half transformation for I=  10.
 Begin second half transformation for I=  10.
 Complete sort for second half transformation.
 Second half transformation complete.
 Spin components of T(2) and E(2):
     alpha-alpha T2 =       0.3433373576D-01 E2=     -0.1227008988D+00
     alpha-beta  T2 =       0.1886719972D+00 E2=     -0.7021366969D+00
     beta-beta   T2 =       0.3433373576D-01 E2=     -0.1227008988D+00
 ANorm=    0.1585773924D+01
 E2 =    -0.9475384945D+00 EUMP2 =    -0.28044660222639D+03
 Leave Link  804 at Mon Feb 21 20:19:09 2022, MaxMem= 16106127360 cpu:             426.6 elap:              15.3
 (Enter /sw/contrib/gaussian/g16/B01/g16/l1002.exe)
 Minotr:  Closed shell wavefunction.
          Computing MP2/KS-MP2 derivatives.
          Using Z-Vector for PSCF gradient.
          Skipping F1 and S1 gradient terms here.
          IDoAtm=11111
          Frozen-core window.
          Using MO integrals in the linear equations.
          Forming densities via direct SCF.
          Differentiating once with respect to electric field.
                with respect to dipole field.
          Differentiating once with respect to nuclear coordinates.
          Using symmetry in CPHF.
          Requested convergence is 1.0D-10 RMS, and 1.0D-09 maximum.
          NewPWx=F KeepS1=T KeepF1=T KeepIn=T MapXYZ=F SortEE=F KeepMc=T.
          MDV=   16106127360 using IRadAn=       5.
          Solving linear equations separately, MaxMat=       0.
          There are     1 degrees of freedom in the 1st order CPHF.  IDoFFX=0 NUNeed=     1.
 FoFJK:  IHMeth= 1 ICntrl=       0 DoSepK=F KAlg= 0 I1Cent=           0 FoldK=F
 IRaf=         0 NMat=       1 IRICut=       1 DoRegI=T DoRafI=F ISym2E= 0 IDoP0=0 IntGTp=1.
 FoFCou: FMM=F IPFlag=           0 FMFlag=      100000 FMFlg1=           0
         NFxFlg=           0 DoJE=F BraDBF=F KetDBF=F FulRan=T
         wScrn=  0.000000 ICntrl=         0 IOpCl=  0 I1Cent=           0 NGrid=           0
         NMat0=    1 NMatS0=      1 NMatT0=    0 NMatD0=    1 NMtDS0=    0 NMtDT0=    0
 Symmetry not used in FoFCou.
 LinEq1:  Iter=  0 NonCon=     1 RMS=6.05D-03 Max=1.32D-01 NDo=     1
 LinEq1:  Iter=  1 NonCon=     1 RMS=1.98D-03 Max=4.00D-02 NDo=     1
 LinEq1:  Iter=  2 NonCon=     1 RMS=9.06D-04 Max=1.46D-02 NDo=     1
 LinEq1:  Iter=  3 NonCon=     1 RMS=4.05D-04 Max=7.83D-03 NDo=     1
 LinEq1:  Iter=  4 NonCon=     1 RMS=1.25D-04 Max=1.89D-03 NDo=     1
 LinEq1:  Iter=  5 NonCon=     1 RMS=4.73D-05 Max=7.47D-04 NDo=     1
 LinEq1:  Iter=  6 NonCon=     1 RMS=2.10D-05 Max=2.43D-04 NDo=     1
 LinEq1:  Iter=  7 NonCon=     1 RMS=8.59D-06 Max=1.75D-04 NDo=     1
 LinEq1:  Iter=  8 NonCon=     1 RMS=3.63D-06 Max=3.76D-05 NDo=     1
 LinEq1:  Iter=  9 NonCon=     1 RMS=9.91D-07 Max=1.49D-05 NDo=     1
 LinEq1:  Iter= 10 NonCon=     1 RMS=2.01D-07 Max=2.26D-06 NDo=     1
 LinEq1:  Iter= 11 NonCon=     1 RMS=3.82D-08 Max=4.46D-07 NDo=     1
 LinEq1:  Iter= 12 NonCon=     1 RMS=9.21D-09 Max=1.42D-07 NDo=     1
 LinEq1:  Iter= 13 NonCon=     1 RMS=1.63D-09 Max=2.92D-08 NDo=     1
 LinEq1:  Iter= 14 NonCon=     1 RMS=3.00D-10 Max=4.48D-09 NDo=     1
 LinEq1:  Iter= 15 NonCon=     0 RMS=5.40D-11 Max=6.39D-10 NDo=     1
 Linear equations converged to 1.000D-10 1.000D-09 after    15 iterations.
 End of Minotr F.D. properties file   721 does not exist.
 End of Minotr F.D. properties file   722 does not exist.
 End of Minotr F.D. properties file   788 does not exist.
 Leave Link 1002 at Mon Feb 21 20:19:11 2022, MaxMem= 16106127360 cpu:              65.4 elap:               2.4
 (Enter /sw/contrib/gaussian/g16/B01/g16/l1102.exe)
 Use density number 2.
 Symmetrizing basis deriv contribution to polar:
 IMax=3 JMax=2 DiffMx= 0.00D+00
 Leave Link 1102 at Mon Feb 21 20:19:11 2022, MaxMem= 16106127360 cpu:               0.9 elap:               0.1
 (Enter /sw/contrib/gaussian/g16/B01/g16/l1110.exe)
 Forming Gx(P) for generalized density number  2 NAtomX=     5.
 Integral derivatives from FoFJK, PRISM(SPDF).
 Do as many integral derivatives as possible in FoFJK.
 G2DrvN: MDV=   16106126844.
 G2DrvN: will do     6 centers at a time, making    1 passes.
 Calling FoFCou, ICntrl=  3107 FMM=F I1Cent=   0 AccDes= 0.00D+00.
 FoFJK:  IHMeth= 1 ICntrl=    3107 DoSepK=F KAlg= 0 I1Cent=           0 FoldK=F
 IRaf=         0 NMat=       1 IRICut=       1 DoRegI=T DoRafI=F ISym2E= 1 IDoP0=0 IntGTp=1.
 FoFCou: FMM=F IPFlag=           0 FMFlag=      100000 FMFlg1=           0
         NFxFlg=           0 DoJE=F BraDBF=F KetDBF=F FulRan=T
         wScrn=  0.000000 ICntrl=      3107 IOpCl=  0 I1Cent=           0 NGrid=           0
         NMat0=    1 NMatS0=      1 NMatT0=    0 NMatD0=    1 NMtDS0=    0 NMtDT0=    0
 Petite list used in FoFCou.
 End of G2Drv F.D. properties file   721 does not exist.
 End of G2Drv F.D. properties file   722 does not exist.
 End of G2Drv F.D. properties file   788 does not exist.
 Leave Link 1110 at Mon Feb 21 20:19:14 2022, MaxMem= 16106127360 cpu:              83.5 elap:               3.0
 (Enter /sw/contrib/gaussian/g16/B01/g16/l1112.exe)
 MP22nd: MDV=   16106127360
 This link is doing NAtomX=     5 total of    18 degrees of freedom.
 Using ON3 I/O method in MakUI.
 Frozen-core window:  NFC=   4 NFV=   0.
 Using Ix for Sx.
 Use MO integrals over full window.
 Using OV2 memory method for fx*t*t/D, MaxI=    16 DoOO2=F NP=  28.
 R2 and R3 integrals will be kept in memory, NReq=   915591705.
 FoFCou: FMM=F IPFlag=           0 FMFlag=           0 FMFlg1=           0
         NFxFlg=           0 DoJE=F BraDBF=F KetDBF=F FulRan=T
         wScrn=  0.000000 ICntrl=       600 IOpCl=  0 I1Cent=           0 NGrid=           0
         NMat0=    1 NMatS0=      1 NMatT0=    0 NMatD0=    1 NMtDS0=    0 NMtDT0=    0
 Symmetry not used in FoFCou.
 DD1Dir will call FoFMem   1 times, MxPair=       272
 NAB=   136 NAA=     0 NBB=     0.
 Symmetry is being used.
 FoFJK:  IHMeth= 1 ICntrl=       0 DoSepK=F KAlg= 0 I1Cent=           0 FoldK=F
 IRaf=         0 NMat=      18 IRICut=      45 DoRegI=T DoRafI=T ISym2E= 2 IDoP0=3 IntGTp=3.
 Discarding MO integrals.
 Leave Link 1112 at Mon Feb 21 20:19:47 2022, MaxMem= 16106127360 cpu:             906.6 elap:              32.7
 (Enter /sw/contrib/gaussian/g16/B01/g16/l601.exe)
 Copying SCF densities to generalized density rwf, IOpCl= 0 IROHF=0.

 **********************************************************************

            Population analysis using the MP2 Density.

 **********************************************************************

 Orbital symmetries:
       Occupied  (A') (A') (A') (A') (A') (A') (A') (A') (A') (A')
                 (A") (A') (A") (A') (A") (A')
       Virtual   (A') (A") (A') (A') (A") (A') (A') (A') (A") (A')
                 (A") (A') (A') (A') (A") (A') (A') (A") (A') (A')
                 (A') (A') (A') (A') (A") (A') (A') (A") (A') (A')
                 (A") (A') (A") (A') (A') (A") (A') (A') (A") (A')
                 (A") (A') (A") (A') (A') (A") (A') (A') (A") (A')
                 (A") (A') (A') (A') (A") (A') (A") (A') (A") (A')
                 (A') (A') (A") (A') (A') (A") (A') (A") (A') (A')
                 (A") (A') (A') (A") (A") (A') (A') (A") (A') (A')
                 (A') (A") (A') (A") (A') (A") (A') (A") (A') (A')
                 (A") (A') (A') (A") (A') (A") (A') (A") (A') (A')
                 (A") (A') (A") (A') (A') (A") (A') (A') (A") (A')
                 (A") (A') (A') (A') (A") (A') (A') (A') (A") (A')
                 (A") (A') (A") (A') (A') (A") (A") (A') (A") (A')
                 (A') (A') (A') (A") (A") (A") (A') (A') (A') (A')
                 (A") (A') (A") (A') (A') (A") (A') (A') (A') (A')
                 (A") (A') (A') (A") (A') (A") (A') (A") (A') (A")
                 (A') (A") (A') (A') (A") (A") (A") (A') (A") (A')
                 (A") (A') (A") (A') (A") (A') (A") (A') (A") (A')
                 (A') (A') (A') (A') (A') (A') (A') (A') (A') (A')
                 (A')
 The electronic state is 1-A'.
 Alpha  occ. eigenvalues --  -20.69033 -20.68656 -20.65685 -15.81696  -1.62320
 Alpha  occ. eigenvalues --   -1.49199  -1.24679  -0.95014  -0.77079  -0.75636
 Alpha  occ. eigenvalues --   -0.70772  -0.68066  -0.62167  -0.58803  -0.48249
 Alpha  occ. eigenvalues --   -0.47123
 Alpha virt. eigenvalues --    0.03033   0.06839   0.08545   0.10141   0.13381
 Alpha virt. eigenvalues --    0.13412   0.14461   0.15504   0.17882   0.19403
 Alpha virt. eigenvalues --    0.19968   0.20254   0.22147   0.23651   0.23709
 Alpha virt. eigenvalues --    0.26530   0.28374   0.30444   0.30975   0.34154
 Alpha virt. eigenvalues --    0.34887   0.38691   0.42292   0.43253   0.52606
 Alpha virt. eigenvalues --    0.52812   0.55575   0.58024   0.62407   0.63682
 Alpha virt. eigenvalues --    0.67351   0.68450   0.70722   0.71167   0.72442
 Alpha virt. eigenvalues --    0.73120   0.74563   0.78996   0.79297   0.80931
 Alpha virt. eigenvalues --    0.81455   0.82945   0.86628   0.90819   0.92291
 Alpha virt. eigenvalues --    0.92444   0.95901   0.97395   0.98568   1.01865
 Alpha virt. eigenvalues --    1.05096   1.05347   1.08009   1.11569   1.13872
 Alpha virt. eigenvalues --    1.18818   1.21998   1.23205   1.33601   1.34564
 Alpha virt. eigenvalues --    1.38888   1.44949   1.48761   1.50987   1.53632
 Alpha virt. eigenvalues --    1.56381   1.57506   1.61197   1.66201   1.66965
 Alpha virt. eigenvalues --    1.70079   1.79293   1.82991   1.83037   1.87902
 Alpha virt. eigenvalues --    1.90697   1.95579   1.98708   2.00250   2.06988
 Alpha virt. eigenvalues --    2.11794   2.12849   2.15306   2.21947   2.26202
 Alpha virt. eigenvalues --    2.26671   2.28712   2.31365   2.33780   2.38606
 Alpha virt. eigenvalues --    2.42053   2.42284   2.45171   2.46019   2.47229
 Alpha virt. eigenvalues --    2.49749   2.59183   2.59472   2.61478   2.62247
 Alpha virt. eigenvalues --    2.63665   2.66511   2.75328   2.81227   2.84424
 Alpha virt. eigenvalues --    2.87490   2.89562   2.90283   2.95667   3.01601
 Alpha virt. eigenvalues --    3.05753   3.11477   3.20594   3.22413   3.31228
 Alpha virt. eigenvalues --    3.33485   3.51278   3.63405   3.82625   3.83896
 Alpha virt. eigenvalues --    4.14835   4.16974   4.18080   4.24679   4.35189
 Alpha virt. eigenvalues --    4.39282   4.46512   4.51587   4.65272   4.70638
 Alpha virt. eigenvalues --    4.79793   4.80919   4.83220   4.89294   5.01463
 Alpha virt. eigenvalues --    5.07003   5.09223   5.14570   5.17149   5.23638
 Alpha virt. eigenvalues --    5.26285   5.30309   5.32824   5.34460   5.59806
 Alpha virt. eigenvalues --    5.66894   5.75363   5.83084   5.94503   6.15750
 Alpha virt. eigenvalues --    6.30850   6.32811   6.39095   6.48745   6.50005
 Alpha virt. eigenvalues --    6.61278   6.66903   6.69213   6.76153   6.76350
 Alpha virt. eigenvalues --    6.82479   6.89051   7.00760   7.05294   7.05939
 Alpha virt. eigenvalues --    7.09044   7.11674   7.14285   7.18063   7.21221
 Alpha virt. eigenvalues --    7.24321   7.31210   7.32106   7.33958   7.39157
 Alpha virt. eigenvalues --    7.41863   7.47782   7.60004   7.60378   7.61317
 Alpha virt. eigenvalues --    7.65408   7.77906   7.88104   8.06393   8.30279
 Alpha virt. eigenvalues --    8.40867   8.53246  13.34149  14.26085  15.14164
 Alpha virt. eigenvalues --   16.10527
          Condensed to atoms (all electrons):
               1          2          3          4          5
     1  H    0.590026   0.128551   0.019870   0.012218  -0.000670
     2  O    0.128551   8.321873  -0.175695  -0.086254   0.014868
     3  O    0.019870  -0.175695   8.476116  -0.122362  -0.034310
     4  N    0.012218  -0.086254  -0.122362   6.949275  -0.051943
     5  O   -0.000670   0.014868  -0.034310  -0.051943   8.254165
 Mulliken charges:
               1
     1  H    0.250006
     2  O   -0.203342
     3  O   -0.163620
     4  N    0.299067
     5  O   -0.182110
 Sum of Mulliken charges =  -0.00000
 Mulliken charges with hydrogens summed into heavy atoms:
               1
     2  O    0.046663
     3  O   -0.163620
     4  N    0.299067
     5  O   -0.182110
 APT charges:
               1
     1  H    0.298194
     2  O   -0.293886
     3  O   -0.507457
     4  N    0.888930
     5  O   -0.385781
 Sum of APT charges =  -0.00000
 APT charges with hydrogens summed into heavy atoms:
               1
     2  O    0.004308
     3  O   -0.507457
     4  N    0.888930
     5  O   -0.385781
 Electronic spatial extent (au):  <R**2>=            255.5669
 Charge=             -0.0000 electrons
 Dipole moment (field-independent basis, Debye):
    X=              0.3931    Y=              1.2120    Z=             -0.0000  Tot=              1.2742
 Quadrupole moment (field-independent basis, Debye-Ang):
   XX=            -22.4255   YY=            -18.5062   ZZ=            -22.0468
   XY=              3.3041   XZ=              0.0000   YZ=              0.0000
 Traceless Quadrupole moment (field-independent basis, Debye-Ang):
   XX=             -1.4327   YY=              2.4866   ZZ=             -1.0539
   XY=              3.3041   XZ=              0.0000   YZ=              0.0000
 Octapole moment (field-independent basis, Debye-Ang**2):
  XXX=              2.3638  YYY=             11.2417  ZZZ=              0.0000  XYY=              7.8647
  XXY=              6.3670  XXZ=             -0.0000  XZZ=             -1.6203  YZZ=             -0.9529
  YYZ=             -0.0000  XYZ=             -0.0000
 Hexadecapole moment (field-independent basis, Debye-Ang**3):
 XXXX=           -158.3317 YYYY=            -92.2520 ZZZZ=            -18.3192 XXXY=            -37.5080
 XXXZ=              0.0000 YYYX=            -31.1396 YYYZ=              0.0000 ZZZX=              0.0000
 ZZZY=              0.0000 XXYY=            -34.2781 XXZZ=            -30.8591 YYZZ=            -21.2159
 XXYZ=              0.0000 YYXZ=              0.0000 ZZXY=            -15.3335
 N-N= 1.161835304819D+02 E-N=-8.944916066173D+02  KE= 2.801673047970D+02
 Symmetry A'   KE= 2.662042782172D+02
 Symmetry A"   KE= 1.396302657987D+01
  Exact polarizability:  33.989   9.616  30.787  -0.000  -0.000  18.016
 Approx polarizability:  29.132   5.283  24.115  -0.000  -0.000  15.561
 No NMR shielding tensors so no spin-rotation constants.
 Leave Link  601 at Mon Feb 21 20:19:47 2022, MaxMem= 16106127360 cpu:               5.0 elap:               0.2
 (Enter /sw/contrib/gaussian/g16/B01/g16/l701.exe)
 ... and contract with generalized density number  2.
 Compute integral second derivatives.
 Leave Link  701 at Mon Feb 21 20:19:48 2022, MaxMem= 16106127360 cpu:               5.5 elap:               0.2
 (Enter /sw/contrib/gaussian/g16/B01/g16/l702.exe)
 L702 exits ... SP integral derivatives will be done elsewhere.
 Leave Link  702 at Mon Feb 21 20:19:48 2022, MaxMem= 16106127360 cpu:               0.4 elap:               0.0
 (Enter /sw/contrib/gaussian/g16/B01/g16/l703.exe)
 Integral derivatives from FoFJK, PRISM(SPDF).
 Compute integral second derivatives, UseDBF=F ICtDFT=           0.
 Calling FoFJK, ICntrl=  10100127 FMM=F ISym2X=1 I1Cent= 0 IOpClX= 0 NMat=1 NMatS=1 NMatT=0.
 FoFJK:  IHMeth= 1 ICntrl=10100127 DoSepK=F KAlg= 0 I1Cent=           0 FoldK=F
 IRaf=         0 NMat=       1 IRICut=       1 DoRegI=T DoRafI=F ISym2E= 1 IDoP0=0 IntGTp=1.
 FoFCou: FMM=F IPFlag=           0 FMFlag=      100000 FMFlg1=         800
         NFxFlg=           0 DoJE=F BraDBF=F KetDBF=F FulRan=T
         wScrn=  0.000000 ICntrl=  10100127 IOpCl=  0 I1Cent=           0 NGrid=           0
         NMat0=    1 NMatS0=      1 NMatT0=    0 NMatD0=    1 NMtDS0=    0 NMtDT0=    0
 Petite list used in FoFCou.
 Leave Link  703 at Mon Feb 21 20:20:03 2022, MaxMem= 16106127360 cpu:             421.5 elap:              15.1
 (Enter /sw/contrib/gaussian/g16/B01/g16/l716.exe)
 Dipole        = 1.54642728D-01 4.76841976D-01-4.97667456D-33
 Polarizability= 3.39890295D+01 9.61550464D+00 3.07866457D+01
                -4.23515265D-31-9.09546305D-31 1.80157300D+01
 Full mass-weighted force constant matrix:
 Low frequencies --- -276.2115   -0.0012   -0.0010    0.0009   39.7034   44.9178
 Low frequencies ---   73.4608  240.3719  332.4600
 ******    1 imaginary frequencies (negative Signs) ****** 
 Diagonal vibrational polarizability:
       16.9661311      32.2522824      44.5394756
 Harmonic frequencies (cm**-1), IR intensities (KM/Mole), Raman scattering
 activities (A**4/AMU), depolarization ratios for plane and unpolarized
 incident light, reduced masses (AMU), force constants (mDyne/A),
 and normal coordinates:
                      1                      2                      3
                     A"                     A"                     A'
 Frequencies --   -276.1506               239.3295               332.4060
 Red. masses --      1.1334                10.8444                 8.5190
 Frc consts  --      0.0509                 0.3660                 0.5546
 IR Inten    --    125.3198                 0.6708                10.7677
  Atom  AN      X      Y      Z        X      Y      Z        X      Y      Z
     1   1    -0.00   0.00   1.00    -0.00   0.00  -0.55     0.56  -0.43   0.00
     2   8    -0.00   0.00  -0.06    -0.00   0.00  -0.32    -0.08  -0.36  -0.00
     3   8     0.00  -0.00  -0.04    -0.00  -0.00   0.33    -0.13   0.46   0.00
     4   7     0.00  -0.00   0.05     0.00   0.00   0.53     0.02   0.22   0.00
     5   8    -0.00   0.00  -0.01     0.00   0.00  -0.45     0.15  -0.26  -0.00
                      4                      5                      6
                     A'                     A'                     A'
 Frequencies --    403.6649               770.7972               963.1770
 Red. masses --     12.5030                13.1433                15.5162
 Frc consts  --      1.2003                 4.6008                 8.4810
 IR Inten    --    213.6872               153.1818                20.1393
  Atom  AN      X      Y      Z        X      Y      Z        X      Y      Z
     1   1    -0.37  -0.23   0.00    -0.32   0.19  -0.00    -0.14  -0.04   0.00
     2   8    -0.31  -0.24   0.00     0.43   0.09  -0.00    -0.53   0.03  -0.00
     3   8    -0.19  -0.42  -0.00    -0.04  -0.24   0.00     0.75  -0.02   0.00
     4   7     0.35   0.46  -0.00    -0.16   0.61   0.00    -0.12   0.23   0.00
     5   8     0.22   0.27   0.00    -0.22  -0.40  -0.00    -0.11  -0.21  -0.00
                      7                      8                      9
                     A'                     A'                     A'
 Frequencies --   1366.5013              1666.2200              3778.1126
 Red. masses --      1.1301                13.3190                 1.0676
 Frc consts  --      1.2433                21.7865                 8.9782
 IR Inten    --    148.4567               153.3028                82.9131
  Atom  AN      X      Y      Z        X      Y      Z        X      Y      Z
     1   1     0.99  -0.05  -0.00    -0.33   0.00   0.00     0.10   0.99   0.00
     2   8    -0.03   0.05  -0.00    -0.00  -0.04   0.00    -0.01  -0.06  -0.00
     3   8    -0.02  -0.05   0.00     0.00   0.15  -0.00     0.00   0.00  -0.00
     4   7     0.02   0.01   0.00     0.71  -0.05  -0.00    -0.00  -0.00   0.00
     5   8    -0.03  -0.01  -0.00    -0.60  -0.07   0.00     0.00   0.00   0.00

 -------------------
 - Thermochemistry -
 -------------------
 Temperature   298.150 Kelvin.  Pressure   1.00000 Atm.
 Atom     1 has atomic number  1 and mass   1.00783
 Atom     2 has atomic number  8 and mass  15.99491
 Atom     3 has atomic number  8 and mass  15.99491
 Atom     4 has atomic number  7 and mass  14.00307
 Atom     5 has atomic number  8 and mass  15.99491
 Molecular mass:    62.99564 amu.
 Principal axes and moments of inertia in atomic units:
                           1         2         3
     Eigenvalues --    33.48893 364.84612 398.33504
           X            0.80368  -0.59506   0.00000
           Y            0.59506   0.80368   0.00000
           Z           -0.00000   0.00000   1.00000
 This molecule is an asymmetric top.
 Rotational symmetry number  1.
 Rotational temperatures (Kelvin)      2.58635     0.23740     0.21744
 Rotational constants (GHZ):          53.89069     4.94658     4.53071
    1 imaginary frequencies ignored.
 Zero-point vibrational energy      56943.5 (Joules/Mol)
                                   13.60982 (Kcal/Mol)
 Warning -- explicit consideration of   3 degrees of freedom as
           vibrations may cause significant error
 Vibrational temperatures:    344.34   478.26   580.78  1109.01  1385.80
          (Kelvin)           1966.09  2397.32  5435.86
 
 Zero-point correction=                           0.021689 (Hartree/Particle)
 Thermal correction to Energy=                    0.025851
 Thermal correction to Enthalpy=                  0.026795
 Thermal correction to Gibbs Free Energy=        -0.004477
 Sum of electronic and zero-point Energies=           -280.424914
 Sum of electronic and thermal Energies=              -280.420752
 Sum of electronic and thermal Enthalpies=            -280.419808
 Sum of electronic and thermal Free Energies=         -280.451079
 
                     E (Thermal)             CV                S
                      KCal/Mol        Cal/Mol-Kelvin    Cal/Mol-Kelvin
 Total                   16.221             12.094             65.816
 Electronic               0.000              0.000              0.000
 Translational            0.889              2.981             38.341
 Rotational               0.889              2.981             23.102
 Vibrational             14.444              6.133              4.373
 Vibration     1          0.657              1.780              1.808
 Vibration     2          0.714              1.611              1.248
 Vibration     3          0.769              1.462              0.949
                       Q            Log10(Q)             Ln(Q)
 Total Bot       0.114565D+03          2.059052          4.741143
 Total V=0       0.108423D+13         12.035121         27.711890
 Vib (Bot)       0.233430D-09         -9.631843        -22.178137
 Vib (Bot)    1  0.819542D+00         -0.086429         -0.199010
 Vib (Bot)    2  0.561268D+00         -0.250830         -0.577556
 Vib (Bot)    3  0.440357D+00         -0.356195         -0.820169
 Vib (V=0)       0.220915D+01          0.344226          0.792610
 Vib (V=0)    1  0.146003D+01          0.164360          0.378454
 Vib (V=0)    2  0.125168D+01          0.097493          0.224486
 Vib (V=0)    3  0.116627D+01          0.066799          0.153810
 Electronic      0.100000D+01          0.000000          0.000000
 Translational   0.196526D+08          7.293420         16.793719
 Rotational      0.249733D+05          4.397475         10.125561
 
                                                                title
                                                             IR Spectrum
 
     3                                                                      1          1                                             
     7                                                                      6          3            9      7           4 3  2        
     7                                                                      6          6            6      7           0 3  3        
     8                                                                      6          7            3      1           4 2  9        
 
     X                                                                      X          X            X      X           X X  X        
     X                                                                      X          X            X      X           X             
     X                                                                      X          X                   X           X             
     X                                                                      X          X                   X           X             
     X                                                                      X          X                   X           X             
     X                                                                      X          X                   X           X             
     X                                                                      X          X                   X           X             
     X                                                                      X          X                   X           X             
                                                                            X          X                   X           X             
                                                                            X          X                   X           X             
                                                                            X          X                   X           X             
                                                                            X          X                   X           X             
                                                                            X          X                   X           X             
                                                                            X          X                   X           X             
                                                                                                                       X             
                                                                                                                       X             
                                                                                                                       X             
                                                                                                                       X             
                                                                                                                       X             
                                                                                                                       X             
 
 ***** Axes restored to original set *****
 -------------------------------------------------------------------
 Center     Atomic                   Forces (Hartrees/Bohr)
 Number     Number              X              Y              Z
 -------------------------------------------------------------------
      1        1           0.000117107    0.000000000    0.000160462
      2        8           0.000101956    0.000000000    0.000649998
      3        8           0.001408783    0.000000000    0.004305857
      4        7           0.004867718    0.000000000   -0.002771545
      5        8          -0.006495563   -0.000000000   -0.002344773
 -------------------------------------------------------------------
 Cartesian Forces:  Max     0.006495563 RMS     0.002582813
 -----------------------------------------------------------------------------------------------
                       Internal Coordinate Forces (Hartree/Bohr or radian)
  Cent   Atom   N1       Length/X         N2         Alpha/Y        N3         Beta/Z          J
 -----------------------------------------------------------------------------------------------
      1  H 
      2  O        1  -0.000160(     1)
      3  O        2  -0.000324(     2)      1  -0.000214(     5)
      4  N        3  -0.005233(     3)      2  -0.001915(     6)      1   0.000000(     8)     0
      5  O        4  -0.006874(     4)      3  -0.001459(     7)      2  -0.000000(     9)     0
 -----------------------------------------------------------------------------------------------
 Internal  Forces:  Max     0.006874235 RMS     0.002992726
 Force constants in Cartesian coordinates: 
                1             2             3             4             5 
      1  0.642306D-01
      2  0.000000D+00 -0.250381D-02
      3  0.519031D-02  0.000000D+00  0.512187D+00
      4 -0.351658D-01  0.000000D+00 -0.159877D-01  0.271442D+00
      5  0.000000D+00  0.320568D-02  0.000000D+00  0.000000D+00  0.163205D-02
      6  0.477543D-01  0.000000D+00 -0.508601D+00  0.327652D-01  0.000000D+00
      7 -0.190852D-01  0.000000D+00  0.121952D-01 -0.221018D+00  0.000000D+00
      8  0.000000D+00  0.110692D-02  0.000000D+00  0.000000D+00 -0.616316D-02
      9 -0.529420D-01  0.000000D+00 -0.591968D-03 -0.198772D-01  0.000000D+00
     10 -0.862422D-02  0.000000D+00 -0.475685D-02 -0.153493D-01  0.000000D+00
     11  0.000000D+00 -0.284090D-02  0.000000D+00  0.000000D+00 -0.463651D-02
     12  0.576780D-02  0.000000D+00 -0.425387D-02  0.116905D-01  0.000000D+00
     13 -0.135542D-02  0.000000D+00  0.335906D-02  0.912039D-04  0.000000D+00
     14  0.000000D+00  0.103210D-02  0.000000D+00  0.000000D+00  0.596194D-02
     15 -0.577042D-02  0.000000D+00  0.125988D-02 -0.859077D-02  0.000000D+00
                6             7             8             9            10 
      6  0.591840D+00
      7 -0.234026D-01  0.337734D+00
      8  0.000000D+00  0.000000D+00  0.513901D-02
      9 -0.773399D-01  0.339618D-01  0.000000D+00  0.162187D+00
     10 -0.488808D-01 -0.747575D-01  0.000000D+00  0.172168D+00  0.815585D+00
     11  0.000000D+00  0.000000D+00  0.699525D-02  0.000000D+00  0.000000D+00
     12  0.187354D-01  0.632392D-01  0.000000D+00 -0.676581D-01 -0.183508D-01
     13 -0.823613D-02 -0.228740D-01  0.000000D+00 -0.133310D+00 -0.716854D+00
     14  0.000000D+00  0.000000D+00 -0.707802D-02  0.000000D+00  0.000000D+00
     15 -0.246340D-01 -0.859937D-01  0.000000D+00 -0.165968D-01 -0.100179D+00
               11            12            13            14            15 
     11  0.123134D-01
     12  0.000000D+00  0.171859D+00
     13  0.000000D+00 -0.623466D-01  0.740992D+00
     14 -0.118313D-01  0.000000D+00  0.000000D+00  0.119152D-01
     15  0.000000D+00 -0.118682D+00  0.200534D+00  0.000000D+00  0.158653D+00
 Force constants in internal coordinates: 
                1             2             3             4             5 
      1  0.512187D+00
      2 -0.102287D-01  0.280491D+00
      3  0.309851D-02  0.796783D-03  0.965595D-01
      4 -0.356663D-02  0.613713D-02  0.147258D+00  0.801543D+00
      5  0.962114D-02  0.655670D-01  0.150306D-02  0.502603D-02  0.215067D+00
      6  0.407523D-02  0.559030D-01  0.360937D-01  0.219159D-01  0.298004D-01
      7 -0.856148D-03  0.360876D-01  0.263188D-01  0.800011D-01  0.212840D-01
      8  0.000000D+00  0.000000D+00  0.000000D+00  0.000000D+00  0.000000D+00
      9  0.000000D+00  0.000000D+00  0.000000D+00  0.000000D+00  0.000000D+00
                6             7             8             9 
      6  0.266241D+00
      7  0.970092D-01  0.464953D+00
      8  0.000000D+00  0.000000D+00 -0.850833D-02
      9  0.000000D+00  0.000000D+00 -0.391615D-02  0.389600D-01
 Leave Link  716 at Mon Feb 21 20:20:03 2022, MaxMem= 16106127360 cpu:               2.1 elap:               0.1
 (Enter /sw/contrib/gaussian/g16/B01/g16/l103.exe)

 GradGradGradGradGradGradGradGradGradGradGradGradGradGradGradGradGradGrad
 Berny optimization.
 Search for a local minimum.
 Step number   1 out of a maximum of    2
 All quantities printed in internal units (Hartrees-Bohrs-Radians)
 Second derivative matrix not updated -- analytic derivatives used.
 The second derivative matrix:
                          r1        r2        r3        r4        a1
           r1           0.51219
           r2          -0.01023   0.28049
           r3           0.00310   0.00080   0.09656
           r4          -0.00357   0.00614   0.14726   0.80154
           a1           0.00962   0.06557   0.00150   0.00503   0.21507
           a2           0.00408   0.05590   0.03609   0.02192   0.02980
           a3          -0.00086   0.03609   0.02632   0.08000   0.02128
           d1           0.00000  -0.00000  -0.00000  -0.00000  -0.00000
           d2          -0.00000   0.00000   0.00000   0.00000   0.00000
                          a2        a3        d1        d2
           a2           0.26624
           a3           0.09701   0.46495
           d1          -0.00000  -0.00000  -0.00851
           d2          -0.00000  -0.00000  -0.00392   0.03896
 ITU=  0
     Eigenvalues ---   -0.00883   0.03928   0.06182   0.17365   0.21268
     Eigenvalues ---    0.31863   0.50291   0.51288   0.85446
 Eigenvalue     1 is  -8.83D-03 should be greater than     0.000000 Eigenvector:
                          d1        d2        a3        a2        r3
   1                    0.99666   0.08167   0.00000   0.00000  -0.00000
                          r4        a1        r2        r1
   1                    0.00000  -0.00000   0.00000  -0.00000
 Angle between quadratic step and forces=  56.33 degrees.
 Linear search not attempted -- first point.
 Variable       Old X    -DE/DX   Delta X   Delta X   Delta X     New X
                                 (Linear)    (Quad)   (Total)
    r1        1.83110  -0.00016   0.00000   0.00003   0.00003   1.83113
    r2        2.74940  -0.00032   0.00000  -0.00106  -0.00106   2.74833
    r3        2.80500  -0.00523   0.00000  -0.05744  -0.05744   2.74756
    r4        2.21236  -0.00687   0.00000   0.00199   0.00199   2.21435
    a1        1.70335  -0.00021   0.00000  -0.00040  -0.00040   1.70295
    a2        1.78543  -0.00191   0.00000   0.00081   0.00081   1.78624
    a3        1.90362  -0.00146   0.00000  -0.00030  -0.00030   1.90332
    d1        3.14159   0.00000   0.00000  -0.00000   0.00000   3.14159
    d2        3.14159  -0.00000   0.00000  -0.00000   0.00000   3.14159
         Item               Value     Threshold  Converged?
 Maximum Force            0.006874     0.000450     NO 
 RMS     Force            0.002993     0.000300     NO 
 Maximum Displacement     0.057438     0.001800     NO 
 RMS     Displacement     0.019164     0.001200     NO 
 Predicted change in Energy=-1.430764D-04
                       ----------------------------
                       ! Non-Optimized Parameters !
                       ! (Angstroms and Degrees)  !
 ----------------------                            ----------------------
 !      Name          Value   Derivative information (Atomic Units)     !
 ------------------------------------------------------------------------
 !       r1          0.969    -DE/DX =   -0.0002                        !
 !       r2          1.4544   -DE/DX =   -0.0003                        !
 !       r3          1.4539   -DE/DX =   -0.0052                        !
 !       r4          1.1718   -DE/DX =   -0.0069                        !
 !       a1         97.572    -DE/DX =   -0.0002                        !
 !       a2        102.3438   -DE/DX =   -0.0019                        !
 !       a3        109.0525   -DE/DX =   -0.0015                        !
 !       d1        180.0      -DE/DX =    0.0                           !
 !       d2        180.0      -DE/DX =    0.0                           !
 ------------------------------------------------------------------------
 GradGradGradGradGradGradGradGradGradGradGradGradGradGradGradGradGradGrad

 Leave Link  103 at Mon Feb 21 20:20:03 2022, MaxMem= 16106127360 cpu:               1.9 elap:               0.1
 (Enter /sw/contrib/gaussian/g16/B01/g16/l9999.exe)

 ----------------------------------------------------------------------

 Electric dipole moment (input orientation):
 (Debye = 10**-18 statcoulomb cm , SI units = C m)
                  (au)            (Debye)         (10**-30 SI)
   Tot        0.501291D+00      0.127415D+01      0.425012D+01
   x         -0.108659D+00     -0.276183D+00     -0.921246D+00
   y          0.000000D+00      0.000000D+00      0.000000D+00
   z         -0.489373D+00     -0.124386D+01     -0.414908D+01

 Dipole polarizability, Alpha (input orientation).
 (esu units = cm**3 , SI units = C**2 m**2 J**-1)
 Alpha(0;0):
               (au)            (10**-24 esu)      (10**-40 SI)
   iso        0.275971D+02      0.408947D+01      0.455015D+01
   aniso      0.221726D+02      0.328564D+01      0.365576D+01
   xx         0.321421D+02      0.476296D+01      0.529951D+01
   yx         0.000000D+00      0.000000D+00      0.000000D+00
   yy         0.180157D+02      0.266966D+01      0.297039D+01
   zx         0.974481D+01      0.144403D+01      0.160670D+01
   zy         0.000000D+00      0.000000D+00      0.000000D+00
   zz         0.326336D+02      0.483580D+01      0.538056D+01

 ----------------------------------------------------------------------

 Dipole orientation:
     1         -0.00000000          0.00000000          0.00000000
     8         -0.39690430          0.00000000         -1.78756495
     8          2.18481609          0.00000000         -2.73303564
     7          1.80335431          0.00000000         -5.51197384
     8          3.77657967          0.00000000         -6.51242609

 Electric dipole moment (dipole orientation):
 (Debye = 10**-18 statcoulomb cm , SI units = C m)
                  (au)            (Debye)         (10**-30 SI)
   Tot        0.501291D+00      0.127415D+01      0.425012D+01
   x          0.000000D+00      0.000000D+00      0.000000D+00
   y          0.000000D+00      0.000000D+00      0.000000D+00
   z          0.501291D+00      0.127415D+01      0.425012D+01

 Dipole polarizability, Alpha (dipole orientation).
 (esu units = cm**3 , SI units = C**2 m**2 J**-1)
 Alpha(0;0):
               (au)            (10**-24 esu)      (10**-40 SI)
   iso        0.275971D+02      0.408947D+01      0.455015D+01
   aniso      0.221726D+02      0.328564D+01      0.365576D+01
   xx         0.280411D+02      0.415526D+01      0.462335D+01
   yx         0.000000D+00      0.000000D+00      0.000000D+00
   yy         0.180157D+02      0.266966D+01      0.297039D+01
   zx        -0.872510D+01     -0.129293D+01     -0.143857D+01
   zy         0.000000D+00      0.000000D+00      0.000000D+00
   zz         0.367346D+02      0.544351D+01      0.605672D+01

 ----------------------------------------------------------------------
 1\1\GINC-N2125\Freq\RMP2-FC\Aug-CC-pVTZ\H1N1O3\CGAVINH\21-Feb-2022\1\\
 #p freq mp2/aug-cc-pvtz density=current\\title\\0,1\H\O,1,r1\O,2,r2,1,
 a1\N,3,r3,2,a2,1,d1,0\O,4,r4,3,a3,2,d2,0\\r1=0.96897556\r2=1.45491931\
 r3=1.48434072\r4=1.17072885\a1=97.59494903\a2=102.29752444\a3=109.0695
 5123\d1=180.\d2=180.\\Version=ES64L-G16RevB.01\State=1-A'\HF=-279.4990
 637\MP2=-280.4466022\RMSD=4.173e-09\RMSF=2.583e-03\ZeroPoint=0.0216886
 \Thermal=0.0258505\Dipole=-0.1086586,0.,-0.489373\DipoleDeriv=0.264138
 7,0.,0.0458659,0.,0.3547946,0.,0.0821155,0.,0.2756487,-0.3329419,0.,-0
 .2056044,0.,-0.3169764,0.,-0.1130381,0.,-0.2317406,-0.0622642,0.,0.137
 1069,0.,-0.1019352,0.,-0.7393291,0.,-1.3581716,0.9234396,0.,0.9479463,
 0.,0.0736066,0.,0.9098864,0.,1.6697447,-0.7923721,0.,-0.9253146,0.,-0.
 0094896,0.,-0.1396348,0.,-0.3554811\Polar=32.1420519,0.,18.01573,9.744
 8106,0.,32.6336233\Quadrupole=-1.5033688,-0.7835844,2.2869532,0.,2.136
 6955,0.\PG=CS [SG(H1N1O3)]\NImag=1\\0.06423056,0.,-0.00250381,0.005190
 31,0.,0.51218745,-0.03516575,0.,-0.01598773,0.27144162,0.,0.00320568,0
 .,0.,0.00163205,0.04775432,0.,-0.50860149,0.03276523,0.,0.59183996,-0.
 01908516,0.,0.01219520,-0.22101775,0.,-0.02340258,0.33773434,0.,0.0011
 0692,0.,0.,-0.00616316,0.,0.,0.00513901,-0.05294201,0.,-0.00059197,-0.
 01987718,0.,-0.07733988,0.03396184,0.,0.16218672,-0.00862422,0.,-0.004
 75685,-0.01534932,0.,-0.04888084,-0.07475746,0.,0.17216778,0.81558504,
 0.,-0.00284090,0.,0.,-0.00463651,0.,0.,0.00699525,0.,0.,0.01231343,0.0
 0576780,0.,-0.00425387,0.01169045,0.,0.01873537,0.06323923,0.,-0.06765
 812,-0.01835085,0.,0.17185881,-0.00135542,0.,0.00335906,0.00009120,0.,
 -0.00823613,-0.02287396,0.,-0.13331043,-0.71685403,0.,-0.06234663,0.74
 099221,0.,0.00103210,0.,0.,0.00596194,0.,0.,-0.00707802,0.,0.,-0.01183
 127,0.,0.,0.01191525,-0.00577042,0.,0.00125988,-0.00859077,0.,-0.02463
 396,-0.08599368,0.,-0.01659676,-0.10017925,0.,-0.11868218,0.20053412,0
 .,0.15865302\\-0.00011711,0.,-0.00016046,-0.00010196,0.,-0.00065000,-0
 .00140878,0.,-0.00430586,-0.00486772,0.,0.00277154,0.00649556,0.,0.002
 34477\\\@


 A SCIENTIST IS SOMEONE WHOSE CURIOSITY SURVIVES
 EDUCATION'S ASSAULTS ON IT.
                          - SIR HERMANN BONDI
 Job cpu time:       0 days  1 hours 59 minutes 41.4 seconds.
 Elapsed time:       0 days  0 hours  4 minutes 19.6 seconds.
 File lengths (MBytes):  RWF=   7239 Int=      0 D2E=      0 Chk=      8 Scr=      1
 Normal termination of Gaussian 16 at Mon Feb 21 20:20:04 2022.
