 Entering Gaussian System, Link 0=g16
 Input=hoono_a1_100p0870.gjf
 Output=hoono_a1_100p0870.log
 Initial command:
 /sw/contrib/gaussian/g16/B01/g16/l1.exe "/scr/Gau-5634.inp" -scrdir="/scr/"
 Entering Link 1 = /sw/contrib/gaussian/g16/B01/g16/l1.exe PID=      5635.
  
 Copyright (c) 1988-2017, Gaussian, Inc.  All Rights Reserved.
  
 This is part of the Gaussian(R) 16 program.  It is based on
 the Gaussian(R) 09 system (copyright 2009, Gaussian, Inc.),
 the Gaussian(R) 03 system (copyright 2003, Gaussian, Inc.),
 the Gaussian(R) 98 system (copyright 1998, Gaussian, Inc.),
 the Gaussian(R) 94 system (copyright 1995, Gaussian, Inc.),
 the Gaussian 92(TM) system (copyright 1992, Gaussian, Inc.),
 the Gaussian 90(TM) system (copyright 1990, Gaussian, Inc.),
 the Gaussian 88(TM) system (copyright 1988, Gaussian, Inc.),
 the Gaussian 86(TM) system (copyright 1986, Carnegie Mellon
 University), and the Gaussian 82(TM) system (copyright 1983,
 Carnegie Mellon University). Gaussian is a federally registered
 trademark of Gaussian, Inc.
  
 This software contains proprietary and confidential information,
 including trade secrets, belonging to Gaussian, Inc.
  
 This software is provided under written license and may be
 used, copied, transmitted, or stored only in accord with that
 written license.
  
 The following legend is applicable only to US Government
 contracts under FAR:
  
                    RESTRICTED RIGHTS LEGEND
  
 Use, reproduction and disclosure by the US Government is
 subject to restrictions as set forth in subparagraphs (a)
 and (c) of the Commercial Computer Software - Restricted
 Rights clause in FAR 52.227-19.
  
 Gaussian, Inc.
 340 Quinnipiac St., Bldg. 40, Wallingford CT 06492
  
  
 ---------------------------------------------------------------
 Warning -- This program may not be used in any manner that
 competes with the business of Gaussian, Inc. or will provide
 assistance to any competitor of Gaussian, Inc.  The licensee
 of this program is prohibited from giving any competitor of
 Gaussian, Inc. access to this program.  By using this program,
 the user acknowledges that Gaussian, Inc. is engaged in the
 business of creating and licensing software in the field of
 computational chemistry and represents and warrants to the
 licensee that it is not a competitor of Gaussian, Inc. and that
 it will not use this program in any manner prohibited above.
 ---------------------------------------------------------------
  

 Cite this work as:
 Gaussian 16, Revision B.01,
 M. J. Frisch, G. W. Trucks, H. B. Schlegel, G. E. Scuseria, 
 M. A. Robb, J. R. Cheeseman, G. Scalmani, V. Barone, 
 G. A. Petersson, H. Nakatsuji, X. Li, M. Caricato, A. V. Marenich, 
 J. Bloino, B. G. Janesko, R. Gomperts, B. Mennucci, H. P. Hratchian, 
 J. V. Ortiz, A. F. Izmaylov, J. L. Sonnenberg, D. Williams-Young, 
 F. Ding, F. Lipparini, F. Egidi, J. Goings, B. Peng, A. Petrone, 
 T. Henderson, D. Ranasinghe, V. G. Zakrzewski, J. Gao, N. Rega, 
 G. Zheng, W. Liang, M. Hada, M. Ehara, K. Toyota, R. Fukuda, 
 J. Hasegawa, M. Ishida, T. Nakajima, Y. Honda, O. Kitao, H. Nakai, 
 T. Vreven, K. Throssell, J. A. Montgomery, Jr., J. E. Peralta, 
 F. Ogliaro, M. J. Bearpark, J. J. Heyd, E. N. Brothers, K. N. Kudin, 
 V. N. Staroverov, T. A. Keith, R. Kobayashi, J. Normand, 
 K. Raghavachari, A. P. Rendell, J. C. Burant, S. S. Iyengar, 
 J. Tomasi, M. Cossi, J. M. Millam, M. Klene, C. Adamo, R. Cammi, 
 J. W. Ochterski, R. L. Martin, K. Morokuma, O. Farkas, 
 J. B. Foresman, and D. J. Fox, Gaussian, Inc., Wallingford CT, 2016.
 
 ******************************************
 Gaussian 16:  ES64L-G16RevB.01 20-Dec-2017
                21-Feb-2022 
 ******************************************
 %nproc=28
 Will use up to   28 processors via shared memory.
 %mem=120GB
 %chk=hoono_a1_100p0870.chk
 ---------------------------------------
 #p freq mp2/aug-cc-pvtz density=current
 ---------------------------------------
 1/10=4,30=1,38=1/1,3;
 2/12=2,17=6,18=5,40=1/2;
 3/5=16,6=1,7=10,11=9,25=1,30=1,71=2,140=1/1,2,3;
 4//1;
 5/5=2,38=5,98=1/2;
 8/6=3,8=1,10=1,19=11,30=-1/1;
 9/15=3,16=-3/6;
 11/6=1,8=1,15=11,17=12,24=-1,27=1,28=-2,29=300,32=6,42=3/1,2,10;
 10/6=2,21=1/2;
 8/6=4,8=1,10=1,19=11,30=-1/11,4;
 10/5=1,20=4/2;
 11/12=2,14=11,16=1,17=2,28=-2,42=3,76=2/2,10,12;
 6/7=2,8=2,9=2,10=2,22=-1/1;
 7/8=1,10=1,12=2,25=1,44=2/1,2,3,16;
 1/10=4,30=1/3;
 99//99;
 Leave Link    1 at Mon Feb 21 20:34:08 2022, MaxMem= 16106127360 cpu:               2.2 elap:               0.1
 (Enter /sw/contrib/gaussian/g16/B01/g16/l101.exe)
 -----
 title
 -----
 Symbolic Z-matrix:
 Charge =  0 Multiplicity = 1
 H
 O                    1    r1
 O                    2    r2       1    a1
 N                    3    r3       2    a2       1    d1       0
 O                    4    r4       3    a3       2    d2       0
       Variables:
  r1                    0.96898                  
  r2                    1.45492                  
  r3                    1.45878                  
  r4                    1.17073                  
  a1                  100.08707                  
  a2                  102.29752                  
  a3                  109.06955                  
  d1                  180.                       
  d2                  180.                       
 
 ITRead=  0  0  0  0  0
 MicOpt= -1 -1 -1 -1 -1
 NAtoms=      5 NQM=        5 NQMF=       0 NMMI=      0 NMMIF=      0
                NMic=       0 NMicF=      0.
                    Isotopes and Nuclear Properties:
 (Nuclear quadrupole moments (NQMom) in fm**2, nuclear magnetic moments (NMagM)
  in nuclear magnetons)

  Atom         1           2           3           4           5
 IAtWgt=           1          16          16          14          16
 AtmWgt=   1.0078250  15.9949146  15.9949146  14.0030740  15.9949146
 NucSpn=           1           0           0           2           0
 AtZEff=  -0.0000000  -0.0000000  -0.0000000  -0.0000000  -0.0000000
 NQMom=    0.0000000   0.0000000   0.0000000   2.0440000   0.0000000
 NMagM=    2.7928460   0.0000000   0.0000000   0.4037610   0.0000000
 AtZNuc=   1.0000000   8.0000000   8.0000000   7.0000000   8.0000000
 Leave Link  101 at Mon Feb 21 20:34:09 2022, MaxMem= 16106127360 cpu:               3.2 elap:               0.2
 (Enter /sw/contrib/gaussian/g16/B01/g16/l103.exe)

 GradGradGradGradGradGradGradGradGradGradGradGradGradGradGradGradGradGrad
 Berny optimization.
 Initialization pass.
                       ----------------------------
                       !    Initial Parameters    !
                       ! (Angstroms and Degrees)  !
 ----------------------                            ----------------------
 !      Name          Value   Derivative information (Atomic Units)     !
 ------------------------------------------------------------------------
 !       r1          0.969    calculate D2E/DX2 analytically            !
 !       r2          1.4549   calculate D2E/DX2 analytically            !
 !       r3          1.4588   calculate D2E/DX2 analytically            !
 !       r4          1.1707   calculate D2E/DX2 analytically            !
 !       a1        100.0871   calculate D2E/DX2 analytically            !
 !       a2        102.2975   calculate D2E/DX2 analytically            !
 !       a3        109.0696   calculate D2E/DX2 analytically            !
 !       d1        180.0      calculate D2E/DX2 analytically            !
 !       d2        180.0      calculate D2E/DX2 analytically            !
 ------------------------------------------------------------------------
 Trust Radius=3.00D-01 FncErr=1.00D-07 GrdErr=1.00D-07 EigMax=2.50D+02 EigMin=1.00D-04
 Number of steps in this run=      2 maximum allowed number of steps=      2.
 GradGradGradGradGradGradGradGradGradGradGradGradGradGradGradGradGradGrad

 Leave Link  103 at Mon Feb 21 20:34:09 2022, MaxMem= 16106127360 cpu:               1.3 elap:               0.1
 (Enter /sw/contrib/gaussian/g16/B01/g16/l202.exe)
                          Input orientation:                          
 ---------------------------------------------------------------------
 Center     Atomic      Atomic             Coordinates (Angstroms)
 Number     Number       Type             X           Y           Z
 ---------------------------------------------------------------------
      1          1           0        0.000000    0.000000    0.000000
      2          8           0        0.000000    0.000000    0.968976
      3          8           0        1.432430    0.000000    1.223797
      4          7           0        1.488696    0.000000    2.681495
      5          8           0        2.609108    0.000000    3.021029
 ---------------------------------------------------------------------
                    Distance matrix (angstroms):
                    1          2          3          4          5
     1  H    0.000000
     2  O    0.968976   0.000000
     3  O    1.884021   1.454919   0.000000
     4  N    3.067023   2.269127   1.458784   0.000000
     5  O    3.991749   3.319392   2.148165   1.170729   0.000000
 Stoichiometry    HNO3
 Framework group  CS[SG(HNO3)]
 Deg. of freedom     7
 Full point group                 CS      NOp   2
 Largest Abelian subgroup         CS      NOp   2
 Largest concise Abelian subgroup C1      NOp   1
                         Standard orientation:                         
 ---------------------------------------------------------------------
 Center     Atomic      Atomic             Coordinates (Angstroms)
 Number     Number       Type             X           Y           Z
 ---------------------------------------------------------------------
      1          1           0        1.592909    1.679238    0.000000
      2          8           0        1.454157    0.720248    0.000000
      3          8           0        0.000000    0.673168    0.000000
      4          7           0       -0.264419   -0.761452   -0.000000
      5          8           0       -1.421904   -0.937050   -0.000000
 ---------------------------------------------------------------------
 Rotational constants (GHZ):          55.1114267           5.0040273           4.5874906
 Leave Link  202 at Mon Feb 21 20:34:09 2022, MaxMem= 16106127360 cpu:               0.3 elap:               0.0
 (Enter /sw/contrib/gaussian/g16/B01/g16/l301.exe)
 Standard basis: Aug-CC-pVTZ (5D, 7F)
 Ernie: Thresh=  0.10000D-02 Tol=  0.10000D-05 Strict=F.
 Ernie:  12 primitive shells out of 131 were deleted.
 There are   166 symmetry adapted cartesian basis functions of A'  symmetry.
 There are    79 symmetry adapted cartesian basis functions of A"  symmetry.
 There are   136 symmetry adapted basis functions of A'  symmetry.
 There are    71 symmetry adapted basis functions of A"  symmetry.
   207 basis functions,   315 primitive gaussians,   245 cartesian basis functions
    16 alpha electrons       16 beta electrons
       nuclear repulsion energy       116.8167854863 Hartrees.
 IExCor=    0 DFT=F Ex=HF Corr=None ExCW=0 ScaHFX=  1.000000
 ScaDFX=  1.000000  1.000000  1.000000  1.000000 ScalE2=  1.000000  1.000000
 IRadAn=      5 IRanWt=     -1 IRanGd=            0 ICorTp=0 IEmpDi=  4
 NAtoms=    5 NActive=    5 NUniq=    5 SFac= 1.00D+00 NAtFMM=   60 NAOKFM=F Big=F
 Integral buffers will be    131072 words long.
 Raffenetti 1 integral format.
 Two-electron integral symmetry is turned on.
 Leave Link  301 at Mon Feb 21 20:34:09 2022, MaxMem= 16106127360 cpu:               2.2 elap:               0.1
 (Enter /sw/contrib/gaussian/g16/B01/g16/l302.exe)
 NPDir=0 NMtPBC=     1 NCelOv=     1 NCel=       1 NClECP=     1 NCelD=      1
         NCelK=      1 NCelE2=     1 NClLst=     1 CellRange=     0.0.
 One-electron integrals computed using PRISM.
 One-electron integral symmetry used in STVInt
 NBasis=   207 RedAO= T EigKep=  1.82D-04  NBF=   136    71
 NBsUse=   207 1.00D-06 EigRej= -1.00D+00 NBFU=   136    71
 Leave Link  302 at Mon Feb 21 20:34:09 2022, MaxMem= 16106127360 cpu:               4.5 elap:               0.2
 (Enter /sw/contrib/gaussian/g16/B01/g16/l303.exe)
 DipDrv:  MaxL=1.
 Leave Link  303 at Mon Feb 21 20:34:09 2022, MaxMem= 16106127360 cpu:               0.8 elap:               0.1
 (Enter /sw/contrib/gaussian/g16/B01/g16/l401.exe)
 ExpMin= 2.53D-02 ExpMax= 1.53D+04 ExpMxC= 5.22D+02 IAcc=3 IRadAn=         5 AccDes= 0.00D+00
 Harris functional with IExCor=  205 and IRadAn=       5 diagonalized for initial guess.
 HarFok:  IExCor=  205 AccDes= 0.00D+00 IRadAn=         5 IDoV= 1 UseB2=F ITyADJ=14
 ICtDFT=  3500011 ScaDFX=  1.000000  1.000000  1.000000  1.000000
 FoFCou: FMM=F IPFlag=           0 FMFlag=      100000 FMFlg1=           0
         NFxFlg=           0 DoJE=T BraDBF=F KetDBF=T FulRan=T
         wScrn=  0.000000 ICntrl=       500 IOpCl=  0 I1Cent=   200000004 NGrid=           0
         NMat0=    1 NMatS0=      1 NMatT0=    0 NMatD0=    1 NMtDS0=    0 NMtDT0=    0
 Petite list used in FoFCou.
 Harris En= -279.629065698657    
 JPrj=0 DoOrth=F DoCkMO=F.
 Initial guess orbital symmetries:
       Occupied  (A') (A') (A') (A') (A') (A') (A') (A') (A') (A')
                 (A") (A') (A') (A") (A") (A')
       Virtual   (A") (A') (A') (A') (A') (A') (A") (A') (A') (A')
                 (A") (A') (A") (A') (A') (A") (A') (A') (A") (A')
                 (A') (A') (A') (A') (A') (A") (A') (A") (A') (A')
                 (A") (A') (A") (A') (A') (A") (A') (A") (A') (A')
                 (A') (A") (A") (A') (A") (A') (A') (A') (A") (A")
                 (A') (A') (A') (A') (A") (A') (A") (A') (A") (A')
                 (A') (A') (A") (A') (A') (A") (A') (A") (A') (A')
                 (A") (A') (A') (A") (A") (A') (A') (A") (A') (A')
                 (A') (A") (A') (A") (A') (A") (A') (A") (A') (A')
                 (A') (A") (A') (A") (A') (A") (A") (A') (A') (A")
                 (A') (A') (A") (A') (A') (A') (A') (A") (A") (A')
                 (A") (A') (A') (A') (A") (A') (A') (A') (A") (A')
                 (A") (A') (A') (A") (A") (A') (A') (A") (A") (A')
                 (A') (A') (A') (A") (A") (A') (A") (A') (A') (A')
                 (A') (A") (A") (A') (A') (A") (A') (A') (A') (A')
                 (A") (A') (A') (A") (A') (A") (A') (A") (A') (A")
                 (A') (A") (A') (A") (A') (A") (A") (A") (A') (A')
                 (A") (A') (A") (A') (A') (A") (A") (A") (A') (A')
                 (A') (A') (A') (A') (A') (A') (A') (A') (A') (A')
                 (A')
 The electronic state of the initial guess is 1-A'.
 Leave Link  401 at Mon Feb 21 20:34:10 2022, MaxMem= 16106127360 cpu:               8.1 elap:               0.4
 (Enter /sw/contrib/gaussian/g16/B01/g16/l502.exe)
 Keep R1 ints in memory in symmetry-blocked form, NReq=348887737.
 FoFCou: FMM=F IPFlag=           0 FMFlag=           0 FMFlg1=           0
         NFxFlg=           0 DoJE=F BraDBF=F KetDBF=F FulRan=T
         wScrn=  0.000000 ICntrl=       600 IOpCl=  0 I1Cent=           0 NGrid=           0
         NMat0=    1 NMatS0=  21528 NMatT0=    0 NMatD0=    1 NMtDS0=    0 NMtDT0=    0
 Petite list used in FoFCou.
 Closed shell SCF:
 Using DIIS extrapolation, IDIIS=  1040.
 NGot= 16106127360 LenX= 15988850015 LenY= 15988789549
 Requested convergence on RMS density matrix=1.00D-08 within 128 cycles.
 Requested convergence on MAX density matrix=1.00D-06.
 Requested convergence on             energy=1.00D-06.
 No special actions if energy rises.

 Cycle   1  Pass 1  IDiag  1:
 E= -279.370492119098    
 DIIS: error= 2.50D-02 at cycle   1 NSaved=   1.
 NSaved= 1 IEnMin= 1 EnMin= -279.370492119098     IErMin= 1 ErrMin= 2.50D-02
 ErrMax= 2.50D-02  0.00D+00 EMaxC= 1.00D-01 BMatC= 4.39D-01 BMatP= 4.39D-01
 IDIUse=3 WtCom= 7.50D-01 WtEn= 2.50D-01
 Coeff-Com:  0.100D+01
 Coeff-En:   0.100D+01
 Coeff:      0.100D+01
 Gap=     0.513 Goal=   None    Shift=    0.000
 GapD=    0.513 DampG=2.000 DampE=0.500 DampFc=1.0000 IDamp=-1.
 RMSDP=1.62D-03 MaxDP=9.89D-02              OVMax= 1.13D-01

 Cycle   2  Pass 1  IDiag  1:
 E= -279.452552584992     Delta-E=       -0.082060465894 Rises=F Damp=F
 DIIS: error= 1.79D-02 at cycle   2 NSaved=   2.
 NSaved= 2 IEnMin= 2 EnMin= -279.452552584992     IErMin= 2 ErrMin= 1.79D-02
 ErrMax= 1.79D-02  0.00D+00 EMaxC= 1.00D-01 BMatC= 7.18D-02 BMatP= 4.39D-01
 IDIUse=3 WtCom= 8.21D-01 WtEn= 1.79D-01
 Coeff-Com:  0.195D+00 0.805D+00
 Coeff-En:   0.000D+00 0.100D+01
 Coeff:      0.160D+00 0.840D+00
 Gap=     0.529 Goal=   None    Shift=    0.000
 RMSDP=9.00D-04 MaxDP=3.73D-02 DE=-8.21D-02 OVMax= 6.95D-02

 Cycle   3  Pass 1  IDiag  1:
 E= -279.481671959165     Delta-E=       -0.029119374173 Rises=F Damp=F
 DIIS: error= 1.04D-02 at cycle   3 NSaved=   3.
 NSaved= 3 IEnMin= 3 EnMin= -279.481671959165     IErMin= 3 ErrMin= 1.04D-02
 ErrMax= 1.04D-02  0.00D+00 EMaxC= 1.00D-01 BMatC= 2.87D-02 BMatP= 7.18D-02
 IDIUse=3 WtCom= 8.96D-01 WtEn= 1.04D-01
 Coeff-Com: -0.330D-01 0.378D+00 0.655D+00
 Coeff-En:   0.000D+00 0.240D+00 0.760D+00
 Coeff:     -0.295D-01 0.364D+00 0.666D+00
 Gap=     0.510 Goal=   None    Shift=    0.000
 RMSDP=3.76D-04 MaxDP=1.54D-02 DE=-2.91D-02 OVMax= 3.81D-02

 Cycle   4  Pass 1  IDiag  1:
 E= -279.500717028066     Delta-E=       -0.019045068901 Rises=F Damp=F
 DIIS: error= 1.30D-03 at cycle   4 NSaved=   4.
 NSaved= 4 IEnMin= 4 EnMin= -279.500717028066     IErMin= 4 ErrMin= 1.30D-03
 ErrMax= 1.30D-03  0.00D+00 EMaxC= 1.00D-01 BMatC= 4.94D-04 BMatP= 2.87D-02
 IDIUse=3 WtCom= 9.87D-01 WtEn= 1.30D-02
 Coeff-Com: -0.117D-01 0.577D-01 0.159D+00 0.795D+00
 Coeff-En:   0.000D+00 0.000D+00 0.000D+00 0.100D+01
 Coeff:     -0.115D-01 0.570D-01 0.157D+00 0.798D+00
 Gap=     0.502 Goal=   None    Shift=    0.000
 RMSDP=9.00D-05 MaxDP=2.76D-03 DE=-1.90D-02 OVMax= 1.11D-02

 Cycle   5  Pass 1  IDiag  1:
 E= -279.501392404097     Delta-E=       -0.000675376031 Rises=F Damp=F
 DIIS: error= 7.57D-04 at cycle   5 NSaved=   5.
 NSaved= 5 IEnMin= 5 EnMin= -279.501392404097     IErMin= 5 ErrMin= 7.57D-04
 ErrMax= 7.57D-04  0.00D+00 EMaxC= 1.00D-01 BMatC= 8.69D-05 BMatP= 4.94D-04
 IDIUse=3 WtCom= 9.92D-01 WtEn= 7.57D-03
 Coeff-Com:  0.611D-02-0.723D-01-0.118D+00 0.191D-01 0.116D+01
 Coeff-En:   0.000D+00 0.000D+00 0.000D+00 0.000D+00 0.100D+01
 Coeff:      0.607D-02-0.718D-01-0.117D+00 0.190D-01 0.116D+01
 Gap=     0.502 Goal=   None    Shift=    0.000
 RMSDP=7.62D-05 MaxDP=2.11D-03 DE=-6.75D-04 OVMax= 1.11D-02

 Cycle   6  Pass 1  IDiag  1:
 E= -279.501707423832     Delta-E=       -0.000315019735 Rises=F Damp=F
 DIIS: error= 2.73D-04 at cycle   6 NSaved=   6.
 NSaved= 6 IEnMin= 6 EnMin= -279.501707423832     IErMin= 6 ErrMin= 2.73D-04
 ErrMax= 2.73D-04  0.00D+00 EMaxC= 1.00D-01 BMatC= 1.66D-05 BMatP= 8.69D-05
 IDIUse=3 WtCom= 9.97D-01 WtEn= 2.73D-03
 Coeff-Com:  0.535D-03 0.241D-02 0.583D-02-0.131D+00-0.243D+00 0.137D+01
 Coeff-En:   0.000D+00 0.000D+00 0.000D+00 0.000D+00 0.000D+00 0.100D+01
 Coeff:      0.533D-03 0.241D-02 0.582D-02-0.130D+00-0.243D+00 0.136D+01
 Gap=     0.502 Goal=   None    Shift=    0.000
 RMSDP=4.55D-05 MaxDP=1.25D-03 DE=-3.15D-04 OVMax= 5.58D-03

 Cycle   7  Pass 1  IDiag  1:
 E= -279.501780445632     Delta-E=       -0.000073021801 Rises=F Damp=F
 DIIS: error= 1.18D-04 at cycle   7 NSaved=   7.
 NSaved= 7 IEnMin= 7 EnMin= -279.501780445632     IErMin= 7 ErrMin= 1.18D-04
 ErrMax= 1.18D-04  0.00D+00 EMaxC= 1.00D-01 BMatC= 4.28D-06 BMatP= 1.66D-05
 IDIUse=3 WtCom= 9.99D-01 WtEn= 1.18D-03
 Coeff-Com: -0.936D-03 0.134D-01 0.262D-01-0.216D-01-0.281D+00 0.365D+00
 Coeff-Com:  0.899D+00
 Coeff-En:   0.000D+00 0.000D+00 0.000D+00 0.000D+00 0.000D+00 0.000D+00
 Coeff-En:   0.100D+01
 Coeff:     -0.935D-03 0.134D-01 0.262D-01-0.216D-01-0.280D+00 0.364D+00
 Coeff:      0.899D+00
 Gap=     0.502 Goal=   None    Shift=    0.000
 RMSDP=1.32D-05 MaxDP=3.78D-04 DE=-7.30D-05 OVMax= 1.54D-03

 Cycle   8  Pass 1  IDiag  1:
 E= -279.501789099655     Delta-E=       -0.000008654022 Rises=F Damp=F
 DIIS: error= 5.81D-05 at cycle   8 NSaved=   8.
 NSaved= 8 IEnMin= 8 EnMin= -279.501789099655     IErMin= 8 ErrMin= 5.81D-05
 ErrMax= 5.81D-05  0.00D+00 EMaxC= 1.00D-01 BMatC= 6.07D-07 BMatP= 4.28D-06
 IDIUse=1 WtCom= 1.00D+00 WtEn= 0.00D+00
 Coeff-Com: -0.446D-03 0.342D-02 0.756D-02 0.273D-01-0.402D-01-0.200D+00
 Coeff-Com:  0.196D+00 0.101D+01
 Coeff:     -0.446D-03 0.342D-02 0.756D-02 0.273D-01-0.402D-01-0.200D+00
 Coeff:      0.196D+00 0.101D+01
 Gap=     0.502 Goal=   None    Shift=    0.000
 RMSDP=6.74D-06 MaxDP=2.00D-04 DE=-8.65D-06 OVMax= 7.32D-04

 Cycle   9  Pass 1  IDiag  1:
 E= -279.501790822953     Delta-E=       -0.000001723298 Rises=F Damp=F
 DIIS: error= 1.64D-05 at cycle   9 NSaved=   9.
 NSaved= 9 IEnMin= 9 EnMin= -279.501790822953     IErMin= 9 ErrMin= 1.64D-05
 ErrMax= 1.64D-05  0.00D+00 EMaxC= 1.00D-01 BMatC= 7.03D-08 BMatP= 6.07D-07
 IDIUse=1 WtCom= 1.00D+00 WtEn= 0.00D+00
 Coeff-Com:  0.123D-03-0.172D-02-0.308D-02-0.210D-02 0.341D-01 0.430D-03
 Coeff-Com: -0.175D+00-0.909D-01 0.124D+01
 Coeff:      0.123D-03-0.172D-02-0.308D-02-0.210D-02 0.341D-01 0.430D-03
 Coeff:     -0.175D+00-0.909D-01 0.124D+01
 Gap=     0.502 Goal=   None    Shift=    0.000
 RMSDP=1.94D-06 MaxDP=6.65D-05 DE=-1.72D-06 OVMax= 1.75D-04

 Cycle  10  Pass 1  IDiag  1:
 E= -279.501790983555     Delta-E=       -0.000000160602 Rises=F Damp=F
 DIIS: error= 4.23D-06 at cycle  10 NSaved=  10.
 NSaved=10 IEnMin=10 EnMin= -279.501790983555     IErMin=10 ErrMin= 4.23D-06
 ErrMax= 4.23D-06  0.00D+00 EMaxC= 1.00D-01 BMatC= 5.52D-09 BMatP= 7.03D-08
 IDIUse=1 WtCom= 1.00D+00 WtEn= 0.00D+00
 Coeff-Com:  0.312D-04-0.244D-03-0.328D-03-0.270D-02 0.163D-02 0.198D-01
 Coeff-Com: -0.149D-01-0.728D-01-0.792D-01 0.115D+01
 Coeff:      0.312D-04-0.244D-03-0.328D-03-0.270D-02 0.163D-02 0.198D-01
 Coeff:     -0.149D-01-0.728D-01-0.792D-01 0.115D+01
 Gap=     0.502 Goal=   None    Shift=    0.000
 RMSDP=5.04D-07 MaxDP=2.10D-05 DE=-1.61D-07 OVMax= 4.15D-05

 Cycle  11  Pass 1  IDiag  1:
 E= -279.501790996025     Delta-E=       -0.000000012470 Rises=F Damp=F
 DIIS: error= 2.01D-06 at cycle  11 NSaved=  11.
 NSaved=11 IEnMin=11 EnMin= -279.501790996025     IErMin=11 ErrMin= 2.01D-06
 ErrMax= 2.01D-06  0.00D+00 EMaxC= 1.00D-01 BMatC= 6.57D-10 BMatP= 5.52D-09
 IDIUse=1 WtCom= 1.00D+00 WtEn= 0.00D+00
 Coeff-Com: -0.212D-04 0.243D-03 0.486D-03 0.537D-03-0.425D-02-0.368D-02
 Coeff-Com:  0.224D-01 0.292D-01-0.138D+00-0.177D+00 0.127D+01
 Coeff:     -0.212D-04 0.243D-03 0.486D-03 0.537D-03-0.425D-02-0.368D-02
 Coeff:      0.224D-01 0.292D-01-0.138D+00-0.177D+00 0.127D+01
 Gap=     0.502 Goal=   None    Shift=    0.000
 RMSDP=1.77D-07 MaxDP=6.47D-06 DE=-1.25D-08 OVMax= 1.74D-05

 Cycle  12  Pass 1  IDiag  1:
 E= -279.501790997824     Delta-E=       -0.000000001799 Rises=F Damp=F
 DIIS: error= 5.85D-07 at cycle  12 NSaved=  12.
 NSaved=12 IEnMin=12 EnMin= -279.501790997824     IErMin=12 ErrMin= 5.85D-07
 ErrMax= 5.85D-07  0.00D+00 EMaxC= 1.00D-01 BMatC= 7.19D-11 BMatP= 6.57D-10
 IDIUse=1 WtCom= 1.00D+00 WtEn= 0.00D+00
 Coeff-Com:  0.122D-05-0.289D-04-0.626D-04 0.180D-03 0.108D-02-0.232D-02
 Coeff-Com: -0.413D-02 0.568D-02 0.415D-01-0.114D+00-0.281D+00 0.135D+01
 Coeff:      0.122D-05-0.289D-04-0.626D-04 0.180D-03 0.108D-02-0.232D-02
 Coeff:     -0.413D-02 0.568D-02 0.415D-01-0.114D+00-0.281D+00 0.135D+01
 Gap=     0.502 Goal=   None    Shift=    0.000
 RMSDP=7.18D-08 MaxDP=2.81D-06 DE=-1.80D-09 OVMax= 6.75D-06

 Cycle  13  Pass 1  IDiag  1:
 E= -279.501790998055     Delta-E=       -0.000000000231 Rises=F Damp=F
 DIIS: error= 1.72D-07 at cycle  13 NSaved=  13.
 NSaved=13 IEnMin=13 EnMin= -279.501790998055     IErMin=13 ErrMin= 1.72D-07
 ErrMax= 1.72D-07  0.00D+00 EMaxC= 1.00D-01 BMatC= 4.05D-12 BMatP= 7.19D-11
 IDIUse=1 WtCom= 1.00D+00 WtEn= 0.00D+00
 Coeff-Com:  0.129D-05-0.140D-04-0.227D-04-0.899D-04 0.123D-03 0.775D-03
 Coeff-Com: -0.955D-03-0.318D-02 0.639D-03 0.412D-01-0.361D-01-0.326D+00
 Coeff-Com:  0.132D+01
 Coeff:      0.129D-05-0.140D-04-0.227D-04-0.899D-04 0.123D-03 0.775D-03
 Coeff:     -0.955D-03-0.318D-02 0.639D-03 0.412D-01-0.361D-01-0.326D+00
 Coeff:      0.132D+01
 Gap=     0.502 Goal=   None    Shift=    0.000
 RMSDP=1.92D-08 MaxDP=5.63D-07 DE=-2.31D-10 OVMax= 1.57D-06

 Cycle  14  Pass 1  IDiag  1:
 E= -279.501790998067     Delta-E=       -0.000000000012 Rises=F Damp=F
 DIIS: error= 2.45D-08 at cycle  14 NSaved=  14.
 NSaved=14 IEnMin=14 EnMin= -279.501790998067     IErMin=14 ErrMin= 2.45D-08
 ErrMax= 2.45D-08  0.00D+00 EMaxC= 1.00D-01 BMatC= 1.99D-13 BMatP= 4.05D-12
 IDIUse=1 WtCom= 1.00D+00 WtEn= 0.00D+00
 Coeff-Com: -0.192D-06 0.313D-05 0.561D-05 0.461D-05-0.826D-04 0.445D-04
 Coeff-Com:  0.296D-03 0.211D-03-0.246D-02 0.145D-02 0.171D-01-0.255D-01
 Coeff-Com: -0.202D+00 0.121D+01
 Coeff:     -0.192D-06 0.313D-05 0.561D-05 0.461D-05-0.826D-04 0.445D-04
 Coeff:      0.296D-03 0.211D-03-0.246D-02 0.145D-02 0.171D-01-0.255D-01
 Coeff:     -0.202D+00 0.121D+01
 Gap=     0.502 Goal=   None    Shift=    0.000
 RMSDP=3.82D-09 MaxDP=9.13D-08 DE=-1.19D-11 OVMax= 3.45D-07

 SCF Done:  E(RHF) =  -279.501790998     A.U. after   14 cycles
            NFock= 14  Conv=0.38D-08     -V/T= 2.0024
 KE= 2.788365428107D+02 PE=-8.949601073014D+02 EE= 2.198049880064D+02
 Leave Link  502 at Mon Feb 21 20:34:13 2022, MaxMem= 16106127360 cpu:              62.0 elap:               3.9
 (Enter /sw/contrib/gaussian/g16/B01/g16/l801.exe)
 ExpMin= 2.53D-02 ExpMax= 1.53D+04 ExpMxC= 5.22D+02 IAcc=3 IRadAn=         5 AccDes= 0.00D+00
 HarFok:  IExCor=  205 AccDes= 0.00D+00 IRadAn=         5 IDoV=-2 UseB2=F ITyADJ=14
 ICtDFT= 12500011 ScaDFX=  1.000000  1.000000  1.000000  1.000000
 Largest valence mixing into a core orbital is  2.08D-04
 Largest core mixing into a valence orbital is  3.63D-05
 Range of M.O.s used for correlation:     5   207
 NBasis=   207 NAE=    16 NBE=    16 NFC=     4 NFV=     0
 NROrb=    203 NOA=    12 NOB=    12 NVA=   191 NVB=   191

 **** Warning!!: The largest alpha MO coefficient is  0.18161235D+02

 Leave Link  801 at Mon Feb 21 20:34:14 2022, MaxMem= 16106127360 cpu:               2.9 elap:               0.2
 (Enter /sw/contrib/gaussian/g16/B01/g16/l906.exe)
 Frozen-core derivative calculation, NFC=   4 NFV=   0.
 FulOut=F Deriv=T AODrv=T NAtomX=     5
   MMem=           0  MDisk=          12 MDiskD=          12
  W3Min=      811440 MinDsk=     2425030 NBas6D=         245
 NBas2D=       30762    NTT=       30135    LW2=     7400000
    MDV= 16105574283 MDiskM=      328644 NBas2p=       30702
 Disk-based method using ON**2 memory for 12 occupieds at a time.
 Permanent disk used for amplitudes=    11516536 words.
 Estimated scratch disk usage=   321251614 words.
 IMap=   1   2   3   4   5   6   7   8   9  10  11  12  13  14  15  16
 Actual    scratch disk usage=   310331678 words.
 JobTyp=1 Pass  1:  I=   5 to  16 NPSUse= 28 ParTrn=T ParDer=T DoDerP=T.
 (rs|ai) integrals will be sorted in core.
 Spin components of T(2) and E(2):
     alpha-alpha T2 =       0.3400387253D-01 E2=     -0.1223497417D+00
     alpha-beta  T2 =       0.1867573676D+00 E2=     -0.7000361950D+00
     beta-beta   T2 =       0.3400387253D-01 E2=     -0.1223497417D+00
 The integrals were generated   1 times.
 ANorm=    0.1120162985D+01
 E2 =    -0.9447356784D+00 EUMP2 =    -0.28044652667650D+03
 Leave Link  906 at Mon Feb 21 20:35:50 2022, MaxMem= 16106127360 cpu:            2698.1 elap:              96.5
 (Enter /sw/contrib/gaussian/g16/B01/g16/l1101.exe)
 Using compressed Sx but separate Hx and Fx, NAtomX=     5.
 Will process      6 centers per pass.
 Leave Link 1101 at Mon Feb 21 20:35:50 2022, MaxMem= 16106127360 cpu:               5.2 elap:               0.2
 (Enter /sw/contrib/gaussian/g16/B01/g16/l1102.exe)
 Leave Link 1102 at Mon Feb 21 20:35:50 2022, MaxMem= 16106127360 cpu:               0.5 elap:               0.0
 (Enter /sw/contrib/gaussian/g16/B01/g16/l1110.exe)
 Forming Gx(P) for the SCF density, NAtomX=     5.
 Integral derivatives from FoFJK, PRISM(SPDF).
 Do as many integral derivatives as possible in FoFJK.
 G2DrvN: MDV=   16106126844.
 G2DrvN: will do     6 centers at a time, making    1 passes.
 Calling FoFCou, ICntrl=  3107 FMM=F I1Cent=   0 AccDes= 0.00D+00.
 FoFJK:  IHMeth= 1 ICntrl=    3107 DoSepK=F KAlg= 0 I1Cent=           0 FoldK=F
 IRaf=         0 NMat=       1 IRICut=       1 DoRegI=T DoRafI=F ISym2E= 1 IDoP0=0 IntGTp=1.
 FoFCou: FMM=F IPFlag=           0 FMFlag=      100000 FMFlg1=           0
         NFxFlg=           0 DoJE=F BraDBF=F KetDBF=F FulRan=T
         wScrn=  0.000000 ICntrl=      3107 IOpCl=  0 I1Cent=           0 NGrid=           0
         NMat0=    1 NMatS0=      1 NMatT0=    0 NMatD0=    1 NMtDS0=    0 NMtDT0=    0
 Petite list used in FoFCou.
 End of G2Drv F.D. properties file   721 does not exist.
 End of G2Drv F.D. properties file   722 does not exist.
 End of G2Drv F.D. properties file   788 does not exist.
 Leave Link 1110 at Mon Feb 21 20:35:53 2022, MaxMem= 16106127360 cpu:              84.1 elap:               3.0
 (Enter /sw/contrib/gaussian/g16/B01/g16/l1002.exe)
 Minotr:  Closed shell wavefunction.
          IDoAtm=11111
          Frozen-core window.
          Direct CPHF calculation.
          Differentiating once with respect to electric field.
                with respect to dipole field.
          Differentiating once with respect to nuclear coordinates.
          Requested convergence is 1.0D-08 RMS, and 1.0D-07 maximum.
          Secondary convergence is 1.0D-12 RMS, and 1.0D-12 maximum.
          NewPWx=T KeepS1=T KeepF1=T KeepIn=T MapXYZ=F SortEE=F KeepMc=T.
 Keep R1 ints in memory in symmetry-blocked form, NReq=348888983.
 FoFCou: FMM=F IPFlag=           0 FMFlag=           0 FMFlg1=           0
         NFxFlg=           0 DoJE=F BraDBF=F KetDBF=F FulRan=T
         wScrn=  0.000000 ICntrl=       600 IOpCl=  0 I1Cent=           0 NGrid=           0
         NMat0=    1 NMatS0=  21528 NMatT0=    0 NMatD0=    1 NMtDS0=    0 NMtDT0=    0
 Petite list used in FoFCou.
          MDV=   16106127360 using IRadAn=       1.
          Solving linear equations simultaneously, MaxMat=       0.
          There are    18 degrees of freedom in the 1st order CPHF.  IDoFFX=6 NUNeed=    18.
     15 vectors produced by pass  0 Test12= 1.70D-14 5.56D-09 XBig12= 8.30D+00 1.05D+00.
 AX will form    15 AO Fock derivatives at one time.
     15 vectors produced by pass  1 Test12= 1.70D-14 5.56D-09 XBig12= 1.34D+00 2.56D-01.
     15 vectors produced by pass  2 Test12= 1.70D-14 5.56D-09 XBig12= 1.42D-01 9.87D-02.
     15 vectors produced by pass  3 Test12= 1.70D-14 5.56D-09 XBig12= 4.96D-03 1.08D-02.
     15 vectors produced by pass  4 Test12= 1.70D-14 5.56D-09 XBig12= 9.76D-05 1.89D-03.
     15 vectors produced by pass  5 Test12= 1.70D-14 5.56D-09 XBig12= 1.36D-06 1.64D-04.
     15 vectors produced by pass  6 Test12= 1.70D-14 5.56D-09 XBig12= 1.08D-08 1.51D-05.
     13 vectors produced by pass  7 Test12= 1.70D-14 5.56D-09 XBig12= 8.04D-11 1.24D-06.
      3 vectors produced by pass  8 Test12= 1.70D-14 5.56D-09 XBig12= 5.71D-13 1.19D-07.
      2 vectors produced by pass  9 Test12= 1.70D-14 5.56D-09 XBig12= 3.72D-15 9.48D-09.
 InvSVY:  IOpt=1 It=  1 EMax= 8.88D-16
 Solved reduced A of dimension   123 with    15 vectors.
 FullF1:  Do perturbations      1 to      18.
 Saving first derivative matrices.
 End of Minotr F.D. properties file   721 does not exist.
 End of Minotr F.D. properties file   722 does not exist.
 End of Minotr F.D. properties file   788 does not exist.
 Leave Link 1002 at Mon Feb 21 20:35:56 2022, MaxMem= 16106127360 cpu:              80.4 elap:               2.9
 (Enter /sw/contrib/gaussian/g16/B01/g16/l811.exe)
 MDV= 16106127360.
 Form MO integral derivatives with frozen-active canonical formalism.
 MOERI=1 MOERIx=1 NAtoms=     5 NAtomX=     5.
 Discarding MO integrals.
 MO basis two electron integral derivatives will not be stored on disk.
 IAlg= 3 DoFC=T DoPWx=T Debug=F.
 Frozen-core window:  NFC=   4 NFV=   0.
 Reordered first order wavefunction length =     18678272
 In DefCFB: NBatch=  1 ICI= 16 ICA=191 LFMax= 96
            Large arrays: LIAPS=   619940160 LIARS=   288257200 words.
 In StABat: MaxSiz= 55 MinSiz= 25 NAtomB=  5
 DoIAMN: NPSUse= 28.
 Leave Link  811 at Mon Feb 21 20:37:19 2022, MaxMem= 16106127360 cpu:            2306.0 elap:              82.5
 (Enter /sw/contrib/gaussian/g16/B01/g16/l804.exe)
 Frozen-core window:  NFC=   4 NFV=   0.
 Closed-shell transformation, MDV= 16106127360 ITran=4 ISComp=1.
 Semi-Direct transformation.
 ModeAB=           2 MOrb=            16 LenV=   16104923065
 LASXX=     67341636 LTotXX=    67341636 LenRXX=    67341636
 LTotAB=    68301760 MaxLAS=    99807120 LenRXY=    99807120
 NonZer=   134683272 LenScr=   202817536 LnRSAI=           0
 LnScr1=           0 LExtra=           0 Total=    369966292
 MaxDsk=          -1 SrtSym=           F ITran=            4
 DoSDTr:  NPSUse= 28
 JobTyp=0 Pass  1:  I=   1 to  16.
 (rs|ai) integrals will be sorted in core.
 Complete sort for first half transformation.
 First half transformation complete.
 Begin second half transformation for I=  10.
 Begin second half transformation for I=  10.
 Complete sort for second half transformation.
 Second half transformation complete.
 Spin components of T(2) and E(2):
     alpha-alpha T2 =       0.3400387253D-01 E2=     -0.1223497417D+00
     alpha-beta  T2 =       0.1867573676D+00 E2=     -0.7000361950D+00
     beta-beta   T2 =       0.3400387253D-01 E2=     -0.1223497417D+00
 ANorm=    0.1584149685D+01
 E2 =    -0.9447356784D+00 EUMP2 =    -0.28044652667650D+03
 Leave Link  804 at Mon Feb 21 20:37:34 2022, MaxMem= 16106127360 cpu:             426.9 elap:              15.3
 (Enter /sw/contrib/gaussian/g16/B01/g16/l1002.exe)
 Minotr:  Closed shell wavefunction.
          Computing MP2/KS-MP2 derivatives.
          Using Z-Vector for PSCF gradient.
          Skipping F1 and S1 gradient terms here.
          IDoAtm=11111
          Frozen-core window.
          Using MO integrals in the linear equations.
          Forming densities via direct SCF.
          Differentiating once with respect to electric field.
                with respect to dipole field.
          Differentiating once with respect to nuclear coordinates.
          Using symmetry in CPHF.
          Requested convergence is 1.0D-10 RMS, and 1.0D-09 maximum.
          NewPWx=F KeepS1=T KeepF1=T KeepIn=T MapXYZ=F SortEE=F KeepMc=T.
          MDV=   16106127360 using IRadAn=       5.
          Solving linear equations separately, MaxMat=       0.
          There are     1 degrees of freedom in the 1st order CPHF.  IDoFFX=0 NUNeed=     1.
 FoFJK:  IHMeth= 1 ICntrl=       0 DoSepK=F KAlg= 0 I1Cent=           0 FoldK=F
 IRaf=         0 NMat=       1 IRICut=       1 DoRegI=T DoRafI=F ISym2E= 0 IDoP0=0 IntGTp=1.
 FoFCou: FMM=F IPFlag=           0 FMFlag=      100000 FMFlg1=           0
         NFxFlg=           0 DoJE=F BraDBF=F KetDBF=F FulRan=T
         wScrn=  0.000000 ICntrl=         0 IOpCl=  0 I1Cent=           0 NGrid=           0
         NMat0=    1 NMatS0=      1 NMatT0=    0 NMatD0=    1 NMtDS0=    0 NMtDT0=    0
 Symmetry not used in FoFCou.
 LinEq1:  Iter=  0 NonCon=     1 RMS=5.96D-03 Max=1.33D-01 NDo=     1
 LinEq1:  Iter=  1 NonCon=     1 RMS=1.91D-03 Max=3.84D-02 NDo=     1
 LinEq1:  Iter=  2 NonCon=     1 RMS=8.68D-04 Max=1.37D-02 NDo=     1
 LinEq1:  Iter=  3 NonCon=     1 RMS=3.88D-04 Max=7.87D-03 NDo=     1
 LinEq1:  Iter=  4 NonCon=     1 RMS=1.20D-04 Max=1.88D-03 NDo=     1
 LinEq1:  Iter=  5 NonCon=     1 RMS=4.63D-05 Max=7.33D-04 NDo=     1
 LinEq1:  Iter=  6 NonCon=     1 RMS=2.06D-05 Max=2.35D-04 NDo=     1
 LinEq1:  Iter=  7 NonCon=     1 RMS=8.21D-06 Max=1.60D-04 NDo=     1
 LinEq1:  Iter=  8 NonCon=     1 RMS=3.49D-06 Max=3.48D-05 NDo=     1
 LinEq1:  Iter=  9 NonCon=     1 RMS=9.45D-07 Max=1.32D-05 NDo=     1
 LinEq1:  Iter= 10 NonCon=     1 RMS=1.86D-07 Max=1.98D-06 NDo=     1
 LinEq1:  Iter= 11 NonCon=     1 RMS=3.44D-08 Max=3.62D-07 NDo=     1
 LinEq1:  Iter= 12 NonCon=     1 RMS=8.29D-09 Max=1.31D-07 NDo=     1
 LinEq1:  Iter= 13 NonCon=     1 RMS=1.51D-09 Max=2.66D-08 NDo=     1
 LinEq1:  Iter= 14 NonCon=     1 RMS=2.73D-10 Max=3.81D-09 NDo=     1
 LinEq1:  Iter= 15 NonCon=     0 RMS=4.89D-11 Max=5.55D-10 NDo=     1
 Linear equations converged to 1.000D-10 1.000D-09 after    15 iterations.
 End of Minotr F.D. properties file   721 does not exist.
 End of Minotr F.D. properties file   722 does not exist.
 End of Minotr F.D. properties file   788 does not exist.
 Leave Link 1002 at Mon Feb 21 20:37:37 2022, MaxMem= 16106127360 cpu:              64.6 elap:               2.4
 (Enter /sw/contrib/gaussian/g16/B01/g16/l1102.exe)
 Use density number 2.
 Symmetrizing basis deriv contribution to polar:
 IMax=3 JMax=2 DiffMx= 0.00D+00
 Leave Link 1102 at Mon Feb 21 20:37:37 2022, MaxMem= 16106127360 cpu:               0.6 elap:               0.0
 (Enter /sw/contrib/gaussian/g16/B01/g16/l1110.exe)
 Forming Gx(P) for generalized density number  2 NAtomX=     5.
 Integral derivatives from FoFJK, PRISM(SPDF).
 Do as many integral derivatives as possible in FoFJK.
 G2DrvN: MDV=   16106126844.
 G2DrvN: will do     6 centers at a time, making    1 passes.
 Calling FoFCou, ICntrl=  3107 FMM=F I1Cent=   0 AccDes= 0.00D+00.
 FoFJK:  IHMeth= 1 ICntrl=    3107 DoSepK=F KAlg= 0 I1Cent=           0 FoldK=F
 IRaf=         0 NMat=       1 IRICut=       1 DoRegI=T DoRafI=F ISym2E= 1 IDoP0=0 IntGTp=1.
 FoFCou: FMM=F IPFlag=           0 FMFlag=      100000 FMFlg1=           0
         NFxFlg=           0 DoJE=F BraDBF=F KetDBF=F FulRan=T
         wScrn=  0.000000 ICntrl=      3107 IOpCl=  0 I1Cent=           0 NGrid=           0
         NMat0=    1 NMatS0=      1 NMatT0=    0 NMatD0=    1 NMtDS0=    0 NMtDT0=    0
 Petite list used in FoFCou.
 End of G2Drv F.D. properties file   721 does not exist.
 End of G2Drv F.D. properties file   722 does not exist.
 End of G2Drv F.D. properties file   788 does not exist.
 Leave Link 1110 at Mon Feb 21 20:37:40 2022, MaxMem= 16106127360 cpu:              83.4 elap:               3.0
 (Enter /sw/contrib/gaussian/g16/B01/g16/l1112.exe)
 MP22nd: MDV=   16106127360
 This link is doing NAtomX=     5 total of    18 degrees of freedom.
 Using ON3 I/O method in MakUI.
 Frozen-core window:  NFC=   4 NFV=   0.
 Using Ix for Sx.
 Use MO integrals over full window.
 Using OV2 memory method for fx*t*t/D, MaxI=    16 DoOO2=F NP=  28.
 R2 and R3 integrals will be kept in memory, NReq=   915591705.
 FoFCou: FMM=F IPFlag=           0 FMFlag=           0 FMFlg1=           0
         NFxFlg=           0 DoJE=F BraDBF=F KetDBF=F FulRan=T
         wScrn=  0.000000 ICntrl=       600 IOpCl=  0 I1Cent=           0 NGrid=           0
         NMat0=    1 NMatS0=      1 NMatT0=    0 NMatD0=    1 NMtDS0=    0 NMtDT0=    0
 Symmetry not used in FoFCou.
 DD1Dir will call FoFMem   1 times, MxPair=       272
 NAB=   136 NAA=     0 NBB=     0.
 Symmetry is being used.
 FoFJK:  IHMeth= 1 ICntrl=       0 DoSepK=F KAlg= 0 I1Cent=           0 FoldK=F
 IRaf=         0 NMat=      18 IRICut=      45 DoRegI=T DoRafI=T ISym2E= 2 IDoP0=3 IntGTp=3.
 Discarding MO integrals.
 Leave Link 1112 at Mon Feb 21 20:38:21 2022, MaxMem= 16106127360 cpu:            1149.8 elap:              41.7
 (Enter /sw/contrib/gaussian/g16/B01/g16/l601.exe)
 Copying SCF densities to generalized density rwf, IOpCl= 0 IROHF=0.

 **********************************************************************

            Population analysis using the MP2 Density.

 **********************************************************************

 Orbital symmetries:
       Occupied  (A') (A') (A') (A') (A') (A') (A') (A') (A') (A')
                 (A") (A') (A") (A') (A") (A')
       Virtual   (A') (A") (A') (A') (A') (A") (A') (A') (A") (A')
                 (A") (A') (A') (A') (A") (A') (A') (A") (A') (A')
                 (A') (A') (A') (A') (A") (A') (A') (A") (A') (A')
                 (A") (A') (A") (A') (A') (A") (A') (A") (A') (A')
                 (A") (A') (A") (A') (A') (A") (A') (A') (A") (A')
                 (A") (A') (A') (A') (A") (A') (A") (A') (A") (A')
                 (A') (A') (A") (A') (A') (A") (A') (A") (A') (A')
                 (A") (A') (A') (A") (A") (A') (A') (A") (A') (A')
                 (A') (A") (A') (A") (A") (A') (A') (A") (A') (A')
                 (A") (A') (A') (A") (A') (A") (A') (A") (A') (A')
                 (A") (A') (A") (A') (A') (A") (A') (A') (A") (A')
                 (A") (A') (A') (A') (A") (A') (A') (A') (A") (A')
                 (A") (A') (A") (A') (A') (A") (A") (A') (A") (A')
                 (A') (A') (A') (A") (A") (A") (A') (A') (A') (A')
                 (A") (A') (A") (A') (A') (A") (A') (A') (A') (A')
                 (A") (A') (A') (A") (A') (A") (A') (A") (A') (A")
                 (A') (A") (A') (A") (A') (A") (A") (A') (A") (A')
                 (A") (A') (A") (A') (A") (A') (A") (A") (A') (A')
                 (A') (A') (A') (A') (A') (A') (A') (A') (A') (A')
                 (A')
 The electronic state is 1-A'.
 Alpha  occ. eigenvalues --  -20.69124 -20.68439 -20.65889 -15.81294  -1.62397
 Alpha  occ. eigenvalues --   -1.49424  -1.25475  -0.94801  -0.77164  -0.76076
 Alpha  occ. eigenvalues --   -0.71156  -0.67996  -0.62001  -0.58702  -0.48491
 Alpha  occ. eigenvalues --   -0.47250
 Alpha virt. eigenvalues --    0.02936   0.07174   0.08595   0.10180   0.13370
 Alpha virt. eigenvalues --    0.13408   0.14412   0.15441   0.17833   0.19442
 Alpha virt. eigenvalues --    0.20002   0.20623   0.22090   0.23538   0.23740
 Alpha virt. eigenvalues --    0.26717   0.29343   0.30426   0.30974   0.34364
 Alpha virt. eigenvalues --    0.34925   0.38713   0.42002   0.43253   0.52691
 Alpha virt. eigenvalues --    0.52912   0.55894   0.58229   0.62569   0.63853
 Alpha virt. eigenvalues --    0.67419   0.68397   0.70618   0.71221   0.71969
 Alpha virt. eigenvalues --    0.73067   0.74517   0.78898   0.78921   0.80897
 Alpha virt. eigenvalues --    0.81346   0.83208   0.86897   0.90702   0.92379
 Alpha virt. eigenvalues --    0.92514   0.95956   0.97837   0.98281   1.01515
 Alpha virt. eigenvalues --    1.05264   1.05537   1.08193   1.11733   1.13776
 Alpha virt. eigenvalues --    1.18879   1.22094   1.23071   1.33821   1.34701
 Alpha virt. eigenvalues --    1.38771   1.45088   1.48887   1.51354   1.53906
 Alpha virt. eigenvalues --    1.56729   1.58001   1.61665   1.66477   1.66936
 Alpha virt. eigenvalues --    1.70367   1.78700   1.83216   1.83301   1.87955
 Alpha virt. eigenvalues --    1.90877   1.95768   1.99001   2.00789   2.07566
 Alpha virt. eigenvalues --    2.11502   2.13195   2.15054   2.22161   2.26541
 Alpha virt. eigenvalues --    2.26723   2.28754   2.31496   2.34700   2.38442
 Alpha virt. eigenvalues --    2.42003   2.42296   2.45519   2.46345   2.47360
 Alpha virt. eigenvalues --    2.50409   2.58854   2.59351   2.61571   2.62963
 Alpha virt. eigenvalues --    2.63364   2.67054   2.75628   2.82012   2.86789
 Alpha virt. eigenvalues --    2.89120   2.89450   2.92054   2.96252   3.02781
 Alpha virt. eigenvalues --    3.06739   3.12361   3.19773   3.23132   3.31975
 Alpha virt. eigenvalues --    3.34029   3.51150   3.65609   3.83994   3.84983
 Alpha virt. eigenvalues --    4.15398   4.15440   4.18417   4.25593   4.36480
 Alpha virt. eigenvalues --    4.38953   4.46564   4.50731   4.66546   4.68379
 Alpha virt. eigenvalues --    4.80694   4.82385   4.83411   4.89599   5.02122
 Alpha virt. eigenvalues --    5.07803   5.10362   5.15016   5.19112   5.23271
 Alpha virt. eigenvalues --    5.27447   5.31208   5.33270   5.35278   5.61155
 Alpha virt. eigenvalues --    5.67378   5.77607   5.81057   5.95681   6.16248
 Alpha virt. eigenvalues --    6.30532   6.34270   6.39834   6.49336   6.50583
 Alpha virt. eigenvalues --    6.61164   6.66681   6.69605   6.75296   6.76621
 Alpha virt. eigenvalues --    6.82984   6.89768   6.99576   7.05777   7.06527
 Alpha virt. eigenvalues --    7.09182   7.12314   7.15899   7.18098   7.22345
 Alpha virt. eigenvalues --    7.24172   7.31178   7.32591   7.34694   7.39822
 Alpha virt. eigenvalues --    7.41041   7.48407   7.60913   7.61243   7.62802
 Alpha virt. eigenvalues --    7.66587   7.78315   7.88630   8.09059   8.30867
 Alpha virt. eigenvalues --    8.42684   8.54610  13.39821  14.39881  15.12985
 Alpha virt. eigenvalues --   16.15052
          Condensed to atoms (all electrons):
               1          2          3          4          5
     1  H    0.593488   0.126652   0.020557   0.012908  -0.000790
     2  O    0.126652   8.321210  -0.169545  -0.092204   0.015717
     3  O    0.020557  -0.169545   8.461411  -0.128168  -0.039107
     4  N    0.012908  -0.092204  -0.128168   6.970966  -0.056253
     5  O   -0.000790   0.015717  -0.039107  -0.056253   8.273390
 Mulliken charges:
               1
     1  H    0.247185
     2  O   -0.201830
     3  O   -0.145149
     4  N    0.292751
     5  O   -0.192957
 Sum of Mulliken charges =  -0.00000
 Mulliken charges with hydrogens summed into heavy atoms:
               1
     2  O    0.045355
     3  O   -0.145149
     4  N    0.292751
     5  O   -0.192957
 APT charges:
               1
     1  H    0.298904
     2  O   -0.291620
     3  O   -0.493819
     4  N    0.878746
     5  O   -0.392210
 Sum of APT charges =   0.00000
 APT charges with hydrogens summed into heavy atoms:
               1
     2  O    0.007284
     3  O   -0.493819
     4  N    0.878746
     5  O   -0.392210
 Electronic spatial extent (au):  <R**2>=            253.1737
 Charge=              0.0000 electrons
 Dipole moment (field-independent basis, Debye):
    X=              0.5646    Y=              1.3621    Z=              0.0000  Tot=              1.4745
 Quadrupole moment (field-independent basis, Debye-Ang):
   XX=            -22.2547   YY=            -18.6512   ZZ=            -22.0146
   XY=              3.3994   XZ=              0.0000   YZ=             -0.0000
 Traceless Quadrupole moment (field-independent basis, Debye-Ang):
   XX=             -1.2812   YY=              2.3223   ZZ=             -1.0411
   XY=              3.3994   XZ=              0.0000   YZ=             -0.0000
 Octapole moment (field-independent basis, Debye-Ang**2):
  XXX=              3.4226  YYY=             11.1573  ZZZ=             -0.0000  XYY=              8.1086
  XXY=              7.0226  XXZ=              0.0000  XZZ=             -1.5839  YZZ=             -0.8540
  YYZ=              0.0000  XYZ=              0.0000
 Hexadecapole moment (field-independent basis, Debye-Ang**3):
 XXXX=           -158.0229 YYYY=            -89.6826 ZZZZ=            -18.2536 XXXY=            -35.6091
 XXXZ=             -0.0000 YYYX=            -30.4852 YYYZ=             -0.0000 ZZZX=             -0.0000
 ZZZY=             -0.0000 XXYY=            -33.2773 XXZZ=            -31.0144 YYZZ=            -20.6101
 XXYZ=             -0.0000 YYXZ=             -0.0000 ZZXY=            -15.0710
 N-N= 1.168167854863D+02 E-N=-8.957437276354D+02  KE= 2.801885313094D+02
 Symmetry A'   KE= 2.662186511815D+02
 Symmetry A"   KE= 1.396988012791D+01
  Exact polarizability:  34.149   9.554  30.250   0.000   0.000  17.950
 Approx polarizability:  29.035   5.172  23.491   0.000   0.000  15.535
 No NMR shielding tensors so no spin-rotation constants.
 Leave Link  601 at Mon Feb 21 20:38:22 2022, MaxMem= 16106127360 cpu:               4.6 elap:               0.2
 (Enter /sw/contrib/gaussian/g16/B01/g16/l701.exe)
 ... and contract with generalized density number  2.
 Compute integral second derivatives.
 Leave Link  701 at Mon Feb 21 20:38:22 2022, MaxMem= 16106127360 cpu:               5.5 elap:               0.2
 (Enter /sw/contrib/gaussian/g16/B01/g16/l702.exe)
 L702 exits ... SP integral derivatives will be done elsewhere.
 Leave Link  702 at Mon Feb 21 20:38:22 2022, MaxMem= 16106127360 cpu:               0.7 elap:               0.0
 (Enter /sw/contrib/gaussian/g16/B01/g16/l703.exe)
 Integral derivatives from FoFJK, PRISM(SPDF).
 Compute integral second derivatives, UseDBF=F ICtDFT=           0.
 Calling FoFJK, ICntrl=  10100127 FMM=F ISym2X=1 I1Cent= 0 IOpClX= 0 NMat=1 NMatS=1 NMatT=0.
 FoFJK:  IHMeth= 1 ICntrl=10100127 DoSepK=F KAlg= 0 I1Cent=           0 FoldK=F
 IRaf=         0 NMat=       1 IRICut=       1 DoRegI=T DoRafI=F ISym2E= 1 IDoP0=0 IntGTp=1.
 FoFCou: FMM=F IPFlag=           0 FMFlag=      100000 FMFlg1=         800
         NFxFlg=           0 DoJE=F BraDBF=F KetDBF=F FulRan=T
         wScrn=  0.000000 ICntrl=  10100127 IOpCl=  0 I1Cent=           0 NGrid=           0
         NMat0=    1 NMatS0=      1 NMatT0=    0 NMatD0=    1 NMtDS0=    0 NMtDT0=    0
 Petite list used in FoFCou.
 Leave Link  703 at Mon Feb 21 20:38:37 2022, MaxMem= 16106127360 cpu:             420.9 elap:              15.1
 (Enter /sw/contrib/gaussian/g16/B01/g16/l716.exe)
 Dipole        = 2.22139060D-01 5.35898057D-01 7.85824888D-32
 Polarizability= 3.41494442D+01 9.55392429D+00 3.02496556D+01
                 7.68298428D-31 5.28172410D-30 1.79502183D+01
 Full mass-weighted force constant matrix:
 Low frequencies --- -305.4846  -65.6683    0.0011    0.0013    0.0014   23.9815
 Low frequencies ---   39.8668  236.1928  344.9235
 ******    1 imaginary frequencies (negative Signs) ****** 
 Diagonal vibrational polarizability:
       14.1554362      25.3728251      38.5782389
 Harmonic frequencies (cm**-1), IR intensities (KM/Mole), Raman scattering
 activities (A**4/AMU), depolarization ratios for plane and unpolarized
 incident light, reduced masses (AMU), force constants (mDyne/A),
 and normal coordinates:
                      1                      2                      3
                     A"                     A"                     A'
 Frequencies --   -300.8229               235.9229               344.9064
 Red. masses --      1.1721                 8.2590                 8.4931
 Frc consts  --      0.0625                 0.2708                 0.5953
 IR Inten    --    125.1192                 2.8342                 3.7175
  Atom  AN      X      Y      Z        X      Y      Z        X      Y      Z
     1   1    -0.00   0.00   0.99    -0.00   0.00  -0.70     0.52  -0.46  -0.00
     2   8    -0.00  -0.00  -0.07    -0.00   0.00  -0.26    -0.10  -0.38  -0.00
     3   8    -0.00  -0.00  -0.03     0.00  -0.00   0.30    -0.15   0.42   0.00
     4   7     0.00   0.00   0.07     0.00  -0.00   0.45     0.05   0.27   0.00
     5   8     0.00   0.00  -0.02    -0.00   0.00  -0.39     0.17  -0.25  -0.00
                      4                      5                      6
                     A'                     A'                     A'
 Frequencies --    449.9521               783.1671               962.8335
 Red. masses --     12.0842                12.9162                14.5047
 Frc consts  --      1.4415                 4.6676                 7.9225
 IR Inten    --    202.0638               172.2224                21.5326
  Atom  AN      X      Y      Z        X      Y      Z        X      Y      Z
     1   1     0.44   0.17  -0.00    -0.32   0.22   0.00    -0.30  -0.04  -0.00
     2   8     0.31   0.19  -0.00     0.43   0.08  -0.00    -0.49   0.03   0.00
     3   8     0.17   0.45   0.00    -0.07  -0.27   0.00     0.73  -0.02   0.00
     4   7    -0.35  -0.39   0.00    -0.14   0.62   0.00    -0.12   0.24  -0.00
     5   8    -0.21  -0.30  -0.00    -0.22  -0.37  -0.00    -0.11  -0.22  -0.00
                      7                      8                      9
                     A'                     A'                     A'
 Frequencies --   1355.2229              1676.7883              3779.4393
 Red. masses --      1.1412                13.4781                 1.0682
 Frc consts  --      1.2349                22.3273                 8.9900
 IR Inten    --    143.8229               143.9346                85.9093
  Atom  AN      X      Y      Z        X      Y      Z        X      Y      Z
     1   1     0.99  -0.09  -0.00    -0.32   0.01   0.00     0.14   0.99   0.00
     2   8    -0.04   0.06  -0.00    -0.00  -0.04   0.00    -0.01  -0.06   0.00
     3   8    -0.01  -0.05   0.00     0.00   0.15  -0.00     0.00   0.00  -0.00
     4   7     0.02   0.02   0.00     0.71  -0.05  -0.00    -0.00  -0.00  -0.00
     5   8    -0.03  -0.01  -0.00    -0.60  -0.07   0.00     0.00   0.00   0.00

 -------------------
 - Thermochemistry -
 -------------------
 Temperature   298.150 Kelvin.  Pressure   1.00000 Atm.
 Atom     1 has atomic number  1 and mass   1.00783
 Atom     2 has atomic number  8 and mass  15.99491
 Atom     3 has atomic number  8 and mass  15.99491
 Atom     4 has atomic number  7 and mass  14.00307
 Atom     5 has atomic number  8 and mass  15.99491
 Molecular mass:    62.99564 amu.
 Principal axes and moments of inertia in atomic units:
                           1         2         3
     Eigenvalues --    32.74713 360.65775 393.40488
           X            0.81162  -0.58418   0.00000
           Y            0.58418   0.81162   0.00000
           Z            0.00000  -0.00000   1.00000
 This molecule is an asymmetric top.
 Rotational symmetry number  1.
 Rotational temperatures (Kelvin)      2.64493     0.24016     0.22016
 Rotational constants (GHZ):          55.11143     5.00403     4.58749
    1 imaginary frequencies ignored.
 Zero-point vibrational energy      57350.4 (Joules/Mol)
                                   13.70707 (Kcal/Mol)
 Warning -- explicit consideration of   3 degrees of freedom as
           vibrations may cause significant error
 Vibrational temperatures:    339.44   496.24   647.38  1126.80  1385.30
          (Kelvin)           1949.86  2412.52  5437.77
 
 Zero-point correction=                           0.021844 (Hartree/Particle)
 Thermal correction to Energy=                    0.025951
 Thermal correction to Enthalpy=                  0.026895
 Thermal correction to Gibbs Free Energy=        -0.004261
 Sum of electronic and zero-point Energies=           -280.424683
 Sum of electronic and thermal Energies=              -280.420576
 Sum of electronic and thermal Enthalpies=            -280.419632
 Sum of electronic and thermal Free Energies=         -280.450788
 
                     E (Thermal)             CV                S
                      KCal/Mol        Cal/Mol-Kelvin    Cal/Mol-Kelvin
 Total                   16.284             11.956             65.573
 Electronic               0.000              0.000              0.000
 Translational            0.889              2.981             38.341
 Rotational               0.889              2.981             23.056
 Vibrational             14.507              5.994              4.176
 Vibration     1          0.655              1.786              1.833
 Vibration     2          0.723              1.586              1.189
 Vibration     3          0.809              1.361              0.796
                       Q            Log10(Q)             Ln(Q)
 Total Bot       0.911710D+02          1.959857          4.512736
 Total V=0       0.101673D+13         12.007207         27.647615
 Vib (Bot)       0.190124D-09         -9.720963        -22.383344
 Vib (Bot)    1  0.832654D+00         -0.079535         -0.183137
 Vib (Bot)    2  0.536685D+00         -0.270281         -0.622344
 Vib (Bot)    3  0.381138D+00         -0.418918         -0.964595
 Vib (V=0)       0.212025D+01          0.326387          0.751534
 Vib (V=0)    1  0.147124D+01          0.167684          0.386108
 Vib (V=0)    2  0.123351D+01          0.091141          0.209860
 Vib (V=0)    3  0.112870D+01          0.052579          0.121068
 Electronic      0.100000D+01          0.000000          0.000000
 Translational   0.196526D+08          7.293420         16.793719
 Rotational      0.244006D+05          4.387400         10.102361
 
                                                                title
                                                             IR Spectrum
 
     3                                                                      1          1                                             
     7                                                                      6          3            9     7          4   3   2       
     7                                                                      7          5            6     8          5   4   3       
     9                                                                      7          5            3     3          0   5   6       
 
     X                                                                      X          X            X     X          X   X   X       
     X                                                                      X          X            X     X          X               
     X                                                                      X          X                  X          X               
     X                                                                      X          X                  X          X               
     X                                                                      X          X                  X          X               
     X                                                                      X          X                  X          X               
     X                                                                      X          X                  X          X               
     X                                                                      X          X                  X          X               
     X                                                                      X          X                  X          X               
                                                                            X          X                  X          X               
                                                                            X          X                  X          X               
                                                                            X          X                  X          X               
                                                                            X          X                  X          X               
                                                                            X          X                  X          X               
                                                                                                          X          X               
                                                                                                          X          X               
                                                                                                          X          X               
                                                                                                                     X               
                                                                                                                     X               
                                                                                                                     X               
 
 ***** Axes restored to original set *****
 -------------------------------------------------------------------
 Center     Atomic                   Forces (Hartrees/Bohr)
 Number     Number              X              Y              Z
 -------------------------------------------------------------------
      1        1           0.005128500   -0.000000000    0.000381688
      2        8          -0.002930829    0.000000000    0.003995898
      3        8          -0.001329071   -0.000000000   -0.004254330
      4        7          -0.001148726    0.000000000    0.000254214
      5        8           0.000280126   -0.000000000   -0.000377471
 -------------------------------------------------------------------
 Cartesian Forces:  Max     0.005128500 RMS     0.002198106
 -----------------------------------------------------------------------------------------------
                       Internal Coordinate Forces (Hartree/Bohr or radian)
  Cent   Atom   N1       Length/X         N2         Alpha/Y        N3         Beta/Z          J
 -----------------------------------------------------------------------------------------------
      1  H 
      2  O        1  -0.000382(     1)
      3  O        2  -0.002930(     2)      1  -0.009391(     5)
      4  N        3  -0.000157(     3)      2  -0.001401(     6)      1  -0.000000(     8)     0
      5  O        4   0.000159(     4)      3  -0.000979(     7)      2  -0.000000(     9)     0
 -----------------------------------------------------------------------------------------------
 Internal  Forces:  Max     0.009390780 RMS     0.003331492
 Force constants in Cartesian coordinates: 
                1             2             3             4             5 
      1  0.626520D-01
      2  0.000000D+00 -0.287495D-02
      3  0.140677D-02  0.000000D+00  0.512363D+00
      4 -0.397258D-01  0.000000D+00 -0.134583D-01  0.272255D+00
      5  0.000000D+00  0.560030D-02  0.000000D+00  0.000000D+00 -0.176371D-02
      6  0.510662D-01  0.000000D+00 -0.510136D+00  0.344543D-01  0.000000D+00
      7 -0.126313D-01  0.000000D+00  0.132455D-01 -0.218271D+00  0.000000D+00
      8  0.000000D+00 -0.883187D-03  0.000000D+00  0.000000D+00 -0.533202D-02
      9 -0.524195D-01  0.000000D+00  0.104508D-02 -0.218725D-01  0.000000D+00
     10 -0.900187D-02  0.000000D+00 -0.449653D-02 -0.158297D-01  0.000000D+00
     11  0.000000D+00 -0.299687D-02  0.000000D+00  0.000000D+00 -0.471882D-02
     12  0.586186D-02  0.000000D+00 -0.483477D-02  0.879380D-02  0.000000D+00
     13 -0.129305D-02  0.000000D+00  0.330255D-02  0.157118D-02  0.000000D+00
     14  0.000000D+00  0.115471D-02  0.000000D+00  0.000000D+00  0.621425D-02
     15 -0.591525D-02  0.000000D+00  0.156196D-02 -0.791728D-02  0.000000D+00
                6             7             8             9            10 
      6  0.602509D+00
      7 -0.241766D-01  0.334155D+00
      8  0.000000D+00  0.000000D+00  0.462125D-02
      9 -0.831034D-01  0.370240D-01  0.000000D+00  0.184016D+00
     10 -0.538785D-01 -0.879362D-01  0.000000D+00  0.175088D+00  0.828666D+00
     11  0.000000D+00  0.000000D+00  0.899249D-02  0.000000D+00  0.000000D+00
     12  0.164693D-01  0.641197D-01  0.000000D+00 -0.717474D-01  0.873742D-02
     13 -0.746541D-02 -0.153167D-01  0.000000D+00 -0.137820D+00 -0.715898D+00
     14  0.000000D+00  0.000000D+00 -0.739854D-02  0.000000D+00  0.000000D+00
     15 -0.257394D-01 -0.902126D-01  0.000000D+00 -0.302098D-01 -0.125451D+00
               11            12            13            14            15 
     11  0.798046D-02
     12  0.000000D+00  0.185127D+00
     13  0.000000D+00 -0.875127D-01  0.730937D+00
     14 -0.925725D-02  0.000000D+00  0.000000D+00  0.928682D-02
     15  0.000000D+00 -0.125014D+00  0.229496D+00  0.000000D+00  0.179402D+00
 Force constants in internal coordinates: 
                1             2             3             4             5 
      1  0.512363D+00
      2 -0.114751D-01  0.275859D+00
      3  0.331644D-02  0.274024D-02  0.116468D+00
      4 -0.361360D-02  0.561350D-02  0.153260D+00  0.811941D+00
      5  0.770446D-02  0.581596D-01  0.824873D-03  0.540723D-02  0.209369D+00
      6  0.412911D-02  0.591072D-01  0.395717D-01  0.225539D-01  0.305029D-01
      7 -0.118808D-02  0.375081D-01  0.321593D-01  0.840887D-01  0.214150D-01
      8  0.000000D+00  0.000000D+00  0.000000D+00  0.000000D+00  0.000000D+00
      9  0.000000D+00  0.000000D+00  0.000000D+00  0.000000D+00  0.000000D+00
                6             7             8             9 
      6  0.282445D+00
      7  0.957330D-01  0.481957D+00
      8  0.000000D+00  0.000000D+00 -0.840144D-02
      9  0.000000D+00  0.000000D+00 -0.435270D-02  0.412183D-01
 Leave Link  716 at Mon Feb 21 20:38:37 2022, MaxMem= 16106127360 cpu:               1.5 elap:               0.1
 (Enter /sw/contrib/gaussian/g16/B01/g16/l103.exe)

 GradGradGradGradGradGradGradGradGradGradGradGradGradGradGradGradGradGrad
 Berny optimization.
 Search for a local minimum.
 Step number   1 out of a maximum of    2
 All quantities printed in internal units (Hartrees-Bohrs-Radians)
 Second derivative matrix not updated -- analytic derivatives used.
 The second derivative matrix:
                          r1        r2        r3        r4        a1
           r1           0.51236
           r2          -0.01148   0.27586
           r3           0.00332   0.00274   0.11647
           r4          -0.00361   0.00561   0.15326   0.81194
           a1           0.00770   0.05816   0.00082   0.00541   0.20937
           a2           0.00413   0.05911   0.03957   0.02255   0.03050
           a3          -0.00119   0.03751   0.03216   0.08409   0.02141
           d1          -0.00000   0.00000  -0.00000  -0.00000   0.00000
           d2           0.00000   0.00000  -0.00000  -0.00000   0.00000
                          a2        a3        d1        d2
           a2           0.28245
           a3           0.09573   0.48196
           d1           0.00000   0.00000  -0.00840
           d2           0.00000   0.00000  -0.00435   0.04122
 ITU=  0
     Eigenvalues ---   -0.00878   0.04160   0.07799   0.17495   0.22187
     Eigenvalues ---    0.31652   0.51303   0.51545   0.87060
 Eigenvalue     1 is  -8.78D-03 should be greater than     0.000000 Eigenvector:
                          d1        d2        r3        a2        a3
   1                    0.99623   0.08673   0.00000  -0.00000  -0.00000
                          a1        r2        r1        r4
   1                    0.00000  -0.00000  -0.00000  -0.00000
 Angle between quadratic step and forces=  18.86 degrees.
 Linear search not attempted -- first point.
 Variable       Old X    -DE/DX   Delta X   Delta X   Delta X     New X
                                 (Linear)    (Quad)   (Total)
    r1        1.83110  -0.00038   0.00000  -0.00009  -0.00009   1.83101
    r2        2.74940  -0.00293   0.00000  -0.00131  -0.00131   2.74809
    r3        2.75670  -0.00016   0.00000  -0.00236  -0.00236   2.75435
    r4        2.21236   0.00016   0.00000   0.00094   0.00094   2.21329
    a1        1.74685  -0.00939   0.00000  -0.04456  -0.04456   1.70229
    a2        1.78543  -0.00140   0.00000   0.00039   0.00039   1.78582
    a3        1.90362  -0.00098   0.00000  -0.00003  -0.00003   1.90359
    d1        3.14159  -0.00000   0.00000  -0.00000   0.00000   3.14159
    d2        3.14159  -0.00000   0.00000  -0.00000   0.00000   3.14159
         Item               Value     Threshold  Converged?
 Maximum Force            0.009391     0.000450     NO 
 RMS     Force            0.003331     0.000300     NO 
 Maximum Displacement     0.044555     0.001800     NO 
 RMS     Displacement     0.014883     0.001200     NO 
 Predicted change in Energy=-2.111361D-04
                       ----------------------------
                       ! Non-Optimized Parameters !
                       ! (Angstroms and Degrees)  !
 ----------------------                            ----------------------
 !      Name          Value   Derivative information (Atomic Units)     !
 ------------------------------------------------------------------------
 !       r1          0.9689   -DE/DX =   -0.0004                        !
 !       r2          1.4542   -DE/DX =   -0.0029                        !
 !       r3          1.4575   -DE/DX =   -0.0002                        !
 !       r4          1.1712   -DE/DX =    0.0002                        !
 !       a1         97.5343   -DE/DX =   -0.0094                        !
 !       a2        102.3201   -DE/DX =   -0.0014                        !
 !       a3        109.0676   -DE/DX =   -0.001                         !
 !       d1        180.0      -DE/DX =    0.0                           !
 !       d2        180.0      -DE/DX =    0.0                           !
 ------------------------------------------------------------------------
 GradGradGradGradGradGradGradGradGradGradGradGradGradGradGradGradGradGrad

 Leave Link  103 at Mon Feb 21 20:38:37 2022, MaxMem= 16106127360 cpu:               0.5 elap:               0.0
 (Enter /sw/contrib/gaussian/g16/B01/g16/l9999.exe)

 ----------------------------------------------------------------------

 Electric dipole moment (input orientation):
 (Debye = 10**-18 statcoulomb cm , SI units = C m)
                  (au)            (Debye)         (10**-30 SI)
   Tot        0.580114D+00      0.147450D+01      0.491841D+01
   x         -0.143112D+00     -0.363756D+00     -0.121336D+01
   y          0.000000D+00      0.000000D+00      0.000000D+00
   z         -0.562184D+00     -0.142893D+01     -0.476640D+01

 Dipole polarizability, Alpha (input orientation).
 (esu units = cm**3 , SI units = C**2 m**2 J**-1)
 Alpha(0;0):
               (au)            (10**-24 esu)      (10**-40 SI)
   iso        0.274498D+02      0.406764D+01      0.452586D+01
   aniso      0.220971D+02      0.327445D+01      0.364332D+01
   xx         0.313615D+02      0.464730D+01      0.517082D+01
   yx         0.000000D+00      0.000000D+00      0.000000D+00
   yy         0.179502D+02      0.265995D+01      0.295959D+01
   zx         0.971480D+01      0.143958D+01      0.160175D+01
   zy         0.000000D+00      0.000000D+00      0.000000D+00
   zz         0.330376D+02      0.489566D+01      0.544716D+01

 ----------------------------------------------------------------------

 Dipole orientation:
     1         -0.00000000          0.00000000         -0.00000000
     8         -0.45172665          0.00000000         -1.77450401
     8          2.05271594          0.00000000         -2.90894763
     7          1.47619165          0.00000000         -5.60469012
     8          3.36973691          0.00000000         -6.74880960

 Electric dipole moment (dipole orientation):
 (Debye = 10**-18 statcoulomb cm , SI units = C m)
                  (au)            (Debye)         (10**-30 SI)
   Tot        0.580114D+00      0.147450D+01      0.491841D+01
   x          0.000000D+00      0.000000D+00      0.000000D+00
   y          0.000000D+00      0.000000D+00      0.000000D+00
   z          0.580114D+00      0.147450D+01      0.491841D+01

 Dipole polarizability, Alpha (dipole orientation).
 (esu units = cm**3 , SI units = C**2 m**2 J**-1)
 Alpha(0;0):
               (au)            (10**-24 esu)      (10**-40 SI)
   iso        0.274498D+02      0.406764D+01      0.452586D+01
   aniso      0.220971D+02      0.327445D+01      0.364332D+01
   xx         0.268185D+02      0.397409D+01      0.442177D+01
   yx         0.000000D+00      0.000000D+00      0.000000D+00
   yy         0.179502D+02      0.265995D+01      0.295959D+01
   zx        -0.813164D+01     -0.120498D+01     -0.134073D+01
   zy         0.000000D+00      0.000000D+00      0.000000D+00
   zz         0.375806D+02      0.556887D+01      0.619621D+01

 ----------------------------------------------------------------------
 1\1\GINC-N2128\Freq\RMP2-FC\Aug-CC-pVTZ\H1N1O3\CGAVINH\21-Feb-2022\1\\
 #p freq mp2/aug-cc-pvtz density=current\\title\\0,1\H\O,1,r1\O,2,r2,1,
 a1\N,3,r3,2,a2,1,d1,0\O,4,r4,3,a3,2,d2,0\\r1=0.96897556\r2=1.45491931\
 r3=1.45878406\r4=1.17072885\a1=100.08707026\a2=102.29752444\a3=109.069
 55123\d1=180.\d2=180.\\Version=ES64L-G16RevB.01\State=1-A'\HF=-279.501
 791\MP2=-280.4465267\RMSD=3.818e-09\RMSF=2.198e-03\ZeroPoint=0.0218436
 \Thermal=0.0259507\Dipole=-0.1431125,0.,-0.5621844\DipoleDeriv=0.25786
 26,0.,0.0391531,0.,0.358596,0.,0.0869549,0.,0.280252,-0.3110392,0.,-0.
 2034592,0.,-0.31975,0.,-0.128255,0.,-0.2440702,-0.0240082,0.,0.2053291
 ,0.,-0.0846321,0.,-0.6902264,0.,-1.3728175,0.817837,0.,0.8744445,0.,0.
 0660142,0.,0.890486,0.,1.7523857,-0.7406523,0.,-0.9154675,0.,-0.020228
 1,0.,-0.1589594,0.,-0.41575\Polar=31.3615496,0.,17.9502183,9.7147986,0
 .,33.0375501\Quadrupole=-1.6139423,-0.774063,2.3880053,0.,2.0440248,0.
 \PG=CS [SG(H1N1O3)]\NImag=1\\0.06265202,0.,-0.00287495,0.00140677,0.,0
 .51236333,-0.03972583,0.,-0.01345828,0.27225518,0.,0.00560030,0.,0.,-0
 .00176371,0.05106615,0.,-0.51013559,0.03445427,0.,0.60250907,-0.012631
 27,0.,0.01324550,-0.21827087,0.,-0.02417655,0.33415511,0.,-0.00088319,
 0.,0.,-0.00533202,0.,0.,0.00462125,-0.05241953,0.,0.00104508,-0.021872
 51,0.,-0.08310335,0.03702401,0.,0.18401551,-0.00900187,0.,-0.00449653,
 -0.01582965,0.,-0.05387845,-0.08793624,0.,0.17508818,0.82866572,0.,-0.
 00299687,0.,0.,-0.00471882,0.,0.,0.00899249,0.,0.,0.00798046,0.0058618
 6,0.,-0.00483477,0.00879380,0.,0.01646931,0.06411965,0.,-0.07174744,0.
 00873742,0.,0.18512737,-0.00129305,0.,0.00330255,0.00157118,0.,-0.0074
 6541,-0.01531673,0.,-0.13782015,-0.71589796,0.,-0.08751274,0.73093656,
 0.,0.00115471,0.,0.,0.00621425,0.,0.,-0.00739854,0.,0.,-0.00925725,0.,
 0.,0.00928682,-0.00591525,0.,0.00156196,-0.00791728,0.,-0.02573944,-0.
 09021260,0.,-0.03020981,-0.12545062,0.,-0.12501447,0.22949575,0.,0.179
 40176\\-0.00512850,0.,-0.00038169,0.00293083,0.,-0.00399590,0.00132907
 ,0.,0.00425433,0.00114873,0.,-0.00025421,-0.00028013,0.,0.00037747\\\@


 TIME IS NATURE'S WAY OF MAKING SURE EVERYTHING
 DOESN'T HAPPEN AT ONCE.
                     - WOODY ALLEN
 Job cpu time:       0 days  2 hours  3 minutes 42.4 seconds.
 Elapsed time:       0 days  0 hours  4 minutes 28.6 seconds.
 File lengths (MBytes):  RWF=   7239 Int=      0 D2E=      0 Chk=      8 Scr=      1
 Normal termination of Gaussian 16 at Mon Feb 21 20:38:38 2022.
