 Entering Gaussian System, Link 0=g16
 Input=hoono_r3_1p491777.gjf
 Output=hoono_r3_1p491777.log
 Initial command:
 /sw/contrib/gaussian/g16/B01/g16/l1.exe "/scr/Gau-21639.inp" -scrdir="/scr/"
 Entering Link 1 = /sw/contrib/gaussian/g16/B01/g16/l1.exe PID=     21640.
  
 Copyright (c) 1988-2017, Gaussian, Inc.  All Rights Reserved.
  
 This is part of the Gaussian(R) 16 program.  It is based on
 the Gaussian(R) 09 system (copyright 2009, Gaussian, Inc.),
 the Gaussian(R) 03 system (copyright 2003, Gaussian, Inc.),
 the Gaussian(R) 98 system (copyright 1998, Gaussian, Inc.),
 the Gaussian(R) 94 system (copyright 1995, Gaussian, Inc.),
 the Gaussian 92(TM) system (copyright 1992, Gaussian, Inc.),
 the Gaussian 90(TM) system (copyright 1990, Gaussian, Inc.),
 the Gaussian 88(TM) system (copyright 1988, Gaussian, Inc.),
 the Gaussian 86(TM) system (copyright 1986, Carnegie Mellon
 University), and the Gaussian 82(TM) system (copyright 1983,
 Carnegie Mellon University). Gaussian is a federally registered
 trademark of Gaussian, Inc.
  
 This software contains proprietary and confidential information,
 including trade secrets, belonging to Gaussian, Inc.
  
 This software is provided under written license and may be
 used, copied, transmitted, or stored only in accord with that
 written license.
  
 The following legend is applicable only to US Government
 contracts under FAR:
  
                    RESTRICTED RIGHTS LEGEND
  
 Use, reproduction and disclosure by the US Government is
 subject to restrictions as set forth in subparagraphs (a)
 and (c) of the Commercial Computer Software - Restricted
 Rights clause in FAR 52.227-19.
  
 Gaussian, Inc.
 340 Quinnipiac St., Bldg. 40, Wallingford CT 06492
  
  
 ---------------------------------------------------------------
 Warning -- This program may not be used in any manner that
 competes with the business of Gaussian, Inc. or will provide
 assistance to any competitor of Gaussian, Inc.  The licensee
 of this program is prohibited from giving any competitor of
 Gaussian, Inc. access to this program.  By using this program,
 the user acknowledges that Gaussian, Inc. is engaged in the
 business of creating and licensing software in the field of
 computational chemistry and represents and warrants to the
 licensee that it is not a competitor of Gaussian, Inc. and that
 it will not use this program in any manner prohibited above.
 ---------------------------------------------------------------
  

 Cite this work as:
 Gaussian 16, Revision B.01,
 M. J. Frisch, G. W. Trucks, H. B. Schlegel, G. E. Scuseria, 
 M. A. Robb, J. R. Cheeseman, G. Scalmani, V. Barone, 
 G. A. Petersson, H. Nakatsuji, X. Li, M. Caricato, A. V. Marenich, 
 J. Bloino, B. G. Janesko, R. Gomperts, B. Mennucci, H. P. Hratchian, 
 J. V. Ortiz, A. F. Izmaylov, J. L. Sonnenberg, D. Williams-Young, 
 F. Ding, F. Lipparini, F. Egidi, J. Goings, B. Peng, A. Petrone, 
 T. Henderson, D. Ranasinghe, V. G. Zakrzewski, J. Gao, N. Rega, 
 G. Zheng, W. Liang, M. Hada, M. Ehara, K. Toyota, R. Fukuda, 
 J. Hasegawa, M. Ishida, T. Nakajima, Y. Honda, O. Kitao, H. Nakai, 
 T. Vreven, K. Throssell, J. A. Montgomery, Jr., J. E. Peralta, 
 F. Ogliaro, M. J. Bearpark, J. J. Heyd, E. N. Brothers, K. N. Kudin, 
 V. N. Staroverov, T. A. Keith, R. Kobayashi, J. Normand, 
 K. Raghavachari, A. P. Rendell, J. C. Burant, S. S. Iyengar, 
 J. Tomasi, M. Cossi, J. M. Millam, M. Klene, C. Adamo, R. Cammi, 
 J. W. Ochterski, R. L. Martin, K. Morokuma, O. Farkas, 
 J. B. Foresman, and D. J. Fox, Gaussian, Inc., Wallingford CT, 2016.
 
 ******************************************
 Gaussian 16:  ES64L-G16RevB.01 20-Dec-2017
                21-Feb-2022 
 ******************************************
 %nproc=28
 Will use up to   28 processors via shared memory.
 %mem=120GB
 %chk=hoono_r3_1p491777.chk
 ---------------------------------------
 #p freq mp2/aug-cc-pvtz density=current
 ---------------------------------------
 1/10=4,30=1,38=1/1,3;
 2/12=2,17=6,18=5,40=1/2;
 3/5=16,6=1,7=10,11=9,25=1,30=1,71=2,140=1/1,2,3;
 4//1;
 5/5=2,38=5,98=1/2;
 8/6=3,8=1,10=1,19=11,30=-1/1;
 9/15=3,16=-3/6;
 11/6=1,8=1,15=11,17=12,24=-1,27=1,28=-2,29=300,32=6,42=3/1,2,10;
 10/6=2,21=1/2;
 8/6=4,8=1,10=1,19=11,30=-1/11,4;
 10/5=1,20=4/2;
 11/12=2,14=11,16=1,17=2,28=-2,42=3,76=2/2,10,12;
 6/7=2,8=2,9=2,10=2,22=-1/1;
 7/8=1,10=1,12=2,25=1,44=2/1,2,3,16;
 1/10=4,30=1/3;
 99//99;
 Leave Link    1 at Mon Feb 21 20:16:32 2022, MaxMem= 16106127360 cpu:               2.9 elap:               0.1
 (Enter /sw/contrib/gaussian/g16/B01/g16/l101.exe)
 -----
 title
 -----
 Symbolic Z-matrix:
 Charge =  0 Multiplicity = 1
 H
 O                    1    r1
 O                    2    r2       1    a1
 N                    3    r3       2    a2       1    d1       0
 O                    4    r4       3    a3       2    d2       0
       Variables:
  r1                    0.96898                  
  r2                    1.45492                  
  r3                    1.49178                  
  r4                    1.17073                  
  a1                   97.59495                  
  a2                  102.29752                  
  a3                  109.06955                  
  d1                  180.                       
  d2                  180.                       
 
 ITRead=  0  0  0  0  0
 MicOpt= -1 -1 -1 -1 -1
 NAtoms=      5 NQM=        5 NQMF=       0 NMMI=      0 NMMIF=      0
                NMic=       0 NMicF=      0.
                    Isotopes and Nuclear Properties:
 (Nuclear quadrupole moments (NQMom) in fm**2, nuclear magnetic moments (NMagM)
  in nuclear magnetons)

  Atom         1           2           3           4           5
 IAtWgt=           1          16          16          14          16
 AtmWgt=   1.0078250  15.9949146  15.9949146  14.0030740  15.9949146
 NucSpn=           1           0           0           2           0
 AtZEff=  -0.0000000  -0.0000000  -0.0000000  -0.0000000  -0.0000000
 NQMom=    0.0000000   0.0000000   0.0000000   2.0440000   0.0000000
 NMagM=    2.7928460   0.0000000   0.0000000   0.4037610   0.0000000
 AtZNuc=   1.0000000   8.0000000   8.0000000   7.0000000   8.0000000
 Leave Link  101 at Mon Feb 21 20:16:32 2022, MaxMem= 16106127360 cpu:               2.5 elap:               0.1
 (Enter /sw/contrib/gaussian/g16/B01/g16/l103.exe)

 GradGradGradGradGradGradGradGradGradGradGradGradGradGradGradGradGradGrad
 Berny optimization.
 Initialization pass.
                       ----------------------------
                       !    Initial Parameters    !
                       ! (Angstroms and Degrees)  !
 ----------------------                            ----------------------
 !      Name          Value   Derivative information (Atomic Units)     !
 ------------------------------------------------------------------------
 !       r1          0.969    calculate D2E/DX2 analytically            !
 !       r2          1.4549   calculate D2E/DX2 analytically            !
 !       r3          1.4918   calculate D2E/DX2 analytically            !
 !       r4          1.1707   calculate D2E/DX2 analytically            !
 !       a1         97.5949   calculate D2E/DX2 analytically            !
 !       a2        102.2975   calculate D2E/DX2 analytically            !
 !       a3        109.0696   calculate D2E/DX2 analytically            !
 !       d1        180.0      calculate D2E/DX2 analytically            !
 !       d2        180.0      calculate D2E/DX2 analytically            !
 ------------------------------------------------------------------------
 Trust Radius=3.00D-01 FncErr=1.00D-07 GrdErr=1.00D-07 EigMax=2.50D+02 EigMin=1.00D-04
 Number of steps in this run=      2 maximum allowed number of steps=      2.
 GradGradGradGradGradGradGradGradGradGradGradGradGradGradGradGradGradGrad

 Leave Link  103 at Mon Feb 21 20:16:32 2022, MaxMem= 16106127360 cpu:               0.9 elap:               0.1
 (Enter /sw/contrib/gaussian/g16/B01/g16/l202.exe)
                          Input orientation:                          
 ---------------------------------------------------------------------
 Center     Atomic      Atomic             Coordinates (Angstroms)
 Number     Number       Type             X           Y           Z
 ---------------------------------------------------------------------
      1          1           0        0.000000    0.000000    0.000000
      2          8           0        0.000000    0.000000    0.968976
      3          8           0        1.442156    0.000000    1.161271
      4          7           0        1.564456    0.000000    2.648027
      5          8           0        2.698572    0.000000    2.938521
 ---------------------------------------------------------------------
                    Distance matrix (angstroms):
                    1          2          3          4          5
     1  H    0.000000
     2  O    0.968976   0.000000
     3  O    1.851584   1.454919   0.000000
     4  N    3.075641   2.294937   1.491778   0.000000
     5  O    3.989637   3.340869   2.176512   1.170729   0.000000
 Stoichiometry    HNO3
 Framework group  CS[SG(HNO3)]
 Deg. of freedom     7
 Full point group                 CS      NOp   2
 Largest Abelian subgroup         CS      NOp   2
 Largest concise Abelian subgroup C1      NOp   1
                         Standard orientation:                         
 ---------------------------------------------------------------------
 Center     Atomic      Atomic             Coordinates (Angstroms)
 Number     Number       Type             X           Y           Z
 ---------------------------------------------------------------------
      1          1           0        1.545012    1.708671   -0.000000
      2          8           0        1.453850    0.743994   -0.000000
      3          8           0       -0.000000    0.688230   -0.000000
      4          7           0       -0.261633   -0.780426    0.000000
      5          8           0       -1.418048   -0.962934    0.000000
 ---------------------------------------------------------------------
 Rotational constants (GHZ):          53.5903252           4.9279109           4.5129239
 Leave Link  202 at Mon Feb 21 20:16:32 2022, MaxMem= 16106127360 cpu:               0.3 elap:               0.0
 (Enter /sw/contrib/gaussian/g16/B01/g16/l301.exe)
 Standard basis: Aug-CC-pVTZ (5D, 7F)
 Ernie: Thresh=  0.10000D-02 Tol=  0.10000D-05 Strict=F.
 Ernie:  12 primitive shells out of 131 were deleted.
 There are   166 symmetry adapted cartesian basis functions of A'  symmetry.
 There are    79 symmetry adapted cartesian basis functions of A"  symmetry.
 There are   136 symmetry adapted basis functions of A'  symmetry.
 There are    71 symmetry adapted basis functions of A"  symmetry.
   207 basis functions,   315 primitive gaussians,   245 cartesian basis functions
    16 alpha electrons       16 beta electrons
       nuclear repulsion energy       115.9862513700 Hartrees.
 IExCor=    0 DFT=F Ex=HF Corr=None ExCW=0 ScaHFX=  1.000000
 ScaDFX=  1.000000  1.000000  1.000000  1.000000 ScalE2=  1.000000  1.000000
 IRadAn=      5 IRanWt=     -1 IRanGd=            0 ICorTp=0 IEmpDi=  4
 NAtoms=    5 NActive=    5 NUniq=    5 SFac= 1.00D+00 NAtFMM=   60 NAOKFM=F Big=F
 Integral buffers will be    131072 words long.
 Raffenetti 1 integral format.
 Two-electron integral symmetry is turned on.
 Leave Link  301 at Mon Feb 21 20:16:32 2022, MaxMem= 16106127360 cpu:               1.7 elap:               0.1
 (Enter /sw/contrib/gaussian/g16/B01/g16/l302.exe)
 NPDir=0 NMtPBC=     1 NCelOv=     1 NCel=       1 NClECP=     1 NCelD=      1
         NCelK=      1 NCelE2=     1 NClLst=     1 CellRange=     0.0.
 One-electron integrals computed using PRISM.
 One-electron integral symmetry used in STVInt
 NBasis=   207 RedAO= T EigKep=  1.85D-04  NBF=   136    71
 NBsUse=   207 1.00D-06 EigRej= -1.00D+00 NBFU=   136    71
 Leave Link  302 at Mon Feb 21 20:16:32 2022, MaxMem= 16106127360 cpu:               4.7 elap:               0.2
 (Enter /sw/contrib/gaussian/g16/B01/g16/l303.exe)
 DipDrv:  MaxL=1.
 Leave Link  303 at Mon Feb 21 20:16:32 2022, MaxMem= 16106127360 cpu:               0.8 elap:               0.1
 (Enter /sw/contrib/gaussian/g16/B01/g16/l401.exe)
 ExpMin= 2.53D-02 ExpMax= 1.53D+04 ExpMxC= 5.22D+02 IAcc=3 IRadAn=         5 AccDes= 0.00D+00
 Harris functional with IExCor=  205 and IRadAn=       5 diagonalized for initial guess.
 HarFok:  IExCor=  205 AccDes= 0.00D+00 IRadAn=         5 IDoV= 1 UseB2=F ITyADJ=14
 ICtDFT=  3500011 ScaDFX=  1.000000  1.000000  1.000000  1.000000
 FoFCou: FMM=F IPFlag=           0 FMFlag=      100000 FMFlg1=           0
         NFxFlg=           0 DoJE=T BraDBF=F KetDBF=T FulRan=T
         wScrn=  0.000000 ICntrl=       500 IOpCl=  0 I1Cent=   200000004 NGrid=           0
         NMat0=    1 NMatS0=      1 NMatT0=    0 NMatD0=    1 NMtDS0=    0 NMtDT0=    0
 Petite list used in FoFCou.
 Harris En= -279.627331477763    
 JPrj=0 DoOrth=F DoCkMO=F.
 Initial guess orbital symmetries:
       Occupied  (A') (A') (A') (A') (A') (A') (A') (A') (A') (A')
                 (A") (A') (A') (A") (A") (A')
       Virtual   (A") (A') (A') (A') (A') (A') (A") (A') (A') (A')
                 (A") (A') (A") (A') (A') (A") (A') (A") (A') (A')
                 (A') (A') (A') (A') (A') (A") (A') (A") (A') (A')
                 (A") (A') (A") (A') (A') (A") (A') (A") (A') (A')
                 (A") (A') (A") (A') (A") (A') (A') (A') (A") (A")
                 (A') (A') (A') (A') (A") (A') (A") (A') (A") (A')
                 (A') (A') (A") (A') (A') (A") (A') (A") (A') (A')
                 (A") (A') (A') (A") (A") (A') (A') (A") (A') (A')
                 (A') (A") (A') (A") (A') (A") (A') (A") (A') (A')
                 (A') (A") (A') (A") (A') (A") (A") (A') (A') (A')
                 (A") (A') (A") (A') (A') (A') (A") (A') (A") (A')
                 (A") (A') (A') (A') (A") (A') (A') (A') (A") (A')
                 (A") (A') (A') (A") (A") (A') (A') (A") (A") (A')
                 (A') (A') (A') (A") (A") (A') (A") (A') (A') (A')
                 (A') (A") (A") (A') (A') (A") (A') (A') (A') (A')
                 (A') (A") (A') (A") (A') (A") (A') (A") (A") (A')
                 (A') (A") (A') (A") (A') (A") (A") (A") (A') (A')
                 (A") (A') (A") (A') (A') (A") (A") (A") (A') (A')
                 (A') (A') (A') (A') (A') (A') (A') (A') (A') (A')
                 (A')
 The electronic state of the initial guess is 1-A'.
 Leave Link  401 at Mon Feb 21 20:16:33 2022, MaxMem= 16106127360 cpu:               6.8 elap:               0.3
 (Enter /sw/contrib/gaussian/g16/B01/g16/l502.exe)
 Keep R1 ints in memory in symmetry-blocked form, NReq=348887737.
 FoFCou: FMM=F IPFlag=           0 FMFlag=           0 FMFlg1=           0
         NFxFlg=           0 DoJE=F BraDBF=F KetDBF=F FulRan=T
         wScrn=  0.000000 ICntrl=       600 IOpCl=  0 I1Cent=           0 NGrid=           0
         NMat0=    1 NMatS0=  21528 NMatT0=    0 NMatD0=    1 NMtDS0=    0 NMtDT0=    0
 Petite list used in FoFCou.
 Closed shell SCF:
 Using DIIS extrapolation, IDIIS=  1040.
 NGot= 16106127360 LenX= 15988850015 LenY= 15988789549
 Requested convergence on RMS density matrix=1.00D-08 within 128 cycles.
 Requested convergence on MAX density matrix=1.00D-06.
 Requested convergence on             energy=1.00D-06.
 No special actions if energy rises.

 Cycle   1  Pass 1  IDiag  1:
 E= -279.370297862821    
 DIIS: error= 2.75D-02 at cycle   1 NSaved=   1.
 NSaved= 1 IEnMin= 1 EnMin= -279.370297862821     IErMin= 1 ErrMin= 2.75D-02
 ErrMax= 2.75D-02  0.00D+00 EMaxC= 1.00D-01 BMatC= 4.34D-01 BMatP= 4.34D-01
 IDIUse=3 WtCom= 7.25D-01 WtEn= 2.75D-01
 Coeff-Com:  0.100D+01
 Coeff-En:   0.100D+01
 Coeff:      0.100D+01
 Gap=     0.496 Goal=   None    Shift=    0.000
 GapD=    0.496 DampG=2.000 DampE=0.500 DampFc=1.0000 IDamp=-1.
 RMSDP=1.60D-03 MaxDP=1.02D-01              OVMax= 1.04D-01

 Cycle   2  Pass 1  IDiag  1:
 E= -279.452913518424     Delta-E=       -0.082615655603 Rises=F Damp=F
 DIIS: error= 1.74D-02 at cycle   2 NSaved=   2.
 NSaved= 2 IEnMin= 2 EnMin= -279.452913518424     IErMin= 2 ErrMin= 1.74D-02
 ErrMax= 1.74D-02  0.00D+00 EMaxC= 1.00D-01 BMatC= 6.53D-02 BMatP= 4.34D-01
 IDIUse=3 WtCom= 8.26D-01 WtEn= 1.74D-01
 Coeff-Com:  0.183D+00 0.817D+00
 Coeff-En:   0.000D+00 0.100D+01
 Coeff:      0.151D+00 0.849D+00
 Gap=     0.523 Goal=   None    Shift=    0.000
 RMSDP=8.66D-04 MaxDP=3.60D-02 DE=-8.26D-02 OVMax= 7.14D-02

 Cycle   3  Pass 1  IDiag  1:
 E= -279.479133860909     Delta-E=       -0.026220342486 Rises=F Damp=F
 DIIS: error= 1.07D-02 at cycle   3 NSaved=   3.
 NSaved= 3 IEnMin= 3 EnMin= -279.479133860909     IErMin= 3 ErrMin= 1.07D-02
 ErrMax= 1.07D-02  0.00D+00 EMaxC= 1.00D-01 BMatC= 2.71D-02 BMatP= 6.53D-02
 IDIUse=3 WtCom= 8.93D-01 WtEn= 1.07D-01
 Coeff-Com: -0.321D-01 0.383D+00 0.649D+00
 Coeff-En:   0.000D+00 0.245D+00 0.755D+00
 Coeff:     -0.286D-01 0.368D+00 0.661D+00
 Gap=     0.509 Goal=   None    Shift=    0.000
 RMSDP=3.67D-04 MaxDP=1.61D-02 DE=-2.62D-02 OVMax= 3.49D-02

 Cycle   4  Pass 1  IDiag  1:
 E= -279.497090314253     Delta-E=       -0.017956453344 Rises=F Damp=F
 DIIS: error= 1.34D-03 at cycle   4 NSaved=   4.
 NSaved= 4 IEnMin= 4 EnMin= -279.497090314253     IErMin= 4 ErrMin= 1.34D-03
 ErrMax= 1.34D-03  0.00D+00 EMaxC= 1.00D-01 BMatC= 5.30D-04 BMatP= 2.71D-02
 IDIUse=3 WtCom= 9.87D-01 WtEn= 1.34D-02
 Coeff-Com: -0.123D-01 0.679D-01 0.174D+00 0.770D+00
 Coeff-En:   0.000D+00 0.000D+00 0.000D+00 0.100D+01
 Coeff:     -0.121D-01 0.670D-01 0.172D+00 0.773D+00
 Gap=     0.502 Goal=   None    Shift=    0.000
 RMSDP=9.05D-05 MaxDP=2.86D-03 DE=-1.80D-02 OVMax= 1.18D-02

 Cycle   5  Pass 1  IDiag  1:
 E= -279.497801696397     Delta-E=       -0.000711382143 Rises=F Damp=F
 DIIS: error= 7.91D-04 at cycle   5 NSaved=   5.
 NSaved= 5 IEnMin= 5 EnMin= -279.497801696397     IErMin= 5 ErrMin= 7.91D-04
 ErrMax= 7.91D-04  0.00D+00 EMaxC= 1.00D-01 BMatC= 9.33D-05 BMatP= 5.30D-04
 IDIUse=3 WtCom= 9.92D-01 WtEn= 7.91D-03
 Coeff-Com:  0.637D-02-0.765D-01-0.125D+00 0.729D-02 0.119D+01
 Coeff-En:   0.000D+00 0.000D+00 0.000D+00 0.000D+00 0.100D+01
 Coeff:      0.632D-02-0.759D-01-0.124D+00 0.723D-02 0.119D+01
 Gap=     0.501 Goal=   None    Shift=    0.000
 RMSDP=8.06D-05 MaxDP=2.18D-03 DE=-7.11D-04 OVMax= 1.16D-02

 Cycle   6  Pass 1  IDiag  1:
 E= -279.498151273569     Delta-E=       -0.000349577173 Rises=F Damp=F
 DIIS: error= 2.85D-04 at cycle   6 NSaved=   6.
 NSaved= 6 IEnMin= 6 EnMin= -279.498151273569     IErMin= 6 ErrMin= 2.85D-04
 ErrMax= 2.85D-04  0.00D+00 EMaxC= 1.00D-01 BMatC= 1.78D-05 BMatP= 9.33D-05
 IDIUse=3 WtCom= 9.97D-01 WtEn= 2.85D-03
 Coeff-Com:  0.700D-03 0.599D-03 0.342D-02-0.122D+00-0.245D+00 0.136D+01
 Coeff-En:   0.000D+00 0.000D+00 0.000D+00 0.000D+00 0.000D+00 0.100D+01
 Coeff:      0.698D-03 0.597D-03 0.341D-02-0.122D+00-0.245D+00 0.136D+01
 Gap=     0.502 Goal=   None    Shift=    0.000
 RMSDP=4.82D-05 MaxDP=1.35D-03 DE=-3.50D-04 OVMax= 5.89D-03

 Cycle   7  Pass 1  IDiag  1:
 E= -279.498232918573     Delta-E=       -0.000081645003 Rises=F Damp=F
 DIIS: error= 1.46D-04 at cycle   7 NSaved=   7.
 NSaved= 7 IEnMin= 7 EnMin= -279.498232918573     IErMin= 7 ErrMin= 1.46D-04
 ErrMax= 1.46D-04  0.00D+00 EMaxC= 1.00D-01 BMatC= 5.36D-06 BMatP= 1.78D-05
 IDIUse=3 WtCom= 9.99D-01 WtEn= 1.46D-03
 Coeff-Com: -0.981D-03 0.147D-01 0.290D-01-0.242D-01-0.313D+00 0.443D+00
 Coeff-Com:  0.852D+00
 Coeff-En:   0.000D+00 0.000D+00 0.000D+00 0.000D+00 0.000D+00 0.000D+00
 Coeff-En:   0.100D+01
 Coeff:     -0.979D-03 0.146D-01 0.289D-01-0.242D-01-0.312D+00 0.442D+00
 Coeff:      0.852D+00
 Gap=     0.502 Goal=   None    Shift=    0.000
 RMSDP=1.43D-05 MaxDP=4.08D-04 DE=-8.16D-05 OVMax= 1.64D-03

 Cycle   8  Pass 1  IDiag  1:
 E= -279.498243304197     Delta-E=       -0.000010385624 Rises=F Damp=F
 DIIS: error= 5.91D-05 at cycle   8 NSaved=   8.
 NSaved= 8 IEnMin= 8 EnMin= -279.498243304197     IErMin= 8 ErrMin= 5.91D-05
 ErrMax= 5.91D-05  0.00D+00 EMaxC= 1.00D-01 BMatC= 6.81D-07 BMatP= 5.36D-06
 IDIUse=1 WtCom= 1.00D+00 WtEn= 0.00D+00
 Coeff-Com: -0.497D-03 0.392D-02 0.866D-02 0.278D-01-0.403D-01-0.204D+00
 Coeff-Com:  0.139D+00 0.107D+01
 Coeff:     -0.497D-03 0.392D-02 0.866D-02 0.278D-01-0.403D-01-0.204D+00
 Coeff:      0.139D+00 0.107D+01
 Gap=     0.501 Goal=   None    Shift=    0.000
 RMSDP=7.83D-06 MaxDP=2.20D-04 DE=-1.04D-05 OVMax= 8.95D-04

 Cycle   9  Pass 1  IDiag  1:
 E= -279.498245429624     Delta-E=       -0.000002125427 Rises=F Damp=F
 DIIS: error= 1.62D-05 at cycle   9 NSaved=   9.
 NSaved= 9 IEnMin= 9 EnMin= -279.498245429624     IErMin= 9 ErrMin= 1.62D-05
 ErrMax= 1.62D-05  0.00D+00 EMaxC= 1.00D-01 BMatC= 7.20D-08 BMatP= 6.81D-07
 IDIUse=1 WtCom= 1.00D+00 WtEn= 0.00D+00
 Coeff-Com:  0.142D-03-0.193D-02-0.353D-02-0.342D-02 0.359D-01 0.664D-02
 Coeff-Com: -0.157D+00-0.151D+00 0.127D+01
 Coeff:      0.142D-03-0.193D-02-0.353D-02-0.342D-02 0.359D-01 0.664D-02
 Coeff:     -0.157D+00-0.151D+00 0.127D+01
 Gap=     0.501 Goal=   None    Shift=    0.000
 RMSDP=2.06D-06 MaxDP=6.99D-05 DE=-2.13D-06 OVMax= 1.77D-04

 Cycle  10  Pass 1  IDiag  1:
 E= -279.498245601149     Delta-E=       -0.000000171525 Rises=F Damp=F
 DIIS: error= 4.19D-06 at cycle  10 NSaved=  10.
 NSaved=10 IEnMin=10 EnMin= -279.498245601149     IErMin=10 ErrMin= 4.19D-06
 ErrMax= 4.19D-06  0.00D+00 EMaxC= 1.00D-01 BMatC= 5.39D-09 BMatP= 7.20D-08
 IDIUse=1 WtCom= 1.00D+00 WtEn= 0.00D+00
 Coeff-Com:  0.268D-04-0.197D-03-0.231D-03-0.240D-02 0.487D-03 0.180D-01
 Coeff-Com: -0.506D-02-0.677D-01-0.102D+00 0.116D+01
 Coeff:      0.268D-04-0.197D-03-0.231D-03-0.240D-02 0.487D-03 0.180D-01
 Coeff:     -0.506D-02-0.677D-01-0.102D+00 0.116D+01
 Gap=     0.501 Goal=   None    Shift=    0.000
 RMSDP=4.95D-07 MaxDP=2.07D-05 DE=-1.72D-07 OVMax= 3.98D-05

 Cycle  11  Pass 1  IDiag  1:
 E= -279.498245613039     Delta-E=       -0.000000011890 Rises=F Damp=F
 DIIS: error= 2.02D-06 at cycle  11 NSaved=  11.
 NSaved=11 IEnMin=11 EnMin= -279.498245613039     IErMin=11 ErrMin= 2.02D-06
 ErrMax= 2.02D-06  0.00D+00 EMaxC= 1.00D-01 BMatC= 6.30D-10 BMatP= 5.39D-09
 IDIUse=1 WtCom= 1.00D+00 WtEn= 0.00D+00
 Coeff-Com: -0.215D-04 0.249D-03 0.503D-03 0.532D-03-0.404D-02-0.366D-02
 Coeff-Com:  0.183D-01 0.318D-01-0.135D+00-0.147D+00 0.124D+01
 Coeff:     -0.215D-04 0.249D-03 0.503D-03 0.532D-03-0.404D-02-0.366D-02
 Coeff:      0.183D-01 0.318D-01-0.135D+00-0.147D+00 0.124D+01
 Gap=     0.501 Goal=   None    Shift=    0.000
 RMSDP=1.67D-07 MaxDP=5.81D-06 DE=-1.19D-08 OVMax= 1.71D-05

 Cycle  12  Pass 1  IDiag  1:
 E= -279.498245614712     Delta-E=       -0.000000001673 Rises=F Damp=F
 DIIS: error= 6.16D-07 at cycle  12 NSaved=  12.
 NSaved=12 IEnMin=12 EnMin= -279.498245614712     IErMin=12 ErrMin= 6.16D-07
 ErrMax= 6.16D-07  0.00D+00 EMaxC= 1.00D-01 BMatC= 7.70D-11 BMatP= 6.30D-10
 IDIUse=1 WtCom= 1.00D+00 WtEn= 0.00D+00
 Coeff-Com:  0.155D-05-0.331D-04-0.721D-04 0.133D-03 0.116D-02-0.220D-02
 Coeff-Com: -0.416D-02 0.464D-02 0.421D-01-0.127D+00-0.262D+00 0.135D+01
 Coeff:      0.155D-05-0.331D-04-0.721D-04 0.133D-03 0.116D-02-0.220D-02
 Coeff:     -0.416D-02 0.464D-02 0.421D-01-0.127D+00-0.262D+00 0.135D+01
 Gap=     0.501 Goal=   None    Shift=    0.000
 RMSDP=7.15D-08 MaxDP=2.77D-06 DE=-1.67D-09 OVMax= 7.18D-06

 Cycle  13  Pass 1  IDiag  1:
 E= -279.498245614957     Delta-E=       -0.000000000245 Rises=F Damp=F
 DIIS: error= 1.91D-07 at cycle  13 NSaved=  13.
 NSaved=13 IEnMin=13 EnMin= -279.498245614957     IErMin=13 ErrMin= 1.91D-07
 ErrMax= 1.91D-07  0.00D+00 EMaxC= 1.00D-01 BMatC= 4.93D-12 BMatP= 7.70D-11
 IDIUse=1 WtCom= 1.00D+00 WtEn= 0.00D+00
 Coeff-Com:  0.136D-05-0.149D-04-0.238D-04-0.894D-04 0.999D-04 0.826D-03
 Coeff-Com: -0.662D-03-0.356D-02 0.395D-03 0.462D-01-0.431D-01-0.358D+00
 Coeff-Com:  0.136D+01
 Coeff:      0.136D-05-0.149D-04-0.238D-04-0.894D-04 0.999D-04 0.826D-03
 Coeff:     -0.662D-03-0.356D-02 0.395D-03 0.462D-01-0.431D-01-0.358D+00
 Coeff:      0.136D+01
 Gap=     0.501 Goal=   None    Shift=    0.000
 RMSDP=2.11D-08 MaxDP=6.64D-07 DE=-2.45D-10 OVMax= 1.96D-06

 Cycle  14  Pass 1  IDiag  1:
 E= -279.498245614974     Delta-E=       -0.000000000017 Rises=F Damp=F
 DIIS: error= 2.95D-08 at cycle  14 NSaved=  14.
 NSaved=14 IEnMin=14 EnMin= -279.498245614974     IErMin=14 ErrMin= 2.95D-08
 ErrMax= 2.95D-08  0.00D+00 EMaxC= 1.00D-01 BMatC= 2.54D-13 BMatP= 4.93D-12
 IDIUse=1 WtCom= 1.00D+00 WtEn= 0.00D+00
 Coeff-Com: -0.239D-06 0.382D-05 0.700D-05 0.704D-05-0.925D-04 0.399D-04
 Coeff-Com:  0.277D-03 0.326D-03-0.270D-02 0.187D-02 0.185D-01-0.243D-01
 Coeff-Com: -0.219D+00 0.122D+01
 Coeff:     -0.239D-06 0.382D-05 0.700D-05 0.704D-05-0.925D-04 0.399D-04
 Coeff:      0.277D-03 0.326D-03-0.270D-02 0.187D-02 0.185D-01-0.243D-01
 Coeff:     -0.219D+00 0.122D+01
 Gap=     0.501 Goal=   None    Shift=    0.000
 RMSDP=4.30D-09 MaxDP=1.11D-07 DE=-1.70D-11 OVMax= 3.97D-07

 SCF Done:  E(RHF) =  -279.498245615     A.U. after   14 cycles
            NFock= 14  Conv=0.43D-08     -V/T= 2.0025
 KE= 2.787944183242D+02 PE=-8.932906921811D+02 EE= 2.190117768719D+02
 Leave Link  502 at Mon Feb 21 20:16:36 2022, MaxMem= 16106127360 cpu:              54.9 elap:               3.6
 (Enter /sw/contrib/gaussian/g16/B01/g16/l801.exe)
 ExpMin= 2.53D-02 ExpMax= 1.53D+04 ExpMxC= 5.22D+02 IAcc=3 IRadAn=         5 AccDes= 0.00D+00
 HarFok:  IExCor=  205 AccDes= 0.00D+00 IRadAn=         5 IDoV=-2 UseB2=F ITyADJ=14
 ICtDFT= 12500011 ScaDFX=  1.000000  1.000000  1.000000  1.000000
 Largest valence mixing into a core orbital is  2.10D-04
 Largest core mixing into a valence orbital is  3.73D-05
 Range of M.O.s used for correlation:     5   207
 NBasis=   207 NAE=    16 NBE=    16 NFC=     4 NFV=     0
 NROrb=    203 NOA=    12 NOB=    12 NVA=   191 NVB=   191

 **** Warning!!: The largest alpha MO coefficient is  0.17098862D+02

 Leave Link  801 at Mon Feb 21 20:16:36 2022, MaxMem= 16106127360 cpu:               2.1 elap:               0.1
 (Enter /sw/contrib/gaussian/g16/B01/g16/l906.exe)
 Frozen-core derivative calculation, NFC=   4 NFV=   0.
 FulOut=F Deriv=T AODrv=T NAtomX=     5
   MMem=           0  MDisk=          12 MDiskD=          12
  W3Min=      811440 MinDsk=     2425030 NBas6D=         245
 NBas2D=       30762    NTT=       30135    LW2=     7400000
    MDV= 16105574353 MDiskM=      328644 NBas2p=       30702
 Disk-based method using ON**2 memory for 12 occupieds at a time.
 Permanent disk used for amplitudes=    11516536 words.
 Estimated scratch disk usage=   321251614 words.
 IMap=   1   2   3   4   5   6   7   8   9  10  11  12  13  14  15  16
 Actual    scratch disk usage=   310331678 words.
 JobTyp=1 Pass  1:  I=   5 to  16 NPSUse= 28 ParTrn=T ParDer=T DoDerP=T.
 (rs|ai) integrals will be sorted in core.
 Spin components of T(2) and E(2):
     alpha-alpha T2 =       0.3442442913D-01 E2=     -0.1227889783D+00
     alpha-beta  T2 =       0.1892125738D+00 E2=     -0.7026957556D+00
     beta-beta   T2 =       0.3442442913D-01 E2=     -0.1227889783D+00
 The integrals were generated   1 times.
 ANorm=    0.1121633377D+01
 E2 =    -0.9482737121D+00 EUMP2 =    -0.28044651932712D+03
 Leave Link  906 at Mon Feb 21 20:18:13 2022, MaxMem= 16106127360 cpu:            2704.6 elap:              96.7
 (Enter /sw/contrib/gaussian/g16/B01/g16/l1101.exe)
 Using compressed Sx but separate Hx and Fx, NAtomX=     5.
 Will process      6 centers per pass.
 Leave Link 1101 at Mon Feb 21 20:18:13 2022, MaxMem= 16106127360 cpu:               5.1 elap:               0.2
 (Enter /sw/contrib/gaussian/g16/B01/g16/l1102.exe)
 Leave Link 1102 at Mon Feb 21 20:18:13 2022, MaxMem= 16106127360 cpu:               0.5 elap:               0.0
 (Enter /sw/contrib/gaussian/g16/B01/g16/l1110.exe)
 Forming Gx(P) for the SCF density, NAtomX=     5.
 Integral derivatives from FoFJK, PRISM(SPDF).
 Do as many integral derivatives as possible in FoFJK.
 G2DrvN: MDV=   16106126844.
 G2DrvN: will do     6 centers at a time, making    1 passes.
 Calling FoFCou, ICntrl=  3107 FMM=F I1Cent=   0 AccDes= 0.00D+00.
 FoFJK:  IHMeth= 1 ICntrl=    3107 DoSepK=F KAlg= 0 I1Cent=           0 FoldK=F
 IRaf=         0 NMat=       1 IRICut=       1 DoRegI=T DoRafI=F ISym2E= 1 IDoP0=0 IntGTp=1.
 FoFCou: FMM=F IPFlag=           0 FMFlag=      100000 FMFlg1=           0
         NFxFlg=           0 DoJE=F BraDBF=F KetDBF=F FulRan=T
         wScrn=  0.000000 ICntrl=      3107 IOpCl=  0 I1Cent=           0 NGrid=           0
         NMat0=    1 NMatS0=      1 NMatT0=    0 NMatD0=    1 NMtDS0=    0 NMtDT0=    0
 Petite list used in FoFCou.
 End of G2Drv F.D. properties file   721 does not exist.
 End of G2Drv F.D. properties file   722 does not exist.
 End of G2Drv F.D. properties file   788 does not exist.
 Leave Link 1110 at Mon Feb 21 20:18:16 2022, MaxMem= 16106127360 cpu:              83.5 elap:               3.0
 (Enter /sw/contrib/gaussian/g16/B01/g16/l1002.exe)
 Minotr:  Closed shell wavefunction.
          IDoAtm=11111
          Frozen-core window.
          Direct CPHF calculation.
          Differentiating once with respect to electric field.
                with respect to dipole field.
          Differentiating once with respect to nuclear coordinates.
          Requested convergence is 1.0D-08 RMS, and 1.0D-07 maximum.
          Secondary convergence is 1.0D-12 RMS, and 1.0D-12 maximum.
          NewPWx=T KeepS1=T KeepF1=T KeepIn=T MapXYZ=F SortEE=F KeepMc=T.
 Keep R1 ints in memory in symmetry-blocked form, NReq=348888983.
 FoFCou: FMM=F IPFlag=           0 FMFlag=           0 FMFlg1=           0
         NFxFlg=           0 DoJE=F BraDBF=F KetDBF=F FulRan=T
         wScrn=  0.000000 ICntrl=       600 IOpCl=  0 I1Cent=           0 NGrid=           0
         NMat0=    1 NMatS0=  21528 NMatT0=    0 NMatD0=    1 NMtDS0=    0 NMtDT0=    0
 Petite list used in FoFCou.
          MDV=   16106127360 using IRadAn=       1.
          Solving linear equations simultaneously, MaxMat=       0.
          There are    18 degrees of freedom in the 1st order CPHF.  IDoFFX=6 NUNeed=    18.
     15 vectors produced by pass  0 Test12= 1.70D-14 5.56D-09 XBig12= 8.35D+00 1.10D+00.
 AX will form    15 AO Fock derivatives at one time.
     15 vectors produced by pass  1 Test12= 1.70D-14 5.56D-09 XBig12= 1.38D+00 2.44D-01.
     15 vectors produced by pass  2 Test12= 1.70D-14 5.56D-09 XBig12= 1.50D-01 1.02D-01.
     15 vectors produced by pass  3 Test12= 1.70D-14 5.56D-09 XBig12= 5.31D-03 1.21D-02.
     15 vectors produced by pass  4 Test12= 1.70D-14 5.56D-09 XBig12= 1.03D-04 1.98D-03.
     15 vectors produced by pass  5 Test12= 1.70D-14 5.56D-09 XBig12= 1.51D-06 1.91D-04.
     15 vectors produced by pass  6 Test12= 1.70D-14 5.56D-09 XBig12= 1.20D-08 1.47D-05.
     13 vectors produced by pass  7 Test12= 1.70D-14 5.56D-09 XBig12= 8.86D-11 1.31D-06.
      3 vectors produced by pass  8 Test12= 1.70D-14 5.56D-09 XBig12= 6.09D-13 1.15D-07.
      2 vectors produced by pass  9 Test12= 1.70D-14 5.56D-09 XBig12= 3.82D-15 9.75D-09.
 InvSVY:  IOpt=1 It=  1 EMax= 1.11D-15
 Solved reduced A of dimension   123 with    15 vectors.
 FullF1:  Do perturbations      1 to      18.
 Saving first derivative matrices.
 End of Minotr F.D. properties file   721 does not exist.
 End of Minotr F.D. properties file   722 does not exist.
 End of Minotr F.D. properties file   788 does not exist.
 Leave Link 1002 at Mon Feb 21 20:18:19 2022, MaxMem= 16106127360 cpu:              79.1 elap:               2.9
 (Enter /sw/contrib/gaussian/g16/B01/g16/l811.exe)
 MDV= 16106127360.
 Form MO integral derivatives with frozen-active canonical formalism.
 MOERI=1 MOERIx=1 NAtoms=     5 NAtomX=     5.
 Discarding MO integrals.
 MO basis two electron integral derivatives will not be stored on disk.
 IAlg= 3 DoFC=T DoPWx=T Debug=F.
 Frozen-core window:  NFC=   4 NFV=   0.
 Reordered first order wavefunction length =     18678272
 In DefCFB: NBatch=  1 ICI= 16 ICA=191 LFMax= 96
            Large arrays: LIAPS=   619940160 LIARS=   288257200 words.
 In StABat: MaxSiz= 55 MinSiz= 25 NAtomB=  5
 DoIAMN: NPSUse= 28.
 Leave Link  811 at Mon Feb 21 20:19:40 2022, MaxMem= 16106127360 cpu:            2267.2 elap:              81.1
 (Enter /sw/contrib/gaussian/g16/B01/g16/l804.exe)
 Frozen-core window:  NFC=   4 NFV=   0.
 Closed-shell transformation, MDV= 16106127360 ITran=4 ISComp=1.
 Semi-Direct transformation.
 ModeAB=           2 MOrb=            16 LenV=   16104923191
 LASXX=     67341636 LTotXX=    67341636 LenRXX=    67341636
 LTotAB=    68301760 MaxLAS=    99807120 LenRXY=    99807120
 NonZer=   134683272 LenScr=   202817536 LnRSAI=           0
 LnScr1=           0 LExtra=           0 Total=    369966292
 MaxDsk=          -1 SrtSym=           F ITran=            4
 DoSDTr:  NPSUse= 28
 JobTyp=0 Pass  1:  I=   1 to  16.
 (rs|ai) integrals will be sorted in core.
 Complete sort for first half transformation.
 First half transformation complete.
 Begin second half transformation for I=  10.
 Begin second half transformation for I=  10.
 Complete sort for second half transformation.
 Second half transformation complete.
 Spin components of T(2) and E(2):
     alpha-alpha T2 =       0.3442442913D-01 E2=     -0.1227889783D+00
     alpha-beta  T2 =       0.1892125738D+00 E2=     -0.7026957556D+00
     beta-beta   T2 =       0.3442442913D-01 E2=     -0.1227889783D+00
 ANorm=    0.1586229134D+01
 E2 =    -0.9482737121D+00 EUMP2 =    -0.28044651932712D+03
 Leave Link  804 at Mon Feb 21 20:19:56 2022, MaxMem= 16106127360 cpu:             426.9 elap:              15.3
 (Enter /sw/contrib/gaussian/g16/B01/g16/l1002.exe)
 Minotr:  Closed shell wavefunction.
          Computing MP2/KS-MP2 derivatives.
          Using Z-Vector for PSCF gradient.
          Skipping F1 and S1 gradient terms here.
          IDoAtm=11111
          Frozen-core window.
          Using MO integrals in the linear equations.
          Forming densities via direct SCF.
          Differentiating once with respect to electric field.
                with respect to dipole field.
          Differentiating once with respect to nuclear coordinates.
          Using symmetry in CPHF.
          Requested convergence is 1.0D-10 RMS, and 1.0D-09 maximum.
          NewPWx=F KeepS1=T KeepF1=T KeepIn=T MapXYZ=F SortEE=F KeepMc=T.
          MDV=   16106127360 using IRadAn=       5.
          Solving linear equations separately, MaxMat=       0.
          There are     1 degrees of freedom in the 1st order CPHF.  IDoFFX=0 NUNeed=     1.
 FoFJK:  IHMeth= 1 ICntrl=       0 DoSepK=F KAlg= 0 I1Cent=           0 FoldK=F
 IRaf=         0 NMat=       1 IRICut=       1 DoRegI=T DoRafI=F ISym2E= 0 IDoP0=0 IntGTp=1.
 FoFCou: FMM=F IPFlag=           0 FMFlag=      100000 FMFlg1=           0
         NFxFlg=           0 DoJE=F BraDBF=F KetDBF=F FulRan=T
         wScrn=  0.000000 ICntrl=         0 IOpCl=  0 I1Cent=           0 NGrid=           0
         NMat0=    1 NMatS0=      1 NMatT0=    0 NMatD0=    1 NMtDS0=    0 NMtDT0=    0
 Symmetry not used in FoFCou.
 LinEq1:  Iter=  0 NonCon=     1 RMS=6.08D-03 Max=1.32D-01 NDo=     1
 LinEq1:  Iter=  1 NonCon=     1 RMS=2.00D-03 Max=4.04D-02 NDo=     1
 LinEq1:  Iter=  2 NonCon=     1 RMS=9.17D-04 Max=1.41D-02 NDo=     1
 LinEq1:  Iter=  3 NonCon=     1 RMS=4.10D-04 Max=7.84D-03 NDo=     1
 LinEq1:  Iter=  4 NonCon=     1 RMS=1.27D-04 Max=1.82D-03 NDo=     1
 LinEq1:  Iter=  5 NonCon=     1 RMS=4.78D-05 Max=7.53D-04 NDo=     1
 LinEq1:  Iter=  6 NonCon=     1 RMS=2.12D-05 Max=2.44D-04 NDo=     1
 LinEq1:  Iter=  7 NonCon=     1 RMS=8.72D-06 Max=1.79D-04 NDo=     1
 LinEq1:  Iter=  8 NonCon=     1 RMS=3.67D-06 Max=3.85D-05 NDo=     1
 LinEq1:  Iter=  9 NonCon=     1 RMS=1.00D-06 Max=1.55D-05 NDo=     1
 LinEq1:  Iter= 10 NonCon=     1 RMS=2.05D-07 Max=2.35D-06 NDo=     1
 LinEq1:  Iter= 11 NonCon=     1 RMS=3.93D-08 Max=4.66D-07 NDo=     1
 LinEq1:  Iter= 12 NonCon=     1 RMS=9.47D-09 Max=1.45D-07 NDo=     1
 LinEq1:  Iter= 13 NonCon=     1 RMS=1.67D-09 Max=3.00D-08 NDo=     1
 LinEq1:  Iter= 14 NonCon=     1 RMS=3.08D-10 Max=4.67D-09 NDo=     1
 LinEq1:  Iter= 15 NonCon=     0 RMS=5.54D-11 Max=6.62D-10 NDo=     1
 Linear equations converged to 1.000D-10 1.000D-09 after    15 iterations.
 End of Minotr F.D. properties file   721 does not exist.
 End of Minotr F.D. properties file   722 does not exist.
 End of Minotr F.D. properties file   788 does not exist.
 Leave Link 1002 at Mon Feb 21 20:19:58 2022, MaxMem= 16106127360 cpu:              64.9 elap:               2.4
 (Enter /sw/contrib/gaussian/g16/B01/g16/l1102.exe)
 Use density number 2.
 Symmetrizing basis deriv contribution to polar:
 IMax=3 JMax=2 DiffMx= 0.00D+00
 Leave Link 1102 at Mon Feb 21 20:19:58 2022, MaxMem= 16106127360 cpu:               3.0 elap:               0.2
 (Enter /sw/contrib/gaussian/g16/B01/g16/l1110.exe)
 Forming Gx(P) for generalized density number  2 NAtomX=     5.
 Integral derivatives from FoFJK, PRISM(SPDF).
 Do as many integral derivatives as possible in FoFJK.
 G2DrvN: MDV=   16106126844.
 G2DrvN: will do     6 centers at a time, making    1 passes.
 Calling FoFCou, ICntrl=  3107 FMM=F I1Cent=   0 AccDes= 0.00D+00.
 FoFJK:  IHMeth= 1 ICntrl=    3107 DoSepK=F KAlg= 0 I1Cent=           0 FoldK=F
 IRaf=         0 NMat=       1 IRICut=       1 DoRegI=T DoRafI=F ISym2E= 1 IDoP0=0 IntGTp=1.
 FoFCou: FMM=F IPFlag=           0 FMFlag=      100000 FMFlg1=           0
         NFxFlg=           0 DoJE=F BraDBF=F KetDBF=F FulRan=T
         wScrn=  0.000000 ICntrl=      3107 IOpCl=  0 I1Cent=           0 NGrid=           0
         NMat0=    1 NMatS0=      1 NMatT0=    0 NMatD0=    1 NMtDS0=    0 NMtDT0=    0
 Petite list used in FoFCou.
 End of G2Drv F.D. properties file   721 does not exist.
 End of G2Drv F.D. properties file   722 does not exist.
 End of G2Drv F.D. properties file   788 does not exist.
 Leave Link 1110 at Mon Feb 21 20:20:01 2022, MaxMem= 16106127360 cpu:              83.6 elap:               3.0
 (Enter /sw/contrib/gaussian/g16/B01/g16/l1112.exe)
 MP22nd: MDV=   16106127360
 This link is doing NAtomX=     5 total of    18 degrees of freedom.
 Using ON3 I/O method in MakUI.
 Frozen-core window:  NFC=   4 NFV=   0.
 Using Ix for Sx.
 Use MO integrals over full window.
 Using OV2 memory method for fx*t*t/D, MaxI=    16 DoOO2=F NP=  28.
 R2 and R3 integrals will be kept in memory, NReq=   915591705.
 FoFCou: FMM=F IPFlag=           0 FMFlag=           0 FMFlg1=           0
         NFxFlg=           0 DoJE=F BraDBF=F KetDBF=F FulRan=T
         wScrn=  0.000000 ICntrl=       600 IOpCl=  0 I1Cent=           0 NGrid=           0
         NMat0=    1 NMatS0=      1 NMatT0=    0 NMatD0=    1 NMtDS0=    0 NMtDT0=    0
 Symmetry not used in FoFCou.
 DD1Dir will call FoFMem   1 times, MxPair=       272
 NAB=   136 NAA=     0 NBB=     0.
 Symmetry is being used.
 FoFJK:  IHMeth= 1 ICntrl=       0 DoSepK=F KAlg= 0 I1Cent=           0 FoldK=F
 IRaf=         0 NMat=      18 IRICut=      45 DoRegI=T DoRafI=T ISym2E= 2 IDoP0=3 IntGTp=3.
 Discarding MO integrals.
 Leave Link 1112 at Mon Feb 21 20:20:46 2022, MaxMem= 16106127360 cpu:            1220.4 elap:              44.3
 (Enter /sw/contrib/gaussian/g16/B01/g16/l601.exe)
 Copying SCF densities to generalized density rwf, IOpCl= 0 IROHF=0.

 **********************************************************************

            Population analysis using the MP2 Density.

 **********************************************************************

 Orbital symmetries:
       Occupied  (A') (A') (A') (A') (A') (A') (A') (A') (A') (A')
                 (A") (A') (A") (A') (A") (A')
       Virtual   (A') (A") (A') (A') (A") (A') (A') (A') (A") (A')
                 (A") (A') (A') (A') (A") (A') (A') (A") (A') (A')
                 (A') (A') (A') (A') (A") (A') (A') (A") (A') (A')
                 (A") (A') (A") (A') (A') (A") (A') (A') (A") (A')
                 (A") (A') (A") (A') (A') (A") (A') (A') (A") (A')
                 (A") (A') (A') (A') (A") (A') (A") (A') (A") (A')
                 (A') (A') (A") (A') (A') (A") (A') (A") (A') (A')
                 (A") (A') (A") (A') (A") (A') (A') (A") (A') (A')
                 (A') (A") (A') (A") (A') (A") (A') (A") (A') (A')
                 (A") (A') (A') (A") (A') (A") (A') (A") (A') (A')
                 (A") (A') (A") (A') (A') (A") (A') (A') (A") (A')
                 (A") (A') (A') (A') (A") (A') (A') (A') (A") (A')
                 (A") (A') (A") (A') (A') (A") (A") (A') (A") (A')
                 (A') (A') (A') (A") (A") (A") (A') (A') (A') (A')
                 (A") (A') (A") (A') (A') (A") (A') (A') (A') (A')
                 (A") (A') (A') (A") (A') (A") (A') (A") (A') (A")
                 (A') (A") (A') (A') (A") (A") (A") (A') (A") (A')
                 (A") (A') (A") (A') (A") (A') (A") (A') (A") (A')
                 (A') (A') (A') (A') (A') (A') (A') (A') (A') (A')
                 (A')
 The electronic state is 1-A'.
 Alpha  occ. eigenvalues --  -20.69207 -20.68531 -20.65594 -15.81817  -1.62312
 Alpha  occ. eigenvalues --   -1.49084  -1.24460  -0.95078  -0.77023  -0.75560
 Alpha  occ. eigenvalues --   -0.70665  -0.68101  -0.62199  -0.58760  -0.48166
 Alpha  occ. eigenvalues --   -0.47079
 Alpha virt. eigenvalues --    0.03053   0.06743   0.08530   0.10132   0.13375
 Alpha virt. eigenvalues --    0.13416   0.14477   0.15518   0.17898   0.19394
 Alpha virt. eigenvalues --    0.19965   0.20126   0.22164   0.23680   0.23702
 Alpha virt. eigenvalues --    0.26482   0.28127   0.30461   0.30969   0.34100
 Alpha virt. eigenvalues --    0.34866   0.38696   0.42318   0.43281   0.52568
 Alpha virt. eigenvalues --    0.52778   0.55498   0.57982   0.62352   0.63640
 Alpha virt. eigenvalues --    0.67320   0.68449   0.70744   0.71181   0.72451
 Alpha virt. eigenvalues --    0.73173   0.74594   0.78952   0.79324   0.80903
 Alpha virt. eigenvalues --    0.81510   0.82915   0.86570   0.90815   0.92319
 Alpha virt. eigenvalues --    0.92390   0.95970   0.97292   0.98599   1.01930
 Alpha virt. eigenvalues --    1.05069   1.05306   1.07945   1.11511   1.13804
 Alpha virt. eigenvalues --    1.18780   1.21972   1.23188   1.33520   1.34423
 Alpha virt. eigenvalues --    1.38959   1.44831   1.48754   1.51005   1.53581
 Alpha virt. eigenvalues --    1.56287   1.57379   1.61159   1.66132   1.66971
 Alpha virt. eigenvalues --    1.70004   1.79284   1.82912   1.82951   1.87925
 Alpha virt. eigenvalues --    1.90606   1.95560   1.98562   2.00131   2.06776
 Alpha virt. eigenvalues --    2.11702   2.12747   2.15390   2.21803   2.26077
 Alpha virt. eigenvalues --    2.26733   2.28678   2.31345   2.33603   2.38595
 Alpha virt. eigenvalues --    2.41934   2.42114   2.45113   2.45951   2.47094
 Alpha virt. eigenvalues --    2.49641   2.59247   2.59422   2.61306   2.62176
 Alpha virt. eigenvalues --    2.63725   2.66448   2.75205   2.80829   2.84093
 Alpha virt. eigenvalues --    2.87220   2.89611   2.89676   2.95623   3.01350
 Alpha virt. eigenvalues --    3.05427   3.11309   3.20564   3.22420   3.31104
 Alpha virt. eigenvalues --    3.33301   3.51145   3.63137   3.82272   3.83756
 Alpha virt. eigenvalues --    4.14822   4.17189   4.18016   4.24378   4.35197
 Alpha virt. eigenvalues --    4.39280   4.46571   4.51482   4.65011   4.70498
 Alpha virt. eigenvalues --    4.79445   4.80651   4.83313   4.89205   5.01212
 Alpha virt. eigenvalues --    5.06790   5.08868   5.14605   5.16924   5.23473
 Alpha virt. eigenvalues --    5.26010   5.30158   5.32803   5.34155   5.59513
 Alpha virt. eigenvalues --    5.66757   5.74873   5.83136   5.94047   6.15417
 Alpha virt. eigenvalues --    6.30846   6.32536   6.39032   6.48563   6.49853
 Alpha virt. eigenvalues --    6.61252   6.66927   6.69044   6.76275   6.76349
 Alpha virt. eigenvalues --    6.82242   6.88837   7.00621   7.05200   7.06012
 Alpha virt. eigenvalues --    7.09053   7.11461   7.14093   7.18039   7.20816
 Alpha virt. eigenvalues --    7.24358   7.31357   7.31993   7.33718   7.38927
 Alpha virt. eigenvalues --    7.41490   7.47591   7.59368   7.60268   7.61102
 Alpha virt. eigenvalues --    7.65102   7.77603   7.87956   8.05589   8.29916
 Alpha virt. eigenvalues --    8.40840   8.52917  13.33042  14.22511  15.13604
 Alpha virt. eigenvalues --   16.09233
          Condensed to atoms (all electrons):
               1          2          3          4          5
     1  H    0.590179   0.128595   0.019817   0.012162  -0.000675
     2  O    0.128595   8.321977  -0.176290  -0.085119   0.014688
     3  O    0.019817  -0.176290   8.477989  -0.120055  -0.033140
     4  N    0.012162  -0.085119  -0.120055   6.942669  -0.050775
     5  O   -0.000675   0.014688  -0.033140  -0.050775   8.248770
 Mulliken charges:
               1
     1  H    0.249922
     2  O   -0.203852
     3  O   -0.168320
     4  N    0.301118
     5  O   -0.178868
 Sum of Mulliken charges =   0.00000
 Mulliken charges with hydrogens summed into heavy atoms:
               1
     2  O    0.046070
     3  O   -0.168320
     4  N    0.301118
     5  O   -0.178868
 APT charges:
               1
     1  H    0.297896
     2  O   -0.295545
     3  O   -0.510243
     4  N    0.891670
     5  O   -0.383778
 Sum of APT charges =  -0.00000
 APT charges with hydrogens summed into heavy atoms:
               1
     2  O    0.002351
     3  O   -0.510243
     4  N    0.891670
     5  O   -0.383778
 Electronic spatial extent (au):  <R**2>=            256.3511
 Charge=             -0.0000 electrons
 Dipole moment (field-independent basis, Debye):
    X=              0.3599    Y=              1.1683    Z=             -0.0000  Tot=              1.2225
 Quadrupole moment (field-independent basis, Debye-Ang):
   XX=            -22.4130   YY=            -18.4740   ZZ=            -22.0573
   XY=              3.3180   XZ=              0.0000   YZ=             -0.0000
 Traceless Quadrupole moment (field-independent basis, Debye-Ang):
   XX=             -1.4316   YY=              2.5074   ZZ=             -1.0759
   XY=              3.3180   XZ=              0.0000   YZ=             -0.0000
 Octapole moment (field-independent basis, Debye-Ang**2):
  XXX=              2.2205  YYY=             11.2223  ZZZ=              0.0000  XYY=              7.8501
  XXY=              6.3039  XXZ=             -0.0000  XZZ=             -1.6322  YZZ=             -0.9818
  YYZ=             -0.0000  XYZ=             -0.0000
 Hexadecapole moment (field-independent basis, Debye-Ang**3):
 XXXX=           -158.2970 YYYY=            -92.9894 ZZZZ=            -18.3424 XXXY=            -37.7472
 XXXZ=              0.0000 YYYX=            -31.2555 YYYZ=              0.0000 ZZZX=              0.0000
 ZZZY=              0.0000 XXYY=            -34.3719 XXZZ=            -30.8562 YYZZ=            -21.3763
 XXYZ=              0.0000 YYXZ=              0.0000 ZZXY=            -15.4131
 N-N= 1.159862513700D+02 E-N=-8.941011041374D+02  KE= 2.801590888987D+02
 Symmetry A'   KE= 2.661983231323D+02
 Symmetry A"   KE= 1.396076576648D+01
  Exact polarizability:  33.987   9.657  30.944  -0.000  -0.000  18.042
 Approx polarizability:  29.170   5.337  24.295  -0.000  -0.000  15.573
 No NMR shielding tensors so no spin-rotation constants.
 Leave Link  601 at Mon Feb 21 20:20:46 2022, MaxMem= 16106127360 cpu:               4.4 elap:               0.2
 (Enter /sw/contrib/gaussian/g16/B01/g16/l701.exe)
 ... and contract with generalized density number  2.
 Compute integral second derivatives.
 Leave Link  701 at Mon Feb 21 20:20:46 2022, MaxMem= 16106127360 cpu:               6.0 elap:               0.2
 (Enter /sw/contrib/gaussian/g16/B01/g16/l702.exe)
 L702 exits ... SP integral derivatives will be done elsewhere.
 Leave Link  702 at Mon Feb 21 20:20:46 2022, MaxMem= 16106127360 cpu:               0.5 elap:               0.0
 (Enter /sw/contrib/gaussian/g16/B01/g16/l703.exe)
 Integral derivatives from FoFJK, PRISM(SPDF).
 Compute integral second derivatives, UseDBF=F ICtDFT=           0.
 Calling FoFJK, ICntrl=  10100127 FMM=F ISym2X=1 I1Cent= 0 IOpClX= 0 NMat=1 NMatS=1 NMatT=0.
 FoFJK:  IHMeth= 1 ICntrl=10100127 DoSepK=F KAlg= 0 I1Cent=           0 FoldK=F
 IRaf=         0 NMat=       1 IRICut=       1 DoRegI=T DoRafI=F ISym2E= 1 IDoP0=0 IntGTp=1.
 FoFCou: FMM=F IPFlag=           0 FMFlag=      100000 FMFlg1=         800
         NFxFlg=           0 DoJE=F BraDBF=F KetDBF=F FulRan=T
         wScrn=  0.000000 ICntrl=  10100127 IOpCl=  0 I1Cent=           0 NGrid=           0
         NMat0=    1 NMatS0=      1 NMatT0=    0 NMatD0=    1 NMtDS0=    0 NMtDT0=    0
 Petite list used in FoFCou.
 Leave Link  703 at Mon Feb 21 20:21:01 2022, MaxMem= 16106127360 cpu:             420.7 elap:              15.1
 (Enter /sw/contrib/gaussian/g16/B01/g16/l716.exe)
 Dipole        = 1.41613217D-01 4.59634944D-01-5.40632679D-32
 Polarizability= 3.39873632D+01 9.65714431D+00 3.09437560D+01
                -5.67014294D-30-7.05365972D-30 1.80419989D+01
 Full mass-weighted force constant matrix:
 Low frequencies --- -278.2456   -0.0005    0.0001    0.0006   44.2458   50.3641
 Low frequencies ---   81.6358  243.9314  329.6893
 ******    1 imaginary frequencies (negative Signs) ****** 
 Diagonal vibrational polarizability:
       17.8909384      34.5279820      43.9393964
 Harmonic frequencies (cm**-1), IR intensities (KM/Mole), Raman scattering
 activities (A**4/AMU), depolarization ratios for plane and unpolarized
 incident light, reduced masses (AMU), force constants (mDyne/A),
 and normal coordinates:
                      1                      2                      3
                     A"                     A"                     A'
 Frequencies --   -278.1576               242.1858               329.5985
 Red. masses --      1.1320                10.9297                 8.4826
 Frc consts  --      0.0516                 0.3777                 0.5429
 IR Inten    --    125.4764                 0.6463                14.5371
  Atom  AN      X      Y      Z        X      Y      Z        X      Y      Z
     1   1     0.00  -0.00   1.00     0.00  -0.00  -0.55     0.57  -0.42   0.00
     2   8     0.00  -0.00  -0.06     0.00  -0.00  -0.32    -0.07  -0.36   0.00
     3   8    -0.00   0.00  -0.04     0.00   0.00   0.33    -0.13   0.47  -0.00
     4   7    -0.00   0.00   0.05    -0.00  -0.00   0.54     0.02   0.21  -0.00
     5   8     0.00  -0.00  -0.01    -0.00  -0.00  -0.45     0.15  -0.27   0.00
                      4                      5                      6
                     A'                     A'                     A'
 Frequencies --    390.9068               767.2485               961.9633
 Red. masses --     12.5848                13.1877                15.5471
 Frc consts  --      1.1330                 4.5739                 8.4765
 IR Inten    --    213.6866               148.9310                19.4896
  Atom  AN      X      Y      Z        X      Y      Z        X      Y      Z
     1   1    -0.35  -0.25  -0.00    -0.31   0.19   0.00    -0.14  -0.05   0.00
     2   8    -0.31  -0.25  -0.00     0.43   0.09   0.00    -0.54   0.03   0.00
     3   8    -0.20  -0.40   0.00    -0.04  -0.24  -0.00     0.75  -0.02  -0.00
     4   7     0.35   0.47   0.00    -0.17   0.61  -0.00    -0.11   0.23  -0.00
     5   8     0.23   0.25  -0.00    -0.22  -0.41   0.00    -0.10  -0.21   0.00
                      7                      8                      9
                     A'                     A'                     A'
 Frequencies --   1365.1571              1663.2142              3777.9331
 Red. masses --      1.1292                13.3557                 1.0676
 Frc consts  --      1.2399                21.7677                 8.9774
 IR Inten    --    147.0933               157.2186                83.0018
  Atom  AN      X      Y      Z        X      Y      Z        X      Y      Z
     1   1     0.99  -0.05   0.00    -0.33   0.00  -0.00     0.10   0.99  -0.00
     2   8    -0.03   0.05   0.00    -0.00  -0.04  -0.00    -0.01  -0.06   0.00
     3   8    -0.02  -0.05  -0.00     0.00   0.15   0.00     0.00   0.00   0.00
     4   7     0.02   0.01  -0.00     0.71  -0.05   0.00    -0.00  -0.00  -0.00
     5   8    -0.03  -0.01   0.00    -0.60  -0.07  -0.00     0.00   0.00  -0.00

 -------------------
 - Thermochemistry -
 -------------------
 Temperature   298.150 Kelvin.  Pressure   1.00000 Atm.
 Atom     1 has atomic number  1 and mass   1.00783
 Atom     2 has atomic number  8 and mass  15.99491
 Atom     3 has atomic number  8 and mass  15.99491
 Atom     4 has atomic number  7 and mass  14.00307
 Atom     5 has atomic number  8 and mass  15.99491
 Molecular mass:    62.99564 amu.
 Principal axes and moments of inertia in atomic units:
                           1         2         3
     Eigenvalues --    33.67662 366.22846 399.90508
           X            0.80180  -0.59759   0.00000
           Y            0.59759   0.80180   0.00000
           Z           -0.00000   0.00000   1.00000
 This molecule is an asymmetric top.
 Rotational symmetry number  1.
 Rotational temperatures (Kelvin)      2.57193     0.23650     0.21659
 Rotational constants (GHZ):          53.59033     4.92791     4.51292
    1 imaginary frequencies ignored.
 Zero-point vibrational energy      56811.9 (Joules/Mol)
                                   13.57837 (Kcal/Mol)
 Warning -- explicit consideration of   3 degrees of freedom as
           vibrations may cause significant error
 Vibrational temperatures:    348.45   474.22   562.43  1103.90  1384.05
          (Kelvin)           1964.16  2392.99  5435.60
 
 Zero-point correction=                           0.021639 (Hartree/Particle)
 Thermal correction to Energy=                    0.025813
 Thermal correction to Enthalpy=                  0.026758
 Thermal correction to Gibbs Free Energy=        -0.004541
 Sum of electronic and zero-point Energies=           -280.424881
 Sum of electronic and thermal Energies=              -280.420706
 Sum of electronic and thermal Enthalpies=            -280.419762
 Sum of electronic and thermal Free Energies=         -280.451060
 
                     E (Thermal)             CV                S
                      KCal/Mol        Cal/Mol-Kelvin    Cal/Mol-Kelvin
 Total                   16.198             12.131             65.873
 Electronic               0.000              0.000              0.000
 Translational            0.889              2.981             38.341
 Rotational               0.889              2.981             23.116
 Vibrational             14.421              6.170              4.417
 Vibration     1          0.658              1.776              1.787
 Vibration     2          0.712              1.616              1.262
 Vibration     3          0.759              1.490              0.997
                       Q            Log10(Q)             Ln(Q)
 Total Bot       0.122628D+03          2.088590          4.809156
 Total V=0       0.110054D+13         12.041604         27.726818
 Vib (Bot)       0.248202D-09         -9.605194        -22.116777
 Vib (Bot)    1  0.808819D+00         -0.092148         -0.212180
 Vib (Bot)    2  0.567030D+00         -0.246394         -0.567344
 Vib (Bot)    3  0.458969D+00         -0.338216         -0.778772
 Vib (V=0)       0.222751D+01          0.347820          0.800885
 Vib (V=0)    1  0.145089D+01          0.161634          0.372176
 Vib (V=0)    2  0.125599D+01          0.098987          0.227925
 Vib (V=0)    3  0.117871D+01          0.071409          0.164424
 Electronic      0.100000D+01          0.000000          0.000000
 Translational   0.196526D+08          7.293420         16.793719
 Rotational      0.251399D+05          4.400364         10.132213
 
                                                                title
                                                             IR Spectrum
 
     3                                                                       1         1                                             
     7                                                                       6         3            9      7           3 3  2        
     7                                                                       6         6            6      6           9 3  4        
     8                                                                       3         5            2      7           1 0  2        
 
     X                                                                       X         X            X      X           X X  X        
     X                                                                       X         X            X      X           X             
     X                                                                       X         X                   X           X             
     X                                                                       X         X                   X           X             
     X                                                                       X         X                   X           X             
     X                                                                       X         X                   X           X             
     X                                                                       X         X                   X           X             
     X                                                                       X         X                   X           X             
                                                                             X         X                   X           X             
                                                                             X         X                   X           X             
                                                                             X         X                   X           X             
                                                                             X         X                   X           X             
                                                                             X         X                   X           X             
                                                                             X         X                   X           X             
                                                                             X                                         X             
                                                                                                                       X             
                                                                                                                       X             
                                                                                                                       X             
                                                                                                                       X             
                                                                                                                       X             
 
 ***** Axes restored to original set *****
 -------------------------------------------------------------------
 Center     Atomic                   Forces (Hartrees/Bohr)
 Number     Number              X              Y              Z
 -------------------------------------------------------------------
      1        1           0.000127850   -0.000000000    0.000203275
      2        8           0.000074426   -0.000000000    0.000794833
      3        8           0.001830652   -0.000000000    0.005409695
      4        7           0.006414633    0.000000000   -0.003395673
      5        8          -0.008447560   -0.000000000   -0.003012131
 -------------------------------------------------------------------
 Cartesian Forces:  Max     0.008447560 RMS     0.003330900
 -----------------------------------------------------------------------------------------------
                       Internal Coordinate Forces (Hartree/Bohr or radian)
  Cent   Atom   N1       Length/X         N2         Alpha/Y        N3         Beta/Z          J
 -----------------------------------------------------------------------------------------------
      1  H 
      2  O        1  -0.000203(     1)
      3  O        2  -0.000332(     2)      1  -0.000234(     5)
      4  N        3  -0.006553(     3)      2  -0.002413(     6)      1  -0.000000(     8)     0
      5  O        4  -0.008931(     4)      3  -0.001818(     7)      2  -0.000000(     9)     0
 -----------------------------------------------------------------------------------------------
 Internal  Forces:  Max     0.008930779 RMS     0.003830172
 Force constants in Cartesian coordinates: 
                1             2             3             4             5 
      1  0.641095D-01
      2  0.000000D+00 -0.254513D-02
      3  0.515806D-02  0.000000D+00  0.512135D+00
      4 -0.349823D-01  0.000000D+00 -0.158926D-01  0.271042D+00
      5  0.000000D+00  0.324757D-02  0.000000D+00  0.000000D+00  0.149402D-02
      6  0.476112D-01  0.000000D+00 -0.508616D+00  0.325611D-01  0.000000D+00
      7 -0.192957D-01  0.000000D+00  0.120933D-01 -0.221208D+00  0.000000D+00
      8  0.000000D+00  0.113948D-02  0.000000D+00  0.000000D+00 -0.604477D-02
      9 -0.528668D-01  0.000000D+00 -0.625867D-03 -0.199735D-01  0.000000D+00
     10 -0.844596D-02  0.000000D+00 -0.472324D-02 -0.148718D-01  0.000000D+00
     11  0.000000D+00 -0.287427D-02  0.000000D+00  0.000000D+00 -0.455102D-02
     12  0.586768D-02  0.000000D+00 -0.411293D-02  0.116954D-01  0.000000D+00
     13 -0.138555D-02  0.000000D+00  0.336440D-02  0.202767D-04  0.000000D+00
     14  0.000000D+00  0.103234D-02  0.000000D+00  0.000000D+00  0.585420D-02
     15 -0.577017D-02  0.000000D+00  0.122014D-02 -0.839052D-02  0.000000D+00
                6             7             8             9            10 
      6  0.591042D+00
      7 -0.240402D-01  0.336575D+00
      8  0.000000D+00  0.000000D+00  0.534639D-02
      9 -0.769554D-01  0.335076D-01  0.000000D+00  0.157435D+00
     10 -0.478670D-01 -0.737573D-01  0.000000D+00  0.171028D+00  0.812089D+00
     11  0.000000D+00  0.000000D+00  0.660309D-02  0.000000D+00  0.000000D+00
     12  0.191363D-01  0.631762D-01  0.000000D+00 -0.643060D-01 -0.180358D-01
     13 -0.826513D-02 -0.223140D-01  0.000000D+00 -0.131696D+00 -0.715013D+00
     14  0.000000D+00  0.000000D+00 -0.704420D-02  0.000000D+00  0.000000D+00
     15 -0.246064D-01 -0.847370D-01  0.000000D+00 -0.155473D-01 -0.100402D+00
               11            12            13            14            15 
     11  0.133459D-01
     12  0.000000D+00  0.168383D+00
     13  0.000000D+00 -0.627035D-01  0.738693D+00
     14 -0.125237D-01  0.000000D+00  0.000000D+00  0.126814D-01
     15  0.000000D+00 -0.119100D+00  0.199300D+00  0.000000D+00  0.158034D+00
 Force constants in internal coordinates: 
                1             2             3             4             5 
      1  0.512135D+00
      2 -0.101753D-01  0.280250D+00
      3  0.299445D-02  0.369204D-03  0.914022D-01
      4 -0.356194D-02  0.618829D-02  0.145400D+00  0.798754D+00
      5  0.957283D-02  0.656378D-01  0.129808D-02  0.507936D-02  0.214583D+00
      6  0.391724D-02  0.550043D-01  0.347583D-01  0.219158D-01  0.293679D-01
      7 -0.768059D-03  0.356084D-01  0.247385D-01  0.786625D-01  0.212527D-01
      8  0.000000D+00  0.000000D+00  0.000000D+00  0.000000D+00  0.000000D+00
      9  0.000000D+00  0.000000D+00  0.000000D+00  0.000000D+00  0.000000D+00
                6             7             8             9 
      6  0.261572D+00
      7  0.972526D-01  0.459771D+00
      8  0.000000D+00  0.000000D+00 -0.871890D-02
      9  0.000000D+00  0.000000D+00 -0.391704D-02  0.383563D-01
 Leave Link  716 at Mon Feb 21 20:21:01 2022, MaxMem= 16106127360 cpu:               0.8 elap:               0.1
 (Enter /sw/contrib/gaussian/g16/B01/g16/l103.exe)

 GradGradGradGradGradGradGradGradGradGradGradGradGradGradGradGradGradGrad
 Berny optimization.
 Search for a local minimum.
 Step number   1 out of a maximum of    2
 All quantities printed in internal units (Hartrees-Bohrs-Radians)
 Second derivative matrix not updated -- analytic derivatives used.
 The second derivative matrix:
                          r1        r2        r3        r4        a1
           r1           0.51213
           r2          -0.01018   0.28025
           r3           0.00299   0.00037   0.09140
           r4          -0.00356   0.00619   0.14540   0.79875
           a1           0.00957   0.06564   0.00130   0.00508   0.21458
           a2           0.00392   0.05500   0.03476   0.02192   0.02937
           a3          -0.00077   0.03561   0.02474   0.07866   0.02125
           d1           0.00000  -0.00000   0.00000   0.00000  -0.00000
           d2          -0.00000  -0.00000   0.00000   0.00000  -0.00000
                          a2        a3        d1        d2
           a2           0.26157
           a3           0.09725   0.45977
           d1          -0.00000  -0.00000  -0.00872
           d2          -0.00000  -0.00000  -0.00392   0.03836
 ITU=  0
     Eigenvalues ---   -0.00904   0.03868   0.05781   0.17317   0.20893
     Eigenvalues ---    0.31707   0.49871   0.51281   0.84997
 Eigenvalue     1 is  -9.04D-03 should be greater than     0.000000 Eigenvector:
                          d1        d2        r3        a3        a2
   1                    0.99660   0.08236  -0.00000   0.00000   0.00000
                          a1        r4        r2        r1
   1                   -0.00000   0.00000   0.00000   0.00000
 Angle between quadratic step and forces=  57.31 degrees.
 Linear search not attempted -- first point.
 Variable       Old X    -DE/DX   Delta X   Delta X   Delta X     New X
                                 (Linear)    (Quad)   (Total)
    r1        1.83110  -0.00020   0.00000   0.00004   0.00004   1.83114
    r2        2.74940  -0.00033   0.00000  -0.00121  -0.00121   2.74819
    r3        2.81905  -0.00655   0.00000  -0.07637  -0.07637   2.74268
    r4        2.21236  -0.00893   0.00000   0.00275   0.00275   2.21510
    a1        1.70335  -0.00023   0.00000  -0.00044  -0.00044   1.70291
    a2        1.78543  -0.00241   0.00000   0.00117   0.00117   1.78659
    a3        1.90362  -0.00182   0.00000  -0.00045  -0.00045   1.90318
    d1        3.14159  -0.00000   0.00000  -0.00000  -0.00000   3.14159
    d2        3.14159  -0.00000   0.00000  -0.00000   0.00000   3.14159
         Item               Value     Threshold  Converged?
 Maximum Force            0.008931     0.000450     NO 
 RMS     Force            0.003830     0.000300     NO 
 Maximum Displacement     0.076374     0.001800     NO 
 RMS     Displacement     0.025481     0.001200     NO 
 Predicted change in Energy=-2.372222D-04
                       ----------------------------
                       ! Non-Optimized Parameters !
                       ! (Angstroms and Degrees)  !
 ----------------------                            ----------------------
 !      Name          Value   Derivative information (Atomic Units)     !
 ------------------------------------------------------------------------
 !       r1          0.969    -DE/DX =   -0.0002                        !
 !       r2          1.4543   -DE/DX =   -0.0003                        !
 !       r3          1.4514   -DE/DX =   -0.0066                        !
 !       r4          1.1722   -DE/DX =   -0.0089                        !
 !       a1         97.5697   -DE/DX =   -0.0002                        !
 !       a2        102.3643   -DE/DX =   -0.0024                        !
 !       a3        109.0439   -DE/DX =   -0.0018                        !
 !       d1        180.0      -DE/DX =    0.0                           !
 !       d2        180.0      -DE/DX =    0.0                           !
 ------------------------------------------------------------------------
 GradGradGradGradGradGradGradGradGradGradGradGradGradGradGradGradGradGrad

 Leave Link  103 at Mon Feb 21 20:21:01 2022, MaxMem= 16106127360 cpu:               1.7 elap:               0.1
 (Enter /sw/contrib/gaussian/g16/B01/g16/l9999.exe)

 ----------------------------------------------------------------------

 Electric dipole moment (input orientation):
 (Debye = 10**-18 statcoulomb cm , SI units = C m)
                  (au)            (Debye)         (10**-30 SI)
   Tot        0.480956D+00      0.122247D+01      0.407771D+01
   x         -0.977426D-01     -0.248437D+00     -0.828696D+00
   y          0.000000D+00      0.000000D+00      0.000000D+00
   z         -0.470919D+00     -0.119696D+01     -0.399262D+01

 Dipole polarizability, Alpha (input orientation).
 (esu units = cm**3 , SI units = C**2 m**2 J**-1)
 Alpha(0;0):
               (au)            (10**-24 esu)      (10**-40 SI)
   iso        0.276577D+02      0.409845D+01      0.456014D+01
   aniso      0.222434D+02      0.329613D+01      0.366744D+01
   xx         0.321514D+02      0.476434D+01      0.530105D+01
   yx         0.000000D+00      0.000000D+00      0.000000D+00
   yy         0.180420D+02      0.267355D+01      0.297472D+01
   zx         0.977127D+01      0.144795D+01      0.161106D+01
   zy         0.000000D+00      0.000000D+00      0.000000D+00
   zz         0.327797D+02      0.485745D+01      0.540465D+01

 ----------------------------------------------------------------------

 Dipole orientation:
     1         -0.00000000          0.00000000         -0.00000000
     8         -0.37212613          0.00000000         -1.79288695
     8          2.22243245         -0.00000000         -2.70253569
     7          1.87774979         -0.00000000         -5.50043538
     8          3.86463257         -0.00000000         -6.47348207

 Electric dipole moment (dipole orientation):
 (Debye = 10**-18 statcoulomb cm , SI units = C m)
                  (au)            (Debye)         (10**-30 SI)
   Tot        0.480956D+00      0.122247D+01      0.407771D+01
   x          0.000000D+00      0.000000D+00      0.000000D+00
   y          0.000000D+00      0.000000D+00      0.000000D+00
   z          0.480956D+00      0.122247D+01      0.407771D+01

 Dipole polarizability, Alpha (dipole orientation).
 (esu units = cm**3 , SI units = C**2 m**2 J**-1)
 Alpha(0;0):
               (au)            (10**-24 esu)      (10**-40 SI)
   iso        0.276577D+02      0.409845D+01      0.456014D+01
   aniso      0.222434D+02      0.329613D+01      0.366744D+01
   xx         0.282887D+02      0.419195D+01      0.466417D+01
   yx         0.000000D+00      0.000000D+00      0.000000D+00
   yy         0.180420D+02      0.267355D+01      0.297472D+01
   zx        -0.883912D+01     -0.130982D+01     -0.145737D+01
   zy         0.000000D+00      0.000000D+00      0.000000D+00
   zz         0.366424D+02      0.542985D+01      0.604152D+01

 ----------------------------------------------------------------------
 1\1\GINC-N2129\Freq\RMP2-FC\Aug-CC-pVTZ\H1N1O3\CGAVINH\21-Feb-2022\1\\
 #p freq mp2/aug-cc-pvtz density=current\\title\\0,1\H\O,1,r1\O,2,r2,1,
 a1\N,3,r3,2,a2,1,d1,0\O,4,r4,3,a3,2,d2,0\\r1=0.96897556\r2=1.45491931\
 r3=1.49177757\r4=1.17072885\a1=97.59494903\a2=102.29752444\a3=109.0695
 5123\d1=180.\d2=180.\\Version=ES64L-G16RevB.01\State=1-A'\HF=-279.4982
 456\MP2=-280.4465193\RMSD=4.296e-09\RMSF=3.331e-03\ZeroPoint=0.0216385
 \Thermal=0.0258135\Dipole=-0.0977426,0.,-0.4709193\DipoleDeriv=0.26348
 4,0.,0.0451587,0.,0.3545725,0.,0.0820901,0.,0.275632,-0.334424,0.,-0.2
 052707,0.,-0.3177798,0.,-0.1136235,0.,-0.2344323,-0.0665952,0.,0.13410
 27,0.,-0.1062599,0.,-0.734796,0.,-1.3578738,0.9311513,0.,0.9585506,0.,
 0.0757789,0.,0.905404,0.,1.66808,-0.7936161,0.,-0.9325413,0.,-0.006311
 7,0.,-0.1390746,0.,-0.3514059\Polar=32.1513916,0.,18.0419989,9.7712651
 ,0.,32.7797277\Quadrupole=-1.5005339,-0.7998719,2.3004058,0.,2.1488714
 ,0.\PG=CS [SG(H1N1O3)]\NImag=1\\0.06410950,0.,-0.00254513,0.00515806,0
 .,0.51213488,-0.03498229,0.,-0.01589256,0.27104205,0.,0.00324757,0.,0.
 ,0.00149402,0.04761119,0.,-0.50861623,0.03256113,0.,0.59104170,-0.0192
 9569,0.,0.01209333,-0.22120819,0.,-0.02404021,0.33657518,0.,0.00113948
 ,0.,0.,-0.00604477,0.,0.,0.00534639,-0.05286676,0.,-0.00062587,-0.0199
 7345,0.,-0.07695538,0.03350765,0.,0.15743456,-0.00844596,0.,-0.0047232
 4,-0.01487184,0.,-0.04786697,-0.07375733,0.,0.17102822,0.81208857,0.,-
 0.00287427,0.,0.,-0.00455102,0.,0.,0.00660309,0.,0.,0.01334594,0.00586
 768,0.,-0.00411293,0.01169540,0.,0.01913633,0.06317621,0.,-0.06430597,
 -0.01803577,0.,0.16838282,-0.00138555,0.,0.00336440,0.00002028,0.,-0.0
 0826513,-0.02231397,0.,-0.13169566,-0.71501344,0.,-0.06270351,0.738692
 68,0.,0.00103234,0.,0.,0.00585420,0.,0.,-0.00704420,0.,0.,-0.01252374,
 0.,0.,0.01268139,-0.00577017,0.,0.00122014,-0.00839052,0.,-0.02460642,
 -0.08473698,0.,-0.01554734,-0.10040224,0.,-0.11910025,0.19929991,0.,0.
 15803387\\-0.00012785,0.,-0.00020328,-0.00007443,0.,-0.00079483,-0.001
 83065,0.,-0.00540970,-0.00641463,0.,0.00339567,0.00844756,0.,0.0030121
 3\\\@


 The lyf so short, the craft so long to lerne.
                             -- Chaucer
 Job cpu time:       0 days  2 hours  4 minutes 11.6 seconds.
 Elapsed time:       0 days  0 hours  4 minutes 29.6 seconds.
 File lengths (MBytes):  RWF=   7239 Int=      0 D2E=      0 Chk=      8 Scr=      1
 Normal termination of Gaussian 16 at Mon Feb 21 20:21:02 2022.
