 Entering Gaussian System, Link 0=g16
 Input=hoono_d1_188p7757.gjf
 Output=hoono_d1_188p7757.log
 Initial command:
 /sw/contrib/gaussian/g16/B01/g16/l1.exe "/scr/Gau-19388.inp" -scrdir="/scr/"
 Entering Link 1 = /sw/contrib/gaussian/g16/B01/g16/l1.exe PID=     19389.
  
 Copyright (c) 1988-2017, Gaussian, Inc.  All Rights Reserved.
  
 This is part of the Gaussian(R) 16 program.  It is based on
 the Gaussian(R) 09 system (copyright 2009, Gaussian, Inc.),
 the Gaussian(R) 03 system (copyright 2003, Gaussian, Inc.),
 the Gaussian(R) 98 system (copyright 1998, Gaussian, Inc.),
 the Gaussian(R) 94 system (copyright 1995, Gaussian, Inc.),
 the Gaussian 92(TM) system (copyright 1992, Gaussian, Inc.),
 the Gaussian 90(TM) system (copyright 1990, Gaussian, Inc.),
 the Gaussian 88(TM) system (copyright 1988, Gaussian, Inc.),
 the Gaussian 86(TM) system (copyright 1986, Carnegie Mellon
 University), and the Gaussian 82(TM) system (copyright 1983,
 Carnegie Mellon University). Gaussian is a federally registered
 trademark of Gaussian, Inc.
  
 This software contains proprietary and confidential information,
 including trade secrets, belonging to Gaussian, Inc.
  
 This software is provided under written license and may be
 used, copied, transmitted, or stored only in accord with that
 written license.
  
 The following legend is applicable only to US Government
 contracts under FAR:
  
                    RESTRICTED RIGHTS LEGEND
  
 Use, reproduction and disclosure by the US Government is
 subject to restrictions as set forth in subparagraphs (a)
 and (c) of the Commercial Computer Software - Restricted
 Rights clause in FAR 52.227-19.
  
 Gaussian, Inc.
 340 Quinnipiac St., Bldg. 40, Wallingford CT 06492
  
  
 ---------------------------------------------------------------
 Warning -- This program may not be used in any manner that
 competes with the business of Gaussian, Inc. or will provide
 assistance to any competitor of Gaussian, Inc.  The licensee
 of this program is prohibited from giving any competitor of
 Gaussian, Inc. access to this program.  By using this program,
 the user acknowledges that Gaussian, Inc. is engaged in the
 business of creating and licensing software in the field of
 computational chemistry and represents and warrants to the
 licensee that it is not a competitor of Gaussian, Inc. and that
 it will not use this program in any manner prohibited above.
 ---------------------------------------------------------------
  

 Cite this work as:
 Gaussian 16, Revision B.01,
 M. J. Frisch, G. W. Trucks, H. B. Schlegel, G. E. Scuseria, 
 M. A. Robb, J. R. Cheeseman, G. Scalmani, V. Barone, 
 G. A. Petersson, H. Nakatsuji, X. Li, M. Caricato, A. V. Marenich, 
 J. Bloino, B. G. Janesko, R. Gomperts, B. Mennucci, H. P. Hratchian, 
 J. V. Ortiz, A. F. Izmaylov, J. L. Sonnenberg, D. Williams-Young, 
 F. Ding, F. Lipparini, F. Egidi, J. Goings, B. Peng, A. Petrone, 
 T. Henderson, D. Ranasinghe, V. G. Zakrzewski, J. Gao, N. Rega, 
 G. Zheng, W. Liang, M. Hada, M. Ehara, K. Toyota, R. Fukuda, 
 J. Hasegawa, M. Ishida, T. Nakajima, Y. Honda, O. Kitao, H. Nakai, 
 T. Vreven, K. Throssell, J. A. Montgomery, Jr., J. E. Peralta, 
 F. Ogliaro, M. J. Bearpark, J. J. Heyd, E. N. Brothers, K. N. Kudin, 
 V. N. Staroverov, T. A. Keith, R. Kobayashi, J. Normand, 
 K. Raghavachari, A. P. Rendell, J. C. Burant, S. S. Iyengar, 
 J. Tomasi, M. Cossi, J. M. Millam, M. Klene, C. Adamo, R. Cammi, 
 J. W. Ochterski, R. L. Martin, K. Morokuma, O. Farkas, 
 J. B. Foresman, and D. J. Fox, Gaussian, Inc., Wallingford CT, 2016.
 
 ******************************************
 Gaussian 16:  ES64L-G16RevB.01 20-Dec-2017
                21-Feb-2022 
 ******************************************
 %nproc=28
 Will use up to   28 processors via shared memory.
 %mem=120GB
 %chk=hoono_d1_188p7757.chk
 ---------------------------------------
 #p freq mp2/aug-cc-pvtz density=current
 ---------------------------------------
 1/10=4,30=1,38=1/1,3;
 2/12=2,17=6,18=5,40=1/2;
 3/5=16,6=1,7=10,11=9,25=1,30=1,71=2,140=1/1,2,3;
 4//1;
 5/5=2,38=5,98=1/2;
 8/6=3,8=1,10=1,19=11,30=-1/1;
 9/15=3,16=-3/6;
 11/6=1,8=1,15=11,17=12,24=-1,27=1,28=-2,29=300,32=6,42=3/1,2,10;
 10/6=2,21=1/2;
 8/6=4,8=1,10=1,19=11,30=-1/11,4;
 10/5=1,20=4/2;
 11/12=2,14=11,16=1,17=2,28=-2,42=3,76=2/2,10,12;
 6/7=2,8=2,9=2,10=2,22=-1/1;
 7/8=1,10=1,12=2,25=1,44=2/1,2,3,16;
 1/10=4,30=1/3;
 99//99;
 Leave Link    1 at Mon Feb 21 20:59:16 2022, MaxMem= 16106127360 cpu:               3.2 elap:               0.1
 (Enter /sw/contrib/gaussian/g16/B01/g16/l101.exe)
 -----
 title
 -----
 Symbolic Z-matrix:
 Charge =  0 Multiplicity = 1
 H
 O                    1    r1
 O                    2    r2       1    a1
 N                    3    r3       2    a2       1    d1       0
 O                    4    r4       3    a3       2    d2       0
       Variables:
  r1                    0.96898                  
  r2                    1.45492                  
  r3                    1.45878                  
  r4                    1.17073                  
  a1                   97.59495                  
  a2                  102.29752                  
  a3                  109.06955                  
  d1                  188.77578                  
  d2                  180.                       
 
 ITRead=  0  0  0  0  0
 MicOpt= -1 -1 -1 -1 -1
 NAtoms=      5 NQM=        5 NQMF=       0 NMMI=      0 NMMIF=      0
                NMic=       0 NMicF=      0.
                    Isotopes and Nuclear Properties:
 (Nuclear quadrupole moments (NQMom) in fm**2, nuclear magnetic moments (NMagM)
  in nuclear magnetons)

  Atom         1           2           3           4           5
 IAtWgt=           1          16          16          14          16
 AtmWgt=   1.0078250  15.9949146  15.9949146  14.0030740  15.9949146
 NucSpn=           1           0           0           2           0
 AtZEff=  -0.0000000  -0.0000000  -0.0000000  -0.0000000  -0.0000000
 NQMom=    0.0000000   0.0000000   0.0000000   2.0440000   0.0000000
 NMagM=    2.7928460   0.0000000   0.0000000   0.4037610   0.0000000
 AtZNuc=   1.0000000   8.0000000   8.0000000   7.0000000   8.0000000
 Leave Link  101 at Mon Feb 21 20:59:17 2022, MaxMem= 16106127360 cpu:               2.6 elap:               0.1
 (Enter /sw/contrib/gaussian/g16/B01/g16/l103.exe)

 GradGradGradGradGradGradGradGradGradGradGradGradGradGradGradGradGradGrad
 Berny optimization.
 Initialization pass.
                       ----------------------------
                       !    Initial Parameters    !
                       ! (Angstroms and Degrees)  !
 ----------------------                            ----------------------
 !      Name          Value   Derivative information (Atomic Units)     !
 ------------------------------------------------------------------------
 !       r1          0.969    calculate D2E/DX2 analytically            !
 !       r2          1.4549   calculate D2E/DX2 analytically            !
 !       r3          1.4588   calculate D2E/DX2 analytically            !
 !       r4          1.1707   calculate D2E/DX2 analytically            !
 !       a1         97.5949   calculate D2E/DX2 analytically            !
 !       a2        102.2975   calculate D2E/DX2 analytically            !
 !       a3        109.0696   calculate D2E/DX2 analytically            !
 !       d1        188.7758   calculate D2E/DX2 analytically            !
 !       d2        180.0      calculate D2E/DX2 analytically            !
 ------------------------------------------------------------------------
 Trust Radius=3.00D-01 FncErr=1.00D-07 GrdErr=1.00D-07 EigMax=2.50D+02 EigMin=1.00D-04
 Number of steps in this run=      2 maximum allowed number of steps=      2.
 GradGradGradGradGradGradGradGradGradGradGradGradGradGradGradGradGradGrad

 Leave Link  103 at Mon Feb 21 20:59:17 2022, MaxMem= 16106127360 cpu:               0.6 elap:               0.0
 (Enter /sw/contrib/gaussian/g16/B01/g16/l202.exe)
                          Input orientation:                          
 ---------------------------------------------------------------------
 Center     Atomic      Atomic             Coordinates (Angstroms)
 Number     Number       Type             X           Y           Z
 ---------------------------------------------------------------------
      1          1           0        0.000000    0.000000    0.000000
      2          8           0        0.000000    0.000000    0.968976
      3          8           0        1.442156    0.000000    1.161271
      4          7           0        1.563957   -0.217457    2.598604
      5          8           0        2.698286   -0.238519    2.887497
 ---------------------------------------------------------------------
                    Distance matrix (angstroms):
                    1          2          3          4          5
     1  H    0.000000
     2  O    0.968976   0.000000
     3  O    1.851584   1.454919   0.000000
     4  N    3.040723   2.269127   1.458784   0.000000
     5  O    3.959202   3.319392   2.148165   1.170729   0.000000
 Stoichiometry    HNO3
 Framework group  C1[X(HNO3)]
 Deg. of freedom     9
 Full point group                 C1      NOp   1
 Largest Abelian subgroup         C1      NOp   1
 Largest concise Abelian subgroup C1      NOp   1
                         Standard orientation:                         
 ---------------------------------------------------------------------
 Center     Atomic      Atomic             Coordinates (Angstroms)
 Number     Number       Type             X           Y           Z
 ---------------------------------------------------------------------
      1          1           0        2.243341    0.428485    0.122312
      2          8           0        1.599124   -0.282993   -0.010720
      3          8           0        0.400255    0.541319   -0.014309
      4          7           0       -0.663265   -0.456969    0.005654
      5          8           0       -1.699439    0.087961    0.004794
 ---------------------------------------------------------------------
 Rotational constants (GHZ):          54.8864348           5.0115263           4.5938663
 Leave Link  202 at Mon Feb 21 20:59:17 2022, MaxMem= 16106127360 cpu:               0.3 elap:               0.0
 (Enter /sw/contrib/gaussian/g16/B01/g16/l301.exe)
 Standard basis: Aug-CC-pVTZ (5D, 7F)
 Ernie: Thresh=  0.10000D-02 Tol=  0.10000D-05 Strict=F.
 Ernie:  12 primitive shells out of 131 were deleted.
 There are   245 symmetry adapted cartesian basis functions of A   symmetry.
 There are   207 symmetry adapted basis functions of A   symmetry.
   207 basis functions,   315 primitive gaussians,   245 cartesian basis functions
    16 alpha electrons       16 beta electrons
       nuclear repulsion energy       116.8753147631 Hartrees.
 IExCor=    0 DFT=F Ex=HF Corr=None ExCW=0 ScaHFX=  1.000000
 ScaDFX=  1.000000  1.000000  1.000000  1.000000 ScalE2=  1.000000  1.000000
 IRadAn=      5 IRanWt=     -1 IRanGd=            0 ICorTp=0 IEmpDi=  4
 NAtoms=    5 NActive=    5 NUniq=    5 SFac= 1.00D+00 NAtFMM=   60 NAOKFM=F Big=F
 Integral buffers will be    131072 words long.
 Raffenetti 1 integral format.
 Two-electron integral symmetry is turned on.
 Leave Link  301 at Mon Feb 21 20:59:17 2022, MaxMem= 16106127360 cpu:               1.8 elap:               0.1
 (Enter /sw/contrib/gaussian/g16/B01/g16/l302.exe)
 NPDir=0 NMtPBC=     1 NCelOv=     1 NCel=       1 NClECP=     1 NCelD=      1
         NCelK=      1 NCelE2=     1 NClLst=     1 CellRange=     0.0.
 One-electron integrals computed using PRISM.
 One-electron integral symmetry used in STVInt
 NBasis=   207 RedAO= T EigKep=  1.82D-04  NBF=   207
 NBsUse=   207 1.00D-06 EigRej= -1.00D+00 NBFU=   207
 Leave Link  302 at Mon Feb 21 20:59:17 2022, MaxMem= 16106127360 cpu:               4.8 elap:               0.2
 (Enter /sw/contrib/gaussian/g16/B01/g16/l303.exe)
 DipDrv:  MaxL=1.
 Leave Link  303 at Mon Feb 21 20:59:17 2022, MaxMem= 16106127360 cpu:               2.1 elap:               0.1
 (Enter /sw/contrib/gaussian/g16/B01/g16/l401.exe)
 ExpMin= 2.53D-02 ExpMax= 1.53D+04 ExpMxC= 5.22D+02 IAcc=3 IRadAn=         5 AccDes= 0.00D+00
 Harris functional with IExCor=  205 and IRadAn=       5 diagonalized for initial guess.
 HarFok:  IExCor=  205 AccDes= 0.00D+00 IRadAn=         5 IDoV= 1 UseB2=F ITyADJ=14
 ICtDFT=  3500011 ScaDFX=  1.000000  1.000000  1.000000  1.000000
 FoFCou: FMM=F IPFlag=           0 FMFlag=      100000 FMFlg1=           0
         NFxFlg=           0 DoJE=T BraDBF=F KetDBF=T FulRan=T
         wScrn=  0.000000 ICntrl=       500 IOpCl=  0 I1Cent=   200000004 NGrid=           0
         NMat0=    1 NMatS0=      1 NMatT0=    0 NMatD0=    1 NMtDS0=    0 NMtDT0=    0
 Petite list used in FoFCou.
 Harris En= -279.628742742989    
 JPrj=0 DoOrth=F DoCkMO=F.
 Leave Link  401 at Mon Feb 21 20:59:17 2022, MaxMem= 16106127360 cpu:               7.8 elap:               0.3
 (Enter /sw/contrib/gaussian/g16/B01/g16/l502.exe)
 Keep R1 ints in memory in canonical form, NReq=245616937.
 FoFCou: FMM=F IPFlag=           0 FMFlag=           0 FMFlg1=           0
         NFxFlg=           0 DoJE=F BraDBF=F KetDBF=F FulRan=T
         wScrn=  0.000000 ICntrl=       600 IOpCl=  0 I1Cent=           0 NGrid=           0
         NMat0=    1 NMatS0=  21528 NMatT0=    0 NMatD0=    1 NMtDS0=    0 NMtDT0=    0
 Symmetry not used in FoFCou.
 Two-electron integral symmetry not used.
 Closed shell SCF:
 Using DIIS extrapolation, IDIIS=  1040.
 NGot= 16106127360 LenX= 15874260251 LenY= 15874199785
 Requested convergence on RMS density matrix=1.00D-08 within 128 cycles.
 Requested convergence on MAX density matrix=1.00D-06.
 Requested convergence on             energy=1.00D-06.
 No special actions if energy rises.

 Cycle   1  Pass 1  IDiag  1:
 E= -279.370560869557    
 DIIS: error= 2.41D-02 at cycle   1 NSaved=   1.
 NSaved= 1 IEnMin= 1 EnMin= -279.370560869557     IErMin= 1 ErrMin= 2.41D-02
 ErrMax= 2.41D-02  0.00D+00 EMaxC= 1.00D-01 BMatC= 4.38D-01 BMatP= 4.38D-01
 IDIUse=3 WtCom= 7.59D-01 WtEn= 2.41D-01
 Coeff-Com:  0.100D+01
 Coeff-En:   0.100D+01
 Coeff:      0.100D+01
 Gap=     0.518 Goal=   None    Shift=    0.000
 GapD=    0.518 DampG=2.000 DampE=0.500 DampFc=1.0000 IDamp=-1.
 RMSDP=1.62D-03 MaxDP=9.92D-02              OVMax= 1.13D-01

 Cycle   2  Pass 1  IDiag  1:
 E= -279.452491415959     Delta-E=       -0.081930546401 Rises=F Damp=F
 DIIS: error= 1.73D-02 at cycle   2 NSaved=   2.
 NSaved= 2 IEnMin= 2 EnMin= -279.452491415959     IErMin= 2 ErrMin= 1.73D-02
 ErrMax= 1.73D-02  0.00D+00 EMaxC= 1.00D-01 BMatC= 7.18D-02 BMatP= 4.38D-01
 IDIUse=3 WtCom= 8.27D-01 WtEn= 1.73D-01
 Coeff-Com:  0.195D+00 0.805D+00
 Coeff-En:   0.000D+00 0.100D+01
 Coeff:      0.161D+00 0.839D+00
 Gap=     0.532 Goal=   None    Shift=    0.000
 RMSDP=8.99D-04 MaxDP=3.73D-02 DE=-8.19D-02 OVMax= 6.77D-02

 Cycle   3  Pass 1  IDiag  1:
 E= -279.481712606441     Delta-E=       -0.029221190482 Rises=F Damp=F
 DIIS: error= 1.00D-02 at cycle   3 NSaved=   3.
 NSaved= 3 IEnMin= 3 EnMin= -279.481712606441     IErMin= 3 ErrMin= 1.00D-02
 ErrMax= 1.00D-02  0.00D+00 EMaxC= 1.00D-01 BMatC= 2.86D-02 BMatP= 7.18D-02
 IDIUse=3 WtCom= 9.00D-01 WtEn= 1.00D-01
 Coeff-Com: -0.330D-01 0.377D+00 0.656D+00
 Coeff-En:   0.000D+00 0.239D+00 0.761D+00
 Coeff:     -0.297D-01 0.364D+00 0.666D+00
 Gap=     0.510 Goal=   None    Shift=    0.000
 RMSDP=3.75D-04 MaxDP=1.54D-02 DE=-2.92D-02 OVMax= 3.79D-02

 Cycle   4  Pass 1  IDiag  1:
 E= -279.500684700819     Delta-E=       -0.018972094378 Rises=F Damp=F
 DIIS: error= 1.26D-03 at cycle   4 NSaved=   4.
 NSaved= 4 IEnMin= 4 EnMin= -279.500684700819     IErMin= 4 ErrMin= 1.26D-03
 ErrMax= 1.26D-03  0.00D+00 EMaxC= 1.00D-01 BMatC= 4.89D-04 BMatP= 2.86D-02
 IDIUse=3 WtCom= 9.87D-01 WtEn= 1.26D-02
 Coeff-Com: -0.117D-01 0.575D-01 0.158D+00 0.796D+00
 Coeff-En:   0.000D+00 0.000D+00 0.000D+00 0.100D+01
 Coeff:     -0.115D-01 0.568D-01 0.156D+00 0.798D+00
 Gap=     0.502 Goal=   None    Shift=    0.000
 RMSDP=9.01D-05 MaxDP=2.18D-03 DE=-1.90D-02 OVMax= 1.09D-02

 Cycle   5  Pass 1  IDiag  1:
 E= -279.501356756757     Delta-E=       -0.000672055938 Rises=F Damp=F
 DIIS: error= 7.14D-04 at cycle   5 NSaved=   5.
 NSaved= 5 IEnMin= 5 EnMin= -279.501356756757     IErMin= 5 ErrMin= 7.14D-04
 ErrMax= 7.14D-04  0.00D+00 EMaxC= 1.00D-01 BMatC= 8.70D-05 BMatP= 4.89D-04
 IDIUse=3 WtCom= 9.93D-01 WtEn= 7.14D-03
 Coeff-Com:  0.613D-02-0.722D-01-0.118D+00 0.202D-01 0.116D+01
 Coeff-En:   0.000D+00 0.000D+00 0.000D+00 0.000D+00 0.100D+01
 Coeff:      0.608D-02-0.717D-01-0.117D+00 0.200D-01 0.116D+01
 Gap=     0.502 Goal=   None    Shift=    0.000
 RMSDP=7.61D-05 MaxDP=2.10D-03 DE=-6.72D-04 OVMax= 1.10D-02

 Cycle   6  Pass 1  IDiag  1:
 E= -279.501671057051     Delta-E=       -0.000314300294 Rises=F Damp=F
 DIIS: error= 2.83D-04 at cycle   6 NSaved=   6.
 NSaved= 6 IEnMin= 6 EnMin= -279.501671057051     IErMin= 6 ErrMin= 2.83D-04
 ErrMax= 2.83D-04  0.00D+00 EMaxC= 1.00D-01 BMatC= 1.66D-05 BMatP= 8.70D-05
 IDIUse=3 WtCom= 9.97D-01 WtEn= 2.83D-03
 Coeff-Com:  0.596D-03 0.155D-02 0.455D-02-0.130D+00-0.230D+00 0.135D+01
 Coeff-En:   0.000D+00 0.000D+00 0.000D+00 0.000D+00 0.000D+00 0.100D+01
 Coeff:      0.595D-03 0.155D-02 0.453D-02-0.129D+00-0.230D+00 0.135D+01
 Gap=     0.502 Goal=   None    Shift=    0.000
 RMSDP=4.52D-05 MaxDP=1.06D-03 DE=-3.14D-04 OVMax= 5.53D-03

 Cycle   7  Pass 1  IDiag  1:
 E= -279.501743537325     Delta-E=       -0.000072480274 Rises=F Damp=F
 DIIS: error= 9.99D-05 at cycle   7 NSaved=   7.
 NSaved= 7 IEnMin= 7 EnMin= -279.501743537325     IErMin= 7 ErrMin= 9.99D-05
 ErrMax= 9.99D-05  0.00D+00 EMaxC= 1.00D-01 BMatC= 4.51D-06 BMatP= 1.66D-05
 IDIUse=1 WtCom= 1.00D+00 WtEn= 0.00D+00
 Coeff-Com: -0.937D-03 0.135D-01 0.265D-01-0.242D-01-0.287D+00 0.391D+00
 Coeff-Com:  0.881D+00
 Coeff:     -0.937D-03 0.135D-01 0.265D-01-0.242D-01-0.287D+00 0.391D+00
 Coeff:      0.881D+00
 Gap=     0.502 Goal=   None    Shift=    0.000
 RMSDP=1.33D-05 MaxDP=3.78D-04 DE=-7.25D-05 OVMax= 1.54D-03

 Cycle   8  Pass 1  IDiag  1:
 E= -279.501752421961     Delta-E=       -0.000008884636 Rises=F Damp=F
 DIIS: error= 4.79D-05 at cycle   8 NSaved=   8.
 NSaved= 8 IEnMin= 8 EnMin= -279.501752421961     IErMin= 8 ErrMin= 4.79D-05
 ErrMax= 4.79D-05  0.00D+00 EMaxC= 1.00D-01 BMatC= 6.06D-07 BMatP= 4.51D-06
 IDIUse=1 WtCom= 1.00D+00 WtEn= 0.00D+00
 Coeff-Com: -0.449D-03 0.345D-02 0.761D-02 0.274D-01-0.410D-01-0.197D+00
 Coeff-Com:  0.171D+00 0.103D+01
 Coeff:     -0.449D-03 0.345D-02 0.761D-02 0.274D-01-0.410D-01-0.197D+00
 Coeff:      0.171D+00 0.103D+01
 Gap=     0.502 Goal=   None    Shift=    0.000
 RMSDP=6.90D-06 MaxDP=2.03D-04 DE=-8.88D-06 OVMax= 7.46D-04

 Cycle   9  Pass 1  IDiag  1:
 E= -279.501754195736     Delta-E=       -0.000001773775 Rises=F Damp=F
 DIIS: error= 1.56D-05 at cycle   9 NSaved=   9.
 NSaved= 9 IEnMin= 9 EnMin= -279.501754195736     IErMin= 9 ErrMin= 1.56D-05
 ErrMax= 1.56D-05  0.00D+00 EMaxC= 1.00D-01 BMatC= 6.92D-08 BMatP= 6.06D-07
 IDIUse=1 WtCom= 1.00D+00 WtEn= 0.00D+00
 Coeff-Com:  0.123D-03-0.172D-02-0.308D-02-0.205D-02 0.342D-01-0.583D-04
 Coeff-Com: -0.167D+00-0.103D+00 0.124D+01
 Coeff:      0.123D-03-0.172D-02-0.308D-02-0.205D-02 0.342D-01-0.583D-04
 Coeff:     -0.167D+00-0.103D+00 0.124D+01
 Gap=     0.502 Goal=   None    Shift=    0.000
 RMSDP=1.94D-06 MaxDP=5.17D-05 DE=-1.77D-06 OVMax= 1.73D-04

 Cycle  10  Pass 1  IDiag  1:
 E= -279.501754356048     Delta-E=       -0.000000160312 Rises=F Damp=F
 DIIS: error= 3.99D-06 at cycle  10 NSaved=  10.
 NSaved=10 IEnMin=10 EnMin= -279.501754356048     IErMin=10 ErrMin= 3.99D-06
 ErrMax= 3.99D-06  0.00D+00 EMaxC= 1.00D-01 BMatC= 5.56D-09 BMatP= 6.92D-08
 IDIUse=1 WtCom= 1.00D+00 WtEn= 0.00D+00
 Coeff-Com:  0.310D-04-0.243D-03-0.324D-03-0.270D-02 0.164D-02 0.196D-01
 Coeff-Com: -0.130D-01-0.744D-01-0.805D-01 0.115D+01
 Coeff:      0.310D-04-0.243D-03-0.324D-03-0.270D-02 0.164D-02 0.196D-01
 Coeff:     -0.130D-01-0.744D-01-0.805D-01 0.115D+01
 Gap=     0.502 Goal=   None    Shift=    0.000
 RMSDP=5.07D-07 MaxDP=2.10D-05 DE=-1.60D-07 OVMax= 4.11D-05

 Cycle  11  Pass 1  IDiag  1:
 E= -279.501754368693     Delta-E=       -0.000000012645 Rises=F Damp=F
 DIIS: error= 1.77D-06 at cycle  11 NSaved=  11.
 NSaved=11 IEnMin=11 EnMin= -279.501754368693     IErMin=11 ErrMin= 1.77D-06
 ErrMax= 1.77D-06  0.00D+00 EMaxC= 1.00D-01 BMatC= 6.69D-10 BMatP= 5.56D-09
 IDIUse=1 WtCom= 1.00D+00 WtEn= 0.00D+00
 Coeff-Com: -0.214D-04 0.245D-03 0.490D-03 0.538D-03-0.430D-02-0.360D-02
 Coeff-Com:  0.212D-01 0.312D-01-0.139D+00-0.180D+00 0.127D+01
 Coeff:     -0.214D-04 0.245D-03 0.490D-03 0.538D-03-0.430D-02-0.360D-02
 Coeff:      0.212D-01 0.312D-01-0.139D+00-0.180D+00 0.127D+01
 Gap=     0.502 Goal=   None    Shift=    0.000
 RMSDP=1.82D-07 MaxDP=6.51D-06 DE=-1.26D-08 OVMax= 1.70D-05

 Cycle  12  Pass 1  IDiag  1:
 E= -279.501754370569     Delta-E=       -0.000000001876 Rises=F Damp=F
 DIIS: error= 5.55D-07 at cycle  12 NSaved=  12.
 NSaved=12 IEnMin=12 EnMin= -279.501754370569     IErMin=12 ErrMin= 5.55D-07
 ErrMax= 5.55D-07  0.00D+00 EMaxC= 1.00D-01 BMatC= 7.58D-11 BMatP= 6.69D-10
 IDIUse=1 WtCom= 1.00D+00 WtEn= 0.00D+00
 Coeff-Com:  0.133D-05-0.302D-04-0.659D-04 0.184D-03 0.111D-02-0.231D-02
 Coeff-Com: -0.423D-02 0.540D-02 0.427D-01-0.114D+00-0.288D+00 0.136D+01
 Coeff:      0.133D-05-0.302D-04-0.659D-04 0.184D-03 0.111D-02-0.231D-02
 Coeff:     -0.423D-02 0.540D-02 0.427D-01-0.114D+00-0.288D+00 0.136D+01
 Gap=     0.502 Goal=   None    Shift=    0.000
 RMSDP=7.65D-08 MaxDP=2.83D-06 DE=-1.88D-09 OVMax= 7.37D-06

 Cycle  13  Pass 1  IDiag  1:
 E= -279.501754370830     Delta-E=       -0.000000000261 Rises=F Damp=F
 DIIS: error= 1.66D-07 at cycle  13 NSaved=  13.
 NSaved=13 IEnMin=13 EnMin= -279.501754370830     IErMin=13 ErrMin= 1.66D-07
 ErrMax= 1.66D-07  0.00D+00 EMaxC= 1.00D-01 BMatC= 5.64D-12 BMatP= 7.58D-11
 IDIUse=1 WtCom= 1.00D+00 WtEn= 0.00D+00
 Coeff-Com:  0.135D-05-0.143D-04-0.230D-04-0.981D-04 0.109D-03 0.856D-03
 Coeff-Com: -0.811D-03-0.362D-02-0.156D-03 0.461D-01-0.330D-01-0.369D+00
 Coeff-Com:  0.136D+01
 Coeff:      0.135D-05-0.143D-04-0.230D-04-0.981D-04 0.109D-03 0.856D-03
 Coeff:     -0.811D-03-0.362D-02-0.156D-03 0.461D-01-0.330D-01-0.369D+00
 Coeff:      0.136D+01
 Gap=     0.502 Goal=   None    Shift=    0.000
 RMSDP=2.47D-08 MaxDP=5.71D-07 DE=-2.61D-10 OVMax= 3.25D-06

 Cycle  14  Pass 1  IDiag  1:
 E= -279.501754370854     Delta-E=       -0.000000000024 Rises=F Damp=F
 DIIS: error= 8.36D-08 at cycle  14 NSaved=  14.
 NSaved=14 IEnMin=14 EnMin= -279.501754370854     IErMin=14 ErrMin= 8.36D-08
 ErrMax= 8.36D-08  0.00D+00 EMaxC= 1.00D-01 BMatC= 8.85D-13 BMatP= 5.64D-12
 IDIUse=1 WtCom= 1.00D+00 WtEn= 0.00D+00
 Coeff-Com: -0.427D-06 0.615D-05 0.106D-04 0.166D-04-0.130D-03-0.281D-04
 Coeff-Com:  0.516D-03 0.661D-03-0.349D-02-0.289D-02 0.287D-01 0.117D-02
 Coeff-Com: -0.413D+00 0.139D+01
 Coeff:     -0.427D-06 0.615D-05 0.106D-04 0.166D-04-0.130D-03-0.281D-04
 Coeff:      0.516D-03 0.661D-03-0.349D-02-0.289D-02 0.287D-01 0.117D-02
 Coeff:     -0.413D+00 0.139D+01
 Gap=     0.502 Goal=   None    Shift=    0.000
 RMSDP=1.04D-08 MaxDP=2.86D-07 DE=-2.35D-11 OVMax= 1.81D-06

 Cycle  15  Pass 1  IDiag  1:
 E= -279.501754370859     Delta-E=       -0.000000000006 Rises=F Damp=F
 DIIS: error= 5.59D-08 at cycle  15 NSaved=  15.
 NSaved=15 IEnMin=15 EnMin= -279.501754370859     IErMin=15 ErrMin= 5.59D-08
 ErrMax= 5.59D-08  0.00D+00 EMaxC= 1.00D-01 BMatC= 2.99D-13 BMatP= 8.85D-13
 IDIUse=1 WtCom= 1.00D+00 WtEn= 0.00D+00
 Coeff-Com:  0.717D-07-0.175D-05-0.446D-05 0.827D-05 0.873D-04-0.163D-03
 Coeff-Com: -0.246D-03 0.183D-03 0.296D-02-0.726D-02-0.171D-01 0.850D-01
 Coeff-Com:  0.186D-01-0.116D+01 0.207D+01
 Coeff:      0.717D-07-0.175D-05-0.446D-05 0.827D-05 0.873D-04-0.163D-03
 Coeff:     -0.246D-03 0.183D-03 0.296D-02-0.726D-02-0.171D-01 0.850D-01
 Coeff:      0.186D-01-0.116D+01 0.207D+01
 Gap=     0.502 Goal=   None    Shift=    0.000
 RMSDP=1.01D-08 MaxDP=2.99D-07 DE=-5.57D-12 OVMax= 1.86D-06

 Cycle  16  Pass 1  IDiag  1:
 E= -279.501754370863     Delta-E=       -0.000000000003 Rises=F Damp=F
 DIIS: error= 2.26D-08 at cycle  16 NSaved=  16.
 NSaved=16 IEnMin=16 EnMin= -279.501754370863     IErMin=16 ErrMin= 2.26D-08
 ErrMax= 2.26D-08  0.00D+00 EMaxC= 1.00D-01 BMatC= 4.97D-14 BMatP= 2.99D-13
 IDIUse=1 WtCom= 1.00D+00 WtEn= 0.00D+00
 Coeff-Com:  0.553D-07-0.679D-06-0.212D-06-0.882D-05-0.764D-05 0.766D-04
 Coeff-Com: -0.711D-06-0.252D-03-0.480D-03 0.379D-02 0.503D-03-0.403D-01
 Coeff-Com:  0.113D+00 0.128D+00-0.905D+00 0.170D+01
 Coeff:      0.553D-07-0.679D-06-0.212D-06-0.882D-05-0.764D-05 0.766D-04
 Coeff:     -0.711D-06-0.252D-03-0.480D-03 0.379D-02 0.503D-03-0.403D-01
 Coeff:      0.113D+00 0.128D+00-0.905D+00 0.170D+01
 Gap=     0.502 Goal=   None    Shift=    0.000
 RMSDP=5.01D-09 MaxDP=1.50D-07 DE=-3.41D-12 OVMax= 9.39D-07

 SCF Done:  E(RHF) =  -279.501754371     A.U. after   16 cycles
            NFock= 16  Conv=0.50D-08     -V/T= 2.0024
 KE= 2.788454611302D+02 PE=-8.950770078061D+02 EE= 2.198544775419D+02
 Leave Link  502 at Mon Feb 21 20:59:25 2022, MaxMem= 16106127360 cpu:              44.8 elap:               8.0
 (Enter /sw/contrib/gaussian/g16/B01/g16/l801.exe)
 ExpMin= 2.53D-02 ExpMax= 1.53D+04 ExpMxC= 5.22D+02 IAcc=3 IRadAn=         5 AccDes= 0.00D+00
 HarFok:  IExCor=  205 AccDes= 0.00D+00 IRadAn=         5 IDoV=-2 UseB2=F ITyADJ=14
 ICtDFT= 12500011 ScaDFX=  1.000000  1.000000  1.000000  1.000000
 Largest valence mixing into a core orbital is  2.08D-04
 Largest core mixing into a valence orbital is  3.63D-05
 Range of M.O.s used for correlation:     5   207
 NBasis=   207 NAE=    16 NBE=    16 NFC=     4 NFV=     0
 NROrb=    203 NOA=    12 NOB=    12 NVA=   191 NVB=   191

 **** Warning!!: The largest alpha MO coefficient is  0.17826748D+02

 Leave Link  801 at Mon Feb 21 20:59:26 2022, MaxMem= 16106127360 cpu:               4.6 elap:               0.2
 (Enter /sw/contrib/gaussian/g16/B01/g16/l906.exe)
 Frozen-core derivative calculation, NFC=   4 NFV=   0.
 FulOut=F Deriv=T AODrv=T NAtomX=     5
   MMem=           0  MDisk=          12 MDiskD=          12
  W3Min=      811440 MinDsk=     2425030 NBas6D=         245
 NBas2D=       30762    NTT=       30135    LW2=     7400000
    MDV= 16105638402 MDiskM=      328645 NBas2p=       30702
 Disk-based method using ON**2 memory for 12 occupieds at a time.
 Permanent disk used for amplitudes=    11516536 words.
 Estimated scratch disk usage=   321251614 words.
 IMap=   1   2   3   4   5   6   7   8   9  10  11  12  13  14  15  16
 Actual    scratch disk usage=   310331678 words.
 JobTyp=1 Pass  1:  I=   5 to  16 NPSUse= 28 ParTrn=T ParDer=T DoDerP=T.
 (rs|ai) integrals will be sorted in core.
 Spin components of T(2) and E(2):
     alpha-alpha T2 =       0.3402637472D-01 E2=     -0.1224089288D+00
     alpha-beta  T2 =       0.1868545913D+00 E2=     -0.7002527428D+00
     beta-beta   T2 =       0.3402637472D-01 E2=     -0.1224089288D+00
 The integrals were generated   1 times.
 ANorm=    0.1120226469D+01
 E2 =    -0.9450706004D+00 EUMP2 =    -0.28044682497122D+03
 Leave Link  906 at Mon Feb 21 21:01:04 2022, MaxMem= 16106127360 cpu:            2734.5 elap:              97.8
 (Enter /sw/contrib/gaussian/g16/B01/g16/l1101.exe)
 Using compressed Sx but separate Hx and Fx, NAtomX=     5.
 Will process      6 centers per pass.
 Leave Link 1101 at Mon Feb 21 21:01:04 2022, MaxMem= 16106127360 cpu:               5.2 elap:               0.2
 (Enter /sw/contrib/gaussian/g16/B01/g16/l1102.exe)
 Leave Link 1102 at Mon Feb 21 21:01:04 2022, MaxMem= 16106127360 cpu:               0.6 elap:               0.0
 (Enter /sw/contrib/gaussian/g16/B01/g16/l1110.exe)
 Forming Gx(P) for the SCF density, NAtomX=     5.
 Integral derivatives from FoFJK, PRISM(SPDF).
 Do as many integral derivatives as possible in FoFJK.
 G2DrvN: MDV=   16106126844.
 G2DrvN: will do     6 centers at a time, making    1 passes.
 Calling FoFCou, ICntrl=  3107 FMM=F I1Cent=   0 AccDes= 0.00D+00.
 FoFJK:  IHMeth= 1 ICntrl=    3107 DoSepK=F KAlg= 0 I1Cent=           0 FoldK=F
 IRaf=         0 NMat=       1 IRICut=       1 DoRegI=T DoRafI=F ISym2E= 0 IDoP0=0 IntGTp=1.
 FoFCou: FMM=F IPFlag=           0 FMFlag=      100000 FMFlg1=           0
         NFxFlg=           0 DoJE=F BraDBF=F KetDBF=F FulRan=T
         wScrn=  0.000000 ICntrl=      3107 IOpCl=  0 I1Cent=           0 NGrid=           0
         NMat0=    1 NMatS0=      1 NMatT0=    0 NMatD0=    1 NMtDS0=    0 NMtDT0=    0
 Symmetry not used in FoFCou.
 End of G2Drv F.D. properties file   721 does not exist.
 End of G2Drv F.D. properties file   722 does not exist.
 End of G2Drv F.D. properties file   788 does not exist.
 Leave Link 1110 at Mon Feb 21 21:01:07 2022, MaxMem= 16106127360 cpu:              83.7 elap:               3.0
 (Enter /sw/contrib/gaussian/g16/B01/g16/l1002.exe)
 Minotr:  Closed shell wavefunction.
          IDoAtm=11111
          Frozen-core window.
          Direct CPHF calculation.
          Differentiating once with respect to electric field.
                with respect to dipole field.
          Differentiating once with respect to nuclear coordinates.
          Requested convergence is 1.0D-08 RMS, and 1.0D-07 maximum.
          Secondary convergence is 1.0D-12 RMS, and 1.0D-12 maximum.
          NewPWx=T KeepS1=T KeepF1=T KeepIn=T MapXYZ=F SortEE=F KeepMc=T.
 Keep R1 ints in memory in canonical form, NReq=245618178.
 FoFCou: FMM=F IPFlag=           0 FMFlag=           0 FMFlg1=           0
         NFxFlg=           0 DoJE=F BraDBF=F KetDBF=F FulRan=T
         wScrn=  0.000000 ICntrl=       600 IOpCl=  0 I1Cent=           0 NGrid=           0
         NMat0=    1 NMatS0=  21528 NMatT0=    0 NMatD0=    1 NMtDS0=    0 NMtDT0=    0
 Symmetry not used in FoFCou.
 Two-electron integral symmetry not used.
          MDV=   16106127360 using IRadAn=       1.
          Solving linear equations simultaneously, MaxMat=       0.
          There are    18 degrees of freedom in the 1st order CPHF.  IDoFFX=6 NUNeed=    18.
     15 vectors produced by pass  0 Test12= 1.70D-14 5.56D-09 XBig12= 9.51D+00 1.09D+00.
 AX will form    15 AO Fock derivatives at one time.
     15 vectors produced by pass  1 Test12= 1.70D-14 5.56D-09 XBig12= 1.17D+00 2.20D-01.
     15 vectors produced by pass  2 Test12= 1.70D-14 5.56D-09 XBig12= 1.25D-01 9.29D-02.
     15 vectors produced by pass  3 Test12= 1.70D-14 5.56D-09 XBig12= 4.10D-03 9.80D-03.
     15 vectors produced by pass  4 Test12= 1.70D-14 5.56D-09 XBig12= 7.50D-05 1.56D-03.
     15 vectors produced by pass  5 Test12= 1.70D-14 5.56D-09 XBig12= 1.02D-06 1.53D-04.
     15 vectors produced by pass  6 Test12= 1.70D-14 5.56D-09 XBig12= 9.84D-09 1.29D-05.
     12 vectors produced by pass  7 Test12= 1.70D-14 5.56D-09 XBig12= 7.86D-11 1.09D-06.
      3 vectors produced by pass  8 Test12= 1.70D-14 5.56D-09 XBig12= 7.18D-13 1.24D-07.
      2 vectors produced by pass  9 Test12= 1.70D-14 5.56D-09 XBig12= 5.06D-15 9.90D-09.
 InvSVY:  IOpt=1 It=  1 EMax= 1.11D-15
 Solved reduced A of dimension   122 with    15 vectors.
 FullF1:  Do perturbations      1 to      18.
 Saving first derivative matrices.
 End of Minotr F.D. properties file   721 does not exist.
 End of Minotr F.D. properties file   722 does not exist.
 End of Minotr F.D. properties file   788 does not exist.
 Leave Link 1002 at Mon Feb 21 21:01:11 2022, MaxMem= 16106127360 cpu:             101.8 elap:               3.7
 (Enter /sw/contrib/gaussian/g16/B01/g16/l811.exe)
 MDV= 16106127360.
 Form MO integral derivatives with frozen-active canonical formalism.
 MOERI=1 MOERIx=1 NAtoms=     5 NAtomX=     5.
 Discarding MO integrals.
 MO basis two electron integral derivatives will not be stored on disk.
 IAlg= 3 DoFC=T DoPWx=T Debug=F.
 Frozen-core window:  NFC=   4 NFV=   0.
 Reordered first order wavefunction length =     18678272
 In DefCFB: NBatch=  1 ICI= 16 ICA=191 LFMax= 96
            Large arrays: LIAPS=   619940160 LIARS=   288257200 words.
 In StABat: MaxSiz= 55 MinSiz= 25 NAtomB=  5
 DoIAMN: NPSUse= 28.
 Leave Link  811 at Mon Feb 21 21:02:51 2022, MaxMem= 16106127360 cpu:            2798.6 elap:             100.4
 (Enter /sw/contrib/gaussian/g16/B01/g16/l804.exe)
 Frozen-core window:  NFC=   4 NFV=   0.
 Closed-shell transformation, MDV= 16106127360 ITran=4 ISComp=1.
 Semi-Direct transformation.
 ModeAB=           2 MOrb=            16 LenV=   16104925835
 LASXX=     67341636 LTotXX=    67341636 LenRXX=    67341636
 LTotAB=    68301760 MaxLAS=    99807120 LenRXY=    99807120
 NonZer=   134683272 LenScr=   202817536 LnRSAI=           0
 LnScr1=           0 LExtra=           0 Total=    369966292
 MaxDsk=          -1 SrtSym=           F ITran=            4
 DoSDTr:  NPSUse= 28
 JobTyp=0 Pass  1:  I=   1 to  16.
 (rs|ai) integrals will be sorted in core.
 Complete sort for first half transformation.
 First half transformation complete.
 Begin second half transformation for I=  10.
 Begin second half transformation for I=  10.
 Complete sort for second half transformation.
 Second half transformation complete.
 SymMOI:  orbitals are not symmetric.
 Spin components of T(2) and E(2):
     alpha-alpha T2 =       0.3402637472D-01 E2=     -0.1224089288D+00
     alpha-beta  T2 =       0.1868545913D+00 E2=     -0.7002527428D+00
     beta-beta   T2 =       0.3402637472D-01 E2=     -0.1224089288D+00
 ANorm=    0.1584239465D+01
 E2 =    -0.9450706004D+00 EUMP2 =    -0.28044682497122D+03
 Leave Link  804 at Mon Feb 21 21:03:05 2022, MaxMem= 16106127360 cpu:             381.5 elap:              13.7
 (Enter /sw/contrib/gaussian/g16/B01/g16/l1002.exe)
 Minotr:  Closed shell wavefunction.
          Computing MP2/KS-MP2 derivatives.
          Using Z-Vector for PSCF gradient.
          Skipping F1 and S1 gradient terms here.
          IDoAtm=11111
          Frozen-core window.
          Using MO integrals in the linear equations.
          Forming densities via direct SCF.
          Differentiating once with respect to electric field.
                with respect to dipole field.
          Differentiating once with respect to nuclear coordinates.
          Requested convergence is 1.0D-10 RMS, and 1.0D-09 maximum.
          NewPWx=F KeepS1=T KeepF1=T KeepIn=T MapXYZ=F SortEE=F KeepMc=T.
          MDV=   16106127360 using IRadAn=       5.
          Solving linear equations separately, MaxMat=       0.
          There are     1 degrees of freedom in the 1st order CPHF.  IDoFFX=0 NUNeed=     1.
 FoFJK:  IHMeth= 1 ICntrl=       0 DoSepK=F KAlg= 0 I1Cent=           0 FoldK=F
 IRaf=         0 NMat=       1 IRICut=       1 DoRegI=T DoRafI=F ISym2E= 0 IDoP0=0 IntGTp=1.
 FoFCou: FMM=F IPFlag=           0 FMFlag=      100000 FMFlg1=           0
         NFxFlg=           0 DoJE=F BraDBF=F KetDBF=F FulRan=T
         wScrn=  0.000000 ICntrl=         0 IOpCl=  0 I1Cent=           0 NGrid=           0
         NMat0=    1 NMatS0=      1 NMatT0=    0 NMatD0=    1 NMtDS0=    0 NMtDT0=    0
 Symmetry not used in FoFCou.
 LinEq1:  Iter=  0 NonCon=     1 RMS=5.96D-03 Max=1.30D-01 NDo=     1
 LinEq1:  Iter=  1 NonCon=     1 RMS=1.90D-03 Max=3.78D-02 NDo=     1
 LinEq1:  Iter=  2 NonCon=     1 RMS=8.67D-04 Max=1.32D-02 NDo=     1
 LinEq1:  Iter=  3 NonCon=     1 RMS=3.86D-04 Max=7.69D-03 NDo=     1
 LinEq1:  Iter=  4 NonCon=     1 RMS=1.19D-04 Max=1.79D-03 NDo=     1
 LinEq1:  Iter=  5 NonCon=     1 RMS=4.55D-05 Max=7.13D-04 NDo=     1
 LinEq1:  Iter=  6 NonCon=     1 RMS=2.04D-05 Max=2.36D-04 NDo=     1
 LinEq1:  Iter=  7 NonCon=     1 RMS=8.21D-06 Max=1.58D-04 NDo=     1
 LinEq1:  Iter=  8 NonCon=     1 RMS=3.57D-06 Max=4.07D-05 NDo=     1
 LinEq1:  Iter=  9 NonCon=     1 RMS=1.03D-06 Max=1.92D-05 NDo=     1
 LinEq1:  Iter= 10 NonCon=     1 RMS=2.56D-07 Max=7.23D-06 NDo=     1
 LinEq1:  Iter= 11 NonCon=     1 RMS=7.39D-08 Max=1.96D-06 NDo=     1
 LinEq1:  Iter= 12 NonCon=     1 RMS=1.99D-08 Max=2.66D-07 NDo=     1
 LinEq1:  Iter= 13 NonCon=     1 RMS=3.85D-09 Max=4.10D-08 NDo=     1
 LinEq1:  Iter= 14 NonCon=     1 RMS=6.21D-10 Max=9.90D-09 NDo=     1
 LinEq1:  Iter= 15 NonCon=     1 RMS=1.32D-10 Max=2.17D-09 NDo=     1
 LinEq1:  Iter= 16 NonCon=     0 RMS=3.35D-11 Max=4.31D-10 NDo=     1
 Linear equations converged to 1.000D-10 1.000D-09 after    16 iterations.
 End of Minotr F.D. properties file   721 does not exist.
 End of Minotr F.D. properties file   722 does not exist.
 End of Minotr F.D. properties file   788 does not exist.
 Leave Link 1002 at Mon Feb 21 21:03:07 2022, MaxMem= 16106127360 cpu:              64.6 elap:               2.4
 (Enter /sw/contrib/gaussian/g16/B01/g16/l1102.exe)
 Use density number 2.
 Symmetrizing basis deriv contribution to polar:
 IMax=3 JMax=2 DiffMx= 0.00D+00
 Leave Link 1102 at Mon Feb 21 21:03:07 2022, MaxMem= 16106127360 cpu:               0.7 elap:               0.1
 (Enter /sw/contrib/gaussian/g16/B01/g16/l1110.exe)
 Forming Gx(P) for generalized density number  2 NAtomX=     5.
 Integral derivatives from FoFJK, PRISM(SPDF).
 Do as many integral derivatives as possible in FoFJK.
 G2DrvN: MDV=   16106126844.
 G2DrvN: will do     6 centers at a time, making    1 passes.
 Calling FoFCou, ICntrl=  3107 FMM=F I1Cent=   0 AccDes= 0.00D+00.
 FoFJK:  IHMeth= 1 ICntrl=    3107 DoSepK=F KAlg= 0 I1Cent=           0 FoldK=F
 IRaf=         0 NMat=       1 IRICut=       1 DoRegI=T DoRafI=F ISym2E= 0 IDoP0=0 IntGTp=1.
 FoFCou: FMM=F IPFlag=           0 FMFlag=      100000 FMFlg1=           0
         NFxFlg=           0 DoJE=F BraDBF=F KetDBF=F FulRan=T
         wScrn=  0.000000 ICntrl=      3107 IOpCl=  0 I1Cent=           0 NGrid=           0
         NMat0=    1 NMatS0=      1 NMatT0=    0 NMatD0=    1 NMtDS0=    0 NMtDT0=    0
 Symmetry not used in FoFCou.
 End of G2Drv F.D. properties file   721 does not exist.
 End of G2Drv F.D. properties file   722 does not exist.
 End of G2Drv F.D. properties file   788 does not exist.
 Leave Link 1110 at Mon Feb 21 21:03:10 2022, MaxMem= 16106127360 cpu:              84.8 elap:               3.1
 (Enter /sw/contrib/gaussian/g16/B01/g16/l1112.exe)
 MP22nd: MDV=   16106127360
 This link is doing NAtomX=     5 total of    18 degrees of freedom.
 Using ON3 I/O method in MakUI.
 Frozen-core window:  NFC=   4 NFV=   0.
 Using Ix for Sx.
 Use MO integrals over full window.
 Using OV2 memory method for fx*t*t/D, MaxI=    16 DoOO2=F NP=  28.
 R2 and R3 integrals will be kept in memory, NReq=   915591705.
 FoFCou: FMM=F IPFlag=           0 FMFlag=           0 FMFlg1=           0
         NFxFlg=           0 DoJE=F BraDBF=F KetDBF=F FulRan=T
         wScrn=  0.000000 ICntrl=       600 IOpCl=  0 I1Cent=           0 NGrid=           0
         NMat0=    1 NMatS0=      1 NMatT0=    0 NMatD0=    1 NMtDS0=    0 NMtDT0=    0
 Symmetry not used in FoFCou.
 DD1Dir will call FoFMem   1 times, MxPair=       272
 NAB=   136 NAA=     0 NBB=     0.
 Symmetry is being used.
 FoFJK:  IHMeth= 1 ICntrl=       0 DoSepK=F KAlg= 0 I1Cent=           0 FoldK=F
 IRaf=         0 NMat=      18 IRICut=      45 DoRegI=T DoRafI=T ISym2E= 2 IDoP0=3 IntGTp=3.
 Discarding MO integrals.
 Leave Link 1112 at Mon Feb 21 21:03:45 2022, MaxMem= 16106127360 cpu:             952.4 elap:              34.3
 (Enter /sw/contrib/gaussian/g16/B01/g16/l601.exe)
 Copying SCF densities to generalized density rwf, IOpCl= 0 IROHF=0.

 **********************************************************************

            Population analysis using the MP2 Density.

 **********************************************************************

 Orbital symmetries:
       Occupied  (A) (A) (A) (A) (A) (A) (A) (A) (A) (A) (A) (A)
                 (A) (A) (A) (A)
       Virtual   (A) (A) (A) (A) (A) (A) (A) (A) (A) (A) (A) (A)
                 (A) (A) (A) (A) (A) (A) (A) (A) (A) (A) (A) (A)
                 (A) (A) (A) (A) (A) (A) (A) (A) (A) (A) (A) (A)
                 (A) (A) (A) (A) (A) (A) (A) (A) (A) (A) (A) (A)
                 (A) (A) (A) (A) (A) (A) (A) (A) (A) (A) (A) (A)
                 (A) (A) (A) (A) (A) (A) (A) (A) (A) (A) (A) (A)
                 (A) (A) (A) (A) (A) (A) (A) (A) (A) (A) (A) (A)
                 (A) (A) (A) (A) (A) (A) (A) (A) (A) (A) (A) (A)
                 (A) (A) (A) (A) (A) (A) (A) (A) (A) (A) (A) (A)
                 (A) (A) (A) (A) (A) (A) (A) (A) (A) (A) (A) (A)
                 (A) (A) (A) (A) (A) (A) (A) (A) (A) (A) (A) (A)
                 (A) (A) (A) (A) (A) (A) (A) (A) (A) (A) (A) (A)
                 (A) (A) (A) (A) (A) (A) (A) (A) (A) (A) (A) (A)
                 (A) (A) (A) (A) (A) (A) (A) (A) (A) (A) (A) (A)
                 (A) (A) (A) (A) (A) (A) (A) (A) (A) (A) (A) (A)
                 (A) (A) (A) (A) (A) (A) (A) (A) (A) (A) (A)
 The electronic state is 1-A.
 Alpha  occ. eigenvalues --  -20.69097 -20.68428 -20.66007 -15.81276  -1.62403
 Alpha  occ. eigenvalues --   -1.49579  -1.25442  -0.94808  -0.77263  -0.75934
 Alpha  occ. eigenvalues --   -0.71241  -0.67905  -0.62013  -0.58909  -0.48621
 Alpha  occ. eigenvalues --   -0.47203
 Alpha virt. eigenvalues --    0.02960   0.07166   0.08593   0.10174   0.13285
 Alpha virt. eigenvalues --    0.13478   0.14398   0.15448   0.17818   0.19413
 Alpha virt. eigenvalues --    0.19948   0.20651   0.22081   0.23539   0.23731
 Alpha virt. eigenvalues --    0.26658   0.29290   0.30132   0.31150   0.34347
 Alpha virt. eigenvalues --    0.35223   0.38741   0.41904   0.42994   0.52720
 Alpha virt. eigenvalues --    0.53038   0.55856   0.58126   0.62596   0.63818
 Alpha virt. eigenvalues --    0.67400   0.68388   0.70669   0.71236   0.72065
 Alpha virt. eigenvalues --    0.73168   0.74664   0.78721   0.79412   0.81040
 Alpha virt. eigenvalues --    0.81355   0.83277   0.86788   0.90834   0.91760
 Alpha virt. eigenvalues --    0.93142   0.95593   0.97272   0.98767   1.01581
 Alpha virt. eigenvalues --    1.05454   1.05652   1.08316   1.11546   1.13281
 Alpha virt. eigenvalues --    1.19606   1.21961   1.23356   1.33765   1.35066
 Alpha virt. eigenvalues --    1.38778   1.45473   1.49073   1.50852   1.53745
 Alpha virt. eigenvalues --    1.56714   1.58036   1.60713   1.66516   1.66711
 Alpha virt. eigenvalues --    1.70493   1.79051   1.83019   1.83636   1.87995
 Alpha virt. eigenvalues --    1.90696   1.95614   1.98452   2.02018   2.07765
 Alpha virt. eigenvalues --    2.11746   2.12894   2.15376   2.22242   2.25954
 Alpha virt. eigenvalues --    2.27019   2.28813   2.31269   2.34373   2.38725
 Alpha virt. eigenvalues --    2.40882   2.44491   2.45388   2.46540   2.47619
 Alpha virt. eigenvalues --    2.50482   2.58957   2.59792   2.61935   2.62559
 Alpha virt. eigenvalues --    2.63676   2.66630   2.75307   2.82731   2.84982
 Alpha virt. eigenvalues --    2.88796   2.89655   2.91994   2.95942   3.02199
 Alpha virt. eigenvalues --    3.07349   3.12048   3.20460   3.22836   3.31613
 Alpha virt. eigenvalues --    3.34105   3.51496   3.64617   3.83771   3.84729
 Alpha virt. eigenvalues --    4.13950   4.16377   4.19682   4.25542   4.34411
 Alpha virt. eigenvalues --    4.39383   4.47113   4.52222   4.65520   4.71099
 Alpha virt. eigenvalues --    4.80450   4.82357   4.82712   4.89650   5.02282
 Alpha virt. eigenvalues --    5.07415   5.10215   5.14539   5.18184   5.24711
 Alpha virt. eigenvalues --    5.27174   5.30564   5.32991   5.35306   5.60247
 Alpha virt. eigenvalues --    5.67359   5.76456   5.83111   5.95555   6.16919
 Alpha virt. eigenvalues --    6.31079   6.34020   6.39309   6.49404   6.50522
 Alpha virt. eigenvalues --    6.61887   6.65943   6.70407   6.75031   6.76831
 Alpha virt. eigenvalues --    6.83415   6.89835   7.01230   7.05492   7.05756
 Alpha virt. eigenvalues --    7.09280   7.12607   7.14735   7.18655   7.22487
 Alpha virt. eigenvalues --    7.23958   7.30524   7.32310   7.35334   7.39486
 Alpha virt. eigenvalues --    7.42939   7.48567   7.60693   7.61825   7.63077
 Alpha virt. eigenvalues --    7.67105   7.78663   7.88515   8.09204   8.31290
 Alpha virt. eigenvalues --    8.40311   8.54235  13.38725  14.39764  15.16100
 Alpha virt. eigenvalues --   16.15105
          Condensed to atoms (all electrons):
               1          2          3          4          5
     1  H    0.590043   0.128417   0.020138   0.011887  -0.000618
     2  O    0.128417   8.320886  -0.172863  -0.090062   0.015249
     3  O    0.020138  -0.172863   8.468080  -0.129540  -0.038732
     4  N    0.011887  -0.090062  -0.129540   6.970777  -0.054955
     5  O   -0.000618   0.015249  -0.038732  -0.054955   8.272373
 Mulliken charges:
               1
     1  H    0.250133
     2  O   -0.201628
     3  O   -0.147083
     4  N    0.291894
     5  O   -0.193316
 Sum of Mulliken charges =  -0.00000
 Mulliken charges with hydrogens summed into heavy atoms:
               1
     2  O    0.048506
     3  O   -0.147083
     4  N    0.291894
     5  O   -0.193316
 APT charges:
               1
     1  H    0.298446
     2  O   -0.287554
     3  O   -0.494604
     4  N    0.875747
     5  O   -0.392035
 Sum of APT charges =  -0.00000
 APT charges with hydrogens summed into heavy atoms:
               1
     2  O    0.010891
     3  O   -0.494604
     4  N    0.875747
     5  O   -0.392035
 Electronic spatial extent (au):  <R**2>=            252.8603
 Charge=             -0.0000 electrons
 Dipole moment (field-independent basis, Debye):
    X=              1.2091    Y=              0.7795    Z=              0.2322  Tot=              1.4572
 Quadrupole moment (field-independent basis, Debye-Ang):
   XX=            -18.0468   YY=            -23.1096   ZZ=            -21.9676
   XY=              2.7537   XZ=              0.6123   YZ=              0.1879
 Traceless Quadrupole moment (field-independent basis, Debye-Ang):
   XX=              2.9945   YY=             -2.0683   ZZ=             -0.9263
   XY=              2.7537   XZ=              0.6123   YZ=              0.1879
 Octapole moment (field-independent basis, Debye-Ang**2):
  XXX=             18.0029  YYY=              1.7536  ZZZ=              0.0759  XYY=              1.0555
  XXY=              6.0934  XXZ=              1.4671  XZZ=             -1.6847  YZZ=              0.2630
  YYZ=              0.0305  XYZ=              0.3211
 Hexadecapole moment (field-independent basis, Debye-Ang**3):
 XXXX=           -190.6786 YYYY=            -41.0869 ZZZZ=            -18.2711 XXXY=             11.8486
 XXXZ=              3.7196 YYYX=              0.9780 YYYZ=              0.1734 ZZZX=              0.2266
 ZZZY=              0.1248 XXYY=            -42.5260 XXZZ=            -41.4548 YYZZ=             -9.8708
 XXYZ=              0.7622 YYXZ=              0.1625 ZZXY=              0.5024
 N-N= 1.168753147631D+02 E-N=-8.958610650465D+02  KE= 2.801976807521D+02
  Exact polarizability:  41.708   0.962  22.512   0.121   0.023  17.950
 Approx polarizability:  31.936  -1.145  20.563   0.105   0.087  15.552
 No NMR shielding tensors so no spin-rotation constants.
 Leave Link  601 at Mon Feb 21 21:03:45 2022, MaxMem= 16106127360 cpu:               6.1 elap:               0.3
 (Enter /sw/contrib/gaussian/g16/B01/g16/l701.exe)
 ... and contract with generalized density number  2.
 Compute integral second derivatives.
 Leave Link  701 at Mon Feb 21 21:03:45 2022, MaxMem= 16106127360 cpu:               6.1 elap:               0.2
 (Enter /sw/contrib/gaussian/g16/B01/g16/l702.exe)
 L702 exits ... SP integral derivatives will be done elsewhere.
 Leave Link  702 at Mon Feb 21 21:03:45 2022, MaxMem= 16106127360 cpu:               0.5 elap:               0.0
 (Enter /sw/contrib/gaussian/g16/B01/g16/l703.exe)
 Integral derivatives from FoFJK, PRISM(SPDF).
 Compute integral second derivatives, UseDBF=F ICtDFT=           0.
 Calling FoFJK, ICntrl=  10100127 FMM=F ISym2X=0 I1Cent= 0 IOpClX= 0 NMat=1 NMatS=1 NMatT=0.
 FoFJK:  IHMeth= 1 ICntrl=10100127 DoSepK=F KAlg= 0 I1Cent=           0 FoldK=F
 IRaf=         0 NMat=       1 IRICut=       1 DoRegI=T DoRafI=F ISym2E= 0 IDoP0=0 IntGTp=1.
 FoFCou: FMM=F IPFlag=           0 FMFlag=      100000 FMFlg1=         800
         NFxFlg=           0 DoJE=F BraDBF=F KetDBF=F FulRan=T
         wScrn=  0.000000 ICntrl=  10100127 IOpCl=  0 I1Cent=           0 NGrid=           0
         NMat0=    1 NMatS0=      1 NMatT0=    0 NMatD0=    1 NMtDS0=    0 NMtDT0=    0
 Symmetry not used in FoFCou.
 Leave Link  703 at Mon Feb 21 21:04:00 2022, MaxMem= 16106127360 cpu:             424.9 elap:              15.2
 (Enter /sw/contrib/gaussian/g16/B01/g16/l716.exe)
 Dipole        = 4.75689358D-01 3.06660286D-01 9.13572208D-02
 Polarizability= 4.17081956D+01 9.62296943D-01 2.25122393D+01
                 1.20670926D-01 2.33253286D-02 1.79501824D+01
 Full mass-weighted force constant matrix:
 Low frequencies --- -263.0042   -7.0449   -0.0016   -0.0007   -0.0005    2.6292
 Low frequencies ---   14.5761  228.4910  342.4103
 ******    1 imaginary frequencies (negative Signs) ****** 
 Diagonal vibrational polarizability:
       35.0074197       5.1762379      47.8217757
 Harmonic frequencies (cm**-1), IR intensities (KM/Mole), Raman scattering
 activities (A**4/AMU), depolarization ratios for plane and unpolarized
 incident light, reduced masses (AMU), force constants (mDyne/A),
 and normal coordinates:
                      1                      2                      3
                      A                      A                      A
 Frequencies --   -263.0036               228.4788               342.4081
 Red. masses --      1.1405                10.5795                 8.6338
 Frc consts  --      0.0465                 0.3254                 0.5964
 IR Inten    --    125.2631                 0.8282                 4.8016
  Atom  AN      X      Y      Z        X      Y      Z        X      Y      Z
     1   1    -0.07  -0.11   0.99     0.07  -0.03  -0.56     0.16  -0.67   0.05
     2   8     0.01   0.01  -0.06    -0.01  -0.00  -0.31    -0.30  -0.25   0.01
     3   8     0.01  -0.00  -0.04     0.00   0.01   0.33     0.14   0.43  -0.02
     4   7    -0.01  -0.00   0.06     0.01   0.01   0.53     0.19   0.18  -0.00
     5   8    -0.00   0.00  -0.01    -0.00  -0.01  -0.44    -0.02  -0.30   0.01
                      4                      5                      6
                      A                      A                      A
 Frequencies --    452.4180               785.7943               966.6050
 Red. masses --     12.2213                12.9380                15.3573
 Frc consts  --      1.4738                 4.7069                 8.4540
 IR Inten    --    197.6764               169.9946                23.5156
  Atom  AN      X      Y      Z        X      Y      Z        X      Y      Z
     1   1    -0.45   0.08   0.08    -0.16   0.34   0.08    -0.15   0.07  -0.07
     2   8    -0.38   0.03  -0.00     0.39  -0.18  -0.01    -0.40   0.33   0.00
     3   8    -0.40  -0.25   0.00    -0.21  -0.18   0.00     0.59  -0.46   0.01
     4   7     0.52   0.12  -0.00     0.26   0.58  -0.00     0.05   0.27  -0.01
     5   8     0.35   0.11  -0.00    -0.39  -0.17   0.00    -0.22  -0.11   0.00
                      7                      8                      9
                      A                      A                      A
 Frequencies --   1371.5921              1677.2778              3778.3465
 Red. masses --      1.1323                13.2419                 1.0676
 Frc consts  --      1.2550                21.9488                 8.9794
 IR Inten    --    151.2731               140.8625                81.9964
  Atom  AN      X      Y      Z        X      Y      Z        X      Y      Z
     1   1     0.77  -0.63  -0.02     0.27  -0.21  -0.01     0.67   0.73   0.14
     2   8     0.01   0.06   0.01     0.03   0.03   0.00    -0.04  -0.04  -0.01
     3   8    -0.05  -0.03  -0.01    -0.09  -0.12   0.00     0.00  -0.00  -0.00
     4   7     0.02  -0.00  -0.00    -0.54   0.46  -0.00    -0.00  -0.00   0.00
     5   8    -0.03   0.01   0.00     0.52  -0.30   0.00     0.00  -0.00  -0.00

 -------------------
 - Thermochemistry -
 -------------------
 Temperature   298.150 Kelvin.  Pressure   1.00000 Atm.
 Atom     1 has atomic number  1 and mass   1.00783
 Atom     2 has atomic number  8 and mass  15.99491
 Atom     3 has atomic number  8 and mass  15.99491
 Atom     4 has atomic number  7 and mass  14.00307
 Atom     5 has atomic number  8 and mass  15.99491
 Molecular mass:    62.99564 amu.
 Principal axes and moments of inertia in atomic units:
                           1         2         3
     Eigenvalues --    32.88137 360.11807 392.85889
           X            0.99994   0.01052   0.00280
           Y           -0.01054   0.99993   0.00605
           Z           -0.00274  -0.00608   0.99998
 This molecule is an asymmetric top.
 Rotational symmetry number  1.
 Rotational temperatures (Kelvin)      2.63413     0.24052     0.22047
 Rotational constants (GHZ):          54.88643     5.01153     4.59387
    1 imaginary frequencies ignored.
 Zero-point vibrational energy      57438.2 (Joules/Mol)
                                   13.72806 (Kcal/Mol)
 Warning -- explicit consideration of   3 degrees of freedom as
           vibrations may cause significant error
 Vibrational temperatures:    328.73   492.65   650.93  1130.58  1390.73
          (Kelvin)           1973.42  2413.23  5436.20
 
 Zero-point correction=                           0.021877 (Hartree/Particle)
 Thermal correction to Energy=                    0.025994
 Thermal correction to Enthalpy=                  0.026938
 Thermal correction to Gibbs Free Energy=        -0.004245
 Sum of electronic and zero-point Energies=           -280.424948
 Sum of electronic and thermal Energies=              -280.420831
 Sum of electronic and thermal Enthalpies=            -280.419887
 Sum of electronic and thermal Free Energies=         -280.451070
 
                     E (Thermal)             CV                S
                      KCal/Mol        Cal/Mol-Kelvin    Cal/Mol-Kelvin
 Total                   16.311             11.951             65.630
 Electronic               0.000              0.000              0.000
 Translational            0.889              2.981             38.341
 Rotational               0.889              2.981             23.057
 Vibrational             14.534              5.990              4.232
 Vibration     1          0.651              1.798              1.891
 Vibration     2          0.722              1.591              1.201
 Vibration     3          0.811              1.356              0.788
                       Q            Log10(Q)             Ln(Q)
 Total Bot       0.896596D+02          1.952597          4.496020
 Total V=0       0.103595D+13         12.015338         27.666339
 Vib (Bot)       0.186860D-09         -9.728484        -22.400663
 Vib (Bot)    1  0.862613D+00         -0.064184         -0.147789
 Vib (Bot)    2  0.541463D+00         -0.266431         -0.613480
 Vib (Bot)    3  0.378301D+00         -0.422163         -0.972066
 Vib (V=0)       0.215902D+01          0.334257          0.769656
 Vib (V=0)    1  0.149705D+01          0.175235          0.403494
 Vib (V=0)    2  0.123701D+01          0.092373          0.212697
 Vib (V=0)    3  0.112699D+01          0.051919          0.119547
 Electronic      0.100000D+01          0.000000          0.000000
 Translational   0.196526D+08          7.293420         16.793719
 Rotational      0.244153D+05          4.387661         10.102964
 
                                                                title
                                                             IR Spectrum
 
     3                                                                      1         1                                              
     7                                                                      6         3             9     7          4   3   2       
     7                                                                      7         7             6     8          5   4   2       
     8                                                                      7         2             7     6          2   2   8       
 
     X                                                                      X         X             X     X          X   X   X       
     X                                                                      X         X             X     X          X               
     X                                                                      X         X                   X          X               
     X                                                                      X         X                   X          X               
     X                                                                      X         X                   X          X               
     X                                                                      X         X                   X          X               
     X                                                                      X         X                   X          X               
     X                                                                      X         X                   X          X               
                                                                            X         X                   X          X               
                                                                            X         X                   X          X               
                                                                            X         X                   X          X               
                                                                            X         X                   X          X               
                                                                            X         X                   X          X               
                                                                            X         X                   X          X               
                                                                                      X                   X          X               
                                                                                                          X          X               
                                                                                                          X          X               
                                                                                                                     X               
                                                                                                                     X               
                                                                                                                     X               
 
 ***** Axes restored to original set *****
 -------------------------------------------------------------------
 Center     Atomic                   Forces (Hartrees/Bohr)
 Number     Number              X              Y              Z
 -------------------------------------------------------------------
      1        1          -0.000027052   -0.000642438    0.000003795
      2        8           0.000437763    0.000838792   -0.000039078
      3        8          -0.000515508    0.000269197    0.000022253
      4        7          -0.000296877   -0.000737609   -0.000129284
      5        8           0.000401674    0.000272059    0.000142313
 -------------------------------------------------------------------
 Cartesian Forces:  Max     0.000838792 RMS     0.000412589
 -----------------------------------------------------------------------------------------------
                       Internal Coordinate Forces (Hartree/Bohr or radian)
  Cent   Atom   N1       Length/X         N2         Alpha/Y        N3         Beta/Z          J
 -----------------------------------------------------------------------------------------------
      1  H 
      2  O        1  -0.000004(     1)
      3  O        2  -0.000402(     2)      1   0.000050(     5)
      4  N        3   0.000091(     3)      2   0.000252(     6)      1   0.001166(     8)     0
      5  O        4   0.000419(     4)      3  -0.000009(     7)      2   0.000590(     9)     0
 -----------------------------------------------------------------------------------------------
 Internal  Forces:  Max     0.001165996 RMS     0.000485371
 Force constants in Cartesian coordinates: 
                1             2             3             4             5 
      1  0.646944D-01
      2 -0.722702D-03 -0.221223D-02
      3  0.520778D-02  0.362156D-03  0.512251D+00
      4 -0.356956D-01  0.198236D-02 -0.161326D-01  0.272227D+00
      5  0.294723D-03  0.296147D-02 -0.568053D-03 -0.447317D-02  0.297661D-02
      6  0.483070D-01 -0.140794D-02 -0.508574D+00  0.333984D-01 -0.406776D-02
      7 -0.186193D-01 -0.229843D-02  0.124109D-01 -0.219438D+00 -0.283192D-02
      8  0.106881D-02  0.983613D-03 -0.269309D-03  0.174998D-02 -0.741287D-02
      9 -0.530457D-01  0.892461D-04 -0.387138D-03 -0.193647D-01  0.393024D-02
     10 -0.912307D-02  0.826526D-03 -0.481521D-02 -0.174695D-01  0.680506D-02
     11 -0.187890D-02 -0.268100D-02  0.564944D-03  0.325775D-03 -0.436440D-02
     12  0.509348D-02  0.614606D-03 -0.469872D-02  0.115604D-01 -0.271681D-02
     13 -0.125642D-02  0.212249D-03  0.332910D-02  0.375952D-03  0.205300D-03
     14  0.123808D-02  0.948158D-03 -0.897388D-04  0.415057D-03  0.583919D-02
     15 -0.556250D-02  0.341934D-03  0.140887D-02 -0.946154D-02  0.342237D-02
                6             7             8             9            10 
      6  0.594133D+00
      7 -0.215919D-01  0.340931D+00
      8  0.631516D-02  0.469382D-02  0.744104D-02
      9 -0.779726D-01  0.364617D-01 -0.203190D-01  0.178198D+00
     10 -0.519575D-01 -0.776328D-01 -0.280521D-01  0.172480D+00  0.828209D+00
     11 -0.564351D-02 -0.133097D-01  0.575410D-02  0.172959D-01  0.197922D-01
     12  0.163916D-01  0.619730D-01  0.137988D-01 -0.795428D-01 -0.158749D-01
     13 -0.815598D-02 -0.252411D-01  0.205395D-01 -0.136532D+00 -0.723984D+00
     14  0.480406D-02  0.137462D-01 -0.676589D-02 -0.996406D-03  0.628274D-03
     15 -0.239775D-01 -0.892537D-01  0.474321D-03 -0.202959D-01 -0.998328D-01
               11            12            13            14            15 
     11  0.130067D-01
     12 -0.265186D-01  0.182917D+00
     13 -0.492940D-02 -0.627520D-01  0.750106D+00
     14 -0.117154D-01  0.148220D-01 -0.160276D-01  0.116939D-01
     15  0.143013D-01 -0.115067D+00  0.204111D+00 -0.185399D-01  0.157932D+00
 Force constants in internal coordinates: 
                1             2             3             4             5 
      1  0.512251D+00
      2 -0.103429D-01  0.280996D+00
      3  0.343639D-02  0.278564D-02  0.117334D+00
      4 -0.357486D-02  0.591535D-02  0.152905D+00  0.812133D+00
      5  0.950885D-02  0.655853D-01  0.225851D-02  0.478325D-02  0.216911D+00
      6  0.451535D-02  0.594010D-01  0.411162D-01  0.219669D-01  0.310407D-01
      7 -0.119739D-02  0.377876D-01  0.319927D-01  0.847130D-01  0.210768D-01
      8  0.205545D-04  0.201536D-02 -0.233691D-02 -0.495567D-03 -0.224723D-02
      9 -0.119694D-03  0.914879D-03 -0.859578D-05 -0.613284D-04 -0.156149D-02
                6             7             8             9 
      6  0.283906D+00
      7  0.959095D-01  0.482584D+00
      8 -0.398821D-02 -0.527774D-03 -0.730081D-02
      9 -0.371992D-04  0.354190D-03 -0.373576D-02  0.410139D-01
 Leave Link  716 at Mon Feb 21 21:04:01 2022, MaxMem= 16106127360 cpu:               0.8 elap:               0.0
 (Enter /sw/contrib/gaussian/g16/B01/g16/l103.exe)

 GradGradGradGradGradGradGradGradGradGradGradGradGradGradGradGradGradGrad
 Berny optimization.
 Search for a local minimum.
 Step number   1 out of a maximum of    2
 All quantities printed in internal units (Hartrees-Bohrs-Radians)
 Second derivative matrix not updated -- analytic derivatives used.
 The second derivative matrix:
                          r1        r2        r3        r4        a1
           r1           0.51225
           r2          -0.01034   0.28100
           r3           0.00344   0.00279   0.11733
           r4          -0.00357   0.00592   0.15290   0.81213
           a1           0.00951   0.06559   0.00226   0.00478   0.21691
           a2           0.00452   0.05940   0.04112   0.02197   0.03104
           a3          -0.00120   0.03779   0.03199   0.08471   0.02108
           d1           0.00002   0.00202  -0.00234  -0.00050  -0.00225
           d2          -0.00012   0.00091  -0.00001  -0.00006  -0.00156
                          a2        a3        d1        d2
           a2           0.28391
           a3           0.09591   0.48258
           d1          -0.00399  -0.00053  -0.00730
           d2          -0.00004   0.00035  -0.00374   0.04101
 ITU=  0
     Eigenvalues ---   -0.00774   0.04128   0.07848   0.17515   0.22607
     Eigenvalues ---    0.32530   0.51289   0.51739   0.87100
 Eigenvalue     1 is  -7.74D-03 should be greater than     0.000000 Eigenvector:
                          d1        d2        r3        a2        r2
   1                    0.99661   0.07703   0.01852   0.01310  -0.01264
                          a1        r4        a3        r1
   1                    0.01246  -0.00300  -0.00180  -0.00076
 Angle between quadratic step and forces=  30.13 degrees.
 Linear search not attempted -- first point.
 Variable       Old X    -DE/DX   Delta X   Delta X   Delta X     New X
                                 (Linear)    (Quad)   (Total)
    r1        1.83110  -0.00000   0.00000  -0.00017  -0.00017   1.83093
    r2        2.74940  -0.00040   0.00000  -0.00378  -0.00378   2.74562
    r3        2.75670   0.00009   0.00000   0.00231   0.00231   2.75901
    r4        2.21236   0.00042   0.00000   0.00016   0.00016   2.21252
    a1        1.70335   0.00005   0.00000   0.00258   0.00258   1.70593
    a2        1.78543   0.00025   0.00000   0.00331   0.00331   1.78873
    a3        1.90362  -0.00001   0.00000  -0.00051  -0.00051   1.90311
    d1        3.29476   0.00117   0.00000   0.15580   0.15580   3.45056
    d2        3.14159   0.00059   0.00000   0.02420   0.02420   3.16579
         Item               Value     Threshold  Converged?
 Maximum Force            0.001166     0.000450     NO 
 RMS     Force            0.000485     0.000300     NO 
 Maximum Displacement     0.155796     0.001800     NO 
 RMS     Displacement     0.052595     0.001200     NO 
 Predicted change in Energy=-2.907819D-04
                       ----------------------------
                       ! Non-Optimized Parameters !
                       ! (Angstroms and Degrees)  !
 ----------------------                            ----------------------
 !      Name          Value   Derivative information (Atomic Units)     !
 ------------------------------------------------------------------------
 !       r1          0.9689   -DE/DX =    0.0                           !
 !       r2          1.4529   -DE/DX =   -0.0004                        !
 !       r3          1.46     -DE/DX =    0.0001                        !
 !       r4          1.1708   -DE/DX =    0.0004                        !
 !       a1         97.7426   -DE/DX =    0.0                           !
 !       a2        102.487    -DE/DX =    0.0003                        !
 !       a3        109.0402   -DE/DX =    0.0                           !
 !       d1        197.7023   -DE/DX =    0.0012                        !
 !       d2        181.3867   -DE/DX =    0.0006                        !
 ------------------------------------------------------------------------
 GradGradGradGradGradGradGradGradGradGradGradGradGradGradGradGradGradGrad

 Leave Link  103 at Mon Feb 21 21:04:01 2022, MaxMem= 16106127360 cpu:               0.5 elap:               0.0
 (Enter /sw/contrib/gaussian/g16/B01/g16/l9999.exe)

 ----------------------------------------------------------------------

 Electric dipole moment (input orientation):
 (Debye = 10**-18 statcoulomb cm , SI units = C m)
                  (au)            (Debye)         (10**-30 SI)
   Tot        0.573295D+00      0.145717D+01      0.486060D+01
   x         -0.146522D+00     -0.372422D+00     -0.124227D+01
   y         -0.177902D-01     -0.452182D-01     -0.150832D+00
   z         -0.553969D+00     -0.140805D+01     -0.469675D+01

 Dipole polarizability, Alpha (input orientation).
 (esu units = cm**3 , SI units = C**2 m**2 J**-1)
 Alpha(0;0):
               (au)            (10**-24 esu)      (10**-40 SI)
   iso        0.273902D+02      0.405881D+01      0.451603D+01
   aniso      0.219019D+02      0.324553D+01      0.361114D+01
   xx         0.321391D+02      0.476252D+01      0.529902D+01
   yx        -0.102846D+01     -0.152402D+00     -0.169570D+00
   yy         0.181541D+02      0.269016D+01      0.299320D+01
   zx         0.959292D+01      0.142152D+01      0.158166D+01
   zy        -0.167912D+01     -0.248819D+00     -0.276849D+00
   zz         0.318774D+02      0.472375D+01      0.525588D+01

 ----------------------------------------------------------------------

 Dipole orientation:
     1         -0.00000000         -0.00000000          0.00000000
     8         -0.46799041          0.05682171         -1.76937213
     8          2.07388054          0.07909047         -2.81703201
     7          1.60386752          0.57503869         -5.48771188
     8          3.53686228          0.64040807         -6.56185392

 Electric dipole moment (dipole orientation):
 (Debye = 10**-18 statcoulomb cm , SI units = C m)
                  (au)            (Debye)         (10**-30 SI)
   Tot        0.573295D+00      0.145717D+01      0.486060D+01
   x          0.000000D+00      0.000000D+00      0.000000D+00
   y          0.000000D+00      0.000000D+00      0.000000D+00
   z          0.573295D+00      0.145717D+01      0.486060D+01

 Dipole polarizability, Alpha (dipole orientation).
 (esu units = cm**3 , SI units = C**2 m**2 J**-1)
 Alpha(0;0):
               (au)            (10**-24 esu)      (10**-40 SI)
   iso        0.273902D+02      0.405881D+01      0.451603D+01
   aniso      0.219019D+02      0.324553D+01      0.361114D+01
   xx         0.273857D+02      0.405815D+01      0.451530D+01
   yx         0.788697D+00      0.116873D+00      0.130039D+00
   yy         0.182824D+02      0.270917D+01      0.301436D+01
   zx        -0.839143D+01     -0.124348D+01     -0.138356D+01
   zy        -0.242208D+01     -0.358916D+00     -0.399348D+00
   zz         0.365025D+02      0.540911D+01      0.601845D+01

 ----------------------------------------------------------------------
 1\1\GINC-N2110\Freq\RMP2-FC\Aug-CC-pVTZ\H1N1O3\CGAVINH\21-Feb-2022\1\\
 #p freq mp2/aug-cc-pvtz density=current\\title\\0,1\H\O,1,r1\O,2,r2,1,
 a1\N,3,r3,2,a2,1,d1,0\O,4,r4,3,a3,2,d2,0\\r1=0.96897556\r2=1.45491931\
 r3=1.45878406\r4=1.17072885\a1=97.59494903\a2=102.29752444\a3=109.0695
 5123\d1=188.77578004\d2=180.\\Version=ES64L-G16RevB.01\State=1-A\HF=-2
 79.5017544\MP2=-280.446825\RMSD=5.008e-09\RMSF=4.126e-04\ZeroPoint=0.0
 218771\Thermal=0.0259938\Dipole=-0.1465222,-0.0177902,-0.5539691\Dipol
 eDeriv=0.2659339,0.0013288,0.0481103,0.0015284,0.3547615,0.0014905,0.0
 817363,-0.006612,0.2746412,-0.327716,0.0134618,-0.2057529,-0.0101739,-
 0.3132902,-0.0040304,-0.1119986,0.0106622,-0.2216565,-0.0474302,-0.013
 168,0.1455935,0.1243885,-0.1119087,0.1885912,-0.7431371,0.1634169,-1.3
 244727,0.8970598,-0.1177062,0.9017638,-0.1191707,0.0954738,-0.2170102,
 0.9154461,-0.2144646,1.6347076,-0.7878475,0.1160836,-0.8897148,0.00342
 78,-0.0250365,0.0309589,-0.1420467,0.0469976,-0.3632196\Polar=32.13909
 86,-1.0284608,18.1540864,9.5929208,-1.6791165,31.8774324\Quadrupole=-1
 .5050437,-0.7471473,2.252191,-0.0556909,2.0889503,0.0348413\PG=C01 [X(
 H1N1O3)]\NImag=1\\0.06469439,-0.00072270,-0.00221223,0.00520778,0.0003
 6216,0.51225119,-0.03569562,0.00198236,-0.01613255,0.27222685,0.000294
 72,0.00296147,-0.00056805,-0.00447317,0.00297661,0.04830697,-0.0014079
 4,-0.50857421,0.03339838,-0.00406776,0.59413272,-0.01861927,-0.0022984
 3,0.01241088,-0.21943767,-0.00283192,-0.02159190,0.34093081,0.00106881
 ,0.00098361,-0.00026931,0.00174998,-0.00741287,0.00631516,0.00469382,0
 .00744104,-0.05304573,0.00008925,-0.00038714,-0.01936469,0.00393024,-0
 .07797262,0.03646173,-0.02031897,0.17819846,-0.00912307,0.00082653,-0.
 00481521,-0.01746952,0.00680506,-0.05195748,-0.07763275,-0.02805208,0.
 17248046,0.82820946,-0.00187890,-0.00268100,0.00056494,0.00032577,-0.0
 0436440,-0.00564351,-0.01330968,0.00575410,0.01729589,0.01979221,0.013
 00666,0.00509348,0.00061461,-0.00469872,0.01156041,-0.00271681,0.01639
 158,0.06197303,0.01379880,-0.07954279,-0.01587495,-0.02651863,0.182917
 17,-0.00125642,0.00021225,0.00332910,0.00037595,0.00020530,-0.00815598
 ,-0.02524112,0.02053947,-0.13653177,-0.72398411,-0.00492940,-0.0627519
 7,0.75010570,0.00123808,0.00094816,-0.00008974,0.00041506,0.00583919,0
 .00480406,0.01374621,-0.00676589,-0.00099641,0.00062827,-0.01171536,0.
 01482203,-0.01602762,0.01169390,-0.00556250,0.00034193,0.00140887,-0.0
 0946154,0.00342237,-0.02397747,-0.08925374,0.00047432,-0.02029590,-0.0
 9983283,0.01430131,-0.11506724,0.20411061,-0.01853994,0.15793174\\0.00
 002705,0.00064244,-0.00000379,-0.00043776,-0.00083879,0.00003908,0.000
 51551,-0.00026920,-0.00002225,0.00029688,0.00073761,0.00012928,-0.0004
 0167,-0.00027206,-0.00014231\\\@


 IMAGINATION WILL OFTEN CARRY US TO WORLDS THAT NEVER WERE.
 BUT WITHOUT IT, WE GO NOWHERE. -- CARL SAGAN (COSMOS)
 Job cpu time:       0 days  2 hours  8 minutes 41.0 seconds.
 Elapsed time:       0 days  0 hours  4 minutes 43.9 seconds.
 File lengths (MBytes):  RWF=   7239 Int=      0 D2E=      0 Chk=      8 Scr=      1
 Normal termination of Gaussian 16 at Mon Feb 21 21:04:02 2022.
