 Entering Gaussian System, Link 0=g16
 Input=hoono_r1_0p981199.gjf
 Output=hoono_r1_0p981199.log
 Initial command:
 /sw/contrib/gaussian/g16/B01/g16/l1.exe "/scr/Gau-7177.inp" -scrdir="/scr/"
 Entering Link 1 = /sw/contrib/gaussian/g16/B01/g16/l1.exe PID=      7178.
  
 Copyright (c) 1988-2017, Gaussian, Inc.  All Rights Reserved.
  
 This is part of the Gaussian(R) 16 program.  It is based on
 the Gaussian(R) 09 system (copyright 2009, Gaussian, Inc.),
 the Gaussian(R) 03 system (copyright 2003, Gaussian, Inc.),
 the Gaussian(R) 98 system (copyright 1998, Gaussian, Inc.),
 the Gaussian(R) 94 system (copyright 1995, Gaussian, Inc.),
 the Gaussian 92(TM) system (copyright 1992, Gaussian, Inc.),
 the Gaussian 90(TM) system (copyright 1990, Gaussian, Inc.),
 the Gaussian 88(TM) system (copyright 1988, Gaussian, Inc.),
 the Gaussian 86(TM) system (copyright 1986, Carnegie Mellon
 University), and the Gaussian 82(TM) system (copyright 1983,
 Carnegie Mellon University). Gaussian is a federally registered
 trademark of Gaussian, Inc.
  
 This software contains proprietary and confidential information,
 including trade secrets, belonging to Gaussian, Inc.
  
 This software is provided under written license and may be
 used, copied, transmitted, or stored only in accord with that
 written license.
  
 The following legend is applicable only to US Government
 contracts under FAR:
  
                    RESTRICTED RIGHTS LEGEND
  
 Use, reproduction and disclosure by the US Government is
 subject to restrictions as set forth in subparagraphs (a)
 and (c) of the Commercial Computer Software - Restricted
 Rights clause in FAR 52.227-19.
  
 Gaussian, Inc.
 340 Quinnipiac St., Bldg. 40, Wallingford CT 06492
  
  
 ---------------------------------------------------------------
 Warning -- This program may not be used in any manner that
 competes with the business of Gaussian, Inc. or will provide
 assistance to any competitor of Gaussian, Inc.  The licensee
 of this program is prohibited from giving any competitor of
 Gaussian, Inc. access to this program.  By using this program,
 the user acknowledges that Gaussian, Inc. is engaged in the
 business of creating and licensing software in the field of
 computational chemistry and represents and warrants to the
 licensee that it is not a competitor of Gaussian, Inc. and that
 it will not use this program in any manner prohibited above.
 ---------------------------------------------------------------
  

 Cite this work as:
 Gaussian 16, Revision B.01,
 M. J. Frisch, G. W. Trucks, H. B. Schlegel, G. E. Scuseria, 
 M. A. Robb, J. R. Cheeseman, G. Scalmani, V. Barone, 
 G. A. Petersson, H. Nakatsuji, X. Li, M. Caricato, A. V. Marenich, 
 J. Bloino, B. G. Janesko, R. Gomperts, B. Mennucci, H. P. Hratchian, 
 J. V. Ortiz, A. F. Izmaylov, J. L. Sonnenberg, D. Williams-Young, 
 F. Ding, F. Lipparini, F. Egidi, J. Goings, B. Peng, A. Petrone, 
 T. Henderson, D. Ranasinghe, V. G. Zakrzewski, J. Gao, N. Rega, 
 G. Zheng, W. Liang, M. Hada, M. Ehara, K. Toyota, R. Fukuda, 
 J. Hasegawa, M. Ishida, T. Nakajima, Y. Honda, O. Kitao, H. Nakai, 
 T. Vreven, K. Throssell, J. A. Montgomery, Jr., J. E. Peralta, 
 F. Ogliaro, M. J. Bearpark, J. J. Heyd, E. N. Brothers, K. N. Kudin, 
 V. N. Staroverov, T. A. Keith, R. Kobayashi, J. Normand, 
 K. Raghavachari, A. P. Rendell, J. C. Burant, S. S. Iyengar, 
 J. Tomasi, M. Cossi, J. M. Millam, M. Klene, C. Adamo, R. Cammi, 
 J. W. Ochterski, R. L. Martin, K. Morokuma, O. Farkas, 
 J. B. Foresman, and D. J. Fox, Gaussian, Inc., Wallingford CT, 2016.
 
 ******************************************
 Gaussian 16:  ES64L-G16RevB.01 20-Dec-2017
                21-Feb-2022 
 ******************************************
 %nproc=28
 Will use up to   28 processors via shared memory.
 %mem=120GB
 %chk=hoono_r1_0p981199.chk
 ---------------------------------------
 #p freq mp2/aug-cc-pvtz density=current
 ---------------------------------------
 1/10=4,30=1,38=1/1,3;
 2/12=2,17=6,18=5,40=1/2;
 3/5=16,6=1,7=10,11=9,25=1,30=1,71=2,140=1/1,2,3;
 4//1;
 5/5=2,38=5,98=1/2;
 8/6=3,8=1,10=1,19=11,30=-1/1;
 9/15=3,16=-3/6;
 11/6=1,8=1,15=11,17=12,24=-1,27=1,28=-2,29=300,32=6,42=3/1,2,10;
 10/6=2,21=1/2;
 8/6=4,8=1,10=1,19=11,30=-1/11,4;
 10/5=1,20=4/2;
 11/12=2,14=11,16=1,17=2,28=-2,42=3,76=2/2,10,12;
 6/7=2,8=2,9=2,10=2,22=-1/1;
 7/8=1,10=1,12=2,25=1,44=2/1,2,3,16;
 1/10=4,30=1/3;
 99//99;
 Leave Link    1 at Mon Feb 21 19:58:02 2022, MaxMem= 16106127360 cpu:              26.1 elap:               1.0
 (Enter /sw/contrib/gaussian/g16/B01/g16/l101.exe)
 -----
 title
 -----
 Symbolic Z-matrix:
 Charge =  0 Multiplicity = 1
 H
 O                    1    r1
 O                    2    r2       1    a1
 N                    3    r3       2    a2       1    d1       0
 O                    4    r4       3    a3       2    d2       0
       Variables:
  r1                    0.9812                   
  r2                    1.45492                  
  r3                    1.45878                  
  r4                    1.17073                  
  a1                   97.59495                  
  a2                  102.29752                  
  a3                  109.06955                  
  d1                  180.                       
  d2                  180.                       
 
 ITRead=  0  0  0  0  0
 MicOpt= -1 -1 -1 -1 -1
 NAtoms=      5 NQM=        5 NQMF=       0 NMMI=      0 NMMIF=      0
                NMic=       0 NMicF=      0.
                    Isotopes and Nuclear Properties:
 (Nuclear quadrupole moments (NQMom) in fm**2, nuclear magnetic moments (NMagM)
  in nuclear magnetons)

  Atom         1           2           3           4           5
 IAtWgt=           1          16          16          14          16
 AtmWgt=   1.0078250  15.9949146  15.9949146  14.0030740  15.9949146
 NucSpn=           1           0           0           2           0
 AtZEff=  -0.0000000  -0.0000000  -0.0000000  -0.0000000  -0.0000000
 NQMom=    0.0000000   0.0000000   0.0000000   2.0440000   0.0000000
 NMagM=    2.7928460   0.0000000   0.0000000   0.4037610   0.0000000
 AtZNuc=   1.0000000   8.0000000   8.0000000   7.0000000   8.0000000
 Leave Link  101 at Mon Feb 21 19:58:02 2022, MaxMem= 16106127360 cpu:               2.2 elap:               0.1
 (Enter /sw/contrib/gaussian/g16/B01/g16/l103.exe)

 GradGradGradGradGradGradGradGradGradGradGradGradGradGradGradGradGradGrad
 Berny optimization.
 Initialization pass.
                       ----------------------------
                       !    Initial Parameters    !
                       ! (Angstroms and Degrees)  !
 ----------------------                            ----------------------
 !      Name          Value   Derivative information (Atomic Units)     !
 ------------------------------------------------------------------------
 !       r1          0.9812   calculate D2E/DX2 analytically            !
 !       r2          1.4549   calculate D2E/DX2 analytically            !
 !       r3          1.4588   calculate D2E/DX2 analytically            !
 !       r4          1.1707   calculate D2E/DX2 analytically            !
 !       a1         97.5949   calculate D2E/DX2 analytically            !
 !       a2        102.2975   calculate D2E/DX2 analytically            !
 !       a3        109.0696   calculate D2E/DX2 analytically            !
 !       d1        180.0      calculate D2E/DX2 analytically            !
 !       d2        180.0      calculate D2E/DX2 analytically            !
 ------------------------------------------------------------------------
 Trust Radius=3.00D-01 FncErr=1.00D-07 GrdErr=1.00D-07 EigMax=2.50D+02 EigMin=1.00D-04
 Number of steps in this run=      2 maximum allowed number of steps=      2.
 GradGradGradGradGradGradGradGradGradGradGradGradGradGradGradGradGradGrad

 Leave Link  103 at Mon Feb 21 19:58:02 2022, MaxMem= 16106127360 cpu:               1.3 elap:               0.1
 (Enter /sw/contrib/gaussian/g16/B01/g16/l202.exe)
                          Input orientation:                          
 ---------------------------------------------------------------------
 Center     Atomic      Atomic             Coordinates (Angstroms)
 Number     Number       Type             X           Y           Z
 ---------------------------------------------------------------------
      1          1           0        0.000000    0.000000    0.000000
      2          8           0        0.000000    0.000000    0.981199
      3          8           0        1.442156    0.000000    1.173494
      4          7           0        1.561752    0.000000    2.627368
      5          8           0        2.695867    0.000000    2.917862
 ---------------------------------------------------------------------
                    Distance matrix (angstroms):
                    1          2          3          4          5
     1  H    0.000000
     2  O    0.981199   0.000000
     3  O    1.859274   1.454919   0.000000
     4  N    3.056490   2.269127   1.458784   0.000000
     5  O    3.972609   3.319392   2.148165   1.170729   0.000000
 Stoichiometry    HNO3
 Framework group  CS[SG(HNO3)]
 Deg. of freedom     7
 Full point group                 CS      NOp   2
 Largest Abelian subgroup         CS      NOp   2
 Largest concise Abelian subgroup C1      NOp   1
                         Standard orientation:                         
 ---------------------------------------------------------------------
 Center     Atomic      Atomic             Coordinates (Angstroms)
 Number     Number       Type             X           Y           Z
 ---------------------------------------------------------------------
      1          1           0        1.550368    1.698914    0.000000
      2          8           0        1.454066    0.722452    0.000000
      3          8           0       -0.000000    0.672629    0.000000
      4          7           0       -0.261712   -0.762487    0.000000
      5          8           0       -1.418864   -0.940269    0.000000
 ---------------------------------------------------------------------
 Rotational constants (GHZ):          54.9032351           5.0092766           4.5904517
 Leave Link  202 at Mon Feb 21 19:58:02 2022, MaxMem= 16106127360 cpu:               0.2 elap:               0.0
 (Enter /sw/contrib/gaussian/g16/B01/g16/l301.exe)
 Standard basis: Aug-CC-pVTZ (5D, 7F)
 Ernie: Thresh=  0.10000D-02 Tol=  0.10000D-05 Strict=F.
 Ernie:  12 primitive shells out of 131 were deleted.
 There are   166 symmetry adapted cartesian basis functions of A'  symmetry.
 There are    79 symmetry adapted cartesian basis functions of A"  symmetry.
 There are   136 symmetry adapted basis functions of A'  symmetry.
 There are    71 symmetry adapted basis functions of A"  symmetry.
   207 basis functions,   315 primitive gaussians,   245 cartesian basis functions
    16 alpha electrons       16 beta electrons
       nuclear repulsion energy       116.8015372471 Hartrees.
 IExCor=    0 DFT=F Ex=HF Corr=None ExCW=0 ScaHFX=  1.000000
 ScaDFX=  1.000000  1.000000  1.000000  1.000000 ScalE2=  1.000000  1.000000
 IRadAn=      5 IRanWt=     -1 IRanGd=            0 ICorTp=0 IEmpDi=  4
 NAtoms=    5 NActive=    5 NUniq=    5 SFac= 1.00D+00 NAtFMM=   60 NAOKFM=F Big=F
 Integral buffers will be    131072 words long.
 Raffenetti 1 integral format.
 Two-electron integral symmetry is turned on.
 Leave Link  301 at Mon Feb 21 19:58:02 2022, MaxMem= 16106127360 cpu:               1.2 elap:               0.1
 (Enter /sw/contrib/gaussian/g16/B01/g16/l302.exe)
 NPDir=0 NMtPBC=     1 NCelOv=     1 NCel=       1 NClECP=     1 NCelD=      1
         NCelK=      1 NCelE2=     1 NClLst=     1 CellRange=     0.0.
 One-electron integrals computed using PRISM.
 One-electron integral symmetry used in STVInt
 NBasis=   207 RedAO= T EigKep=  1.83D-04  NBF=   136    71
 NBsUse=   207 1.00D-06 EigRej= -1.00D+00 NBFU=   136    71
 Leave Link  302 at Mon Feb 21 19:58:03 2022, MaxMem= 16106127360 cpu:               5.2 elap:               0.3
 (Enter /sw/contrib/gaussian/g16/B01/g16/l303.exe)
 DipDrv:  MaxL=1.
 Leave Link  303 at Mon Feb 21 19:58:03 2022, MaxMem= 16106127360 cpu:               0.7 elap:               0.1
 (Enter /sw/contrib/gaussian/g16/B01/g16/l401.exe)
 ExpMin= 2.53D-02 ExpMax= 1.53D+04 ExpMxC= 5.22D+02 IAcc=3 IRadAn=         5 AccDes= 0.00D+00
 Harris functional with IExCor=  205 and IRadAn=       5 diagonalized for initial guess.
 HarFok:  IExCor=  205 AccDes= 0.00D+00 IRadAn=         5 IDoV= 1 UseB2=F ITyADJ=14
 ICtDFT=  3500011 ScaDFX=  1.000000  1.000000  1.000000  1.000000
 FoFCou: FMM=F IPFlag=           0 FMFlag=      100000 FMFlg1=           0
         NFxFlg=           0 DoJE=T BraDBF=F KetDBF=T FulRan=T
         wScrn=  0.000000 ICntrl=       500 IOpCl=  0 I1Cent=   200000004 NGrid=           0
         NMat0=    1 NMatS0=      1 NMatT0=    0 NMatD0=    1 NMtDS0=    0 NMtDT0=    0
 Petite list used in FoFCou.
 Harris En= -279.628452110185    
 JPrj=0 DoOrth=F DoCkMO=F.
 Initial guess orbital symmetries:
       Occupied  (A') (A') (A') (A') (A') (A') (A') (A') (A') (A')
                 (A") (A') (A') (A") (A") (A')
       Virtual   (A") (A') (A') (A') (A') (A') (A") (A') (A') (A')
                 (A") (A') (A") (A') (A') (A") (A') (A") (A') (A')
                 (A') (A') (A') (A') (A') (A") (A') (A") (A') (A')
                 (A") (A') (A") (A') (A') (A") (A') (A") (A') (A')
                 (A") (A') (A") (A') (A") (A') (A') (A') (A") (A")
                 (A') (A') (A') (A') (A") (A') (A") (A') (A") (A')
                 (A') (A') (A") (A') (A') (A") (A') (A") (A') (A')
                 (A") (A') (A') (A") (A") (A') (A') (A") (A') (A')
                 (A') (A") (A') (A") (A") (A') (A') (A") (A') (A')
                 (A') (A") (A') (A") (A') (A") (A") (A') (A') (A")
                 (A') (A') (A") (A') (A') (A') (A') (A") (A") (A')
                 (A") (A') (A') (A') (A") (A') (A') (A') (A") (A')
                 (A") (A') (A') (A") (A") (A') (A') (A") (A") (A')
                 (A') (A') (A') (A") (A") (A') (A") (A') (A') (A')
                 (A") (A') (A") (A') (A') (A") (A') (A') (A') (A')
                 (A") (A') (A') (A") (A') (A") (A') (A") (A') (A")
                 (A') (A") (A') (A") (A') (A") (A") (A") (A') (A')
                 (A") (A') (A") (A') (A") (A') (A") (A") (A') (A')
                 (A') (A') (A') (A') (A') (A') (A') (A') (A') (A')
                 (A')
 The electronic state of the initial guess is 1-A'.
 Leave Link  401 at Mon Feb 21 19:58:03 2022, MaxMem= 16106127360 cpu:               7.8 elap:               0.4
 (Enter /sw/contrib/gaussian/g16/B01/g16/l502.exe)
 Keep R1 ints in memory in symmetry-blocked form, NReq=348887737.
 FoFCou: FMM=F IPFlag=           0 FMFlag=           0 FMFlg1=           0
         NFxFlg=           0 DoJE=F BraDBF=F KetDBF=F FulRan=T
         wScrn=  0.000000 ICntrl=       600 IOpCl=  0 I1Cent=           0 NGrid=           0
         NMat0=    1 NMatS0=  21528 NMatT0=    0 NMatD0=    1 NMtDS0=    0 NMtDT0=    0
 Petite list used in FoFCou.
 Closed shell SCF:
 Using DIIS extrapolation, IDIIS=  1040.
 NGot= 16106127360 LenX= 15988850015 LenY= 15988789549
 Requested convergence on RMS density matrix=1.00D-08 within 128 cycles.
 Requested convergence on MAX density matrix=1.00D-06.
 Requested convergence on             energy=1.00D-06.
 No special actions if energy rises.

 Cycle   1  Pass 1  IDiag  1:
 E= -279.370473900092    
 DIIS: error= 2.78D-02 at cycle   1 NSaved=   1.
 NSaved= 1 IEnMin= 1 EnMin= -279.370473900092     IErMin= 1 ErrMin= 2.78D-02
 ErrMax= 2.78D-02  0.00D+00 EMaxC= 1.00D-01 BMatC= 4.37D-01 BMatP= 4.37D-01
 IDIUse=3 WtCom= 7.22D-01 WtEn= 2.78D-01
 Coeff-Com:  0.100D+01
 Coeff-En:   0.100D+01
 Coeff:      0.100D+01
 Gap=     0.513 Goal=   None    Shift=    0.000
 GapD=    0.513 DampG=2.000 DampE=0.500 DampFc=1.0000 IDamp=-1.
 RMSDP=1.62D-03 MaxDP=9.92D-02              OVMax= 1.12D-01

 Cycle   2  Pass 1  IDiag  1:
 E= -279.452238598413     Delta-E=       -0.081764698321 Rises=F Damp=F
 DIIS: error= 1.76D-02 at cycle   2 NSaved=   2.
 NSaved= 2 IEnMin= 2 EnMin= -279.452238598413     IErMin= 2 ErrMin= 1.76D-02
 ErrMax= 1.76D-02  0.00D+00 EMaxC= 1.00D-01 BMatC= 7.09D-02 BMatP= 4.37D-01
 IDIUse=3 WtCom= 8.24D-01 WtEn= 1.76D-01
 Coeff-Com:  0.193D+00 0.807D+00
 Coeff-En:   0.000D+00 0.100D+01
 Coeff:      0.159D+00 0.841D+00
 Gap=     0.529 Goal=   None    Shift=    0.000
 RMSDP=8.95D-04 MaxDP=3.74D-02 DE=-8.18D-02 OVMax= 6.95D-02

 Cycle   3  Pass 1  IDiag  1:
 E= -279.480920479709     Delta-E=       -0.028681881296 Rises=F Damp=F
 DIIS: error= 1.04D-02 at cycle   3 NSaved=   3.
 NSaved= 3 IEnMin= 3 EnMin= -279.480920479709     IErMin= 3 ErrMin= 1.04D-02
 ErrMax= 1.04D-02  0.00D+00 EMaxC= 1.00D-01 BMatC= 2.86D-02 BMatP= 7.09D-02
 IDIUse=3 WtCom= 8.96D-01 WtEn= 1.04D-01
 Coeff-Com: -0.331D-01 0.379D+00 0.654D+00
 Coeff-En:   0.000D+00 0.242D+00 0.758D+00
 Coeff:     -0.297D-01 0.365D+00 0.665D+00
 Gap=     0.510 Goal=   None    Shift=    0.000
 RMSDP=3.75D-04 MaxDP=1.54D-02 DE=-2.87D-02 OVMax= 3.80D-02

 Cycle   4  Pass 1  IDiag  1:
 E= -279.499897519077     Delta-E=       -0.018977039367 Rises=F Damp=F
 DIIS: error= 1.26D-03 at cycle   4 NSaved=   4.
 NSaved= 4 IEnMin= 4 EnMin= -279.499897519077     IErMin= 4 ErrMin= 1.26D-03
 ErrMax= 1.26D-03  0.00D+00 EMaxC= 1.00D-01 BMatC= 4.85D-04 BMatP= 2.86D-02
 IDIUse=3 WtCom= 9.87D-01 WtEn= 1.26D-02
 Coeff-Com: -0.115D-01 0.564D-01 0.156D+00 0.799D+00
 Coeff-En:   0.000D+00 0.000D+00 0.000D+00 0.100D+01
 Coeff:     -0.114D-01 0.557D-01 0.154D+00 0.802D+00
 Gap=     0.501 Goal=   None    Shift=    0.000
 RMSDP=9.03D-05 MaxDP=2.77D-03 DE=-1.90D-02 OVMax= 1.12D-02

 Cycle   5  Pass 1  IDiag  1:
 E= -279.500570769161     Delta-E=       -0.000673250084 Rises=F Damp=F
 DIIS: error= 7.41D-04 at cycle   5 NSaved=   5.
 NSaved= 5 IEnMin= 5 EnMin= -279.500570769161     IErMin= 5 ErrMin= 7.41D-04
 ErrMax= 7.41D-04  0.00D+00 EMaxC= 1.00D-01 BMatC= 8.75D-05 BMatP= 4.85D-04
 IDIUse=3 WtCom= 9.93D-01 WtEn= 7.41D-03
 Coeff-Com:  0.613D-02-0.728D-01-0.118D+00 0.265D-01 0.116D+01
 Coeff-En:   0.000D+00 0.000D+00 0.000D+00 0.000D+00 0.100D+01
 Coeff:      0.608D-02-0.722D-01-0.117D+00 0.263D-01 0.116D+01
 Gap=     0.501 Goal=   None    Shift=    0.000
 RMSDP=7.60D-05 MaxDP=2.10D-03 DE=-6.73D-04 OVMax= 1.11D-02

 Cycle   6  Pass 1  IDiag  1:
 E= -279.500885510422     Delta-E=       -0.000314741261 Rises=F Damp=F
 DIIS: error= 2.83D-04 at cycle   6 NSaved=   6.
 NSaved= 6 IEnMin= 6 EnMin= -279.500885510422     IErMin= 6 ErrMin= 2.83D-04
 ErrMax= 2.83D-04  0.00D+00 EMaxC= 1.00D-01 BMatC= 1.68D-05 BMatP= 8.75D-05
 IDIUse=3 WtCom= 9.97D-01 WtEn= 2.83D-03
 Coeff-Com:  0.625D-03 0.129D-02 0.392D-02-0.132D+00-0.222D+00 0.135D+01
 Coeff-En:   0.000D+00 0.000D+00 0.000D+00 0.000D+00 0.000D+00 0.100D+01
 Coeff:      0.623D-03 0.129D-02 0.391D-02-0.132D+00-0.221D+00 0.135D+01
 Gap=     0.502 Goal=   None    Shift=    0.000
 RMSDP=4.53D-05 MaxDP=1.25D-03 DE=-3.15D-04 OVMax= 5.56D-03

 Cycle   7  Pass 1  IDiag  1:
 E= -279.500958508506     Delta-E=       -0.000072998084 Rises=F Damp=F
 DIIS: error= 1.26D-04 at cycle   7 NSaved=   7.
 NSaved= 7 IEnMin= 7 EnMin= -279.500958508506     IErMin= 7 ErrMin= 1.26D-04
 ErrMax= 1.26D-04  0.00D+00 EMaxC= 1.00D-01 BMatC= 4.61D-06 BMatP= 1.68D-05
 IDIUse=3 WtCom= 9.99D-01 WtEn= 1.26D-03
 Coeff-Com: -0.936D-03 0.136D-01 0.265D-01-0.266D-01-0.287D+00 0.397D+00
 Coeff-Com:  0.878D+00
 Coeff-En:   0.000D+00 0.000D+00 0.000D+00 0.000D+00 0.000D+00 0.000D+00
 Coeff-En:   0.100D+01
 Coeff:     -0.934D-03 0.136D-01 0.264D-01-0.265D-01-0.287D+00 0.396D+00
 Coeff:      0.878D+00
 Gap=     0.502 Goal=   None    Shift=    0.000
 RMSDP=1.33D-05 MaxDP=3.78D-04 DE=-7.30D-05 OVMax= 1.56D-03

 Cycle   8  Pass 1  IDiag  1:
 E= -279.500967554618     Delta-E=       -0.000009046113 Rises=F Damp=F
 DIIS: error= 5.67D-05 at cycle   8 NSaved=   8.
 NSaved= 8 IEnMin= 8 EnMin= -279.500967554618     IErMin= 8 ErrMin= 5.67D-05
 ErrMax= 5.67D-05  0.00D+00 EMaxC= 1.00D-01 BMatC= 6.13D-07 BMatP= 4.61D-06
 IDIUse=1 WtCom= 1.00D+00 WtEn= 0.00D+00
 Coeff-Com: -0.452D-03 0.349D-02 0.766D-02 0.278D-01-0.418D-01-0.197D+00
 Coeff-Com:  0.165D+00 0.104D+01
 Coeff:     -0.452D-03 0.349D-02 0.766D-02 0.278D-01-0.418D-01-0.197D+00
 Coeff:      0.165D+00 0.104D+01
 Gap=     0.502 Goal=   None    Shift=    0.000
 RMSDP=6.98D-06 MaxDP=2.04D-04 DE=-9.05D-06 OVMax= 7.53D-04

 Cycle   9  Pass 1  IDiag  1:
 E= -279.500969362897     Delta-E=       -0.000001808279 Rises=F Damp=F
 DIIS: error= 1.58D-05 at cycle   9 NSaved=   9.
 NSaved= 9 IEnMin= 9 EnMin= -279.500969362897     IErMin= 9 ErrMin= 1.58D-05
 ErrMax= 1.58D-05  0.00D+00 EMaxC= 1.00D-01 BMatC= 6.92D-08 BMatP= 6.13D-07
 IDIUse=1 WtCom= 1.00D+00 WtEn= 0.00D+00
 Coeff-Com:  0.122D-03-0.172D-02-0.306D-02-0.192D-02 0.340D-01-0.278D-03
 Coeff-Com: -0.164D+00-0.106D+00 0.124D+01
 Coeff:      0.122D-03-0.172D-02-0.306D-02-0.192D-02 0.340D-01-0.278D-03
 Coeff:     -0.164D+00-0.106D+00 0.124D+01
 Gap=     0.502 Goal=   None    Shift=    0.000
 RMSDP=1.94D-06 MaxDP=6.63D-05 DE=-1.81D-06 OVMax= 1.76D-04

 Cycle  10  Pass 1  IDiag  1:
 E= -279.500969523948     Delta-E=       -0.000000161051 Rises=F Damp=F
 DIIS: error= 4.15D-06 at cycle  10 NSaved=  10.
 NSaved=10 IEnMin=10 EnMin= -279.500969523948     IErMin=10 ErrMin= 4.15D-06
 ErrMax= 4.15D-06  0.00D+00 EMaxC= 1.00D-01 BMatC= 5.62D-09 BMatP= 6.92D-08
 IDIUse=1 WtCom= 1.00D+00 WtEn= 0.00D+00
 Coeff-Com:  0.320D-04-0.254D-03-0.342D-03-0.276D-02 0.188D-02 0.197D-01
 Coeff-Com: -0.132D-01-0.760D-01-0.751D-01 0.115D+01
 Coeff:      0.320D-04-0.254D-03-0.342D-03-0.276D-02 0.188D-02 0.197D-01
 Coeff:     -0.132D-01-0.760D-01-0.751D-01 0.115D+01
 Gap=     0.502 Goal=   None    Shift=    0.000
 RMSDP=5.06D-07 MaxDP=2.11D-05 DE=-1.61D-07 OVMax= 4.18D-05

 Cycle  11  Pass 1  IDiag  1:
 E= -279.500969536575     Delta-E=       -0.000000012627 Rises=F Damp=F
 DIIS: error= 2.03D-06 at cycle  11 NSaved=  11.
 NSaved=11 IEnMin=11 EnMin= -279.500969536575     IErMin=11 ErrMin= 2.03D-06
 ErrMax= 2.03D-06  0.00D+00 EMaxC= 1.00D-01 BMatC= 6.66D-10 BMatP= 5.62D-09
 IDIUse=1 WtCom= 1.00D+00 WtEn= 0.00D+00
 Coeff-Com: -0.213D-04 0.246D-03 0.489D-03 0.528D-03-0.430D-02-0.354D-02
 Coeff-Com:  0.207D-01 0.316D-01-0.139D+00-0.180D+00 0.127D+01
 Coeff:     -0.213D-04 0.246D-03 0.489D-03 0.528D-03-0.430D-02-0.354D-02
 Coeff:      0.207D-01 0.316D-01-0.139D+00-0.180D+00 0.127D+01
 Gap=     0.502 Goal=   None    Shift=    0.000
 RMSDP=1.78D-07 MaxDP=6.54D-06 DE=-1.26D-08 OVMax= 1.76D-05

 Cycle  12  Pass 1  IDiag  1:
 E= -279.500969538394     Delta-E=       -0.000000001819 Rises=F Damp=F
 DIIS: error= 5.91D-07 at cycle  12 NSaved=  12.
 NSaved=12 IEnMin=12 EnMin= -279.500969538394     IErMin=12 ErrMin= 5.91D-07
 ErrMax= 5.91D-07  0.00D+00 EMaxC= 1.00D-01 BMatC= 7.19D-11 BMatP= 6.66D-10
 IDIUse=1 WtCom= 1.00D+00 WtEn= 0.00D+00
 Coeff-Com:  0.120D-05-0.288D-04-0.619D-04 0.190D-03 0.106D-02-0.229D-02
 Coeff-Com: -0.406D-02 0.543D-02 0.414D-01-0.112D+00-0.282D+00 0.135D+01
 Coeff:      0.120D-05-0.288D-04-0.619D-04 0.190D-03 0.106D-02-0.229D-02
 Coeff:     -0.406D-02 0.543D-02 0.414D-01-0.112D+00-0.282D+00 0.135D+01
 Gap=     0.502 Goal=   None    Shift=    0.000
 RMSDP=7.16D-08 MaxDP=2.82D-06 DE=-1.82D-09 OVMax= 6.77D-06

 Cycle  13  Pass 1  IDiag  1:
 E= -279.500969538624     Delta-E=       -0.000000000229 Rises=F Damp=F
 DIIS: error= 1.69D-07 at cycle  13 NSaved=  13.
 NSaved=13 IEnMin=13 EnMin= -279.500969538624     IErMin=13 ErrMin= 1.69D-07
 ErrMax= 1.69D-07  0.00D+00 EMaxC= 1.00D-01 BMatC= 4.03D-12 BMatP= 7.19D-11
 IDIUse=1 WtCom= 1.00D+00 WtEn= 0.00D+00
 Coeff-Com:  0.129D-05-0.142D-04-0.227D-04-0.900D-04 0.127D-03 0.756D-03
 Coeff-Com: -0.820D-03-0.329D-02 0.603D-03 0.408D-01-0.346D-01-0.327D+00
 Coeff-Com:  0.132D+01
 Coeff:      0.129D-05-0.142D-04-0.227D-04-0.900D-04 0.127D-03 0.756D-03
 Coeff:     -0.820D-03-0.329D-02 0.603D-03 0.408D-01-0.346D-01-0.327D+00
 Coeff:      0.132D+01
 Gap=     0.502 Goal=   None    Shift=    0.000
 RMSDP=1.91D-08 MaxDP=5.63D-07 DE=-2.29D-10 OVMax= 1.57D-06

 Cycle  14  Pass 1  IDiag  1:
 E= -279.500969538637     Delta-E=       -0.000000000013 Rises=F Damp=F
 DIIS: error= 2.47D-08 at cycle  14 NSaved=  14.
 NSaved=14 IEnMin=14 EnMin= -279.500969538637     IErMin=14 ErrMin= 2.47D-08
 ErrMax= 2.47D-08  0.00D+00 EMaxC= 1.00D-01 BMatC= 1.97D-13 BMatP= 4.03D-12
 IDIUse=1 WtCom= 1.00D+00 WtEn= 0.00D+00
 Coeff-Com: -0.190D-06 0.312D-05 0.556D-05 0.433D-05-0.820D-04 0.453D-04
 Coeff-Com:  0.276D-03 0.231D-03-0.243D-02 0.139D-02 0.170D-01-0.256D-01
 Coeff-Com: -0.200D+00 0.121D+01
 Coeff:     -0.190D-06 0.312D-05 0.556D-05 0.433D-05-0.820D-04 0.453D-04
 Coeff:      0.276D-03 0.231D-03-0.243D-02 0.139D-02 0.170D-01-0.256D-01
 Coeff:     -0.200D+00 0.121D+01
 Gap=     0.502 Goal=   None    Shift=    0.000
 RMSDP=3.79D-09 MaxDP=9.09D-08 DE=-1.28D-11 OVMax= 3.42D-07

 SCF Done:  E(RHF) =  -279.500969539     A.U. after   14 cycles
            NFock= 14  Conv=0.38D-08     -V/T= 2.0024
 KE= 2.788229174589D+02 PE=-8.949261573858D+02 EE= 2.198007331411D+02
 Leave Link  502 at Mon Feb 21 19:58:07 2022, MaxMem= 16106127360 cpu:              54.7 elap:               3.5
 (Enter /sw/contrib/gaussian/g16/B01/g16/l801.exe)
 ExpMin= 2.53D-02 ExpMax= 1.53D+04 ExpMxC= 5.22D+02 IAcc=3 IRadAn=         5 AccDes= 0.00D+00
 HarFok:  IExCor=  205 AccDes= 0.00D+00 IRadAn=         5 IDoV=-2 UseB2=F ITyADJ=14
 ICtDFT= 12500011 ScaDFX=  1.000000  1.000000  1.000000  1.000000
 Largest valence mixing into a core orbital is  2.08D-04
 Largest core mixing into a valence orbital is  3.63D-05
 Range of M.O.s used for correlation:     5   207
 NBasis=   207 NAE=    16 NBE=    16 NFC=     4 NFV=     0
 NROrb=    203 NOA=    12 NOB=    12 NVA=   191 NVB=   191

 **** Warning!!: The largest alpha MO coefficient is  0.17418650D+02

 Leave Link  801 at Mon Feb 21 19:58:07 2022, MaxMem= 16106127360 cpu:               2.8 elap:               0.2
 (Enter /sw/contrib/gaussian/g16/B01/g16/l906.exe)
 Frozen-core derivative calculation, NFC=   4 NFV=   0.
 FulOut=F Deriv=T AODrv=T NAtomX=     5
   MMem=           0  MDisk=          12 MDiskD=          12
  W3Min=      811440 MinDsk=     2425030 NBas6D=         245
 NBas2D=       30762    NTT=       30135    LW2=     7400000
    MDV= 16105574283 MDiskM=      328644 NBas2p=       30702
 Disk-based method using ON**2 memory for 12 occupieds at a time.
 Permanent disk used for amplitudes=    11516536 words.
 Estimated scratch disk usage=   321251614 words.
 IMap=   1   2   3   4   5   6   7   8   9  10  11  12  13  14  15  16
 Actual    scratch disk usage=   310331678 words.
 JobTyp=1 Pass  1:  I=   5 to  16 NPSUse= 28 ParTrn=T ParDer=T DoDerP=T.
 (rs|ai) integrals will be sorted in core.
 Spin components of T(2) and E(2):
     alpha-alpha T2 =       0.3408434955D-01 E2=     -0.1224822052D+00
     alpha-beta  T2 =       0.1872086450D+00 E2=     -0.7006678159D+00
     beta-beta   T2 =       0.3408434955D-01 E2=     -0.1224822052D+00
 The integrals were generated   1 times.
 ANorm=    0.1120436229D+01
 E2 =    -0.9456322263D+00 EUMP2 =    -0.28044660176491D+03
 Leave Link  906 at Mon Feb 21 19:59:44 2022, MaxMem= 16106127360 cpu:            2710.5 elap:              97.0
 (Enter /sw/contrib/gaussian/g16/B01/g16/l1101.exe)
 Using compressed Sx but separate Hx and Fx, NAtomX=     5.
 Will process      6 centers per pass.
 Leave Link 1101 at Mon Feb 21 19:59:44 2022, MaxMem= 16106127360 cpu:               7.0 elap:               0.3
 (Enter /sw/contrib/gaussian/g16/B01/g16/l1102.exe)
 Leave Link 1102 at Mon Feb 21 19:59:44 2022, MaxMem= 16106127360 cpu:               0.5 elap:               0.0
 (Enter /sw/contrib/gaussian/g16/B01/g16/l1110.exe)
 Forming Gx(P) for the SCF density, NAtomX=     5.
 Integral derivatives from FoFJK, PRISM(SPDF).
 Do as many integral derivatives as possible in FoFJK.
 G2DrvN: MDV=   16106126844.
 G2DrvN: will do     6 centers at a time, making    1 passes.
 Calling FoFCou, ICntrl=  3107 FMM=F I1Cent=   0 AccDes= 0.00D+00.
 FoFJK:  IHMeth= 1 ICntrl=    3107 DoSepK=F KAlg= 0 I1Cent=           0 FoldK=F
 IRaf=         0 NMat=       1 IRICut=       1 DoRegI=T DoRafI=F ISym2E= 1 IDoP0=0 IntGTp=1.
 FoFCou: FMM=F IPFlag=           0 FMFlag=      100000 FMFlg1=           0
         NFxFlg=           0 DoJE=F BraDBF=F KetDBF=F FulRan=T
         wScrn=  0.000000 ICntrl=      3107 IOpCl=  0 I1Cent=           0 NGrid=           0
         NMat0=    1 NMatS0=      1 NMatT0=    0 NMatD0=    1 NMtDS0=    0 NMtDT0=    0
 Petite list used in FoFCou.
 End of G2Drv F.D. properties file   721 does not exist.
 End of G2Drv F.D. properties file   722 does not exist.
 End of G2Drv F.D. properties file   788 does not exist.
 Leave Link 1110 at Mon Feb 21 19:59:47 2022, MaxMem= 16106127360 cpu:              84.4 elap:               3.0
 (Enter /sw/contrib/gaussian/g16/B01/g16/l1002.exe)
 Minotr:  Closed shell wavefunction.
          IDoAtm=11111
          Frozen-core window.
          Direct CPHF calculation.
          Differentiating once with respect to electric field.
                with respect to dipole field.
          Differentiating once with respect to nuclear coordinates.
          Requested convergence is 1.0D-08 RMS, and 1.0D-07 maximum.
          Secondary convergence is 1.0D-12 RMS, and 1.0D-12 maximum.
          NewPWx=T KeepS1=T KeepF1=T KeepIn=T MapXYZ=F SortEE=F KeepMc=T.
 Keep R1 ints in memory in symmetry-blocked form, NReq=348888983.
 FoFCou: FMM=F IPFlag=           0 FMFlag=           0 FMFlg1=           0
         NFxFlg=           0 DoJE=F BraDBF=F KetDBF=F FulRan=T
         wScrn=  0.000000 ICntrl=       600 IOpCl=  0 I1Cent=           0 NGrid=           0
         NMat0=    1 NMatS0=  21528 NMatT0=    0 NMatD0=    1 NMtDS0=    0 NMtDT0=    0
 Petite list used in FoFCou.
          MDV=   16106127360 using IRadAn=       1.
          Solving linear equations simultaneously, MaxMat=       0.
          There are    18 degrees of freedom in the 1st order CPHF.  IDoFFX=6 NUNeed=    18.
     15 vectors produced by pass  0 Test12= 1.70D-14 5.56D-09 XBig12= 8.30D+00 1.07D+00.
 AX will form    15 AO Fock derivatives at one time.
     15 vectors produced by pass  1 Test12= 1.70D-14 5.56D-09 XBig12= 1.34D+00 2.61D-01.
     15 vectors produced by pass  2 Test12= 1.70D-14 5.56D-09 XBig12= 1.41D-01 9.72D-02.
     15 vectors produced by pass  3 Test12= 1.70D-14 5.56D-09 XBig12= 4.84D-03 1.07D-02.
     15 vectors produced by pass  4 Test12= 1.70D-14 5.56D-09 XBig12= 9.53D-05 1.87D-03.
     15 vectors produced by pass  5 Test12= 1.70D-14 5.56D-09 XBig12= 1.35D-06 1.72D-04.
     15 vectors produced by pass  6 Test12= 1.70D-14 5.56D-09 XBig12= 1.08D-08 1.55D-05.
     12 vectors produced by pass  7 Test12= 1.70D-14 5.56D-09 XBig12= 7.91D-11 1.34D-06.
      3 vectors produced by pass  8 Test12= 1.70D-14 5.56D-09 XBig12= 5.59D-13 1.16D-07.
      2 vectors produced by pass  9 Test12= 1.70D-14 5.56D-09 XBig12= 3.66D-15 1.02D-08.
 InvSVY:  IOpt=1 It=  1 EMax= 8.88D-16
 Solved reduced A of dimension   122 with    15 vectors.
 FullF1:  Do perturbations      1 to      18.
 Saving first derivative matrices.
 End of Minotr F.D. properties file   721 does not exist.
 End of Minotr F.D. properties file   722 does not exist.
 End of Minotr F.D. properties file   788 does not exist.
 Leave Link 1002 at Mon Feb 21 19:59:50 2022, MaxMem= 16106127360 cpu:              79.8 elap:               2.9
 (Enter /sw/contrib/gaussian/g16/B01/g16/l811.exe)
 MDV= 16106127360.
 Form MO integral derivatives with frozen-active canonical formalism.
 MOERI=1 MOERIx=1 NAtoms=     5 NAtomX=     5.
 Discarding MO integrals.
 MO basis two electron integral derivatives will not be stored on disk.
 IAlg= 3 DoFC=T DoPWx=T Debug=F.
 Frozen-core window:  NFC=   4 NFV=   0.
 Reordered first order wavefunction length =     18678272
 In DefCFB: NBatch=  1 ICI= 16 ICA=191 LFMax= 96
            Large arrays: LIAPS=   619940160 LIARS=   288257200 words.
 In StABat: MaxSiz= 55 MinSiz= 25 NAtomB=  5
 DoIAMN: NPSUse= 28.
 Leave Link  811 at Mon Feb 21 20:01:10 2022, MaxMem= 16106127360 cpu:            2231.1 elap:              79.8
 (Enter /sw/contrib/gaussian/g16/B01/g16/l804.exe)
 Frozen-core window:  NFC=   4 NFV=   0.
 Closed-shell transformation, MDV= 16106127360 ITran=4 ISComp=1.
 Semi-Direct transformation.
 ModeAB=           2 MOrb=            16 LenV=   16104923051
 LASXX=     67341636 LTotXX=    67341636 LenRXX=    67341636
 LTotAB=    68301760 MaxLAS=    99807120 LenRXY=    99807120
 NonZer=   134683272 LenScr=   202817536 LnRSAI=           0
 LnScr1=           0 LExtra=           0 Total=    369966292
 MaxDsk=          -1 SrtSym=           F ITran=            4
 DoSDTr:  NPSUse= 28
 JobTyp=0 Pass  1:  I=   1 to  16.
 (rs|ai) integrals will be sorted in core.
 Complete sort for first half transformation.
 First half transformation complete.
 Begin second half transformation for I=  10.
 Begin second half transformation for I=  10.
 Complete sort for second half transformation.
 Second half transformation complete.
 Spin components of T(2) and E(2):
     alpha-alpha T2 =       0.3408434955D-01 E2=     -0.1224822052D+00
     alpha-beta  T2 =       0.1872086450D+00 E2=     -0.7006678159D+00
     beta-beta   T2 =       0.3408434955D-01 E2=     -0.1224822052D+00
 ANorm=    0.1584536111D+01
 E2 =    -0.9456322263D+00 EUMP2 =    -0.28044660176491D+03
 Leave Link  804 at Mon Feb 21 20:01:26 2022, MaxMem= 16106127360 cpu:             436.1 elap:              15.7
 (Enter /sw/contrib/gaussian/g16/B01/g16/l1002.exe)
 Minotr:  Closed shell wavefunction.
          Computing MP2/KS-MP2 derivatives.
          Using Z-Vector for PSCF gradient.
          Skipping F1 and S1 gradient terms here.
          IDoAtm=11111
          Frozen-core window.
          Using MO integrals in the linear equations.
          Forming densities via direct SCF.
          Differentiating once with respect to electric field.
                with respect to dipole field.
          Differentiating once with respect to nuclear coordinates.
          Using symmetry in CPHF.
          Requested convergence is 1.0D-10 RMS, and 1.0D-09 maximum.
          NewPWx=F KeepS1=T KeepF1=T KeepIn=T MapXYZ=F SortEE=F KeepMc=T.
          MDV=   16106127360 using IRadAn=       5.
          Solving linear equations separately, MaxMat=       0.
          There are     1 degrees of freedom in the 1st order CPHF.  IDoFFX=0 NUNeed=     1.
 FoFJK:  IHMeth= 1 ICntrl=       0 DoSepK=F KAlg= 0 I1Cent=           0 FoldK=F
 IRaf=         0 NMat=       1 IRICut=       1 DoRegI=T DoRafI=F ISym2E= 0 IDoP0=0 IntGTp=1.
 FoFCou: FMM=F IPFlag=           0 FMFlag=      100000 FMFlg1=           0
         NFxFlg=           0 DoJE=F BraDBF=F KetDBF=F FulRan=T
         wScrn=  0.000000 ICntrl=         0 IOpCl=  0 I1Cent=           0 NGrid=           0
         NMat0=    1 NMatS0=      1 NMatT0=    0 NMatD0=    1 NMtDS0=    0 NMtDT0=    0
 Symmetry not used in FoFCou.
 LinEq1:  Iter=  0 NonCon=     1 RMS=5.96D-03 Max=1.33D-01 NDo=     1
 LinEq1:  Iter=  1 NonCon=     1 RMS=1.91D-03 Max=3.82D-02 NDo=     1
 LinEq1:  Iter=  2 NonCon=     1 RMS=8.70D-04 Max=1.39D-02 NDo=     1
 LinEq1:  Iter=  3 NonCon=     1 RMS=3.87D-04 Max=7.80D-03 NDo=     1
 LinEq1:  Iter=  4 NonCon=     1 RMS=1.20D-04 Max=1.91D-03 NDo=     1
 LinEq1:  Iter=  5 NonCon=     1 RMS=4.53D-05 Max=7.21D-04 NDo=     1
 LinEq1:  Iter=  6 NonCon=     1 RMS=2.03D-05 Max=2.41D-04 NDo=     1
 LinEq1:  Iter=  7 NonCon=     1 RMS=8.14D-06 Max=1.59D-04 NDo=     1
 LinEq1:  Iter=  8 NonCon=     1 RMS=3.49D-06 Max=3.43D-05 NDo=     1
 LinEq1:  Iter=  9 NonCon=     1 RMS=9.54D-07 Max=1.33D-05 NDo=     1
 LinEq1:  Iter= 10 NonCon=     1 RMS=1.88D-07 Max=2.02D-06 NDo=     1
 LinEq1:  Iter= 11 NonCon=     1 RMS=3.50D-08 Max=3.63D-07 NDo=     1
 LinEq1:  Iter= 12 NonCon=     1 RMS=8.42D-09 Max=1.32D-07 NDo=     1
 LinEq1:  Iter= 13 NonCon=     1 RMS=1.52D-09 Max=2.64D-08 NDo=     1
 LinEq1:  Iter= 14 NonCon=     1 RMS=2.75D-10 Max=3.85D-09 NDo=     1
 LinEq1:  Iter= 15 NonCon=     0 RMS=4.95D-11 Max=5.60D-10 NDo=     1
 Linear equations converged to 1.000D-10 1.000D-09 after    15 iterations.
 End of Minotr F.D. properties file   721 does not exist.
 End of Minotr F.D. properties file   722 does not exist.
 End of Minotr F.D. properties file   788 does not exist.
 Leave Link 1002 at Mon Feb 21 20:01:28 2022, MaxMem= 16106127360 cpu:              64.4 elap:               2.4
 (Enter /sw/contrib/gaussian/g16/B01/g16/l1102.exe)
 Use density number 2.
 Symmetrizing basis deriv contribution to polar:
 IMax=3 JMax=2 DiffMx= 0.00D+00
 Leave Link 1102 at Mon Feb 21 20:01:28 2022, MaxMem= 16106127360 cpu:               0.7 elap:               0.1
 (Enter /sw/contrib/gaussian/g16/B01/g16/l1110.exe)
 Forming Gx(P) for generalized density number  2 NAtomX=     5.
 Integral derivatives from FoFJK, PRISM(SPDF).
 Do as many integral derivatives as possible in FoFJK.
 G2DrvN: MDV=   16106126844.
 G2DrvN: will do     6 centers at a time, making    1 passes.
 Calling FoFCou, ICntrl=  3107 FMM=F I1Cent=   0 AccDes= 0.00D+00.
 FoFJK:  IHMeth= 1 ICntrl=    3107 DoSepK=F KAlg= 0 I1Cent=           0 FoldK=F
 IRaf=         0 NMat=       1 IRICut=       1 DoRegI=T DoRafI=F ISym2E= 1 IDoP0=0 IntGTp=1.
 FoFCou: FMM=F IPFlag=           0 FMFlag=      100000 FMFlg1=           0
         NFxFlg=           0 DoJE=F BraDBF=F KetDBF=F FulRan=T
         wScrn=  0.000000 ICntrl=      3107 IOpCl=  0 I1Cent=           0 NGrid=           0
         NMat0=    1 NMatS0=      1 NMatT0=    0 NMatD0=    1 NMtDS0=    0 NMtDT0=    0
 Petite list used in FoFCou.
 End of G2Drv F.D. properties file   721 does not exist.
 End of G2Drv F.D. properties file   722 does not exist.
 End of G2Drv F.D. properties file   788 does not exist.
 Leave Link 1110 at Mon Feb 21 20:01:31 2022, MaxMem= 16106127360 cpu:              83.9 elap:               3.0
 (Enter /sw/contrib/gaussian/g16/B01/g16/l1112.exe)
 MP22nd: MDV=   16106127360
 This link is doing NAtomX=     5 total of    18 degrees of freedom.
 Using ON3 I/O method in MakUI.
 Frozen-core window:  NFC=   4 NFV=   0.
 Using Ix for Sx.
 Use MO integrals over full window.
 Using OV2 memory method for fx*t*t/D, MaxI=    16 DoOO2=F NP=  28.
 R2 and R3 integrals will be kept in memory, NReq=   915591705.
 FoFCou: FMM=F IPFlag=           0 FMFlag=           0 FMFlg1=           0
         NFxFlg=           0 DoJE=F BraDBF=F KetDBF=F FulRan=T
         wScrn=  0.000000 ICntrl=       600 IOpCl=  0 I1Cent=           0 NGrid=           0
         NMat0=    1 NMatS0=      1 NMatT0=    0 NMatD0=    1 NMtDS0=    0 NMtDT0=    0
 Symmetry not used in FoFCou.
 DD1Dir will call FoFMem   1 times, MxPair=       272
 NAB=   136 NAA=     0 NBB=     0.
 Symmetry is being used.
 FoFJK:  IHMeth= 1 ICntrl=       0 DoSepK=F KAlg= 0 I1Cent=           0 FoldK=F
 IRaf=         0 NMat=      18 IRICut=      45 DoRegI=T DoRafI=T ISym2E= 2 IDoP0=3 IntGTp=3.
 Discarding MO integrals.
 Leave Link 1112 at Mon Feb 21 20:02:03 2022, MaxMem= 16106127360 cpu:             883.6 elap:              31.9
 (Enter /sw/contrib/gaussian/g16/B01/g16/l601.exe)
 Copying SCF densities to generalized density rwf, IOpCl= 0 IROHF=0.

 **********************************************************************

            Population analysis using the MP2 Density.

 **********************************************************************

 Orbital symmetries:
       Occupied  (A') (A') (A') (A') (A') (A') (A') (A') (A') (A')
                 (A") (A') (A") (A') (A") (A')
       Virtual   (A') (A") (A') (A') (A') (A") (A') (A') (A") (A')
                 (A") (A') (A') (A') (A") (A') (A') (A") (A') (A')
                 (A') (A') (A') (A') (A") (A') (A') (A") (A') (A')
                 (A") (A') (A") (A') (A') (A") (A') (A') (A") (A')
                 (A") (A') (A") (A') (A') (A") (A') (A') (A") (A')
                 (A") (A') (A') (A') (A") (A') (A") (A') (A") (A')
                 (A') (A') (A") (A') (A') (A") (A') (A") (A') (A')
                 (A") (A') (A') (A") (A") (A') (A') (A") (A') (A')
                 (A') (A") (A') (A") (A") (A') (A') (A") (A') (A')
                 (A") (A') (A') (A") (A') (A") (A') (A") (A') (A')
                 (A") (A') (A") (A') (A') (A") (A') (A') (A") (A')
                 (A") (A') (A') (A') (A") (A') (A') (A') (A') (A")
                 (A") (A') (A") (A') (A') (A") (A") (A') (A") (A')
                 (A') (A') (A') (A") (A") (A") (A') (A') (A') (A')
                 (A") (A") (A') (A') (A') (A") (A') (A') (A') (A')
                 (A") (A') (A') (A") (A') (A") (A') (A") (A') (A")
                 (A') (A") (A') (A') (A") (A") (A") (A') (A") (A')
                 (A") (A') (A") (A') (A") (A') (A") (A") (A') (A')
                 (A') (A') (A') (A') (A') (A') (A') (A') (A') (A')
                 (A')
 The electronic state is 1-A'.
 Alpha  occ. eigenvalues --  -20.69056 -20.68406 -20.66092 -15.81258  -1.62375
 Alpha  occ. eigenvalues --   -1.49427  -1.25205  -0.94779  -0.77183  -0.75818
 Alpha  occ. eigenvalues --   -0.71151  -0.67748  -0.62010  -0.58884  -0.48481
 Alpha  occ. eigenvalues --   -0.47217
 Alpha virt. eigenvalues --    0.02939   0.07186   0.08600   0.10175   0.13396
 Alpha virt. eigenvalues --    0.13405   0.14354   0.15409   0.17843   0.19421
 Alpha virt. eigenvalues --    0.19985   0.20636   0.22086   0.23576   0.23749
 Alpha virt. eigenvalues --    0.26573   0.29319   0.30335   0.31000   0.34354
 Alpha virt. eigenvalues --    0.35040   0.38702   0.42031   0.43025   0.52743
 Alpha virt. eigenvalues --    0.52941   0.55855   0.58184   0.62610   0.63832
 Alpha virt. eigenvalues --    0.67462   0.68332   0.70644   0.71063   0.72315
 Alpha virt. eigenvalues --    0.72941   0.74444   0.79188   0.79191   0.81015
 Alpha virt. eigenvalues --    0.81286   0.83043   0.86841   0.90831   0.92158
 Alpha virt. eigenvalues --    0.92612   0.95554   0.97892   0.98296   1.01427
 Alpha virt. eigenvalues --    1.05255   1.05483   1.08126   1.11583   1.13975
 Alpha virt. eigenvalues --    1.18989   1.22001   1.23031   1.33920   1.35116
 Alpha virt. eigenvalues --    1.38641   1.45012   1.48435   1.50697   1.53838
 Alpha virt. eigenvalues --    1.56688   1.58049   1.61195   1.66508   1.67055
 Alpha virt. eigenvalues --    1.70319   1.79262   1.83094   1.83500   1.87870
 Alpha virt. eigenvalues --    1.90849   1.94938   1.99174   2.00380   2.07760
 Alpha virt. eigenvalues --    2.11944   2.13217   2.15028   2.22378   2.26384
 Alpha virt. eigenvalues --    2.26589   2.28956   2.31318   2.34319   2.38405
 Alpha virt. eigenvalues --    2.42439   2.42778   2.45424   2.46261   2.47610
 Alpha virt. eigenvalues --    2.50048   2.59359   2.59612   2.62143   2.62351
 Alpha virt. eigenvalues --    2.63499   2.66991   2.75738   2.82928   2.85524
 Alpha virt. eigenvalues --    2.88365   2.89456   2.92296   2.95818   3.02295
 Alpha virt. eigenvalues --    3.06738   3.12362   3.20494   3.22574   3.31503
 Alpha virt. eigenvalues --    3.34048   3.51756   3.63816   3.83134   3.83828
 Alpha virt. eigenvalues --    4.13788   4.15872   4.18124   4.25643   4.34118
 Alpha virt. eigenvalues --    4.39046   4.45962   4.51450   4.66063   4.70569
 Alpha virt. eigenvalues --    4.80016   4.80985   4.82578   4.89556   5.02331
 Alpha virt. eigenvalues --    5.07745   5.09039   5.13501   5.17273   5.22839
 Alpha virt. eigenvalues --    5.26295   5.30535   5.30631   5.35266   5.60029
 Alpha virt. eigenvalues --    5.67369   5.76624   5.82291   5.95616   6.17140
 Alpha virt. eigenvalues --    6.30848   6.34057   6.39169   6.49364   6.50540
 Alpha virt. eigenvalues --    6.61188   6.66919   6.69931   6.75834   6.76372
 Alpha virt. eigenvalues --    6.83237   6.89840   7.00545   7.05470   7.05561
 Alpha virt. eigenvalues --    7.08824   7.12118   7.14711   7.17912   7.22201
 Alpha virt. eigenvalues --    7.22484   7.29536   7.32516   7.34480   7.39992
 Alpha virt. eigenvalues --    7.42925   7.48458   7.60707   7.61582   7.62466
 Alpha virt. eigenvalues --    7.66241   7.77727   7.88680   8.08705   8.31008
 Alpha virt. eigenvalues --    8.39426   8.54041  13.38754  14.37609  14.99437
 Alpha virt. eigenvalues --   16.15260
          Condensed to atoms (all electrons):
               1          2          3          4          5
     1  H    0.576848   0.133080   0.018642   0.012092  -0.000613
     2  O    0.133080   8.324423  -0.172084  -0.089503   0.015382
     3  O    0.018642  -0.172084   8.468462  -0.129773  -0.038909
     4  N    0.012092  -0.089503  -0.129773   6.972014  -0.055750
     5  O   -0.000613   0.015382  -0.038909  -0.055750   8.273123
 Mulliken charges:
               1
     1  H    0.259951
     2  O   -0.211298
     3  O   -0.146338
     4  N    0.290920
     5  O   -0.193234
 Sum of Mulliken charges =  -0.00000
 Mulliken charges with hydrogens summed into heavy atoms:
               1
     2  O    0.048653
     3  O   -0.146338
     4  N    0.290920
     5  O   -0.193234
 APT charges:
               1
     1  H    0.298501
     2  O   -0.286305
     3  O   -0.496258
     4  N    0.876829
     5  O   -0.392768
 Sum of APT charges =  -0.00000
 APT charges with hydrogens summed into heavy atoms:
               1
     2  O    0.012196
     3  O   -0.496258
     4  N    0.876829
     5  O   -0.392768
 Electronic spatial extent (au):  <R**2>=            253.0356
 Charge=             -0.0000 electrons
 Dipole moment (field-independent basis, Debye):
    X=              0.5147    Y=              1.3763    Z=              0.0000  Tot=              1.4694
 Quadrupole moment (field-independent basis, Debye-Ang):
   XX=            -22.4745   YY=            -18.5680   ZZ=            -22.0257
   XY=              3.2801   XZ=             -0.0000   YZ=             -0.0000
 Traceless Quadrupole moment (field-independent basis, Debye-Ang):
   XX=             -1.4518   YY=              2.4547   ZZ=             -1.0030
   XY=              3.2801   XZ=             -0.0000   YZ=             -0.0000
 Octapole moment (field-independent basis, Debye-Ang**2):
  XXX=              2.8376  YYY=             11.4440  ZZZ=              0.0000  XYY=              7.9974
  XXY=              6.6109  XXZ=              0.0000  XZZ=             -1.5990  YZZ=             -0.8709
  YYZ=             -0.0000  XYZ=             -0.0000
 Hexadecapole moment (field-independent basis, Debye-Ang**3):
 XXXX=           -158.6201 YYYY=            -89.5629 ZZZZ=            -18.2672 XXXY=            -36.7185
 XXXZ=             -0.0000 YYYX=            -30.5477 YYYZ=             -0.0000 ZZZX=             -0.0000
 ZZZY=             -0.0000 XXYY=            -33.8793 XXZZ=            -30.9170 YYZZ=            -20.7244
 XXYZ=             -0.0000 YYXZ=             -0.0000 ZZXY=            -15.0990
 N-N= 1.168015372471D+02 E-N=-8.957106079236D+02  KE= 2.801768735208D+02
 Symmetry A'   KE= 2.662063282176D+02
 Symmetry A"   KE= 1.397054530322D+01
  Exact polarizability:  34.058   9.529  30.424   0.000   0.000  17.958
 Approx polarizability:  29.041   5.122  23.649  -0.000  -0.000  15.542
 No NMR shielding tensors so no spin-rotation constants.
 Leave Link  601 at Mon Feb 21 20:02:03 2022, MaxMem= 16106127360 cpu:               5.4 elap:               0.2
 (Enter /sw/contrib/gaussian/g16/B01/g16/l701.exe)
 ... and contract with generalized density number  2.
 Compute integral second derivatives.
 Leave Link  701 at Mon Feb 21 20:02:04 2022, MaxMem= 16106127360 cpu:               5.7 elap:               0.2
 (Enter /sw/contrib/gaussian/g16/B01/g16/l702.exe)
 L702 exits ... SP integral derivatives will be done elsewhere.
 Leave Link  702 at Mon Feb 21 20:02:04 2022, MaxMem= 16106127360 cpu:               0.5 elap:               0.0
 (Enter /sw/contrib/gaussian/g16/B01/g16/l703.exe)
 Integral derivatives from FoFJK, PRISM(SPDF).
 Compute integral second derivatives, UseDBF=F ICtDFT=           0.
 Calling FoFJK, ICntrl=  10100127 FMM=F ISym2X=1 I1Cent= 0 IOpClX= 0 NMat=1 NMatS=1 NMatT=0.
 FoFJK:  IHMeth= 1 ICntrl=10100127 DoSepK=F KAlg= 0 I1Cent=           0 FoldK=F
 IRaf=         0 NMat=       1 IRICut=       1 DoRegI=T DoRafI=F ISym2E= 1 IDoP0=0 IntGTp=1.
 FoFCou: FMM=F IPFlag=           0 FMFlag=      100000 FMFlg1=         800
         NFxFlg=           0 DoJE=F BraDBF=F KetDBF=F FulRan=T
         wScrn=  0.000000 ICntrl=  10100127 IOpCl=  0 I1Cent=           0 NGrid=           0
         NMat0=    1 NMatS0=      1 NMatT0=    0 NMatD0=    1 NMtDS0=    0 NMtDT0=    0
 Petite list used in FoFCou.
 Leave Link  703 at Mon Feb 21 20:02:19 2022, MaxMem= 16106127360 cpu:             420.4 elap:              15.1
 (Enter /sw/contrib/gaussian/g16/B01/g16/l716.exe)
 Dipole        = 2.02481479D-01 5.41485948D-01 1.95604678D-32
 Polarizability= 3.40582160D+01 9.52943200D+00 3.04243097D+01
                 1.85692614D-30 3.34656551D-30 1.79575205D+01
 Full mass-weighted force constant matrix:
 Low frequencies ---  -82.6415  -10.9762   -0.0008   -0.0007    0.0005   34.2898
 Low frequencies ---  223.9666  329.0120  350.7693
 Diagonal vibrational polarizability:
       14.0479370      25.0945685      37.9466812
 Harmonic frequencies (cm**-1), IR intensities (KM/Mole), Raman scattering
 activities (A**4/AMU), depolarization ratios for plane and unpolarized
 incident light, reduced masses (AMU), force constants (mDyne/A),
 and normal coordinates:
                      1                      2                      3
                     A"                     A"                     A'
 Frequencies --    221.1514               304.6172               350.6583
 Red. masses --     12.1672                 1.1239                 9.0656
 Frc consts  --      0.3506                 0.0614                 0.6568
 IR Inten    --      7.4146               116.7752                 3.7591
  Atom  AN      X      Y      Z        X      Y      Z        X      Y      Z
     1   1    -0.00   0.00   0.46    -0.00   0.00   1.00     0.50  -0.45   0.00
     2   8    -0.00   0.00  -0.38     0.00   0.00  -0.03    -0.09  -0.39  -0.00
     3   8    -0.00  -0.00   0.29     0.00  -0.00  -0.07    -0.15   0.44  -0.00
     4   7     0.00   0.00   0.59    -0.00  -0.00  -0.00     0.05   0.28   0.00
     5   8     0.00   0.00  -0.46    -0.00   0.00   0.04     0.17  -0.26  -0.00
                      4                      5                      6
                     A'                     A'                     A'
 Frequencies --    451.4576               789.0447               967.8435
 Red. masses --     12.3290                13.3638                15.1470
 Frc consts  --      1.4805                 4.9021                 8.3596
 IR Inten    --    200.4938               178.2354                20.6144
  Atom  AN      X      Y      Z        X      Y      Z        X      Y      Z
     1   1     0.41   0.19  -0.00    -0.29   0.20  -0.00    -0.21  -0.04   0.00
     2   8     0.32   0.20  -0.00     0.42   0.09   0.00    -0.52   0.03  -0.00
     3   8     0.17   0.45   0.00    -0.06  -0.28  -0.00     0.74  -0.01   0.00
     4   7    -0.35  -0.40   0.00    -0.14   0.63  -0.00    -0.12   0.24   0.00
     5   8    -0.22  -0.30  -0.00    -0.22  -0.38   0.00    -0.11  -0.22  -0.00
                      7                      8                      9
                     A'                     A'                     A'
 Frequencies --   1407.3900              1677.5989              3623.0375
 Red. masses --      1.1266                12.9144                 1.0676
 Frc consts  --      1.3148                21.4141                 8.2565
 IR Inten    --    151.9607               138.0385                80.9948
  Atom  AN      X      Y      Z        X      Y      Z        X      Y      Z
     1   1     0.99  -0.06  -0.00    -0.38   0.01   0.00     0.10   0.99   0.00
     2   8    -0.03   0.05  -0.00    -0.00  -0.04   0.00    -0.01  -0.06   0.00
     3   8    -0.02  -0.05   0.00     0.00   0.15  -0.00     0.00   0.00  -0.00
     4   7     0.02   0.01   0.00     0.70  -0.05  -0.00    -0.00  -0.00  -0.00
     5   8    -0.03  -0.01  -0.00    -0.59  -0.06   0.00     0.00   0.00   0.00

 -------------------
 - Thermochemistry -
 -------------------
 Temperature   298.150 Kelvin.  Pressure   1.00000 Atm.
 Atom     1 has atomic number  1 and mass   1.00783
 Atom     2 has atomic number  8 and mass  15.99491
 Atom     3 has atomic number  8 and mass  15.99491
 Atom     4 has atomic number  7 and mass  14.00307
 Atom     5 has atomic number  8 and mass  15.99491
 Molecular mass:    62.99564 amu.
 Principal axes and moments of inertia in atomic units:
                           1         2         3
     Eigenvalues --    32.87131 360.27980 393.15111
           X            0.81003  -0.58639   0.00000
           Y            0.58639   0.81003   0.00000
           Z            0.00000   0.00000   1.00000
 This molecule is an asymmetric top.
 Rotational symmetry number  1.
 Rotational temperatures (Kelvin)      2.63494     0.24041     0.22031
 Rotational constants (GHZ):          54.90324     5.00928     4.59045
 Zero-point vibrational energy      58573.9 (Joules/Mol)
                                   13.99951 (Kcal/Mol)
 Warning -- explicit consideration of   4 degrees of freedom as
           vibrations may cause significant error
 Vibrational temperatures:    318.19   438.28   504.52   649.55  1135.26
          (Kelvin)           1392.51  2024.92  2413.69  5212.74
 
 Zero-point correction=                           0.022310 (Hartree/Particle)
 Thermal correction to Energy=                    0.026841
 Thermal correction to Enthalpy=                  0.027785
 Thermal correction to Gibbs Free Energy=        -0.004068
 Sum of electronic and zero-point Energies=           -280.424292
 Sum of electronic and thermal Energies=              -280.419761
 Sum of electronic and thermal Enthalpies=            -280.418817
 Sum of electronic and thermal Free Energies=         -280.450670
 
                     E (Thermal)             CV                S
                      KCal/Mol        Cal/Mol-Kelvin    Cal/Mol-Kelvin
 Total                   16.843             13.593             67.040
 Electronic               0.000              0.000              0.000
 Translational            0.889              2.981             38.341
 Rotational               0.889              2.981             23.058
 Vibrational             15.065              7.631              5.641
 Vibration     1          0.648              1.809              1.950
 Vibration     2          0.696              1.665              1.391
 Vibration     3          0.728              1.574              1.163
 Vibration     4          0.810              1.358              0.791
                       Q            Log10(Q)             Ln(Q)
 Total Bot       0.743211D+02          1.871112          4.308395
 Total V=0       0.135776D+13         12.132824         27.936860
 Vib (Bot)       0.154824D-09         -9.810161        -22.588731
 Vib (Bot)    1  0.893993D+00         -0.048666         -0.112057
 Vib (Bot)    2  0.622681D+00         -0.205734         -0.473720
 Vib (Bot)    3  0.525926D+00         -0.279075         -0.642594
 Vib (Bot)    4  0.379402D+00         -0.420900         -0.969158
 Vib (V=0)       0.282846D+01          0.451551          1.039734
 Vib (V=0)    1  0.152432D+01          0.183075          0.421546
 Vib (V=0)    2  0.129858D+01          0.113469          0.261272
 Vib (V=0)    3  0.122567D+01          0.088374          0.203488
 Vib (V=0)    4  0.112765D+01          0.052175          0.120137
 Electronic      0.100000D+01          0.000000          0.000000
 Translational   0.196526D+08          7.293420         16.793719
 Rotational      0.244261D+05          4.387854         10.103407
 
                                                                title
                                                             IR Spectrum
 
     3                                                                    1        1                                                 
     6                                                                    6        4               9     7           4  3 3  2       
     2                                                                    7        0               6     8           5  5 0  2       
     3                                                                    8        7               8     9           1  1 5  1       
 
     X                                                                    X        X               X     X           X  X X  X       
     X                                                                    X        X               X     X           X    X          
     X                                                                    X        X                     X           X    X          
     X                                                                    X        X                     X           X    X          
     X                                                                    X        X                     X           X    X          
     X                                                                    X        X                     X           X    X          
     X                                                                    X        X                     X           X    X          
     X                                                                    X        X                     X           X    X          
                                                                          X        X                     X           X    X          
                                                                          X        X                     X           X    X          
                                                                          X        X                     X           X    X          
                                                                          X        X                     X           X    X          
                                                                          X        X                     X           X               
                                                                          X        X                     X           X               
                                                                                   X                     X           X               
                                                                                                         X           X               
                                                                                                         X           X               
                                                                                                         X           X               
                                                                                                                     X               
                                                                                                                     X               
 
 ***** Axes restored to original set *****
 -------------------------------------------------------------------
 Center     Atomic                   Forces (Hartrees/Bohr)
 Number     Number              X              Y              Z
 -------------------------------------------------------------------
      1        1           0.000188663   -0.000000000    0.011353711
      2        8          -0.000203711    0.000000000   -0.011167575
      3        8           0.000096082    0.000000000   -0.000023530
      4        7          -0.000532663   -0.000000000   -0.000267575
      5        8           0.000451629    0.000000000    0.000104970
 -------------------------------------------------------------------
 Cartesian Forces:  Max     0.011353711 RMS     0.004117270
 -----------------------------------------------------------------------------------------------
                       Internal Coordinate Forces (Hartree/Bohr or radian)
  Cent   Atom   N1       Length/X         N2         Alpha/Y        N3         Beta/Z          J
 -----------------------------------------------------------------------------------------------
      1  H 
      2  O        1  -0.011354(     1)
      3  O        2  -0.000010(     2)      1  -0.000350(     5)
      4  N        3  -0.000169(     3)      2  -0.000163(     6)      1  -0.000000(     8)     0
      5  O        4   0.000464(     4)      3  -0.000023(     7)      2   0.000000(     9)     0
 -----------------------------------------------------------------------------------------------
 Internal  Forces:  Max     0.011353711 RMS     0.003790333
 Force constants in Cartesian coordinates: 
                1             2             3             4             5 
      1  0.688261D-01
      2  0.000000D+00  0.380982D-02
      3  0.518452D-02  0.000000D+00  0.471025D+00
      4 -0.406236D-01  0.000000D+00 -0.158955D-01  0.278056D+00
      5  0.000000D+00 -0.307433D-02  0.000000D+00  0.000000D+00  0.811174D-02
      6  0.473788D-01  0.000000D+00 -0.467158D+00  0.338319D-01  0.000000D+00
      7 -0.178960D-01  0.000000D+00  0.122594D-01 -0.220526D+00  0.000000D+00
      8  0.000000D+00  0.932975D-03  0.000000D+00  0.000000D+00 -0.642401D-02
      9 -0.522210D-01  0.000000D+00 -0.604628D-03 -0.200417D-01  0.000000D+00
     10 -0.909242D-02  0.000000D+00 -0.485981D-02 -0.171970D-01  0.000000D+00
     11  0.000000D+00 -0.269175D-02  0.000000D+00  0.000000D+00 -0.496789D-02
     12  0.533511D-02  0.000000D+00 -0.462930D-02  0.114400D-01  0.000000D+00
     13 -0.121407D-02  0.000000D+00  0.331136D-02  0.290811D-03  0.000000D+00
     14  0.000000D+00  0.102329D-02  0.000000D+00  0.000000D+00  0.635449D-02
     15 -0.567738D-02  0.000000D+00  0.136700D-02 -0.933467D-02  0.000000D+00
                6             7             8             9            10 
      6  0.552737D+00
      7 -0.207418D-01  0.341417D+00
      8  0.000000D+00  0.000000D+00  0.414684D-02
      9 -0.780953D-01  0.356260D-01  0.000000D+00  0.180721D+00
     10 -0.523981D-01 -0.782218D-01  0.000000D+00  0.174896D+00  0.828603D+00
     11  0.000000D+00  0.000000D+00  0.851331D-02  0.000000D+00  0.000000D+00
     12  0.171531D-01  0.632620D-01  0.000000D+00 -0.816440D-01 -0.179398D-01
     13 -0.807079D-02 -0.247731D-01  0.000000D+00 -0.138259D+00 -0.724092D+00
     14  0.000000D+00  0.000000D+00 -0.716911D-02  0.000000D+00  0.000000D+00
     15 -0.246372D-01 -0.904055D-01  0.000000D+00 -0.203773D-01 -0.996981D-01
               11            12            13            14            15 
     11  0.854760D-02
     12  0.000000D+00  0.186204D+00
     13  0.000000D+00 -0.620973D-01  0.749789D+00
     14 -0.940128D-02  0.000000D+00  0.000000D+00  0.919261D-02
     15  0.000000D+00 -0.117084D+00  0.205116D+00  0.000000D+00  0.160732D+00
 Force constants in internal coordinates: 
                1             2             3             4             5 
      1  0.471025D+00
      2 -0.101059D-01  0.281029D+00
      3  0.337827D-02  0.255727D-02  0.117032D+00
      4 -0.354700D-02  0.595135D-02  0.153058D+00  0.812129D+00
      5  0.980182D-02  0.647158D-01  0.219934D-02  0.479277D-02  0.215576D+00
      6  0.462885D-02  0.590680D-01  0.406731D-01  0.218297D-01  0.310343D-01
      7 -0.111192D-02  0.376349D-01  0.323485D-01  0.846673D-01  0.213266D-01
      8  0.000000D+00  0.000000D+00  0.000000D+00  0.000000D+00  0.000000D+00
      9  0.000000D+00  0.000000D+00  0.000000D+00  0.000000D+00  0.000000D+00
                6             7             8             9 
      6  0.282100D+00
      7  0.959609D-01  0.482605D+00
      8  0.000000D+00  0.000000D+00 -0.776827D-02
      9  0.000000D+00  0.000000D+00 -0.393198D-02  0.411139D-01
 Leave Link  716 at Mon Feb 21 20:02:19 2022, MaxMem= 16106127360 cpu:               1.3 elap:               0.1
 (Enter /sw/contrib/gaussian/g16/B01/g16/l103.exe)

 GradGradGradGradGradGradGradGradGradGradGradGradGradGradGradGradGradGrad
 Berny optimization.
 Search for a local minimum.
 Step number   1 out of a maximum of    2
 All quantities printed in internal units (Hartrees-Bohrs-Radians)
 Second derivative matrix not updated -- analytic derivatives used.
 The second derivative matrix:
                          r1        r2        r3        r4        a1
           r1           0.47102
           r2          -0.01011   0.28103
           r3           0.00338   0.00256   0.11703
           r4          -0.00355   0.00595   0.15306   0.81213
           a1           0.00980   0.06472   0.00220   0.00479   0.21558
           a2           0.00463   0.05907   0.04067   0.02183   0.03103
           a3          -0.00111   0.03763   0.03235   0.08467   0.02133
           d1           0.00000  -0.00000   0.00000   0.00000  -0.00000
           d2          -0.00000  -0.00000   0.00000   0.00000  -0.00000
                          a2        a3        d1        d2
           a2           0.28210
           a3           0.09596   0.48260
           d1          -0.00000  -0.00000  -0.00777
           d2          -0.00000  -0.00000  -0.00393   0.04111
 ITU=  0
     Eigenvalues ---   -0.00808   0.04143   0.07820   0.17487   0.22452
     Eigenvalues ---    0.32414   0.47181   0.51697   0.87100
 Eigenvalue     1 is  -8.08D-03 should be greater than     0.000000 Eigenvector:
                          d1        d2        r3        a3        a2
   1                    0.99682   0.07967  -0.00000   0.00000   0.00000
                          r4        a1        r2        r1
   1                    0.00000  -0.00000   0.00000   0.00000
 Angle between quadratic step and forces=   4.53 degrees.
 Linear search not attempted -- first point.
 Variable       Old X    -DE/DX   Delta X   Delta X   Delta X     New X
                                 (Linear)    (Quad)   (Total)
    r1        1.85420  -0.01135   0.00000  -0.02410  -0.02410   1.83010
    r2        2.74940  -0.00001   0.00000  -0.00088  -0.00088   2.74852
    r3        2.75670  -0.00017   0.00000  -0.00187  -0.00187   2.75483
    r4        2.21236   0.00046   0.00000   0.00083   0.00083   2.21319
    a1        1.70335  -0.00035   0.00000  -0.00029  -0.00029   1.70306
    a2        1.78543  -0.00016   0.00000   0.00027   0.00027   1.78570
    a3        1.90362  -0.00002   0.00000  -0.00010  -0.00010   1.90353
    d1        3.14159  -0.00000   0.00000  -0.00000   0.00000   3.14159
    d2        3.14159   0.00000   0.00000  -0.00000   0.00000   3.14159
         Item               Value     Threshold  Converged?
 Maximum Force            0.011354     0.000450     NO 
 RMS     Force            0.003790     0.000300     NO 
 Maximum Displacement     0.024100     0.001800     NO 
 RMS     Displacement     0.008069     0.001200     NO 
 Predicted change in Energy=-1.371984D-04
                       ----------------------------
                       ! Non-Optimized Parameters !
                       ! (Angstroms and Degrees)  !
 ----------------------                            ----------------------
 !      Name          Value   Derivative information (Atomic Units)     !
 ------------------------------------------------------------------------
 !       r1          0.9684   -DE/DX =   -0.0114                        !
 !       r2          1.4545   -DE/DX =    0.0                           !
 !       r3          1.4578   -DE/DX =   -0.0002                        !
 !       r4          1.1712   -DE/DX =    0.0005                        !
 !       a1         97.5782   -DE/DX =   -0.0003                        !
 !       a2        102.3131   -DE/DX =   -0.0002                        !
 !       a3        109.0641   -DE/DX =    0.0                           !
 !       d1        180.0      -DE/DX =    0.0                           !
 !       d2        180.0      -DE/DX =    0.0                           !
 ------------------------------------------------------------------------
 GradGradGradGradGradGradGradGradGradGradGradGradGradGradGradGradGradGrad

 Leave Link  103 at Mon Feb 21 20:02:19 2022, MaxMem= 16106127360 cpu:               1.2 elap:               0.1
 (Enter /sw/contrib/gaussian/g16/B01/g16/l9999.exe)

 ----------------------------------------------------------------------

 Electric dipole moment (input orientation):
 (Debye = 10**-18 statcoulomb cm , SI units = C m)
                  (au)            (Debye)         (10**-30 SI)
   Tot        0.578105D+00      0.146940D+01      0.490138D+01
   x         -0.148359D+00     -0.377090D+00     -0.125784D+01
   y          0.000000D+00      0.000000D+00      0.000000D+00
   z         -0.558745D+00     -0.142019D+01     -0.473723D+01

 Dipole polarizability, Alpha (input orientation).
 (esu units = cm**3 , SI units = C**2 m**2 J**-1)
 Alpha(0;0):
               (au)            (10**-24 esu)      (10**-40 SI)
   iso        0.274800D+02      0.407212D+01      0.453084D+01
   aniso      0.220536D+02      0.326800D+01      0.363614D+01
   xx         0.321617D+02      0.476587D+01      0.530274D+01
   yx         0.000000D+00      0.000000D+00      0.000000D+00
   yy         0.179575D+02      0.266103D+01      0.296080D+01
   zx         0.970078D+01      0.143751D+01      0.159944D+01
   zy         0.000000D+00      0.000000D+00      0.000000D+00
   zz         0.323209D+02      0.478946D+01      0.532899D+01

 ----------------------------------------------------------------------

 Dipole orientation:
     1         -0.00000000          0.00000000         -0.00000000
     8         -0.47584057          0.00000000         -1.79210051
     8          2.06491385         -0.00000000         -2.84270130
     7          1.57828072         -0.00000000         -5.55611171
     8          3.50879663         -0.00000000         -6.63668163

 Electric dipole moment (dipole orientation):
 (Debye = 10**-18 statcoulomb cm , SI units = C m)
                  (au)            (Debye)         (10**-30 SI)
   Tot        0.578105D+00      0.146940D+01      0.490138D+01
   x          0.000000D+00      0.000000D+00      0.000000D+00
   y          0.000000D+00      0.000000D+00      0.000000D+00
   z          0.578105D+00      0.146940D+01      0.490138D+01

 Dipole polarizability, Alpha (dipole orientation).
 (esu units = cm**3 , SI units = C**2 m**2 J**-1)
 Alpha(0;0):
               (au)            (10**-24 esu)      (10**-40 SI)
   iso        0.274800D+02      0.407212D+01      0.453084D+01
   aniso      0.220536D+02      0.326800D+01      0.363614D+01
   xx         0.273599D+02      0.405432D+01      0.451104D+01
   yx         0.000000D+00      0.000000D+00      0.000000D+00
   yy         0.179575D+02      0.266103D+01      0.296080D+01
   zx        -0.838354D+01     -0.124231D+01     -0.138226D+01
   zy         0.000000D+00      0.000000D+00      0.000000D+00
   zz         0.371226D+02      0.550101D+01      0.612069D+01

 ----------------------------------------------------------------------
 1\1\GINC-N2125\Freq\RMP2-FC\Aug-CC-pVTZ\H1N1O3\CGAVINH\21-Feb-2022\1\\
 #p freq mp2/aug-cc-pvtz density=current\\title\\0,1\H\O,1,r1\O,2,r2,1,
 a1\N,3,r3,2,a2,1,d1,0\O,4,r4,3,a3,2,d2,0\\r1=0.98119908\r2=1.45491931\
 r3=1.45878406\r4=1.17072885\a1=97.59494903\a2=102.29752444\a3=109.0695
 5123\d1=180.\d2=180.\\Version=ES64L-G16RevB.01\State=1-A'\HF=-279.5009
 695\MP2=-280.4466018\RMSD=3.793e-09\RMSF=4.117e-03\ZeroPoint=0.0223096
 \Thermal=0.0268409\Dipole=-0.1483585,0.,-0.5587446\DipoleDeriv=0.26783
 64,0.,0.0479235,0.,0.3538703,0.,0.0797438,0.,0.2737959,-0.3280328,0.,-
 0.2083585,0.,-0.3119667,0.,-0.106382,0.,-0.2189147,-0.0463079,0.,0.151
 7222,0.,-0.0870331,0.,-0.7548628,0.,-1.3554331,0.8939214,0.,0.9086592,
 0.,0.0658274,0.,0.9237505,0.,1.6707394,-0.7874171,0.,-0.8999463,0.,-0.
 0206979,0.,-0.1422495,0.,-0.3701875\Polar=32.1616666,0.,17.9575205,9.7
 007761,0.,32.3208591\Quadrupole=-1.5277541,-0.7456733,2.2734274,0.,2.1
 080047,0.\PG=CS [SG(H1N1O3)]\NImag=0\\0.06882611,0.,0.00380982,0.00518
 452,0.,0.47102475,-0.04062364,0.,-0.01589548,0.27805593,0.,-0.00307433
 ,0.,0.,0.00811174,0.04737879,0.,-0.46715782,0.03383188,0.,0.55273715,-
 0.01789597,0.,0.01225940,-0.22052605,0.,-0.02074182,0.34141697,0.,0.00
 093297,0.,0.,-0.00642401,0.,0.,0.00414684,-0.05222104,0.,-0.00060463,-
 0.02004172,0.,-0.07809525,0.03562595,0.,0.18072117,-0.00909242,0.,-0.0
 0485981,-0.01719705,0.,-0.05239807,-0.07822179,0.,0.17489576,0.8286034
 0,0.,-0.00269175,0.,0.,-0.00496789,0.,0.,0.00851331,0.,0.,0.00854760,0
 .00533511,0.,-0.00462930,0.01144000,0.,0.01715311,0.06326199,0.,-0.081
 64397,-0.01793976,0.,0.18620422,-0.00121407,0.,0.00331136,0.00029081,0
 .,-0.00807079,-0.02477315,0.,-0.13825895,-0.72409213,0.,-0.06209734,0.
 74978854,0.,0.00102329,0.,0.,0.00635449,0.,0.,-0.00716911,0.,0.,-0.009
 40128,0.,0.,0.00919261,-0.00567738,0.,0.00136700,-0.00933467,0.,-0.024
 63719,-0.09040554,0.,-0.02037732,-0.09969812,0.,-0.11708407,0.20511571
 ,0.,0.16073159\\-0.00018866,0.,-0.01135371,0.00020371,0.,0.01116758,-0
 .00009608,0.,0.00002353,0.00053266,0.,0.00026758,-0.00045163,0.,-0.000
 10497\\\@


 LET US PLACE AT THE END OF EVERY CHAPTER.....THE
 TWO LETTERS USED BY THE ROMAN JUDGES WHEN THEY DID
 NOT UNDERSTAND A PLEADING.
 N. L. -NON LIQUET- IT IS NOT CLEAR.
                                              -- VOLTAIRE
 Job cpu time:       0 days  1 hours 58 minutes 40.6 seconds.
 Elapsed time:       0 days  0 hours  4 minutes 17.5 seconds.
 File lengths (MBytes):  RWF=   7239 Int=      0 D2E=      0 Chk=      8 Scr=      1
 Normal termination of Gaussian 16 at Mon Feb 21 20:02:20 2022.
