 Entering Gaussian System, Link 0=g16
 Input=hoono_r3_1p448350.gjf
 Output=hoono_r3_1p448350.log
 Initial command:
 /sw/contrib/gaussian/g16/B01/g16/l1.exe "/scr/Gau-18463.inp" -scrdir="/scr/"
 Entering Link 1 = /sw/contrib/gaussian/g16/B01/g16/l1.exe PID=     18464.
  
 Copyright (c) 1988-2017, Gaussian, Inc.  All Rights Reserved.
  
 This is part of the Gaussian(R) 16 program.  It is based on
 the Gaussian(R) 09 system (copyright 2009, Gaussian, Inc.),
 the Gaussian(R) 03 system (copyright 2003, Gaussian, Inc.),
 the Gaussian(R) 98 system (copyright 1998, Gaussian, Inc.),
 the Gaussian(R) 94 system (copyright 1995, Gaussian, Inc.),
 the Gaussian 92(TM) system (copyright 1992, Gaussian, Inc.),
 the Gaussian 90(TM) system (copyright 1990, Gaussian, Inc.),
 the Gaussian 88(TM) system (copyright 1988, Gaussian, Inc.),
 the Gaussian 86(TM) system (copyright 1986, Carnegie Mellon
 University), and the Gaussian 82(TM) system (copyright 1983,
 Carnegie Mellon University). Gaussian is a federally registered
 trademark of Gaussian, Inc.
  
 This software contains proprietary and confidential information,
 including trade secrets, belonging to Gaussian, Inc.
  
 This software is provided under written license and may be
 used, copied, transmitted, or stored only in accord with that
 written license.
  
 The following legend is applicable only to US Government
 contracts under FAR:
  
                    RESTRICTED RIGHTS LEGEND
  
 Use, reproduction and disclosure by the US Government is
 subject to restrictions as set forth in subparagraphs (a)
 and (c) of the Commercial Computer Software - Restricted
 Rights clause in FAR 52.227-19.
  
 Gaussian, Inc.
 340 Quinnipiac St., Bldg. 40, Wallingford CT 06492
  
  
 ---------------------------------------------------------------
 Warning -- This program may not be used in any manner that
 competes with the business of Gaussian, Inc. or will provide
 assistance to any competitor of Gaussian, Inc.  The licensee
 of this program is prohibited from giving any competitor of
 Gaussian, Inc. access to this program.  By using this program,
 the user acknowledges that Gaussian, Inc. is engaged in the
 business of creating and licensing software in the field of
 computational chemistry and represents and warrants to the
 licensee that it is not a competitor of Gaussian, Inc. and that
 it will not use this program in any manner prohibited above.
 ---------------------------------------------------------------
  

 Cite this work as:
 Gaussian 16, Revision B.01,
 M. J. Frisch, G. W. Trucks, H. B. Schlegel, G. E. Scuseria, 
 M. A. Robb, J. R. Cheeseman, G. Scalmani, V. Barone, 
 G. A. Petersson, H. Nakatsuji, X. Li, M. Caricato, A. V. Marenich, 
 J. Bloino, B. G. Janesko, R. Gomperts, B. Mennucci, H. P. Hratchian, 
 J. V. Ortiz, A. F. Izmaylov, J. L. Sonnenberg, D. Williams-Young, 
 F. Ding, F. Lipparini, F. Egidi, J. Goings, B. Peng, A. Petrone, 
 T. Henderson, D. Ranasinghe, V. G. Zakrzewski, J. Gao, N. Rega, 
 G. Zheng, W. Liang, M. Hada, M. Ehara, K. Toyota, R. Fukuda, 
 J. Hasegawa, M. Ishida, T. Nakajima, Y. Honda, O. Kitao, H. Nakai, 
 T. Vreven, K. Throssell, J. A. Montgomery, Jr., J. E. Peralta, 
 F. Ogliaro, M. J. Bearpark, J. J. Heyd, E. N. Brothers, K. N. Kudin, 
 V. N. Staroverov, T. A. Keith, R. Kobayashi, J. Normand, 
 K. Raghavachari, A. P. Rendell, J. C. Burant, S. S. Iyengar, 
 J. Tomasi, M. Cossi, J. M. Millam, M. Klene, C. Adamo, R. Cammi, 
 J. W. Ochterski, R. L. Martin, K. Morokuma, O. Farkas, 
 J. B. Foresman, and D. J. Fox, Gaussian, Inc., Wallingford CT, 2016.
 
 ******************************************
 Gaussian 16:  ES64L-G16RevB.01 20-Dec-2017
                21-Feb-2022 
 ******************************************
 %nproc=28
 Will use up to   28 processors via shared memory.
 %mem=120GB
 %chk=hoono_r3_1p448350.chk
 ---------------------------------------
 #p freq mp2/aug-cc-pvtz density=current
 ---------------------------------------
 1/10=4,30=1,38=1/1,3;
 2/12=2,17=6,18=5,40=1/2;
 3/5=16,6=1,7=10,11=9,25=1,30=1,71=2,140=1/1,2,3;
 4//1;
 5/5=2,38=5,98=1/2;
 8/6=3,8=1,10=1,19=11,30=-1/1;
 9/15=3,16=-3/6;
 11/6=1,8=1,15=11,17=12,24=-1,27=1,28=-2,29=300,32=6,42=3/1,2,10;
 10/6=2,21=1/2;
 8/6=4,8=1,10=1,19=11,30=-1/11,4;
 10/5=1,20=4/2;
 11/12=2,14=11,16=1,17=2,28=-2,42=3,76=2/2,10,12;
 6/7=2,8=2,9=2,10=2,22=-1/1;
 7/8=1,10=1,12=2,25=1,44=2/1,2,3,16;
 1/10=4,30=1/3;
 99//99;
 Leave Link    1 at Mon Feb 21 20:19:32 2022, MaxMem= 16106127360 cpu:               2.8 elap:               0.1
 (Enter /sw/contrib/gaussian/g16/B01/g16/l101.exe)
 -----
 title
 -----
 Symbolic Z-matrix:
 Charge =  0 Multiplicity = 1
 H
 O                    1    r1
 O                    2    r2       1    a1
 N                    3    r3       2    a2       1    d1       0
 O                    4    r4       3    a3       2    d2       0
       Variables:
  r1                    0.96898                  
  r2                    1.45492                  
  r3                    1.44835                  
  r4                    1.17073                  
  a1                   97.59495                  
  a2                  102.29752                  
  a3                  109.06955                  
  d1                  180.                       
  d2                  180.                       
 
 ITRead=  0  0  0  0  0
 MicOpt= -1 -1 -1 -1 -1
 NAtoms=      5 NQM=        5 NQMF=       0 NMMI=      0 NMMIF=      0
                NMic=       0 NMicF=      0.
                    Isotopes and Nuclear Properties:
 (Nuclear quadrupole moments (NQMom) in fm**2, nuclear magnetic moments (NMagM)
  in nuclear magnetons)

  Atom         1           2           3           4           5
 IAtWgt=           1          16          16          14          16
 AtmWgt=   1.0078250  15.9949146  15.9949146  14.0030740  15.9949146
 NucSpn=           1           0           0           2           0
 AtZEff=  -0.0000000  -0.0000000  -0.0000000  -0.0000000  -0.0000000
 NQMom=    0.0000000   0.0000000   0.0000000   2.0440000   0.0000000
 NMagM=    2.7928460   0.0000000   0.0000000   0.4037610   0.0000000
 AtZNuc=   1.0000000   8.0000000   8.0000000   7.0000000   8.0000000
 Leave Link  101 at Mon Feb 21 20:19:32 2022, MaxMem= 16106127360 cpu:               2.3 elap:               0.1
 (Enter /sw/contrib/gaussian/g16/B01/g16/l103.exe)

 GradGradGradGradGradGradGradGradGradGradGradGradGradGradGradGradGradGrad
 Berny optimization.
 Initialization pass.
                       ----------------------------
                       !    Initial Parameters    !
                       ! (Angstroms and Degrees)  !
 ----------------------                            ----------------------
 !      Name          Value   Derivative information (Atomic Units)     !
 ------------------------------------------------------------------------
 !       r1          0.969    calculate D2E/DX2 analytically            !
 !       r2          1.4549   calculate D2E/DX2 analytically            !
 !       r3          1.4484   calculate D2E/DX2 analytically            !
 !       r4          1.1707   calculate D2E/DX2 analytically            !
 !       a1         97.5949   calculate D2E/DX2 analytically            !
 !       a2        102.2975   calculate D2E/DX2 analytically            !
 !       a3        109.0696   calculate D2E/DX2 analytically            !
 !       d1        180.0      calculate D2E/DX2 analytically            !
 !       d2        180.0      calculate D2E/DX2 analytically            !
 ------------------------------------------------------------------------
 Trust Radius=3.00D-01 FncErr=1.00D-07 GrdErr=1.00D-07 EigMax=2.50D+02 EigMin=1.00D-04
 Number of steps in this run=      2 maximum allowed number of steps=      2.
 GradGradGradGradGradGradGradGradGradGradGradGradGradGradGradGradGradGrad

 Leave Link  103 at Mon Feb 21 20:19:32 2022, MaxMem= 16106127360 cpu:               0.6 elap:               0.0
 (Enter /sw/contrib/gaussian/g16/B01/g16/l202.exe)
                          Input orientation:                          
 ---------------------------------------------------------------------
 Center     Atomic      Atomic             Coordinates (Angstroms)
 Number     Number       Type             X           Y           Z
 ---------------------------------------------------------------------
      1          1           0        0.000000    0.000000    0.000000
      2          8           0        0.000000    0.000000    0.968976
      3          8           0        1.442156    0.000000    1.161271
      4          7           0        1.560896    0.000000    2.604746
      5          8           0        2.695012    0.000000    2.895241
 ---------------------------------------------------------------------
                    Distance matrix (angstroms):
                    1          2          3          4          5
     1  H    0.000000
     2  O    0.968976   0.000000
     3  O    1.851584   1.454919   0.000000
     4  N    3.036626   2.261004   1.448351   0.000000
     5  O    3.955440   3.312640   2.139229   1.170729   0.000000
 Stoichiometry    HNO3
 Framework group  CS[SG(HNO3)]
 Deg. of freedom     7
 Full point group                 CS      NOp   2
 Largest Abelian subgroup         CS      NOp   2
 Largest concise Abelian subgroup C1      NOp   1
                         Standard orientation:                         
 ---------------------------------------------------------------------
 Center     Atomic      Atomic             Coordinates (Angstroms)
 Number     Number       Type             X           Y           Z
 ---------------------------------------------------------------------
      1          1           0        1.550442    1.680371    0.000000
      2          8           0        1.454127    0.716194    0.000000
      3          8           0       -0.000000    0.668198    0.000000
      4          7           0       -0.261631   -0.756326   -0.000000
      5          8           0       -1.419005   -0.932653   -0.000000
 ---------------------------------------------------------------------
 Rotational constants (GHZ):          55.4043585           5.0376494           4.6177773
 Leave Link  202 at Mon Feb 21 20:19:32 2022, MaxMem= 16106127360 cpu:               0.3 elap:               0.0
 (Enter /sw/contrib/gaussian/g16/B01/g16/l301.exe)
 Standard basis: Aug-CC-pVTZ (5D, 7F)
 Ernie: Thresh=  0.10000D-02 Tol=  0.10000D-05 Strict=F.
 Ernie:  12 primitive shells out of 131 were deleted.
 There are   166 symmetry adapted cartesian basis functions of A'  symmetry.
 There are    79 symmetry adapted cartesian basis functions of A"  symmetry.
 There are   136 symmetry adapted basis functions of A'  symmetry.
 There are    71 symmetry adapted basis functions of A"  symmetry.
   207 basis functions,   315 primitive gaussians,   245 cartesian basis functions
    16 alpha electrons       16 beta electrons
       nuclear repulsion energy       117.1578835852 Hartrees.
 IExCor=    0 DFT=F Ex=HF Corr=None ExCW=0 ScaHFX=  1.000000
 ScaDFX=  1.000000  1.000000  1.000000  1.000000 ScalE2=  1.000000  1.000000
 IRadAn=      5 IRanWt=     -1 IRanGd=            0 ICorTp=0 IEmpDi=  4
 NAtoms=    5 NActive=    5 NUniq=    5 SFac= 1.00D+00 NAtFMM=   60 NAOKFM=F Big=F
 Integral buffers will be    131072 words long.
 Raffenetti 1 integral format.
 Two-electron integral symmetry is turned on.
 Leave Link  301 at Mon Feb 21 20:19:33 2022, MaxMem= 16106127360 cpu:               1.9 elap:               0.1
 (Enter /sw/contrib/gaussian/g16/B01/g16/l302.exe)
 NPDir=0 NMtPBC=     1 NCelOv=     1 NCel=       1 NClECP=     1 NCelD=      1
         NCelK=      1 NCelE2=     1 NClLst=     1 CellRange=     0.0.
 One-electron integrals computed using PRISM.
 One-electron integral symmetry used in STVInt
 NBasis=   207 RedAO= T EigKep=  1.81D-04  NBF=   136    71
 NBsUse=   207 1.00D-06 EigRej= -1.00D+00 NBFU=   136    71
 Leave Link  302 at Mon Feb 21 20:19:33 2022, MaxMem= 16106127360 cpu:               4.6 elap:               0.2
 (Enter /sw/contrib/gaussian/g16/B01/g16/l303.exe)
 DipDrv:  MaxL=1.
 Leave Link  303 at Mon Feb 21 20:19:33 2022, MaxMem= 16106127360 cpu:               0.9 elap:               0.1
 (Enter /sw/contrib/gaussian/g16/B01/g16/l401.exe)
 ExpMin= 2.53D-02 ExpMax= 1.53D+04 ExpMxC= 5.22D+02 IAcc=3 IRadAn=         5 AccDes= 0.00D+00
 Harris functional with IExCor=  205 and IRadAn=       5 diagonalized for initial guess.
 HarFok:  IExCor=  205 AccDes= 0.00D+00 IRadAn=         5 IDoV= 1 UseB2=F ITyADJ=14
 ICtDFT=  3500011 ScaDFX=  1.000000  1.000000  1.000000  1.000000
 FoFCou: FMM=F IPFlag=           0 FMFlag=      100000 FMFlg1=           0
         NFxFlg=           0 DoJE=T BraDBF=F KetDBF=T FulRan=T
         wScrn=  0.000000 ICntrl=       500 IOpCl=  0 I1Cent=   200000004 NGrid=           0
         NMat0=    1 NMatS0=      1 NMatT0=    0 NMatD0=    1 NMtDS0=    0 NMtDT0=    0
 Petite list used in FoFCou.
 Harris En= -279.629100322143    
 JPrj=0 DoOrth=F DoCkMO=F.
 Initial guess orbital symmetries:
       Occupied  (A') (A') (A') (A') (A') (A') (A') (A') (A') (A')
                 (A") (A') (A') (A") (A") (A')
       Virtual   (A") (A') (A') (A') (A') (A') (A") (A') (A') (A')
                 (A") (A') (A") (A') (A') (A") (A') (A") (A') (A')
                 (A') (A') (A') (A') (A') (A") (A') (A") (A') (A')
                 (A") (A') (A") (A') (A') (A") (A') (A") (A') (A')
                 (A") (A') (A") (A') (A") (A') (A') (A') (A") (A")
                 (A') (A') (A') (A') (A") (A') (A") (A') (A") (A')
                 (A') (A') (A") (A') (A') (A") (A') (A") (A') (A')
                 (A") (A') (A') (A") (A") (A') (A') (A") (A') (A')
                 (A') (A") (A') (A") (A') (A") (A') (A") (A') (A')
                 (A') (A") (A') (A") (A') (A") (A") (A') (A') (A")
                 (A') (A') (A") (A') (A') (A') (A') (A") (A") (A')
                 (A") (A') (A') (A') (A") (A') (A') (A') (A") (A')
                 (A") (A') (A') (A") (A") (A') (A') (A") (A") (A')
                 (A') (A') (A') (A") (A") (A') (A") (A') (A') (A')
                 (A') (A") (A") (A') (A') (A") (A') (A') (A') (A')
                 (A") (A') (A') (A") (A') (A") (A') (A") (A') (A")
                 (A') (A") (A') (A") (A') (A") (A") (A") (A') (A')
                 (A") (A') (A") (A') (A") (A') (A") (A") (A') (A')
                 (A') (A') (A') (A') (A') (A') (A') (A') (A') (A')
                 (A')
 The electronic state of the initial guess is 1-A'.
 Leave Link  401 at Mon Feb 21 20:19:33 2022, MaxMem= 16106127360 cpu:               6.7 elap:               0.3
 (Enter /sw/contrib/gaussian/g16/B01/g16/l502.exe)
 Keep R1 ints in memory in symmetry-blocked form, NReq=348887737.
 FoFCou: FMM=F IPFlag=           0 FMFlag=           0 FMFlg1=           0
         NFxFlg=           0 DoJE=F BraDBF=F KetDBF=F FulRan=T
         wScrn=  0.000000 ICntrl=       600 IOpCl=  0 I1Cent=           0 NGrid=           0
         NMat0=    1 NMatS0=  21528 NMatT0=    0 NMatD0=    1 NMtDS0=    0 NMtDT0=    0
 Petite list used in FoFCou.
 Closed shell SCF:
 Using DIIS extrapolation, IDIIS=  1040.
 NGot= 16106127360 LenX= 15988850015 LenY= 15988789549
 Requested convergence on RMS density matrix=1.00D-08 within 128 cycles.
 Requested convergence on MAX density matrix=1.00D-06.
 Requested convergence on             energy=1.00D-06.
 No special actions if energy rises.

 Cycle   1  Pass 1  IDiag  1:
 E= -279.370298071703    
 DIIS: error= 2.64D-02 at cycle   1 NSaved=   1.
 NSaved= 1 IEnMin= 1 EnMin= -279.370298071703     IErMin= 1 ErrMin= 2.64D-02
 ErrMax= 2.64D-02  0.00D+00 EMaxC= 1.00D-01 BMatC= 4.40D-01 BMatP= 4.40D-01
 IDIUse=3 WtCom= 7.36D-01 WtEn= 2.64D-01
 Coeff-Com:  0.100D+01
 Coeff-En:   0.100D+01
 Coeff:      0.100D+01
 Gap=     0.518 Goal=   None    Shift=    0.000
 GapD=    0.518 DampG=2.000 DampE=0.500 DampFc=1.0000 IDamp=-1.
 RMSDP=1.63D-03 MaxDP=9.84D-02              OVMax= 1.15D-01

 Cycle   2  Pass 1  IDiag  1:
 E= -279.452085379873     Delta-E=       -0.081787308170 Rises=F Damp=F
 DIIS: error= 1.79D-02 at cycle   2 NSaved=   2.
 NSaved= 2 IEnMin= 2 EnMin= -279.452085379873     IErMin= 2 ErrMin= 1.79D-02
 ErrMax= 1.79D-02  0.00D+00 EMaxC= 1.00D-01 BMatC= 7.40D-02 BMatP= 4.40D-01
 IDIUse=3 WtCom= 8.21D-01 WtEn= 1.79D-01
 Coeff-Com:  0.199D+00 0.801D+00
 Coeff-En:   0.678D-02 0.993D+00
 Coeff:      0.164D+00 0.836D+00
 Gap=     0.532 Goal=   None    Shift=    0.000
 RMSDP=9.09D-04 MaxDP=3.77D-02 DE=-8.18D-02 OVMax= 6.84D-02

 Cycle   3  Pass 1  IDiag  1:
 E= -279.482354117808     Delta-E=       -0.030268737934 Rises=F Damp=F
 DIIS: error= 1.02D-02 at cycle   3 NSaved=   3.
 NSaved= 3 IEnMin= 3 EnMin= -279.482354117808     IErMin= 3 ErrMin= 1.02D-02
 ErrMax= 1.02D-02  0.00D+00 EMaxC= 1.00D-01 BMatC= 2.90D-02 BMatP= 7.40D-02
 IDIUse=3 WtCom= 8.98D-01 WtEn= 1.02D-01
 Coeff-Com: -0.333D-01 0.376D+00 0.658D+00
 Coeff-En:   0.000D+00 0.237D+00 0.763D+00
 Coeff:     -0.299D-01 0.361D+00 0.669D+00
 Gap=     0.510 Goal=   None    Shift=    0.000
 RMSDP=3.78D-04 MaxDP=1.52D-02 DE=-3.03D-02 OVMax= 3.91D-02

 Cycle   4  Pass 1  IDiag  1:
 E= -279.501614322167     Delta-E=       -0.019260204359 Rises=F Damp=F
 DIIS: error= 1.28D-03 at cycle   4 NSaved=   4.
 NSaved= 4 IEnMin= 4 EnMin= -279.501614322167     IErMin= 4 ErrMin= 1.28D-03
 ErrMax= 1.28D-03  0.00D+00 EMaxC= 1.00D-01 BMatC= 4.83D-04 BMatP= 2.90D-02
 IDIUse=3 WtCom= 9.87D-01 WtEn= 1.28D-02
 Coeff-Com: -0.114D-01 0.538D-01 0.154D+00 0.804D+00
 Coeff-En:   0.000D+00 0.000D+00 0.000D+00 0.100D+01
 Coeff:     -0.113D-01 0.531D-01 0.152D+00 0.807D+00
 Gap=     0.502 Goal=   None    Shift=    0.000
 RMSDP=9.02D-05 MaxDP=2.74D-03 DE=-1.93D-02 OVMax= 1.10D-02

 Cycle   5  Pass 1  IDiag  1:
 E= -279.502280147316     Delta-E=       -0.000665825150 Rises=F Damp=F
 DIIS: error= 7.18D-04 at cycle   5 NSaved=   5.
 NSaved= 5 IEnMin= 5 EnMin= -279.502280147316     IErMin= 5 ErrMin= 7.18D-04
 ErrMax= 7.18D-04  0.00D+00 EMaxC= 1.00D-01 BMatC= 8.53D-05 BMatP= 4.83D-04
 IDIUse=3 WtCom= 9.93D-01 WtEn= 7.18D-03
 Coeff-Com:  0.606D-02-0.710D-01-0.116D+00 0.243D-01 0.116D+01
 Coeff-En:   0.000D+00 0.000D+00 0.000D+00 0.000D+00 0.100D+01
 Coeff:      0.601D-02-0.705D-01-0.115D+00 0.241D-01 0.116D+01
 Gap=     0.502 Goal=   None    Shift=    0.000
 RMSDP=7.49D-05 MaxDP=2.08D-03 DE=-6.66D-04 OVMax= 1.09D-02

 Cycle   6  Pass 1  IDiag  1:
 E= -279.502585260013     Delta-E=       -0.000305112697 Rises=F Damp=F
 DIIS: error= 2.85D-04 at cycle   6 NSaved=   6.
 NSaved= 6 IEnMin= 6 EnMin= -279.502585260013     IErMin= 6 ErrMin= 2.85D-04
 ErrMax= 2.85D-04  0.00D+00 EMaxC= 1.00D-01 BMatC= 1.64D-05 BMatP= 8.53D-05
 IDIUse=3 WtCom= 9.97D-01 WtEn= 2.85D-03
 Coeff-Com:  0.565D-03 0.190D-02 0.481D-02-0.132D+00-0.226D+00 0.135D+01
 Coeff-En:   0.000D+00 0.000D+00 0.000D+00 0.000D+00 0.000D+00 0.100D+01
 Coeff:      0.563D-03 0.190D-02 0.480D-02-0.132D+00-0.225D+00 0.135D+01
 Gap=     0.502 Goal=   None    Shift=    0.000
 RMSDP=4.45D-05 MaxDP=1.22D-03 DE=-3.05D-04 OVMax= 5.48D-03

 Cycle   7  Pass 1  IDiag  1:
 E= -279.502655453902     Delta-E=       -0.000070193889 Rises=F Damp=F
 DIIS: error= 1.15D-04 at cycle   7 NSaved=   7.
 NSaved= 7 IEnMin= 7 EnMin= -279.502655453902     IErMin= 7 ErrMin= 1.15D-04
 ErrMax= 1.15D-04  0.00D+00 EMaxC= 1.00D-01 BMatC= 4.28D-06 BMatP= 1.64D-05
 IDIUse=3 WtCom= 9.99D-01 WtEn= 1.15D-03
 Coeff-Com: -0.926D-03 0.132D-01 0.258D-01-0.240D-01-0.279D+00 0.373D+00
 Coeff-Com:  0.892D+00
 Coeff-En:   0.000D+00 0.000D+00 0.000D+00 0.000D+00 0.000D+00 0.000D+00
 Coeff-En:   0.100D+01
 Coeff:     -0.925D-03 0.132D-01 0.258D-01-0.240D-01-0.279D+00 0.372D+00
 Coeff:      0.892D+00
 Gap=     0.502 Goal=   None    Shift=    0.000
 RMSDP=1.30D-05 MaxDP=3.69D-04 DE=-7.02D-05 OVMax= 1.53D-03

 Cycle   8  Pass 1  IDiag  1:
 E= -279.502663943196     Delta-E=       -0.000008489294 Rises=F Damp=F
 DIIS: error= 5.69D-05 at cycle   8 NSaved=   8.
 NSaved= 8 IEnMin= 8 EnMin= -279.502663943196     IErMin= 8 ErrMin= 5.69D-05
 ErrMax= 5.69D-05  0.00D+00 EMaxC= 1.00D-01 BMatC= 5.85D-07 BMatP= 4.28D-06
 IDIUse=1 WtCom= 1.00D+00 WtEn= 0.00D+00
 Coeff-Com: -0.435D-03 0.330D-02 0.733D-02 0.272D-01-0.412D-01-0.195D+00
 Coeff-Com:  0.182D+00 0.102D+01
 Coeff:     -0.435D-03 0.330D-02 0.733D-02 0.272D-01-0.412D-01-0.195D+00
 Coeff:      0.182D+00 0.102D+01
 Gap=     0.502 Goal=   None    Shift=    0.000
 RMSDP=6.62D-06 MaxDP=1.98D-04 DE=-8.49D-06 OVMax= 7.02D-04

 Cycle   9  Pass 1  IDiag  1:
 E= -279.502665619996     Delta-E=       -0.000001676800 Rises=F Damp=F
 DIIS: error= 1.59D-05 at cycle   9 NSaved=   9.
 NSaved= 9 IEnMin= 9 EnMin= -279.502665619996     IErMin= 9 ErrMin= 1.59D-05
 ErrMax= 1.59D-05  0.00D+00 EMaxC= 1.00D-01 BMatC= 6.88D-08 BMatP= 5.85D-07
 IDIUse=1 WtCom= 1.00D+00 WtEn= 0.00D+00
 Coeff-Com:  0.118D-03-0.166D-02-0.296D-02-0.161D-02 0.337D-01-0.221D-02
 Coeff-Com: -0.170D+00-0.868D-01 0.123D+01
 Coeff:      0.118D-03-0.166D-02-0.296D-02-0.161D-02 0.337D-01-0.221D-02
 Coeff:     -0.170D+00-0.868D-01 0.123D+01
 Gap=     0.502 Goal=   None    Shift=    0.000
 RMSDP=1.91D-06 MaxDP=6.54D-05 DE=-1.68D-06 OVMax= 1.75D-04

 Cycle  10  Pass 1  IDiag  1:
 E= -279.502665777463     Delta-E=       -0.000000157467 Rises=F Damp=F
 DIIS: error= 4.11D-06 at cycle  10 NSaved=  10.
 NSaved=10 IEnMin=10 EnMin= -279.502665777463     IErMin=10 ErrMin= 4.11D-06
 ErrMax= 4.11D-06  0.00D+00 EMaxC= 1.00D-01 BMatC= 5.61D-09 BMatP= 6.88D-08
 IDIUse=1 WtCom= 1.00D+00 WtEn= 0.00D+00
 Coeff-Com:  0.321D-04-0.253D-03-0.348D-03-0.278D-02 0.196D-02 0.202D-01
 Coeff-Com: -0.156D-01-0.761D-01-0.750D-01 0.115D+01
 Coeff:      0.321D-04-0.253D-03-0.348D-03-0.278D-02 0.196D-02 0.202D-01
 Coeff:     -0.156D-01-0.761D-01-0.750D-01 0.115D+01
 Gap=     0.502 Goal=   None    Shift=    0.000
 RMSDP=5.09D-07 MaxDP=2.12D-05 DE=-1.57D-07 OVMax= 4.30D-05

 Cycle  11  Pass 1  IDiag  1:
 E= -279.502665790240     Delta-E=       -0.000000012777 Rises=F Damp=F
 DIIS: error= 2.03D-06 at cycle  11 NSaved=  11.
 NSaved=11 IEnMin=11 EnMin= -279.502665790240     IErMin=11 ErrMin= 2.03D-06
 ErrMax= 2.03D-06  0.00D+00 EMaxC= 1.00D-01 BMatC= 6.69D-10 BMatP= 5.61D-09
 IDIUse=1 WtCom= 1.00D+00 WtEn= 0.00D+00
 Coeff-Com: -0.212D-04 0.242D-03 0.484D-03 0.529D-03-0.436D-02-0.352D-02
 Coeff-Com:  0.220D-01 0.306D-01-0.139D+00-0.189D+00 0.128D+01
 Coeff:     -0.212D-04 0.242D-03 0.484D-03 0.529D-03-0.436D-02-0.352D-02
 Coeff:      0.220D-01 0.306D-01-0.139D+00-0.189D+00 0.128D+01
 Gap=     0.502 Goal=   None    Shift=    0.000
 RMSDP=1.81D-07 MaxDP=6.73D-06 DE=-1.28D-08 OVMax= 1.74D-05

 Cycle  12  Pass 1  IDiag  1:
 E= -279.502665792085     Delta-E=       -0.000000001845 Rises=F Damp=F
 DIIS: error= 5.75D-07 at cycle  12 NSaved=  12.
 NSaved=12 IEnMin=12 EnMin= -279.502665792085     IErMin=12 ErrMin= 5.75D-07
 ErrMax= 5.75D-07  0.00D+00 EMaxC= 1.00D-01 BMatC= 6.96D-11 BMatP= 6.69D-10
 IDIUse=1 WtCom= 1.00D+00 WtEn= 0.00D+00
 Coeff-Com:  0.113D-05-0.277D-04-0.600D-04 0.196D-03 0.105D-02-0.233D-02
 Coeff-Com: -0.406D-02 0.575D-02 0.413D-01-0.110D+00-0.282D+00 0.135D+01
 Coeff:      0.113D-05-0.277D-04-0.600D-04 0.196D-03 0.105D-02-0.233D-02
 Coeff:     -0.406D-02 0.575D-02 0.413D-01-0.110D+00-0.282D+00 0.135D+01
 Gap=     0.502 Goal=   None    Shift=    0.000
 RMSDP=7.14D-08 MaxDP=2.82D-06 DE=-1.84D-09 OVMax= 6.53D-06

 Cycle  13  Pass 1  IDiag  1:
 E= -279.502665792306     Delta-E=       -0.000000000221 Rises=F Damp=F
 DIIS: error= 1.64D-07 at cycle  13 NSaved=  13.
 NSaved=13 IEnMin=13 EnMin= -279.502665792306     IErMin=13 ErrMin= 1.64D-07
 ErrMax= 1.64D-07  0.00D+00 EMaxC= 1.00D-01 BMatC= 3.74D-12 BMatP= 6.96D-11
 IDIUse=1 WtCom= 1.00D+00 WtEn= 0.00D+00
 Coeff-Com:  0.126D-05-0.136D-04-0.222D-04-0.880D-04 0.129D-03 0.736D-03
 Coeff-Com: -0.899D-03-0.315D-02 0.625D-03 0.395D-01-0.340D-01-0.315D+00
 Coeff-Com:  0.131D+01
 Coeff:      0.126D-05-0.136D-04-0.222D-04-0.880D-04 0.129D-03 0.736D-03
 Coeff:     -0.899D-03-0.315D-02 0.625D-03 0.395D-01-0.340D-01-0.315D+00
 Coeff:      0.131D+01
 Gap=     0.502 Goal=   None    Shift=    0.000
 RMSDP=1.85D-08 MaxDP=5.28D-07 DE=-2.21D-10 OVMax= 1.50D-06

 Cycle  14  Pass 1  IDiag  1:
 E= -279.502665792319     Delta-E=       -0.000000000012 Rises=F Damp=F
 DIIS: error= 2.31D-08 at cycle  14 NSaved=  14.
 NSaved=14 IEnMin=14 EnMin= -279.502665792319     IErMin=14 ErrMin= 2.31D-08
 ErrMax= 2.31D-08  0.00D+00 EMaxC= 1.00D-01 BMatC= 1.80D-13 BMatP= 3.74D-12
 IDIUse=1 WtCom= 1.00D+00 WtEn= 0.00D+00
 Coeff-Com: -0.177D-06 0.292D-05 0.521D-05 0.378D-05-0.793D-04 0.464D-04
 Coeff-Com:  0.282D-03 0.197D-03-0.236D-02 0.131D-02 0.166D-01-0.258D-01
 Coeff-Com: -0.195D+00 0.121D+01
 Coeff:     -0.177D-06 0.292D-05 0.521D-05 0.378D-05-0.793D-04 0.464D-04
 Coeff:      0.282D-03 0.197D-03-0.236D-02 0.131D-02 0.166D-01-0.258D-01
 Coeff:     -0.195D+00 0.121D+01
 Gap=     0.502 Goal=   None    Shift=    0.000
 RMSDP=3.65D-09 MaxDP=8.96D-08 DE=-1.22D-11 OVMax= 3.25D-07

 SCF Done:  E(RHF) =  -279.502665792     A.U. after   14 cycles
            NFock= 14  Conv=0.37D-08     -V/T= 2.0023
 KE= 2.788625936418D+02 PE=-8.956453309551D+02 EE= 2.201221879358D+02
 Leave Link  502 at Mon Feb 21 20:19:37 2022, MaxMem= 16106127360 cpu:              55.0 elap:               3.5
 (Enter /sw/contrib/gaussian/g16/B01/g16/l801.exe)
 ExpMin= 2.53D-02 ExpMax= 1.53D+04 ExpMxC= 5.22D+02 IAcc=3 IRadAn=         5 AccDes= 0.00D+00
 HarFok:  IExCor=  205 AccDes= 0.00D+00 IRadAn=         5 IDoV=-2 UseB2=F ITyADJ=14
 ICtDFT= 12500011 ScaDFX=  1.000000  1.000000  1.000000  1.000000
 Largest valence mixing into a core orbital is  2.08D-04
 Largest core mixing into a valence orbital is  3.60D-05
 Range of M.O.s used for correlation:     5   207
 NBasis=   207 NAE=    16 NBE=    16 NFC=     4 NFV=     0
 NROrb=    203 NOA=    12 NOB=    12 NVA=   191 NVB=   191

 **** Warning!!: The largest alpha MO coefficient is  0.17824691D+02

 Leave Link  801 at Mon Feb 21 20:19:37 2022, MaxMem= 16106127360 cpu:               3.0 elap:               0.2
 (Enter /sw/contrib/gaussian/g16/B01/g16/l906.exe)
 Frozen-core derivative calculation, NFC=   4 NFV=   0.
 FulOut=F Deriv=T AODrv=T NAtomX=     5
   MMem=           0  MDisk=          12 MDiskD=          12
  W3Min=      811440 MinDsk=     2425030 NBas6D=         245
 NBas2D=       30762    NTT=       30135    LW2=     7400000
    MDV= 16105574269 MDiskM=      328644 NBas2p=       30702
 Disk-based method using ON**2 memory for 12 occupieds at a time.
 Permanent disk used for amplitudes=    11516536 words.
 Estimated scratch disk usage=   321251614 words.
 IMap=   1   2   3   4   5   6   7   8   9  10  11  12  13  14  15  16
 Actual    scratch disk usage=   310331678 words.
 JobTyp=1 Pass  1:  I=   5 to  16 NPSUse= 28 ParTrn=T ParDer=T DoDerP=T.
 (rs|ai) integrals will be sorted in core.
 Spin components of T(2) and E(2):
     alpha-alpha T2 =       0.3390073342D-01 E2=     -0.1222881605D+00
     alpha-beta  T2 =       0.1861213307D+00 E2=     -0.6994710067D+00
     beta-beta   T2 =       0.3390073342D-01 E2=     -0.1222881605D+00
 The integrals were generated   1 times.
 ANorm=    0.1119786943D+01
 E2 =    -0.9440473277D+00 EUMP2 =    -0.28044671312004D+03
 Leave Link  906 at Mon Feb 21 20:21:13 2022, MaxMem= 16106127360 cpu:            2699.6 elap:              96.6
 (Enter /sw/contrib/gaussian/g16/B01/g16/l1101.exe)
 Using compressed Sx but separate Hx and Fx, NAtomX=     5.
 Will process      6 centers per pass.
 Leave Link 1101 at Mon Feb 21 20:21:14 2022, MaxMem= 16106127360 cpu:               6.2 elap:               0.3
 (Enter /sw/contrib/gaussian/g16/B01/g16/l1102.exe)
 Leave Link 1102 at Mon Feb 21 20:21:14 2022, MaxMem= 16106127360 cpu:               1.5 elap:               0.1
 (Enter /sw/contrib/gaussian/g16/B01/g16/l1110.exe)
 Forming Gx(P) for the SCF density, NAtomX=     5.
 Integral derivatives from FoFJK, PRISM(SPDF).
 Do as many integral derivatives as possible in FoFJK.
 G2DrvN: MDV=   16106126844.
 G2DrvN: will do     6 centers at a time, making    1 passes.
 Calling FoFCou, ICntrl=  3107 FMM=F I1Cent=   0 AccDes= 0.00D+00.
 FoFJK:  IHMeth= 1 ICntrl=    3107 DoSepK=F KAlg= 0 I1Cent=           0 FoldK=F
 IRaf=         0 NMat=       1 IRICut=       1 DoRegI=T DoRafI=F ISym2E= 1 IDoP0=0 IntGTp=1.
 FoFCou: FMM=F IPFlag=           0 FMFlag=      100000 FMFlg1=           0
         NFxFlg=           0 DoJE=F BraDBF=F KetDBF=F FulRan=T
         wScrn=  0.000000 ICntrl=      3107 IOpCl=  0 I1Cent=           0 NGrid=           0
         NMat0=    1 NMatS0=      1 NMatT0=    0 NMatD0=    1 NMtDS0=    0 NMtDT0=    0
 Petite list used in FoFCou.
 End of G2Drv F.D. properties file   721 does not exist.
 End of G2Drv F.D. properties file   722 does not exist.
 End of G2Drv F.D. properties file   788 does not exist.
 Leave Link 1110 at Mon Feb 21 20:21:17 2022, MaxMem= 16106127360 cpu:              84.0 elap:               3.0
 (Enter /sw/contrib/gaussian/g16/B01/g16/l1002.exe)
 Minotr:  Closed shell wavefunction.
          IDoAtm=11111
          Frozen-core window.
          Direct CPHF calculation.
          Differentiating once with respect to electric field.
                with respect to dipole field.
          Differentiating once with respect to nuclear coordinates.
          Requested convergence is 1.0D-08 RMS, and 1.0D-07 maximum.
          Secondary convergence is 1.0D-12 RMS, and 1.0D-12 maximum.
          NewPWx=T KeepS1=T KeepF1=T KeepIn=T MapXYZ=F SortEE=F KeepMc=T.
 Keep R1 ints in memory in symmetry-blocked form, NReq=348888983.
 FoFCou: FMM=F IPFlag=           0 FMFlag=           0 FMFlg1=           0
         NFxFlg=           0 DoJE=F BraDBF=F KetDBF=F FulRan=T
         wScrn=  0.000000 ICntrl=       600 IOpCl=  0 I1Cent=           0 NGrid=           0
         NMat0=    1 NMatS0=  21528 NMatT0=    0 NMatD0=    1 NMtDS0=    0 NMtDT0=    0
 Petite list used in FoFCou.
          MDV=   16106127360 using IRadAn=       1.
          Solving linear equations simultaneously, MaxMat=       0.
          There are    18 degrees of freedom in the 1st order CPHF.  IDoFFX=6 NUNeed=    18.
     15 vectors produced by pass  0 Test12= 1.70D-14 5.56D-09 XBig12= 8.27D+00 1.05D+00.
 AX will form    15 AO Fock derivatives at one time.
     15 vectors produced by pass  1 Test12= 1.70D-14 5.56D-09 XBig12= 1.33D+00 2.49D-01.
     15 vectors produced by pass  2 Test12= 1.70D-14 5.56D-09 XBig12= 1.38D-01 9.56D-02.
     15 vectors produced by pass  3 Test12= 1.70D-14 5.56D-09 XBig12= 4.79D-03 1.06D-02.
     15 vectors produced by pass  4 Test12= 1.70D-14 5.56D-09 XBig12= 9.61D-05 1.87D-03.
     15 vectors produced by pass  5 Test12= 1.70D-14 5.56D-09 XBig12= 1.34D-06 1.69D-04.
     15 vectors produced by pass  6 Test12= 1.70D-14 5.56D-09 XBig12= 1.07D-08 1.47D-05.
     12 vectors produced by pass  7 Test12= 1.70D-14 5.56D-09 XBig12= 7.82D-11 1.29D-06.
      3 vectors produced by pass  8 Test12= 1.70D-14 5.56D-09 XBig12= 5.53D-13 1.19D-07.
      2 vectors produced by pass  9 Test12= 1.70D-14 5.56D-09 XBig12= 3.68D-15 1.03D-08.
 InvSVY:  IOpt=1 It=  1 EMax= 1.11D-15
 Solved reduced A of dimension   122 with    15 vectors.
 FullF1:  Do perturbations      1 to      18.
 Saving first derivative matrices.
 End of Minotr F.D. properties file   721 does not exist.
 End of Minotr F.D. properties file   722 does not exist.
 End of Minotr F.D. properties file   788 does not exist.
 Leave Link 1002 at Mon Feb 21 20:21:20 2022, MaxMem= 16106127360 cpu:              80.1 elap:               2.9
 (Enter /sw/contrib/gaussian/g16/B01/g16/l811.exe)
 MDV= 16106127360.
 Form MO integral derivatives with frozen-active canonical formalism.
 MOERI=1 MOERIx=1 NAtoms=     5 NAtomX=     5.
 Discarding MO integrals.
 MO basis two electron integral derivatives will not be stored on disk.
 IAlg= 3 DoFC=T DoPWx=T Debug=F.
 Frozen-core window:  NFC=   4 NFV=   0.
 Reordered first order wavefunction length =     18678272
 In DefCFB: NBatch=  1 ICI= 16 ICA=191 LFMax= 96
            Large arrays: LIAPS=   619940160 LIARS=   288257200 words.
 In StABat: MaxSiz= 55 MinSiz= 25 NAtomB=  5
 DoIAMN: NPSUse= 28.
 Leave Link  811 at Mon Feb 21 20:22:40 2022, MaxMem= 16106127360 cpu:            2241.7 elap:              80.2
 (Enter /sw/contrib/gaussian/g16/B01/g16/l804.exe)
 Frozen-core window:  NFC=   4 NFV=   0.
 Closed-shell transformation, MDV= 16106127360 ITran=4 ISComp=1.
 Semi-Direct transformation.
 ModeAB=           2 MOrb=            16 LenV=   16104923009
 LASXX=     67341636 LTotXX=    67341636 LenRXX=    67341636
 LTotAB=    68301760 MaxLAS=    99807120 LenRXY=    99807120
 NonZer=   134683272 LenScr=   202817536 LnRSAI=           0
 LnScr1=           0 LExtra=           0 Total=    369966292
 MaxDsk=          -1 SrtSym=           F ITran=            4
 DoSDTr:  NPSUse= 28
 JobTyp=0 Pass  1:  I=   1 to  16.
 (rs|ai) integrals will be sorted in core.
 Complete sort for first half transformation.
 First half transformation complete.
 Begin second half transformation for I=  10.
 Begin second half transformation for I=  10.
 Complete sort for second half transformation.
 Second half transformation complete.
 Spin components of T(2) and E(2):
     alpha-alpha T2 =       0.3390073342D-01 E2=     -0.1222881605D+00
     alpha-beta  T2 =       0.1861213307D+00 E2=     -0.6994710067D+00
     beta-beta   T2 =       0.3390073342D-01 E2=     -0.1222881605D+00
 ANorm=    0.1583617882D+01
 E2 =    -0.9440473277D+00 EUMP2 =    -0.28044671312004D+03
 Leave Link  804 at Mon Feb 21 20:22:56 2022, MaxMem= 16106127360 cpu:             437.7 elap:              15.7
 (Enter /sw/contrib/gaussian/g16/B01/g16/l1002.exe)
 Minotr:  Closed shell wavefunction.
          Computing MP2/KS-MP2 derivatives.
          Using Z-Vector for PSCF gradient.
          Skipping F1 and S1 gradient terms here.
          IDoAtm=11111
          Frozen-core window.
          Using MO integrals in the linear equations.
          Forming densities via direct SCF.
          Differentiating once with respect to electric field.
                with respect to dipole field.
          Differentiating once with respect to nuclear coordinates.
          Using symmetry in CPHF.
          Requested convergence is 1.0D-10 RMS, and 1.0D-09 maximum.
          NewPWx=F KeepS1=T KeepF1=T KeepIn=T MapXYZ=F SortEE=F KeepMc=T.
          MDV=   16106127360 using IRadAn=       5.
          Solving linear equations separately, MaxMat=       0.
          There are     1 degrees of freedom in the 1st order CPHF.  IDoFFX=0 NUNeed=     1.
 FoFJK:  IHMeth= 1 ICntrl=       0 DoSepK=F KAlg= 0 I1Cent=           0 FoldK=F
 IRaf=         0 NMat=       1 IRICut=       1 DoRegI=T DoRafI=F ISym2E= 0 IDoP0=0 IntGTp=1.
 FoFCou: FMM=F IPFlag=           0 FMFlag=      100000 FMFlg1=           0
         NFxFlg=           0 DoJE=F BraDBF=F KetDBF=F FulRan=T
         wScrn=  0.000000 ICntrl=         0 IOpCl=  0 I1Cent=           0 NGrid=           0
         NMat0=    1 NMatS0=      1 NMatT0=    0 NMatD0=    1 NMtDS0=    0 NMtDT0=    0
 Symmetry not used in FoFCou.
 LinEq1:  Iter=  0 NonCon=     1 RMS=5.92D-03 Max=1.33D-01 NDo=     1
 LinEq1:  Iter=  1 NonCon=     1 RMS=1.87D-03 Max=3.75D-02 NDo=     1
 LinEq1:  Iter=  2 NonCon=     1 RMS=8.53D-04 Max=1.29D-02 NDo=     1
 LinEq1:  Iter=  3 NonCon=     1 RMS=3.79D-04 Max=7.80D-03 NDo=     1
 LinEq1:  Iter=  4 NonCon=     1 RMS=1.17D-04 Max=1.80D-03 NDo=     1
 LinEq1:  Iter=  5 NonCon=     1 RMS=4.48D-05 Max=7.14D-04 NDo=     1
 LinEq1:  Iter=  6 NonCon=     1 RMS=2.01D-05 Max=2.32D-04 NDo=     1
 LinEq1:  Iter=  7 NonCon=     1 RMS=7.98D-06 Max=1.53D-04 NDo=     1
 LinEq1:  Iter=  8 NonCon=     1 RMS=3.41D-06 Max=3.27D-05 NDo=     1
 LinEq1:  Iter=  9 NonCon=     1 RMS=9.25D-07 Max=1.24D-05 NDo=     1
 LinEq1:  Iter= 10 NonCon=     1 RMS=1.80D-07 Max=1.80D-06 NDo=     1
 LinEq1:  Iter= 11 NonCon=     1 RMS=3.32D-08 Max=3.40D-07 NDo=     1
 LinEq1:  Iter= 12 NonCon=     1 RMS=7.99D-09 Max=1.23D-07 NDo=     1
 LinEq1:  Iter= 13 NonCon=     1 RMS=1.45D-09 Max=2.45D-08 NDo=     1
 LinEq1:  Iter= 14 NonCon=     1 RMS=2.61D-10 Max=3.55D-09 NDo=     1
 LinEq1:  Iter= 15 NonCon=     0 RMS=4.72D-11 Max=5.16D-10 NDo=     1
 Linear equations converged to 1.000D-10 1.000D-09 after    15 iterations.
 End of Minotr F.D. properties file   721 does not exist.
 End of Minotr F.D. properties file   722 does not exist.
 End of Minotr F.D. properties file   788 does not exist.
 Leave Link 1002 at Mon Feb 21 20:22:58 2022, MaxMem= 16106127360 cpu:              63.3 elap:               2.3
 (Enter /sw/contrib/gaussian/g16/B01/g16/l1102.exe)
 Use density number 2.
 Symmetrizing basis deriv contribution to polar:
 IMax=3 JMax=2 DiffMx= 0.00D+00
 Leave Link 1102 at Mon Feb 21 20:22:58 2022, MaxMem= 16106127360 cpu:               0.9 elap:               0.1
 (Enter /sw/contrib/gaussian/g16/B01/g16/l1110.exe)
 Forming Gx(P) for generalized density number  2 NAtomX=     5.
 Integral derivatives from FoFJK, PRISM(SPDF).
 Do as many integral derivatives as possible in FoFJK.
 G2DrvN: MDV=   16106126844.
 G2DrvN: will do     6 centers at a time, making    1 passes.
 Calling FoFCou, ICntrl=  3107 FMM=F I1Cent=   0 AccDes= 0.00D+00.
 FoFJK:  IHMeth= 1 ICntrl=    3107 DoSepK=F KAlg= 0 I1Cent=           0 FoldK=F
 IRaf=         0 NMat=       1 IRICut=       1 DoRegI=T DoRafI=F ISym2E= 1 IDoP0=0 IntGTp=1.
 FoFCou: FMM=F IPFlag=           0 FMFlag=      100000 FMFlg1=           0
         NFxFlg=           0 DoJE=F BraDBF=F KetDBF=F FulRan=T
         wScrn=  0.000000 ICntrl=      3107 IOpCl=  0 I1Cent=           0 NGrid=           0
         NMat0=    1 NMatS0=      1 NMatT0=    0 NMatD0=    1 NMtDS0=    0 NMtDT0=    0
 Petite list used in FoFCou.
 End of G2Drv F.D. properties file   721 does not exist.
 End of G2Drv F.D. properties file   722 does not exist.
 End of G2Drv F.D. properties file   788 does not exist.
 Leave Link 1110 at Mon Feb 21 20:23:01 2022, MaxMem= 16106127360 cpu:              83.3 elap:               3.0
 (Enter /sw/contrib/gaussian/g16/B01/g16/l1112.exe)
 MP22nd: MDV=   16106127360
 This link is doing NAtomX=     5 total of    18 degrees of freedom.
 Using ON3 I/O method in MakUI.
 Frozen-core window:  NFC=   4 NFV=   0.
 Using Ix for Sx.
 Use MO integrals over full window.
 Using OV2 memory method for fx*t*t/D, MaxI=    16 DoOO2=F NP=  28.
 R2 and R3 integrals will be kept in memory, NReq=   915591705.
 FoFCou: FMM=F IPFlag=           0 FMFlag=           0 FMFlg1=           0
         NFxFlg=           0 DoJE=F BraDBF=F KetDBF=F FulRan=T
         wScrn=  0.000000 ICntrl=       600 IOpCl=  0 I1Cent=           0 NGrid=           0
         NMat0=    1 NMatS0=      1 NMatT0=    0 NMatD0=    1 NMtDS0=    0 NMtDT0=    0
 Symmetry not used in FoFCou.
 DD1Dir will call FoFMem   1 times, MxPair=       272
 NAB=   136 NAA=     0 NBB=     0.
 Symmetry is being used.
 FoFJK:  IHMeth= 1 ICntrl=       0 DoSepK=F KAlg= 0 I1Cent=           0 FoldK=F
 IRaf=         0 NMat=      18 IRICut=      45 DoRegI=T DoRafI=T ISym2E= 2 IDoP0=3 IntGTp=3.
 Discarding MO integrals.
 Leave Link 1112 at Mon Feb 21 20:23:37 2022, MaxMem= 16106127360 cpu:             994.5 elap:              35.9
 (Enter /sw/contrib/gaussian/g16/B01/g16/l601.exe)
 Copying SCF densities to generalized density rwf, IOpCl= 0 IROHF=0.

 **********************************************************************

            Population analysis using the MP2 Density.

 **********************************************************************

 Orbital symmetries:
       Occupied  (A') (A') (A') (A') (A') (A') (A') (A') (A') (A')
                 (A") (A') (A") (A') (A") (A')
       Virtual   (A') (A") (A') (A') (A') (A") (A') (A') (A") (A')
                 (A") (A') (A') (A') (A") (A') (A') (A") (A') (A')
                 (A') (A') (A') (A') (A") (A') (A') (A") (A') (A')
                 (A") (A') (A") (A') (A') (A") (A') (A") (A') (A')
                 (A") (A') (A") (A') (A') (A") (A') (A') (A") (A')
                 (A") (A') (A') (A') (A") (A') (A") (A') (A") (A')
                 (A') (A') (A") (A') (A') (A") (A') (A") (A') (A')
                 (A") (A') (A') (A") (A") (A') (A') (A") (A') (A')
                 (A') (A") (A') (A") (A") (A') (A') (A") (A') (A')
                 (A") (A') (A') (A") (A') (A") (A') (A") (A') (A')
                 (A") (A') (A") (A') (A') (A") (A') (A') (A") (A')
                 (A") (A') (A') (A') (A") (A') (A') (A') (A") (A')
                 (A") (A') (A") (A') (A') (A") (A") (A') (A") (A')
                 (A') (A') (A') (A") (A") (A") (A') (A') (A') (A')
                 (A") (A') (A") (A') (A') (A") (A') (A') (A') (A')
                 (A") (A') (A') (A") (A') (A") (A') (A") (A') (A")
                 (A') (A") (A') (A") (A') (A") (A") (A') (A") (A')
                 (A") (A') (A") (A') (A") (A') (A") (A") (A') (A')
                 (A') (A') (A') (A') (A') (A') (A') (A') (A') (A')
                 (A')
 The electronic state is 1-A'.
 Alpha  occ. eigenvalues --  -20.69265 -20.68181 -20.66126 -15.81116  -1.62465
 Alpha  occ. eigenvalues --   -1.49719  -1.25756  -0.94730  -0.77363  -0.76043
 Alpha  occ. eigenvalues --   -0.71362  -0.67883  -0.61992  -0.58998  -0.48629
 Alpha  occ. eigenvalues --   -0.47291
 Alpha virt. eigenvalues --    0.02934   0.07302   0.08613   0.10183   0.13387
 Alpha virt. eigenvalues --    0.13401   0.14386   0.15433   0.17803   0.19420
 Alpha virt. eigenvalues --    0.19986   0.20769   0.22051   0.23496   0.23751
 Alpha virt. eigenvalues --    0.26613   0.29729   0.30366   0.31125   0.34422
 Alpha virt. eigenvalues --    0.35018   0.38765   0.42161   0.43130   0.52784
 Alpha virt. eigenvalues --    0.52969   0.55966   0.58222   0.62671   0.63891
 Alpha virt. eigenvalues --    0.67479   0.68443   0.70601   0.71091   0.72399
 Alpha virt. eigenvalues --    0.72869   0.74431   0.79167   0.79223   0.81073
 Alpha virt. eigenvalues --    0.81198   0.83111   0.86901   0.90833   0.92156
 Alpha virt. eigenvalues --    0.92708   0.95562   0.97899   0.98422   1.01561
 Alpha virt. eigenvalues --    1.05247   1.05535   1.08334   1.11846   1.14227
 Alpha virt. eigenvalues --    1.19003   1.22107   1.23294   1.34003   1.35242
 Alpha virt. eigenvalues --    1.38507   1.45508   1.48786   1.50851   1.53872
 Alpha virt. eigenvalues --    1.56817   1.58174   1.61379   1.66496   1.66976
 Alpha virt. eigenvalues --    1.70427   1.79324   1.83185   1.83650   1.87805
 Alpha virt. eigenvalues --    1.91144   1.95630   1.99426   2.00669   2.08106
 Alpha virt. eigenvalues --    2.12215   2.13348   2.14851   2.22649   2.26388
 Alpha virt. eigenvalues --    2.26486   2.29121   2.31463   2.34669   2.38608
 Alpha virt. eigenvalues --    2.42597   2.43127   2.45545   2.46406   2.47841
 Alpha virt. eigenvalues --    2.50290   2.58853   2.59744   2.62351   2.62559
 Alpha virt. eigenvalues --    2.63378   2.66874   2.75927   2.82962   2.86023
 Alpha virt. eigenvalues --    2.88811   2.89331   2.93271   2.95857   3.02910
 Alpha virt. eigenvalues --    3.07220   3.12493   3.20332   3.22884   3.31852
 Alpha virt. eigenvalues --    3.34464   3.51871   3.64736   3.84339   3.84713
 Alpha virt. eigenvalues --    4.14877   4.16075   4.18536   4.26224   4.35155
 Alpha virt. eigenvalues --    4.39360   4.46269   4.52048   4.66558   4.71207
 Alpha virt. eigenvalues --    4.80717   4.82749   4.83284   4.89683   5.02675
 Alpha virt. eigenvalues --    5.08062   5.10746   5.14394   5.18204   5.24521
 Alpha virt. eigenvalues --    5.27587   5.31050   5.33058   5.35955   5.60903
 Alpha virt. eigenvalues --    5.67555   5.77557   5.82826   5.96074   6.17308
 Alpha virt. eigenvalues --    6.30889   6.34251   6.39658   6.49610   6.50763
 Alpha virt. eigenvalues --    6.61416   6.66748   6.70326   6.75657   6.76325
 Alpha virt. eigenvalues --    6.83564   6.90176   7.01627   7.05603   7.05803
 Alpha virt. eigenvalues --    7.08997   7.12761   7.15264   7.18197   7.22983
 Alpha virt. eigenvalues --    7.24110   7.30541   7.32694   7.35031   7.40256
 Alpha virt. eigenvalues --    7.43651   7.48733   7.60982   7.62247   7.63606
 Alpha virt. eigenvalues --    7.67145   7.79334   7.88968   8.10528   8.31925
 Alpha virt. eigenvalues --    8.40920   8.54938  13.41772  14.45126  15.17071
 Alpha virt. eigenvalues --   16.17299
          Condensed to atoms (all electrons):
               1          2          3          4          5
     1  H    0.589348   0.128325   0.020134   0.012483  -0.000642
     2  O    0.128325   8.321800  -0.172743  -0.092288   0.015781
     3  O    0.020134  -0.172743   8.466783  -0.133019  -0.040832
     4  N    0.012483  -0.092288  -0.133019   6.981373  -0.057196
     5  O   -0.000642   0.015781  -0.040832  -0.057196   8.280690
 Mulliken charges:
               1
     1  H    0.250351
     2  O   -0.200875
     3  O   -0.140323
     4  N    0.288647
     5  O   -0.197800
 Sum of Mulliken charges =  -0.00000
 Mulliken charges with hydrogens summed into heavy atoms:
               1
     2  O    0.049476
     3  O   -0.140323
     4  N    0.288647
     5  O   -0.197800
 APT charges:
               1
     1  H    0.299539
     2  O   -0.286000
     3  O   -0.489752
     4  N    0.870649
     5  O   -0.394436
 Sum of APT charges =  -0.00000
 APT charges with hydrogens summed into heavy atoms:
               1
     2  O    0.013539
     3  O   -0.489752
     4  N    0.870649
     5  O   -0.394436
 Electronic spatial extent (au):  <R**2>=            251.8149
 Charge=             -0.0000 electrons
 Dipole moment (field-independent basis, Debye):
    X=              0.5558    Y=              1.4206    Z=              0.0000  Tot=              1.5255
 Quadrupole moment (field-independent basis, Debye-Ang):
   XX=            -22.4870   YY=            -18.6600   ZZ=            -21.9954
   XY=              3.2363   XZ=             -0.0000   YZ=             -0.0000
 Traceless Quadrupole moment (field-independent basis, Debye-Ang):
   XX=             -1.4395   YY=              2.3875   ZZ=             -0.9479
   XY=              3.2363   XZ=             -0.0000   YZ=             -0.0000
 Octapole moment (field-independent basis, Debye-Ang**2):
  XXX=              3.0657  YYY=             11.3174  ZZZ=             -0.0000  XYY=              7.9268
  XXY=              6.6646  XXZ=              0.0000  XZZ=             -1.5608  YZZ=             -0.8143
  YYZ=              0.0000  XYZ=              0.0000
 Hexadecapole moment (field-independent basis, Debye-Ang**3):
 XXXX=           -158.5097 YYYY=            -88.7166 ZZZZ=            -18.2103 XXXY=            -36.3446
 XXXZ=             -0.0000 YYYX=            -30.5657 YYYZ=             -0.0000 ZZZX=             -0.0000
 ZZZY=             -0.0000 XXYY=            -33.8368 XXZZ=            -30.8774 YYZZ=            -20.4498
 XXYZ=             -0.0000 YYXZ=             -0.0000 ZZXY=            -14.9463
 N-N= 1.171578835852D+02 E-N=-8.964205907218D+02  KE= 2.802105740300D+02
 Symmetry A'   KE= 2.662355202481D+02
 Symmetry A"   KE= 1.397505378188D+01
  Exact polarizability:  34.010   9.413  30.037   0.000   0.000  17.892
 Approx polarizability:  28.959   5.037  23.289   0.000   0.000  15.506
 No NMR shielding tensors so no spin-rotation constants.
 Leave Link  601 at Mon Feb 21 20:23:37 2022, MaxMem= 16106127360 cpu:               5.7 elap:               0.3
 (Enter /sw/contrib/gaussian/g16/B01/g16/l701.exe)
 ... and contract with generalized density number  2.
 Compute integral second derivatives.
 Leave Link  701 at Mon Feb 21 20:23:38 2022, MaxMem= 16106127360 cpu:               5.5 elap:               0.2
 (Enter /sw/contrib/gaussian/g16/B01/g16/l702.exe)
 L702 exits ... SP integral derivatives will be done elsewhere.
 Leave Link  702 at Mon Feb 21 20:23:38 2022, MaxMem= 16106127360 cpu:               0.5 elap:               0.0
 (Enter /sw/contrib/gaussian/g16/B01/g16/l703.exe)
 Integral derivatives from FoFJK, PRISM(SPDF).
 Compute integral second derivatives, UseDBF=F ICtDFT=           0.
 Calling FoFJK, ICntrl=  10100127 FMM=F ISym2X=1 I1Cent= 0 IOpClX= 0 NMat=1 NMatS=1 NMatT=0.
 FoFJK:  IHMeth= 1 ICntrl=10100127 DoSepK=F KAlg= 0 I1Cent=           0 FoldK=F
 IRaf=         0 NMat=       1 IRICut=       1 DoRegI=T DoRafI=F ISym2E= 1 IDoP0=0 IntGTp=1.
 FoFCou: FMM=F IPFlag=           0 FMFlag=      100000 FMFlg1=         800
         NFxFlg=           0 DoJE=F BraDBF=F KetDBF=F FulRan=T
         wScrn=  0.000000 ICntrl=  10100127 IOpCl=  0 I1Cent=           0 NGrid=           0
         NMat0=    1 NMatS0=      1 NMatT0=    0 NMatD0=    1 NMtDS0=    0 NMtDT0=    0
 Petite list used in FoFCou.
 Leave Link  703 at Mon Feb 21 20:23:53 2022, MaxMem= 16106127360 cpu:             421.2 elap:              15.1
 (Enter /sw/contrib/gaussian/g16/B01/g16/l716.exe)
 Dipole        = 2.18683898D-01 5.58920919D-01 1.75148495D-32
 Polarizability= 3.40095347D+01 9.41261817D+00 3.00370078D+01
                 3.07435615D-31 3.68075796D-31 1.78924003D+01
 Full mass-weighted force constant matrix:
 Low frequencies --- -266.4310  -52.8291  -30.4199  -27.7959   -0.0014   -0.0003
 Low frequencies ---    0.0013  224.9014  344.7877
 ******    1 imaginary frequencies (negative Signs) ****** 
 Diagonal vibrational polarizability:
       12.9392704      22.6679800      47.6314507
 Harmonic frequencies (cm**-1), IR intensities (KM/Mole), Raman scattering
 activities (A**4/AMU), depolarization ratios for plane and unpolarized
 incident light, reduced masses (AMU), force constants (mDyne/A),
 and normal coordinates:
                      1                      2                      3
                     A"                     A"                     A'
 Frequencies --   -266.4216               224.5899               344.7720
 Red. masses --      1.1414                10.3735                 8.6392
 Frc consts  --      0.0477                 0.3083                 0.6050
 IR Inten    --    124.4670                 0.8278                 3.4843
  Atom  AN      X      Y      Z        X      Y      Z        X      Y      Z
     1   1     0.00  -0.00   1.00    -0.00  -0.00  -0.58     0.53  -0.44  -0.00
     2   8    -0.00  -0.00  -0.07    -0.00   0.00  -0.31    -0.10  -0.38  -0.00
     3   8    -0.00   0.00  -0.04     0.00  -0.00   0.32    -0.15   0.42   0.00
     4   7     0.00   0.00   0.06     0.00   0.00   0.52     0.05   0.27   0.00
     5   8     0.00  -0.00  -0.01     0.00   0.00  -0.44     0.17  -0.25  -0.00
                      4                      5                      6
                     A'                     A'                     A'
 Frequencies --    472.5748               792.7578               968.8865
 Red. masses --     12.2839                12.7869                15.3366
 Frc consts  --      1.6163                 4.7347                 8.4825
 IR Inten    --    189.1598               179.5119                23.8309
  Atom  AN      X      Y      Z        X      Y      Z        X      Y      Z
     1   1     0.42   0.19   0.00    -0.35   0.19   0.00    -0.18  -0.04  -0.00
     2   8     0.33   0.20  -0.00     0.42   0.08   0.00    -0.51   0.03   0.00
     3   8     0.17   0.44   0.00    -0.07  -0.28  -0.00     0.75  -0.02  -0.00
     4   7    -0.35  -0.38   0.00    -0.13   0.62  -0.00    -0.12   0.25  -0.00
     5   8    -0.22  -0.31  -0.00    -0.21  -0.36   0.00    -0.12  -0.23   0.00
                      7                      8                      9
                     A'                     A'                     A'
 Frequencies --   1373.2448              1682.1936              3778.9289
 Red. masses --      1.1350                13.1703                 1.0675
 Frc consts  --      1.2611                21.9582                 8.9820
 IR Inten    --    154.8884               135.5330                82.3556
  Atom  AN      X      Y      Z        X      Y      Z        X      Y      Z
     1   1     0.99  -0.05  -0.00    -0.35   0.01   0.00     0.10   0.99   0.00
     2   8    -0.03   0.05  -0.00    -0.00  -0.04   0.00    -0.01  -0.06  -0.00
     3   8    -0.02  -0.05   0.00     0.00   0.15  -0.00     0.00   0.00  -0.00
     4   7     0.02   0.01   0.00     0.70  -0.05  -0.00    -0.00  -0.00   0.00
     5   8    -0.03  -0.01  -0.00    -0.59  -0.07   0.00     0.00   0.00   0.00

 -------------------
 - Thermochemistry -
 -------------------
 Temperature   298.150 Kelvin.  Pressure   1.00000 Atm.
 Atom     1 has atomic number  1 and mass   1.00783
 Atom     2 has atomic number  8 and mass  15.99491
 Atom     3 has atomic number  8 and mass  15.99491
 Atom     4 has atomic number  7 and mass  14.00307
 Atom     5 has atomic number  8 and mass  15.99491
 Molecular mass:    62.99564 amu.
 Principal axes and moments of inertia in atomic units:
                           1         2         3
     Eigenvalues --    32.57399 358.25066 390.82465
           X            0.81280  -0.58254   0.00000
           Y            0.58254   0.81280   0.00000
           Z            0.00000  -0.00000   1.00000
 This molecule is an asymmetric top.
 Rotational symmetry number  1.
 Rotational temperatures (Kelvin)      2.65899     0.24177     0.22162
 Rotational constants (GHZ):          55.40436     5.03765     4.61778
    1 imaginary frequencies ignored.
 Zero-point vibrational energy      57647.7 (Joules/Mol)
                                   13.77814 (Kcal/Mol)
 Warning -- explicit consideration of   3 degrees of freedom as
           vibrations may cause significant error
 Vibrational temperatures:    323.13   496.05   679.93  1140.60  1394.01
          (Kelvin)           1975.79  2420.30  5437.04
 
 Zero-point correction=                           0.021957 (Hartree/Particle)
 Thermal correction to Energy=                    0.026058
 Thermal correction to Enthalpy=                  0.027002
 Thermal correction to Gibbs Free Energy=        -0.004150
 Sum of electronic and zero-point Energies=           -280.424756
 Sum of electronic and thermal Energies=              -280.420656
 Sum of electronic and thermal Enthalpies=            -280.419711
 Sum of electronic and thermal Free Energies=         -280.450864
 
                     E (Thermal)             CV                S
                      KCal/Mol        Cal/Mol-Kelvin    Cal/Mol-Kelvin
 Total                   16.351             11.892             65.565
 Electronic               0.000              0.000              0.000
 Translational            0.889              2.981             38.341
 Rotational               0.889              2.981             23.038
 Vibrational             14.574              5.931              4.187
 Vibration     1          0.649              1.804              1.922
 Vibration     2          0.723              1.586              1.190
 Vibration     3          0.829              1.311              0.730
                       Q            Log10(Q)             Ln(Q)
 Total Bot       0.811097D+02          1.909073          4.395803
 Total V=0       0.101981D+13         12.008519         27.650638
 Vib (Bot)       0.170721D-09         -9.767712        -22.490988
 Vib (Bot)    1  0.879022D+00         -0.056000         -0.128945
 Vib (Bot)    2  0.536940D+00         -0.270074         -0.621868
 Vib (Bot)    3  0.356150D+00         -0.448367         -1.032403
 Vib (V=0)       0.214652D+01          0.331734          0.763846
 Vib (V=0)    1  0.151128D+01          0.179344          0.412955
 Vib (V=0)    2  0.123369D+01          0.091207          0.210012
 Vib (V=0)    3  0.111388D+01          0.046837          0.107845
 Electronic      0.100000D+01          0.000000          0.000000
 Translational   0.196526D+08          7.293420         16.793719
 Rotational      0.241749D+05          4.383366         10.093072
 
                                                                title
                                                             IR Spectrum
 
     3                                                                      1         1                                              
     7                                                                      6         3             9     7          4   3   2       
     7                                                                      8         7             6     9          7   4   2       
     9                                                                      2         3             9     3          3   5   5       
 
     X                                                                      X         X             X     X          X   X   X       
     X                                                                      X         X             X     X          X               
     X                                                                      X         X             X     X          X               
     X                                                                      X         X                   X          X               
     X                                                                      X         X                   X          X               
     X                                                                      X         X                   X          X               
     X                                                                      X         X                   X          X               
     X                                                                      X         X                   X          X               
     X                                                                      X         X                   X          X               
                                                                            X         X                   X          X               
                                                                            X         X                   X          X               
                                                                            X         X                   X          X               
                                                                            X         X                   X          X               
                                                                            X         X                   X          X               
                                                                                      X                   X          X               
                                                                                      X                   X          X               
                                                                                                          X          X               
                                                                                                          X          X               
                                                                                                          X          X               
                                                                                                                     X               
 
 ***** Axes restored to original set *****
 -------------------------------------------------------------------
 Center     Atomic                   Forces (Hartrees/Bohr)
 Number     Number              X              Y              Z
 -------------------------------------------------------------------
      1        1           0.000041074   -0.000000000   -0.000067605
      2        8           0.000180700    0.000000000   -0.000158707
      3        8          -0.000915372   -0.000000000   -0.002041536
      4        7          -0.002550902   -0.000000000    0.001151915
      5        8           0.003244500    0.000000000    0.001115933
 -------------------------------------------------------------------
 Cartesian Forces:  Max     0.003244500 RMS     0.001282601
 -----------------------------------------------------------------------------------------------
                       Internal Coordinate Forces (Hartree/Bohr or radian)
  Cent   Atom   N1       Length/X         N2         Alpha/Y        N3         Beta/Z          J
 -----------------------------------------------------------------------------------------------
      1  H 
      2  O        1   0.000068(     1)
      3  O        2  -0.000190(     2)      1  -0.000075(     5)
      4  N        3   0.002317(     3)      2   0.000773(     6)      1  -0.000000(     8)     0
      5  O        4   0.003420(     4)      3   0.000611(     7)      2   0.000000(     9)     0
 -----------------------------------------------------------------------------------------------
 Internal  Forces:  Max     0.003419930 RMS     0.001417379
 Force constants in Cartesian coordinates: 
                1             2             3             4             5 
      1  0.648164D-01
      2  0.000000D+00 -0.230470D-02
      3  0.535697D-02  0.000000D+00  0.512430D+00
      4 -0.360626D-01  0.000000D+00 -0.164347D-01  0.273374D+00
      5  0.000000D+00  0.299555D-02  0.000000D+00  0.000000D+00  0.230686D-02
      6  0.484559D-01  0.000000D+00 -0.508495D+00  0.338535D-01  0.000000D+00
      7 -0.180420D-01  0.000000D+00  0.126772D-01 -0.219887D+00  0.000000D+00
      8  0.000000D+00  0.946871D-03  0.000000D+00  0.000000D+00 -0.676884D-02
      9 -0.532537D-01  0.000000D+00 -0.442977D-03 -0.192462D-01  0.000000D+00
     10 -0.952312D-02  0.000000D+00 -0.492020D-02 -0.179257D-01  0.000000D+00
     11  0.000000D+00 -0.266866D-02  0.000000D+00  0.000000D+00 -0.503837D-02
     12  0.517669D-02  0.000000D+00 -0.495722D-02  0.114172D-01  0.000000D+00
     13 -0.118871D-02  0.000000D+00  0.332073D-02  0.501459D-03  0.000000D+00
     14  0.000000D+00  0.103094D-02  0.000000D+00  0.000000D+00  0.650480D-02
     15 -0.573587D-02  0.000000D+00  0.146569D-02 -0.958989D-02  0.000000D+00
                6             7             8             9            10 
      6  0.595780D+00
      7 -0.202347D-01  0.343105D+00
      8  0.000000D+00  0.000000D+00  0.376645D-02
      9 -0.790476D-01  0.369414D-01  0.000000D+00  0.190176D+00
     10 -0.540395D-01 -0.794850D-01  0.000000D+00  0.175575D+00  0.834222D+00
     11  0.000000D+00  0.000000D+00  0.924697D-02  0.000000D+00  0.000000D+00
     12  0.164149D-01  0.627913D-01  0.000000D+00 -0.888057D-01 -0.169927D-01
     13 -0.803528D-02 -0.256908D-01  0.000000D+00 -0.140016D+00 -0.727288D+00
     14  0.000000D+00  0.000000D+00 -0.719146D-02  0.000000D+00  0.000000D+00
     15 -0.246516D-01 -0.921751D-01  0.000000D+00 -0.218796D-01 -0.996226D-01
               11            12            13            14            15 
     11  0.690873D-02
     12  0.000000D+00  0.193944D+00
     13  0.000000D+00 -0.623925D-01  0.753666D+00
     14 -0.844867D-02  0.000000D+00  0.000000D+00  0.810439D-02
     15  0.000000D+00 -0.116596D+00  0.207124D+00  0.000000D+00  0.161661D+00
 Force constants in internal coordinates: 
                1             2             3             4             5 
      1  0.512430D+00
      2 -0.104605D-01  0.281675D+00
      3  0.361090D-02  0.326853D-02  0.127081D+00
      4 -0.358056D-02  0.579338D-02  0.155159D+00  0.816790D+00
      5  0.985024D-02  0.652127D-01  0.262865D-02  0.471469D-02  0.217449D+00
      6  0.489785D-02  0.605567D-01  0.430741D-01  0.217871D-01  0.319583D-01
      7 -0.131829D-02  0.384092D-01  0.347757D-01  0.867083D-01  0.213159D-01
      8  0.000000D+00  0.000000D+00  0.000000D+00  0.000000D+00  0.000000D+00
      9  0.000000D+00  0.000000D+00  0.000000D+00  0.000000D+00  0.000000D+00
                6             7             8             9 
      6  0.289656D+00
      7  0.952552D-01  0.489860D+00
      8  0.000000D+00  0.000000D+00 -0.746036D-02
      9  0.000000D+00  0.000000D+00 -0.391200D-02  0.420029D-01
 Leave Link  716 at Mon Feb 21 20:23:53 2022, MaxMem= 16106127360 cpu:               1.3 elap:               0.1
 (Enter /sw/contrib/gaussian/g16/B01/g16/l103.exe)

 GradGradGradGradGradGradGradGradGradGradGradGradGradGradGradGradGradGrad
 Berny optimization.
 Search for a local minimum.
 Step number   1 out of a maximum of    2
 All quantities printed in internal units (Hartrees-Bohrs-Radians)
 Second derivative matrix not updated -- analytic derivatives used.
 The second derivative matrix:
                          r1        r2        r3        r4        a1
           r1           0.51243
           r2          -0.01046   0.28167
           r3           0.00361   0.00327   0.12708
           r4          -0.00358   0.00579   0.15516   0.81679
           a1           0.00985   0.06521   0.00263   0.00471   0.21745
           a2           0.00490   0.06056   0.04307   0.02179   0.03196
           a3          -0.00132   0.03841   0.03478   0.08671   0.02132
           d1           0.00000  -0.00000  -0.00000  -0.00000  -0.00000
           d2          -0.00000   0.00000   0.00000   0.00000   0.00000
                          a2        a3        d1        d2
           a2           0.28966
           a3           0.09526   0.48986
           d1          -0.00000  -0.00000  -0.00746
           d2          -0.00000  -0.00000  -0.00391   0.04200
 ITU=  0
     Eigenvalues ---   -0.00777   0.04231   0.08629   0.17601   0.23009
     Eigenvalues ---    0.32821   0.51313   0.52299   0.87822
 Eigenvalue     1 is  -7.77D-03 should be greater than     0.000000 Eigenvector:
                          d1        d2        a3        a2        r3
   1                    0.99693   0.07836   0.00000   0.00000  -0.00000
                          r4        a1        r1        r2
   1                    0.00000  -0.00000  -0.00000   0.00000
 Angle between quadratic step and forces=  53.56 degrees.
 Linear search not attempted -- first point.
 Variable       Old X    -DE/DX   Delta X   Delta X   Delta X     New X
                                 (Linear)    (Quad)   (Total)
    r1        1.83110   0.00007   0.00000   0.00000   0.00000   1.83110
    r2        2.74940  -0.00019   0.00000  -0.00086  -0.00086   2.74853
    r3        2.73699   0.00232   0.00000   0.01700   0.01700   2.75399
    r4        2.21236   0.00342   0.00000   0.00097   0.00097   2.21333
    a1        1.70335  -0.00008   0.00000  -0.00035  -0.00035   1.70300
    a2        1.78543   0.00077   0.00000   0.00032   0.00032   1.78575
    a3        1.90362   0.00061   0.00000  -0.00011  -0.00011   1.90351
    d1        3.14159  -0.00000   0.00000   0.00000   0.00000   3.14159
    d2        3.14159   0.00000   0.00000   0.00000   0.00000   3.14159
         Item               Value     Threshold  Converged?
 Maximum Force            0.003420     0.000450     NO 
 RMS     Force            0.001417     0.000300     NO 
 Maximum Displacement     0.017001     0.001800     NO 
 RMS     Displacement     0.005686     0.001200     NO 
 Predicted change in Energy=-2.153858D-05
                       ----------------------------
                       ! Non-Optimized Parameters !
                       ! (Angstroms and Degrees)  !
 ----------------------                            ----------------------
 !      Name          Value   Derivative information (Atomic Units)     !
 ------------------------------------------------------------------------
 !       r1          0.969    -DE/DX =    0.0001                        !
 !       r2          1.4545   -DE/DX =   -0.0002                        !
 !       r3          1.4573   -DE/DX =    0.0023                        !
 !       r4          1.1712   -DE/DX =    0.0034                        !
 !       a1         97.5749   -DE/DX =   -0.0001                        !
 !       a2        102.316    -DE/DX =    0.0008                        !
 !       a3        109.0632   -DE/DX =    0.0006                        !
 !       d1        180.0      -DE/DX =    0.0                           !
 !       d2        180.0      -DE/DX =    0.0                           !
 ------------------------------------------------------------------------
 GradGradGradGradGradGradGradGradGradGradGradGradGradGradGradGradGradGrad

 Leave Link  103 at Mon Feb 21 20:23:53 2022, MaxMem= 16106127360 cpu:               1.6 elap:               0.1
 (Enter /sw/contrib/gaussian/g16/B01/g16/l9999.exe)

 ----------------------------------------------------------------------

 Electric dipole moment (input orientation):
 (Debye = 10**-18 statcoulomb cm , SI units = C m)
                  (au)            (Debye)         (10**-30 SI)
   Tot        0.600179D+00      0.152550D+01      0.508853D+01
   x         -0.162045D+00     -0.411878D+00     -0.137388D+01
   y          0.000000D+00      0.000000D+00      0.000000D+00
   z         -0.577890D+00     -0.146885D+01     -0.489955D+01

 Dipole polarizability, Alpha (input orientation).
 (esu units = cm**3 , SI units = C**2 m**2 J**-1)
 Alpha(0;0):
               (au)            (10**-24 esu)      (10**-40 SI)
   iso        0.273130D+02      0.404737D+01      0.450330D+01
   aniso      0.218474D+02      0.323745D+01      0.360215D+01
   xx         0.321084D+02      0.475797D+01      0.529395D+01
   yx         0.000000D+00      0.000000D+00      0.000000D+00
   yy         0.178924D+02      0.265138D+01      0.295006D+01
   zx         0.961953D+01      0.142547D+01      0.158605D+01
   zy         0.000000D+00      0.000000D+00      0.000000D+00
   zz         0.319382D+02      0.473275D+01      0.526590D+01

 ----------------------------------------------------------------------

 Dipole orientation:
     1          0.00000000          0.00000000         -0.00000000
     8         -0.49438683          0.00000000         -1.76309476
     8          2.03156824          0.00000000         -2.84879547
     7          1.51113803          0.00000000         -5.53584674
     8          3.42649795          0.00000000         -6.64305918

 Electric dipole moment (dipole orientation):
 (Debye = 10**-18 statcoulomb cm , SI units = C m)
                  (au)            (Debye)         (10**-30 SI)
   Tot        0.600179D+00      0.152550D+01      0.508853D+01
   x          0.000000D+00      0.000000D+00      0.000000D+00
   y          0.000000D+00      0.000000D+00      0.000000D+00
   z          0.600179D+00      0.152550D+01      0.508853D+01

 Dipole polarizability, Alpha (dipole orientation).
 (esu units = cm**3 , SI units = C**2 m**2 J**-1)
 Alpha(0;0):
               (au)            (10**-24 esu)      (10**-40 SI)
   iso        0.273130D+02      0.404737D+01      0.450330D+01
   aniso      0.218474D+02      0.323745D+01      0.360215D+01
   xx         0.270944D+02      0.401498D+01      0.446727D+01
   yx         0.000000D+00      0.000000D+00      0.000000D+00
   yy         0.178924D+02      0.265138D+01      0.295006D+01
   zx        -0.826130D+01     -0.122420D+01     -0.136210D+01
   zy         0.000000D+00      0.000000D+00      0.000000D+00
   zz         0.369521D+02      0.547574D+01      0.609258D+01

 ----------------------------------------------------------------------
 1\1\GINC-N2108\Freq\RMP2-FC\Aug-CC-pVTZ\H1N1O3\CGAVINH\21-Feb-2022\1\\
 #p freq mp2/aug-cc-pvtz density=current\\title\\0,1\H\O,1,r1\O,2,r2,1,
 a1\N,3,r3,2,a2,1,d1,0\O,4,r4,3,a3,2,d2,0\\r1=0.96897556\r2=1.45491931\
 r3=1.4483506\r4=1.17072885\a1=97.59494903\a2=102.29752444\a3=109.06955
 123\d1=180.\d2=180.\\Version=ES64L-G16RevB.01\State=1-A'\HF=-279.50266
 58\MP2=-280.4467131\RMSD=3.652e-09\RMSF=1.283e-03\ZeroPoint=0.0219569\
 Thermal=0.0260575\Dipole=-0.1620452,0.,-0.5778898\DipoleDeriv=0.267264
 6,0.,0.0492698,0.,0.3558603,0.,0.0821219,0.,0.2754916,-0.3262568,0.,-0
 .2075745,0.,-0.3131025,0.,-0.1103708,0.,-0.2186394,-0.039407,0.,0.1528
 168,0.,-0.0805521,0.,-0.7566386,0.,-1.3492983,0.8823354,0.,0.8927838,0
 .,0.0629899,0.,0.9272471,0.,1.666623,-0.7839362,0.,-0.8872959,0.,-0.02
 51957,0.,-0.1423596,0.,-0.374177\Polar=32.1083595,0.,17.8924003,9.6195
 313,0.,31.9381829\Quadrupole=-1.5181097,-0.7047565,2.2228663,0.,2.0771
 402,0.\PG=CS [SG(H1N1O3)]\NImag=1\\0.06481642,0.,-0.00230470,0.0053569
 7,0.,0.51242972,-0.03606260,0.,-0.01643465,0.27337400,0.,0.00299555,0.
 ,0.,0.00230686,0.04845593,0.,-0.50849521,0.03385353,0.,0.59577956,-0.0
 1804199,0.,0.01267716,-0.21988718,0.,-0.02023471,0.34310496,0.,0.00094
 687,0.,0.,-0.00676884,0.,0.,0.00376645,-0.05325371,0.,-0.00044298,-0.0
 1924617,0.,-0.07904764,0.03694137,0.,0.19017590,-0.00952312,0.,-0.0049
 2020,-0.01792567,0.,-0.05403947,-0.07948500,0.,0.17557500,0.83422200,0
 .,-0.00266866,0.,0.,-0.00503837,0.,0.,0.00924697,0.,0.,0.00690873,0.00
 517669,0.,-0.00495722,0.01141719,0.,0.01641495,0.06279132,0.,-0.088805
 69,-0.01699271,0.,0.19394373,-0.00118871,0.,0.00332073,0.00050146,0.,-
 0.00803528,-0.02569080,0.,-0.14001648,-0.72728822,0.,-0.06239248,0.753
 66627,0.,0.00103094,0.,0.,0.00650480,0.,0.,-0.00719146,0.,0.,-0.008448
 67,0.,0.,0.00810439,-0.00573587,0.,0.00146569,-0.00958989,0.,-0.024651
 65,-0.09217514,0.,-0.02187959,-0.09962261,0.,-0.11659577,0.20712351,0.
 ,0.16166131\\-0.00004107,0.,0.00006760,-0.00018070,0.,0.00015871,0.000
 91537,0.,0.00204154,0.00255090,0.,-0.00115192,-0.00324450,0.,-0.001115
 93\\\@


 The most important thing in communication is to hear what isn't being said.
 -- Peter F. Drucker
 Job cpu time:       0 days  2 hours  0 minutes  8.4 seconds.
 Elapsed time:       0 days  0 hours  4 minutes 20.5 seconds.
 File lengths (MBytes):  RWF=   7239 Int=      0 D2E=      0 Chk=      8 Scr=      1
 Normal termination of Gaussian 16 at Mon Feb 21 20:23:54 2022.
