 Entering Gaussian System, Link 0=g16
 Input=hoono_a3_107p7059.gjf
 Output=hoono_a3_107p7059.log
 Initial command:
 /sw/contrib/gaussian/g16/B01/g16/l1.exe "/scr/Gau-29053.inp" -scrdir="/scr/"
 Entering Link 1 = /sw/contrib/gaussian/g16/B01/g16/l1.exe PID=     29054.
  
 Copyright (c) 1988-2017, Gaussian, Inc.  All Rights Reserved.
  
 This is part of the Gaussian(R) 16 program.  It is based on
 the Gaussian(R) 09 system (copyright 2009, Gaussian, Inc.),
 the Gaussian(R) 03 system (copyright 2003, Gaussian, Inc.),
 the Gaussian(R) 98 system (copyright 1998, Gaussian, Inc.),
 the Gaussian(R) 94 system (copyright 1995, Gaussian, Inc.),
 the Gaussian 92(TM) system (copyright 1992, Gaussian, Inc.),
 the Gaussian 90(TM) system (copyright 1990, Gaussian, Inc.),
 the Gaussian 88(TM) system (copyright 1988, Gaussian, Inc.),
 the Gaussian 86(TM) system (copyright 1986, Carnegie Mellon
 University), and the Gaussian 82(TM) system (copyright 1983,
 Carnegie Mellon University). Gaussian is a federally registered
 trademark of Gaussian, Inc.
  
 This software contains proprietary and confidential information,
 including trade secrets, belonging to Gaussian, Inc.
  
 This software is provided under written license and may be
 used, copied, transmitted, or stored only in accord with that
 written license.
  
 The following legend is applicable only to US Government
 contracts under FAR:
  
                    RESTRICTED RIGHTS LEGEND
  
 Use, reproduction and disclosure by the US Government is
 subject to restrictions as set forth in subparagraphs (a)
 and (c) of the Commercial Computer Software - Restricted
 Rights clause in FAR 52.227-19.
  
 Gaussian, Inc.
 340 Quinnipiac St., Bldg. 40, Wallingford CT 06492
  
  
 ---------------------------------------------------------------
 Warning -- This program may not be used in any manner that
 competes with the business of Gaussian, Inc. or will provide
 assistance to any competitor of Gaussian, Inc.  The licensee
 of this program is prohibited from giving any competitor of
 Gaussian, Inc. access to this program.  By using this program,
 the user acknowledges that Gaussian, Inc. is engaged in the
 business of creating and licensing software in the field of
 computational chemistry and represents and warrants to the
 licensee that it is not a competitor of Gaussian, Inc. and that
 it will not use this program in any manner prohibited above.
 ---------------------------------------------------------------
  

 Cite this work as:
 Gaussian 16, Revision B.01,
 M. J. Frisch, G. W. Trucks, H. B. Schlegel, G. E. Scuseria, 
 M. A. Robb, J. R. Cheeseman, G. Scalmani, V. Barone, 
 G. A. Petersson, H. Nakatsuji, X. Li, M. Caricato, A. V. Marenich, 
 J. Bloino, B. G. Janesko, R. Gomperts, B. Mennucci, H. P. Hratchian, 
 J. V. Ortiz, A. F. Izmaylov, J. L. Sonnenberg, D. Williams-Young, 
 F. Ding, F. Lipparini, F. Egidi, J. Goings, B. Peng, A. Petrone, 
 T. Henderson, D. Ranasinghe, V. G. Zakrzewski, J. Gao, N. Rega, 
 G. Zheng, W. Liang, M. Hada, M. Ehara, K. Toyota, R. Fukuda, 
 J. Hasegawa, M. Ishida, T. Nakajima, Y. Honda, O. Kitao, H. Nakai, 
 T. Vreven, K. Throssell, J. A. Montgomery, Jr., J. E. Peralta, 
 F. Ogliaro, M. J. Bearpark, J. J. Heyd, E. N. Brothers, K. N. Kudin, 
 V. N. Staroverov, T. A. Keith, R. Kobayashi, J. Normand, 
 K. Raghavachari, A. P. Rendell, J. C. Burant, S. S. Iyengar, 
 J. Tomasi, M. Cossi, J. M. Millam, M. Klene, C. Adamo, R. Cammi, 
 J. W. Ochterski, R. L. Martin, K. Morokuma, O. Farkas, 
 J. B. Foresman, and D. J. Fox, Gaussian, Inc., Wallingford CT, 2016.
 
 ******************************************
 Gaussian 16:  ES64L-G16RevB.01 20-Dec-2017
                21-Feb-2022 
 ******************************************
 %nproc=28
 Will use up to   28 processors via shared memory.
 %mem=120GB
 %chk=hoono_a3_107p7059.chk
 ---------------------------------------
 #p freq mp2/aug-cc-pvtz density=current
 ---------------------------------------
 1/10=4,30=1,38=1/1,3;
 2/12=2,17=6,18=5,40=1/2;
 3/5=16,6=1,7=10,11=9,25=1,30=1,71=2,140=1/1,2,3;
 4//1;
 5/5=2,38=5,98=1/2;
 8/6=3,8=1,10=1,19=11,30=-1/1;
 9/15=3,16=-3/6;
 11/6=1,8=1,15=11,17=12,24=-1,27=1,28=-2,29=300,32=6,42=3/1,2,10;
 10/6=2,21=1/2;
 8/6=4,8=1,10=1,19=11,30=-1/11,4;
 10/5=1,20=4/2;
 11/12=2,14=11,16=1,17=2,28=-2,42=3,76=2/2,10,12;
 6/7=2,8=2,9=2,10=2,22=-1/1;
 7/8=1,10=1,12=2,25=1,44=2/1,2,3,16;
 1/10=4,30=1/3;
 99//99;
 Leave Link    1 at Mon Feb 21 20:55:02 2022, MaxMem= 16106127360 cpu:              14.1 elap:               0.5
 (Enter /sw/contrib/gaussian/g16/B01/g16/l101.exe)
 -----
 title
 -----
 Symbolic Z-matrix:
 Charge =  0 Multiplicity = 1
 H
 O                    1    r1
 O                    2    r2       1    a1
 N                    3    r3       2    a2       1    d1       0
 O                    4    r4       3    a3       2    d2       0
       Variables:
  r1                    0.96898                  
  r2                    1.45492                  
  r3                    1.45878                  
  r4                    1.17073                  
  a1                   97.59495                  
  a2                  102.29752                  
  a3                  107.70598                  
  d1                  180.                       
  d2                  180.                       
 
 ITRead=  0  0  0  0  0
 MicOpt= -1 -1 -1 -1 -1
 NAtoms=      5 NQM=        5 NQMF=       0 NMMI=      0 NMMIF=      0
                NMic=       0 NMicF=      0.
                    Isotopes and Nuclear Properties:
 (Nuclear quadrupole moments (NQMom) in fm**2, nuclear magnetic moments (NMagM)
  in nuclear magnetons)

  Atom         1           2           3           4           5
 IAtWgt=           1          16          16          14          16
 AtmWgt=   1.0078250  15.9949146  15.9949146  14.0030740  15.9949146
 NucSpn=           1           0           0           2           0
 AtZEff=  -0.0000000  -0.0000000  -0.0000000  -0.0000000  -0.0000000
 NQMom=    0.0000000   0.0000000   0.0000000   2.0440000   0.0000000
 NMagM=    2.7928460   0.0000000   0.0000000   0.4037610   0.0000000
 AtZNuc=   1.0000000   8.0000000   8.0000000   7.0000000   8.0000000
 Leave Link  101 at Mon Feb 21 20:55:03 2022, MaxMem= 16106127360 cpu:               2.1 elap:               0.1
 (Enter /sw/contrib/gaussian/g16/B01/g16/l103.exe)

 GradGradGradGradGradGradGradGradGradGradGradGradGradGradGradGradGradGrad
 Berny optimization.
 Initialization pass.
                       ----------------------------
                       !    Initial Parameters    !
                       ! (Angstroms and Degrees)  !
 ----------------------                            ----------------------
 !      Name          Value   Derivative information (Atomic Units)     !
 ------------------------------------------------------------------------
 !       r1          0.969    calculate D2E/DX2 analytically            !
 !       r2          1.4549   calculate D2E/DX2 analytically            !
 !       r3          1.4588   calculate D2E/DX2 analytically            !
 !       r4          1.1707   calculate D2E/DX2 analytically            !
 !       a1         97.5949   calculate D2E/DX2 analytically            !
 !       a2        102.2975   calculate D2E/DX2 analytically            !
 !       a3        107.706    calculate D2E/DX2 analytically            !
 !       d1        180.0      calculate D2E/DX2 analytically            !
 !       d2        180.0      calculate D2E/DX2 analytically            !
 ------------------------------------------------------------------------
 Trust Radius=3.00D-01 FncErr=1.00D-07 GrdErr=1.00D-07 EigMax=2.50D+02 EigMin=1.00D-04
 Number of steps in this run=      2 maximum allowed number of steps=      2.
 GradGradGradGradGradGradGradGradGradGradGradGradGradGradGradGradGradGrad

 Leave Link  103 at Mon Feb 21 20:55:03 2022, MaxMem= 16106127360 cpu:               0.5 elap:               0.0
 (Enter /sw/contrib/gaussian/g16/B01/g16/l202.exe)
                          Input orientation:                          
 ---------------------------------------------------------------------
 Center     Atomic      Atomic             Coordinates (Angstroms)
 Number     Number       Type             X           Y           Z
 ---------------------------------------------------------------------
      1          1           0        0.000000    0.000000    0.000000
      2          8           0        0.000000    0.000000    0.968976
      3          8           0        1.442156    0.000000    1.161271
      4          7           0        1.561752    0.000000    2.615144
      5          8           0        2.702459    0.000000    2.878569
 ---------------------------------------------------------------------
                    Distance matrix (angstroms):
                    1          2          3          4          5
     1  H    0.000000
     2  O    0.968976   0.000000
     3  O    1.851584   1.454919   0.000000
     4  N    3.045989   2.269127   1.458784   0.000000
     5  O    3.948347   3.309053   2.130135   1.170729   0.000000
 Stoichiometry    HNO3
 Framework group  CS[SG(HNO3)]
 Deg. of freedom     7
 Full point group                 CS      NOp   2
 Largest Abelian subgroup         CS      NOp   2
 Largest concise Abelian subgroup C1      NOp   1
                         Standard orientation:                         
 ---------------------------------------------------------------------
 Center     Atomic      Atomic             Coordinates (Angstroms)
 Number     Number       Type             X           Y           Z
 ---------------------------------------------------------------------
      1          1           0        1.547624    1.682589    0.000000
      2          8           0        1.453989    0.718148    0.000000
      3          8           0       -0.000000    0.666113    0.000000
      4          7           0       -0.259529   -0.769399   -0.000000
      5          8           0       -1.420354   -0.921360   -0.000000
 ---------------------------------------------------------------------
 Rotational constants (GHZ):          54.5761075           5.0454698           4.6184974
 Leave Link  202 at Mon Feb 21 20:55:03 2022, MaxMem= 16106127360 cpu:               0.2 elap:               0.0
 (Enter /sw/contrib/gaussian/g16/B01/g16/l301.exe)
 Standard basis: Aug-CC-pVTZ (5D, 7F)
 Ernie: Thresh=  0.10000D-02 Tol=  0.10000D-05 Strict=F.
 Ernie:  12 primitive shells out of 131 were deleted.
 There are   166 symmetry adapted cartesian basis functions of A'  symmetry.
 There are    79 symmetry adapted cartesian basis functions of A"  symmetry.
 There are   136 symmetry adapted basis functions of A'  symmetry.
 There are    71 symmetry adapted basis functions of A"  symmetry.
   207 basis functions,   315 primitive gaussians,   245 cartesian basis functions
    16 alpha electrons       16 beta electrons
       nuclear repulsion energy       117.0414723041 Hartrees.
 IExCor=    0 DFT=F Ex=HF Corr=None ExCW=0 ScaHFX=  1.000000
 ScaDFX=  1.000000  1.000000  1.000000  1.000000 ScalE2=  1.000000  1.000000
 IRadAn=      5 IRanWt=     -1 IRanGd=            0 ICorTp=0 IEmpDi=  4
 NAtoms=    5 NActive=    5 NUniq=    5 SFac= 1.00D+00 NAtFMM=   60 NAOKFM=F Big=F
 Integral buffers will be    131072 words long.
 Raffenetti 1 integral format.
 Two-electron integral symmetry is turned on.
 Leave Link  301 at Mon Feb 21 20:55:03 2022, MaxMem= 16106127360 cpu:               1.8 elap:               0.1
 (Enter /sw/contrib/gaussian/g16/B01/g16/l302.exe)
 NPDir=0 NMtPBC=     1 NCelOv=     1 NCel=       1 NClECP=     1 NCelD=      1
         NCelK=      1 NCelE2=     1 NClLst=     1 CellRange=     0.0.
 One-electron integrals computed using PRISM.
 One-electron integral symmetry used in STVInt
 NBasis=   207 RedAO= T EigKep=  1.81D-04  NBF=   136    71
 NBsUse=   207 1.00D-06 EigRej= -1.00D+00 NBFU=   136    71
 Leave Link  302 at Mon Feb 21 20:55:03 2022, MaxMem= 16106127360 cpu:               4.4 elap:               0.2
 (Enter /sw/contrib/gaussian/g16/B01/g16/l303.exe)
 DipDrv:  MaxL=1.
 Leave Link  303 at Mon Feb 21 20:55:03 2022, MaxMem= 16106127360 cpu:               1.5 elap:               0.1
 (Enter /sw/contrib/gaussian/g16/B01/g16/l401.exe)
 ExpMin= 2.53D-02 ExpMax= 1.53D+04 ExpMxC= 5.22D+02 IAcc=3 IRadAn=         5 AccDes= 0.00D+00
 Harris functional with IExCor=  205 and IRadAn=       5 diagonalized for initial guess.
 HarFok:  IExCor=  205 AccDes= 0.00D+00 IRadAn=         5 IDoV= 1 UseB2=F ITyADJ=14
 ICtDFT=  3500011 ScaDFX=  1.000000  1.000000  1.000000  1.000000
 FoFCou: FMM=F IPFlag=           0 FMFlag=      100000 FMFlg1=           0
         NFxFlg=           0 DoJE=T BraDBF=F KetDBF=T FulRan=T
         wScrn=  0.000000 ICntrl=       500 IOpCl=  0 I1Cent=   200000004 NGrid=           0
         NMat0=    1 NMatS0=      1 NMatT0=    0 NMatD0=    1 NMtDS0=    0 NMtDT0=    0
 Petite list used in FoFCou.
 Harris En= -279.628606399086    
 JPrj=0 DoOrth=F DoCkMO=F.
 Initial guess orbital symmetries:
       Occupied  (A') (A') (A') (A') (A') (A') (A') (A') (A') (A')
                 (A") (A') (A') (A") (A") (A')
       Virtual   (A") (A') (A') (A') (A') (A') (A") (A') (A') (A')
                 (A") (A') (A") (A') (A') (A") (A') (A") (A') (A')
                 (A') (A') (A') (A') (A') (A") (A') (A") (A') (A')
                 (A") (A') (A") (A') (A') (A") (A') (A") (A') (A')
                 (A") (A') (A") (A') (A") (A') (A') (A') (A") (A")
                 (A') (A') (A') (A') (A") (A') (A") (A') (A") (A')
                 (A') (A') (A") (A') (A') (A") (A') (A") (A') (A')
                 (A") (A') (A') (A") (A") (A') (A') (A") (A') (A')
                 (A') (A") (A') (A") (A") (A') (A') (A") (A') (A')
                 (A') (A") (A') (A") (A') (A") (A") (A') (A') (A')
                 (A") (A') (A") (A') (A') (A') (A") (A') (A") (A')
                 (A") (A') (A') (A') (A") (A') (A') (A') (A") (A')
                 (A") (A') (A') (A") (A") (A') (A') (A") (A") (A')
                 (A') (A') (A') (A") (A") (A') (A") (A') (A') (A')
                 (A') (A") (A") (A') (A') (A") (A') (A') (A') (A')
                 (A") (A') (A') (A") (A') (A") (A') (A") (A') (A")
                 (A') (A") (A') (A") (A') (A") (A") (A") (A') (A')
                 (A") (A') (A") (A') (A") (A') (A") (A") (A') (A')
                 (A') (A') (A') (A') (A') (A') (A') (A') (A') (A')
                 (A')
 The electronic state of the initial guess is 1-A'.
 Leave Link  401 at Mon Feb 21 20:55:04 2022, MaxMem= 16106127360 cpu:              33.9 elap:               1.3
 (Enter /sw/contrib/gaussian/g16/B01/g16/l502.exe)
 Keep R1 ints in memory in symmetry-blocked form, NReq=348887737.
 FoFCou: FMM=F IPFlag=           0 FMFlag=           0 FMFlg1=           0
         NFxFlg=           0 DoJE=F BraDBF=F KetDBF=F FulRan=T
         wScrn=  0.000000 ICntrl=       600 IOpCl=  0 I1Cent=           0 NGrid=           0
         NMat0=    1 NMatS0=  21528 NMatT0=    0 NMatD0=    1 NMtDS0=    0 NMtDT0=    0
 Petite list used in FoFCou.
 Closed shell SCF:
 Using DIIS extrapolation, IDIIS=  1040.
 NGot= 16106127360 LenX= 15988850015 LenY= 15988789549
 Requested convergence on RMS density matrix=1.00D-08 within 128 cycles.
 Requested convergence on MAX density matrix=1.00D-06.
 Requested convergence on             energy=1.00D-06.
 No special actions if energy rises.

 Cycle   1  Pass 1  IDiag  1:
 E= -279.369922206227    
 DIIS: error= 2.53D-02 at cycle   1 NSaved=   1.
 NSaved= 1 IEnMin= 1 EnMin= -279.369922206227     IErMin= 1 ErrMin= 2.53D-02
 ErrMax= 2.53D-02  0.00D+00 EMaxC= 1.00D-01 BMatC= 4.39D-01 BMatP= 4.39D-01
 IDIUse=3 WtCom= 7.47D-01 WtEn= 2.53D-01
 Coeff-Com:  0.100D+01
 Coeff-En:   0.100D+01
 Coeff:      0.100D+01
 Gap=     0.511 Goal=   None    Shift=    0.000
 GapD=    0.511 DampG=2.000 DampE=0.500 DampFc=1.0000 IDamp=-1.
 RMSDP=1.63D-03 MaxDP=1.01D-01              OVMax= 1.14D-01

 Cycle   2  Pass 1  IDiag  1:
 E= -279.452204018195     Delta-E=       -0.082281811968 Rises=F Damp=F
 DIIS: error= 1.81D-02 at cycle   2 NSaved=   2.
 NSaved= 2 IEnMin= 2 EnMin= -279.452204018195     IErMin= 2 ErrMin= 1.81D-02
 ErrMax= 1.81D-02  0.00D+00 EMaxC= 1.00D-01 BMatC= 7.21D-02 BMatP= 4.39D-01
 IDIUse=3 WtCom= 8.19D-01 WtEn= 1.81D-01
 Coeff-Com:  0.196D+00 0.804D+00
 Coeff-En:   0.000D+00 0.100D+01
 Coeff:      0.160D+00 0.840D+00
 Gap=     0.532 Goal=   None    Shift=    0.000
 RMSDP=9.01D-04 MaxDP=3.76D-02 DE=-8.23D-02 OVMax= 6.97D-02

 Cycle   3  Pass 1  IDiag  1:
 E= -279.481614313135     Delta-E=       -0.029410294941 Rises=F Damp=F
 DIIS: error= 1.05D-02 at cycle   3 NSaved=   3.
 NSaved= 3 IEnMin= 3 EnMin= -279.481614313135     IErMin= 3 ErrMin= 1.05D-02
 ErrMax= 1.05D-02  0.00D+00 EMaxC= 1.00D-01 BMatC= 2.85D-02 BMatP= 7.21D-02
 IDIUse=3 WtCom= 8.95D-01 WtEn= 1.05D-01
 Coeff-Com: -0.330D-01 0.377D+00 0.656D+00
 Coeff-En:   0.000D+00 0.237D+00 0.763D+00
 Coeff:     -0.295D-01 0.362D+00 0.668D+00
 Gap=     0.512 Goal=   None    Shift=    0.000
 RMSDP=3.76D-04 MaxDP=1.56D-02 DE=-2.94D-02 OVMax= 3.81D-02

 Cycle   4  Pass 1  IDiag  1:
 E= -279.500549817513     Delta-E=       -0.018935504378 Rises=F Damp=F
 DIIS: error= 1.27D-03 at cycle   4 NSaved=   4.
 NSaved= 4 IEnMin= 4 EnMin= -279.500549817513     IErMin= 4 ErrMin= 1.27D-03
 ErrMax= 1.27D-03  0.00D+00 EMaxC= 1.00D-01 BMatC= 4.98D-04 BMatP= 2.85D-02
 IDIUse=3 WtCom= 9.87D-01 WtEn= 1.27D-02
 Coeff-Com: -0.117D-01 0.572D-01 0.160D+00 0.795D+00
 Coeff-En:   0.000D+00 0.000D+00 0.000D+00 0.100D+01
 Coeff:     -0.115D-01 0.564D-01 0.158D+00 0.797D+00
 Gap=     0.504 Goal=   None    Shift=    0.000
 RMSDP=8.99D-05 MaxDP=2.75D-03 DE=-1.89D-02 OVMax= 1.12D-02

 Cycle   5  Pass 1  IDiag  1:
 E= -279.501228260220     Delta-E=       -0.000678442707 Rises=F Damp=F
 DIIS: error= 7.32D-04 at cycle   5 NSaved=   5.
 NSaved= 5 IEnMin= 5 EnMin= -279.501228260220     IErMin= 5 ErrMin= 7.32D-04
 ErrMax= 7.32D-04  0.00D+00 EMaxC= 1.00D-01 BMatC= 8.69D-05 BMatP= 4.98D-04
 IDIUse=3 WtCom= 9.93D-01 WtEn= 7.32D-03
 Coeff-Com:  0.618D-02-0.727D-01-0.119D+00 0.167D-01 0.117D+01
 Coeff-En:   0.000D+00 0.000D+00 0.000D+00 0.000D+00 0.100D+01
 Coeff:      0.613D-02-0.721D-01-0.118D+00 0.166D-01 0.117D+01
 Gap=     0.504 Goal=   None    Shift=    0.000
 RMSDP=7.66D-05 MaxDP=2.12D-03 DE=-6.78D-04 OVMax= 1.12D-02

 Cycle   6  Pass 1  IDiag  1:
 E= -279.501544517831     Delta-E=       -0.000316257611 Rises=F Damp=F
 DIIS: error= 2.76D-04 at cycle   6 NSaved=   6.
 NSaved= 6 IEnMin= 6 EnMin= -279.501544517831     IErMin= 6 ErrMin= 2.76D-04
 ErrMax= 2.76D-04  0.00D+00 EMaxC= 1.00D-01 BMatC= 1.66D-05 BMatP= 8.69D-05
 IDIUse=3 WtCom= 9.97D-01 WtEn= 2.76D-03
 Coeff-Com:  0.552D-03 0.210D-02 0.540D-02-0.129D+00-0.236D+00 0.136D+01
 Coeff-En:   0.000D+00 0.000D+00 0.000D+00 0.000D+00 0.000D+00 0.100D+01
 Coeff:      0.550D-03 0.209D-02 0.539D-02-0.129D+00-0.236D+00 0.136D+01
 Gap=     0.504 Goal=   None    Shift=    0.000
 RMSDP=4.52D-05 MaxDP=1.24D-03 DE=-3.16D-04 OVMax= 5.57D-03

 Cycle   7  Pass 1  IDiag  1:
 E= -279.501616839792     Delta-E=       -0.000072321961 Rises=F Damp=F
 DIIS: error= 1.22D-04 at cycle   7 NSaved=   7.
 NSaved= 7 IEnMin= 7 EnMin= -279.501616839792     IErMin= 7 ErrMin= 1.22D-04
 ErrMax= 1.22D-04  0.00D+00 EMaxC= 1.00D-01 BMatC= 4.39D-06 BMatP= 1.66D-05
 IDIUse=3 WtCom= 9.99D-01 WtEn= 1.22D-03
 Coeff-Com: -0.940D-03 0.135D-01 0.265D-01-0.230D-01-0.284D+00 0.381D+00
 Coeff-Com:  0.887D+00
 Coeff-En:   0.000D+00 0.000D+00 0.000D+00 0.000D+00 0.000D+00 0.000D+00
 Coeff-En:   0.100D+01
 Coeff:     -0.939D-03 0.134D-01 0.264D-01-0.230D-01-0.283D+00 0.381D+00
 Coeff:      0.887D+00
 Gap=     0.504 Goal=   None    Shift=    0.000
 RMSDP=1.31D-05 MaxDP=3.71D-04 DE=-7.23D-05 OVMax= 1.54D-03

 Cycle   8  Pass 1  IDiag  1:
 E= -279.501625539152     Delta-E=       -0.000008699360 Rises=F Damp=F
 DIIS: error= 5.60D-05 at cycle   8 NSaved=   8.
 NSaved= 8 IEnMin= 8 EnMin= -279.501625539152     IErMin= 8 ErrMin= 5.60D-05
 ErrMax= 5.60D-05  0.00D+00 EMaxC= 1.00D-01 BMatC= 6.07D-07 BMatP= 4.39D-06
 IDIUse=1 WtCom= 1.00D+00 WtEn= 0.00D+00
 Coeff-Com: -0.447D-03 0.341D-02 0.760D-02 0.272D-01-0.402D-01-0.199D+00
 Coeff-Com:  0.183D+00 0.102D+01
 Coeff:     -0.447D-03 0.341D-02 0.760D-02 0.272D-01-0.402D-01-0.199D+00
 Coeff:      0.183D+00 0.102D+01
 Gap=     0.504 Goal=   None    Shift=    0.000
 RMSDP=6.80D-06 MaxDP=2.02D-04 DE=-8.70D-06 OVMax= 7.30D-04

 Cycle   9  Pass 1  IDiag  1:
 E= -279.501627283725     Delta-E=       -0.000001744573 Rises=F Damp=F
 DIIS: error= 1.62D-05 at cycle   9 NSaved=   9.
 NSaved= 9 IEnMin= 9 EnMin= -279.501627283725     IErMin= 9 ErrMin= 1.62D-05
 ErrMax= 1.62D-05  0.00D+00 EMaxC= 1.00D-01 BMatC= 6.99D-08 BMatP= 6.07D-07
 IDIUse=1 WtCom= 1.00D+00 WtEn= 0.00D+00
 Coeff-Com:  0.125D-03-0.173D-02-0.311D-02-0.214D-02 0.344D-01 0.205D-03
 Coeff-Com: -0.171D+00-0.989D-01 0.124D+01
 Coeff:      0.125D-03-0.173D-02-0.311D-02-0.214D-02 0.344D-01 0.205D-03
 Coeff:     -0.171D+00-0.989D-01 0.124D+01
 Gap=     0.504 Goal=   None    Shift=    0.000
 RMSDP=1.93D-06 MaxDP=6.67D-05 DE=-1.74D-06 OVMax= 1.75D-04

 Cycle  10  Pass 1  IDiag  1:
 E= -279.501627443682     Delta-E=       -0.000000159956 Rises=F Damp=F
 DIIS: error= 4.17D-06 at cycle  10 NSaved=  10.
 NSaved=10 IEnMin=10 EnMin= -279.501627443682     IErMin=10 ErrMin= 4.17D-06
 ErrMax= 4.17D-06  0.00D+00 EMaxC= 1.00D-01 BMatC= 5.47D-09 BMatP= 6.99D-08
 IDIUse=1 WtCom= 1.00D+00 WtEn= 0.00D+00
 Coeff-Com:  0.303D-04-0.235D-03-0.314D-03-0.266D-02 0.153D-02 0.196D-01
 Coeff-Com: -0.134D-01-0.729D-01-0.810D-01 0.115D+01
 Coeff:      0.303D-04-0.235D-03-0.314D-03-0.266D-02 0.153D-02 0.196D-01
 Coeff:     -0.134D-01-0.729D-01-0.810D-01 0.115D+01
 Gap=     0.504 Goal=   None    Shift=    0.000
 RMSDP=4.96D-07 MaxDP=2.09D-05 DE=-1.60D-07 OVMax= 4.11D-05

 Cycle  11  Pass 1  IDiag  1:
 E= -279.501627455990     Delta-E=       -0.000000012308 Rises=F Damp=F
 DIIS: error= 2.00D-06 at cycle  11 NSaved=  11.
 NSaved=11 IEnMin=11 EnMin= -279.501627455990     IErMin=11 ErrMin= 2.00D-06
 ErrMax= 2.00D-06  0.00D+00 EMaxC= 1.00D-01 BMatC= 6.52D-10 BMatP= 5.47D-09
 IDIUse=1 WtCom= 1.00D+00 WtEn= 0.00D+00
 Coeff-Com: -0.212D-04 0.243D-03 0.489D-03 0.523D-03-0.427D-02-0.353D-02
 Coeff-Com:  0.217D-01 0.299D-01-0.138D+00-0.175D+00 0.127D+01
 Coeff:     -0.212D-04 0.243D-03 0.489D-03 0.523D-03-0.427D-02-0.353D-02
 Coeff:      0.217D-01 0.299D-01-0.138D+00-0.175D+00 0.127D+01
 Gap=     0.504 Goal=   None    Shift=    0.000
 RMSDP=1.75D-07 MaxDP=6.28D-06 DE=-1.23D-08 OVMax= 1.74D-05

 Cycle  12  Pass 1  IDiag  1:
 E= -279.501627457767     Delta-E=       -0.000000001777 Rises=F Damp=F
 DIIS: error= 5.75D-07 at cycle  12 NSaved=  12.
 NSaved=12 IEnMin=12 EnMin= -279.501627457767     IErMin=12 ErrMin= 5.75D-07
 ErrMax= 5.75D-07  0.00D+00 EMaxC= 1.00D-01 BMatC= 7.13D-11 BMatP= 6.52D-10
 IDIUse=1 WtCom= 1.00D+00 WtEn= 0.00D+00
 Coeff-Com:  0.125D-05-0.291D-04-0.633D-04 0.181D-03 0.108D-02-0.234D-02
 Coeff-Com: -0.408D-02 0.561D-02 0.413D-01-0.116D+00-0.276D+00 0.135D+01
 Coeff:      0.125D-05-0.291D-04-0.633D-04 0.181D-03 0.108D-02-0.234D-02
 Coeff:     -0.408D-02 0.561D-02 0.413D-01-0.116D+00-0.276D+00 0.135D+01
 Gap=     0.504 Goal=   None    Shift=    0.000
 RMSDP=7.12D-08 MaxDP=2.72D-06 DE=-1.78D-09 OVMax= 6.75D-06

 Cycle  13  Pass 1  IDiag  1:
 E= -279.501627457996     Delta-E=       -0.000000000229 Rises=F Damp=F
 DIIS: error= 1.65D-07 at cycle  13 NSaved=  13.
 NSaved=13 IEnMin=13 EnMin= -279.501627457996     IErMin=13 ErrMin= 1.65D-07
 ErrMax= 1.65D-07  0.00D+00 EMaxC= 1.00D-01 BMatC= 3.95D-12 BMatP= 7.13D-11
 IDIUse=1 WtCom= 1.00D+00 WtEn= 0.00D+00
 Coeff-Com:  0.128D-05-0.140D-04-0.228D-04-0.875D-04 0.126D-03 0.754D-03
 Coeff-Com: -0.899D-03-0.320D-02 0.755D-03 0.410D-01-0.372D-01-0.321D+00
 Coeff-Com:  0.132D+01
 Coeff:      0.128D-05-0.140D-04-0.228D-04-0.875D-04 0.126D-03 0.754D-03
 Coeff:     -0.899D-03-0.320D-02 0.755D-03 0.410D-01-0.372D-01-0.321D+00
 Coeff:      0.132D+01
 Gap=     0.504 Goal=   None    Shift=    0.000
 RMSDP=1.89D-08 MaxDP=5.59D-07 DE=-2.29D-10 OVMax= 1.56D-06

 Cycle  14  Pass 1  IDiag  1:
 E= -279.501627458007     Delta-E=       -0.000000000011 Rises=F Damp=F
 DIIS: error= 2.49D-08 at cycle  14 NSaved=  14.
 NSaved=14 IEnMin=14 EnMin= -279.501627458007     IErMin=14 ErrMin= 2.49D-08
 ErrMax= 2.49D-08  0.00D+00 EMaxC= 1.00D-01 BMatC= 1.91D-13 BMatP= 3.95D-12
 IDIUse=1 WtCom= 1.00D+00 WtEn= 0.00D+00
 Coeff-Com: -0.187D-06 0.306D-05 0.555D-05 0.430D-05-0.817D-04 0.476D-04
 Coeff-Com:  0.284D-03 0.209D-03-0.244D-02 0.160D-02 0.169D-01-0.263D-01
 Coeff-Com: -0.197D+00 0.121D+01
 Coeff:     -0.187D-06 0.306D-05 0.555D-05 0.430D-05-0.817D-04 0.476D-04
 Coeff:      0.284D-03 0.209D-03-0.244D-02 0.160D-02 0.169D-01-0.263D-01
 Coeff:     -0.197D+00 0.121D+01
 Gap=     0.504 Goal=   None    Shift=    0.000
 RMSDP=3.73D-09 MaxDP=8.91D-08 DE=-1.08D-11 OVMax= 3.36D-07

 SCF Done:  E(RHF) =  -279.501627458     A.U. after   14 cycles
            NFock= 14  Conv=0.37D-08     -V/T= 2.0023
 KE= 2.788550608848D+02 PE=-8.954258667529D+02 EE= 2.200277061059D+02
 Leave Link  502 at Mon Feb 21 20:55:08 2022, MaxMem= 16106127360 cpu:              51.8 elap:               3.3
 (Enter /sw/contrib/gaussian/g16/B01/g16/l801.exe)
 ExpMin= 2.53D-02 ExpMax= 1.53D+04 ExpMxC= 5.22D+02 IAcc=3 IRadAn=         5 AccDes= 0.00D+00
 HarFok:  IExCor=  205 AccDes= 0.00D+00 IRadAn=         5 IDoV=-2 UseB2=F ITyADJ=14
 ICtDFT= 12500011 ScaDFX=  1.000000  1.000000  1.000000  1.000000
 Largest valence mixing into a core orbital is  2.08D-04
 Largest core mixing into a valence orbital is  3.64D-05
 Range of M.O.s used for correlation:     5   207
 NBasis=   207 NAE=    16 NBE=    16 NFC=     4 NFV=     0
 NROrb=    203 NOA=    12 NOB=    12 NVA=   191 NVB=   191

 **** Warning!!: The largest alpha MO coefficient is  0.17552096D+02

 Leave Link  801 at Mon Feb 21 20:55:08 2022, MaxMem= 16106127360 cpu:               2.1 elap:               0.1
 (Enter /sw/contrib/gaussian/g16/B01/g16/l906.exe)
 Frozen-core derivative calculation, NFC=   4 NFV=   0.
 FulOut=F Deriv=T AODrv=T NAtomX=     5
   MMem=           0  MDisk=          12 MDiskD=          12
  W3Min=      811440 MinDsk=     2425030 NBas6D=         245
 NBas2D=       30762    NTT=       30135    LW2=     7400000
    MDV= 16105574283 MDiskM=      328644 NBas2p=       30702
 Disk-based method using ON**2 memory for 12 occupieds at a time.
 Permanent disk used for amplitudes=    11516536 words.
 Estimated scratch disk usage=   321251614 words.
 IMap=   1   2   3   4   5   6   7   8   9  10  11  12  13  14  15  16
 Actual    scratch disk usage=   310331678 words.
 JobTyp=1 Pass  1:  I=   5 to  16 NPSUse= 28 ParTrn=T ParDer=T DoDerP=T.
 (rs|ai) integrals will be sorted in core.
 Spin components of T(2) and E(2):
     alpha-alpha T2 =       0.3399348696D-01 E2=     -0.1223823800D+00
     alpha-beta  T2 =       0.1867857217D+00 E2=     -0.7002052294D+00
     beta-beta   T2 =       0.3399348696D-01 E2=     -0.1223823800D+00
 The integrals were generated   1 times.
 ANorm=    0.1120166370D+01
 E2 =    -0.9449699894D+00 EUMP2 =    -0.28044659744746D+03
 Leave Link  906 at Mon Feb 21 20:56:45 2022, MaxMem= 16106127360 cpu:            2706.0 elap:              96.8
 (Enter /sw/contrib/gaussian/g16/B01/g16/l1101.exe)
 Using compressed Sx but separate Hx and Fx, NAtomX=     5.
 Will process      6 centers per pass.
 Leave Link 1101 at Mon Feb 21 20:56:45 2022, MaxMem= 16106127360 cpu:               5.1 elap:               0.2
 (Enter /sw/contrib/gaussian/g16/B01/g16/l1102.exe)
 Leave Link 1102 at Mon Feb 21 20:56:45 2022, MaxMem= 16106127360 cpu:               0.5 elap:               0.0
 (Enter /sw/contrib/gaussian/g16/B01/g16/l1110.exe)
 Forming Gx(P) for the SCF density, NAtomX=     5.
 Integral derivatives from FoFJK, PRISM(SPDF).
 Do as many integral derivatives as possible in FoFJK.
 G2DrvN: MDV=   16106126844.
 G2DrvN: will do     6 centers at a time, making    1 passes.
 Calling FoFCou, ICntrl=  3107 FMM=F I1Cent=   0 AccDes= 0.00D+00.
 FoFJK:  IHMeth= 1 ICntrl=    3107 DoSepK=F KAlg= 0 I1Cent=           0 FoldK=F
 IRaf=         0 NMat=       1 IRICut=       1 DoRegI=T DoRafI=F ISym2E= 1 IDoP0=0 IntGTp=1.
 FoFCou: FMM=F IPFlag=           0 FMFlag=      100000 FMFlg1=           0
         NFxFlg=           0 DoJE=F BraDBF=F KetDBF=F FulRan=T
         wScrn=  0.000000 ICntrl=      3107 IOpCl=  0 I1Cent=           0 NGrid=           0
         NMat0=    1 NMatS0=      1 NMatT0=    0 NMatD0=    1 NMtDS0=    0 NMtDT0=    0
 Petite list used in FoFCou.
 End of G2Drv F.D. properties file   721 does not exist.
 End of G2Drv F.D. properties file   722 does not exist.
 End of G2Drv F.D. properties file   788 does not exist.
 Leave Link 1110 at Mon Feb 21 20:56:48 2022, MaxMem= 16106127360 cpu:              83.7 elap:               3.0
 (Enter /sw/contrib/gaussian/g16/B01/g16/l1002.exe)
 Minotr:  Closed shell wavefunction.
          IDoAtm=11111
          Frozen-core window.
          Direct CPHF calculation.
          Differentiating once with respect to electric field.
                with respect to dipole field.
          Differentiating once with respect to nuclear coordinates.
          Requested convergence is 1.0D-08 RMS, and 1.0D-07 maximum.
          Secondary convergence is 1.0D-12 RMS, and 1.0D-12 maximum.
          NewPWx=T KeepS1=T KeepF1=T KeepIn=T MapXYZ=F SortEE=F KeepMc=T.
 Keep R1 ints in memory in symmetry-blocked form, NReq=348888983.
 FoFCou: FMM=F IPFlag=           0 FMFlag=           0 FMFlg1=           0
         NFxFlg=           0 DoJE=F BraDBF=F KetDBF=F FulRan=T
         wScrn=  0.000000 ICntrl=       600 IOpCl=  0 I1Cent=           0 NGrid=           0
         NMat0=    1 NMatS0=  21528 NMatT0=    0 NMatD0=    1 NMtDS0=    0 NMtDT0=    0
 Petite list used in FoFCou.
          MDV=   16106127360 using IRadAn=       1.
          Solving linear equations simultaneously, MaxMat=       0.
          There are    18 degrees of freedom in the 1st order CPHF.  IDoFFX=6 NUNeed=    18.
     15 vectors produced by pass  0 Test12= 1.70D-14 5.56D-09 XBig12= 8.30D+00 1.09D+00.
 AX will form    15 AO Fock derivatives at one time.
     15 vectors produced by pass  1 Test12= 1.70D-14 5.56D-09 XBig12= 1.35D+00 2.63D-01.
     15 vectors produced by pass  2 Test12= 1.70D-14 5.56D-09 XBig12= 1.41D-01 9.84D-02.
     15 vectors produced by pass  3 Test12= 1.70D-14 5.56D-09 XBig12= 4.93D-03 1.09D-02.
     15 vectors produced by pass  4 Test12= 1.70D-14 5.56D-09 XBig12= 9.82D-05 1.93D-03.
     15 vectors produced by pass  5 Test12= 1.70D-14 5.56D-09 XBig12= 1.40D-06 1.82D-04.
     15 vectors produced by pass  6 Test12= 1.70D-14 5.56D-09 XBig12= 1.14D-08 1.52D-05.
     12 vectors produced by pass  7 Test12= 1.70D-14 5.56D-09 XBig12= 8.37D-11 1.31D-06.
      3 vectors produced by pass  8 Test12= 1.70D-14 5.56D-09 XBig12= 5.88D-13 1.22D-07.
      2 vectors produced by pass  9 Test12= 1.70D-14 5.56D-09 XBig12= 3.81D-15 1.02D-08.
 InvSVY:  IOpt=1 It=  1 EMax= 1.33D-15
 Solved reduced A of dimension   122 with    15 vectors.
 FullF1:  Do perturbations      1 to      18.
 Saving first derivative matrices.
 End of Minotr F.D. properties file   721 does not exist.
 End of Minotr F.D. properties file   722 does not exist.
 End of Minotr F.D. properties file   788 does not exist.
 Leave Link 1002 at Mon Feb 21 20:56:51 2022, MaxMem= 16106127360 cpu:              79.3 elap:               2.9
 (Enter /sw/contrib/gaussian/g16/B01/g16/l811.exe)
 MDV= 16106127360.
 Form MO integral derivatives with frozen-active canonical formalism.
 MOERI=1 MOERIx=1 NAtoms=     5 NAtomX=     5.
 Discarding MO integrals.
 MO basis two electron integral derivatives will not be stored on disk.
 IAlg= 3 DoFC=T DoPWx=T Debug=F.
 Frozen-core window:  NFC=   4 NFV=   0.
 Reordered first order wavefunction length =     18678272
 In DefCFB: NBatch=  1 ICI= 16 ICA=191 LFMax= 96
            Large arrays: LIAPS=   619940160 LIARS=   288257200 words.
 In StABat: MaxSiz= 55 MinSiz= 25 NAtomB=  5
 DoIAMN: NPSUse= 28.
 Leave Link  811 at Mon Feb 21 20:58:13 2022, MaxMem= 16106127360 cpu:            2310.0 elap:              82.6
 (Enter /sw/contrib/gaussian/g16/B01/g16/l804.exe)
 Frozen-core window:  NFC=   4 NFV=   0.
 Closed-shell transformation, MDV= 16106127360 ITran=4 ISComp=1.
 Semi-Direct transformation.
 ModeAB=           2 MOrb=            16 LenV=   16104923037
 LASXX=     67341636 LTotXX=    67341636 LenRXX=    67341636
 LTotAB=    68301760 MaxLAS=    99807120 LenRXY=    99807120
 NonZer=   134683272 LenScr=   202817536 LnRSAI=           0
 LnScr1=           0 LExtra=           0 Total=    369966292
 MaxDsk=          -1 SrtSym=           F ITran=            4
 DoSDTr:  NPSUse= 28
 JobTyp=0 Pass  1:  I=   1 to  16.
 (rs|ai) integrals will be sorted in core.
 Complete sort for first half transformation.
 First half transformation complete.
 Begin second half transformation for I=  10.
 Begin second half transformation for I=  10.
 Complete sort for second half transformation.
 Second half transformation complete.
 Spin components of T(2) and E(2):
     alpha-alpha T2 =       0.3399348696D-01 E2=     -0.1223823800D+00
     alpha-beta  T2 =       0.1867857217D+00 E2=     -0.7002052294D+00
     beta-beta   T2 =       0.3399348696D-01 E2=     -0.1223823800D+00
 ANorm=    0.1584154472D+01
 E2 =    -0.9449699894D+00 EUMP2 =    -0.28044659744746D+03
 Leave Link  804 at Mon Feb 21 20:58:29 2022, MaxMem= 16106127360 cpu:             435.9 elap:              15.6
 (Enter /sw/contrib/gaussian/g16/B01/g16/l1002.exe)
 Minotr:  Closed shell wavefunction.
          Computing MP2/KS-MP2 derivatives.
          Using Z-Vector for PSCF gradient.
          Skipping F1 and S1 gradient terms here.
          IDoAtm=11111
          Frozen-core window.
          Using MO integrals in the linear equations.
          Forming densities via direct SCF.
          Differentiating once with respect to electric field.
                with respect to dipole field.
          Differentiating once with respect to nuclear coordinates.
          Using symmetry in CPHF.
          Requested convergence is 1.0D-10 RMS, and 1.0D-09 maximum.
          NewPWx=F KeepS1=T KeepF1=T KeepIn=T MapXYZ=F SortEE=F KeepMc=T.
          MDV=   16106127360 using IRadAn=       5.
          Solving linear equations separately, MaxMat=       0.
          There are     1 degrees of freedom in the 1st order CPHF.  IDoFFX=0 NUNeed=     1.
 FoFJK:  IHMeth= 1 ICntrl=       0 DoSepK=F KAlg= 0 I1Cent=           0 FoldK=F
 IRaf=         0 NMat=       1 IRICut=       1 DoRegI=T DoRafI=F ISym2E= 0 IDoP0=0 IntGTp=1.
 FoFCou: FMM=F IPFlag=           0 FMFlag=      100000 FMFlg1=           0
         NFxFlg=           0 DoJE=F BraDBF=F KetDBF=F FulRan=T
         wScrn=  0.000000 ICntrl=         0 IOpCl=  0 I1Cent=           0 NGrid=           0
         NMat0=    1 NMatS0=      1 NMatT0=    0 NMatD0=    1 NMtDS0=    0 NMtDT0=    0
 Symmetry not used in FoFCou.
 LinEq1:  Iter=  0 NonCon=     1 RMS=5.93D-03 Max=1.31D-01 NDo=     1
 LinEq1:  Iter=  1 NonCon=     1 RMS=1.89D-03 Max=3.81D-02 NDo=     1
 LinEq1:  Iter=  2 NonCon=     1 RMS=8.64D-04 Max=1.41D-02 NDo=     1
 LinEq1:  Iter=  3 NonCon=     1 RMS=3.85D-04 Max=7.79D-03 NDo=     1
 LinEq1:  Iter=  4 NonCon=     1 RMS=1.18D-04 Max=1.85D-03 NDo=     1
 LinEq1:  Iter=  5 NonCon=     1 RMS=4.36D-05 Max=6.92D-04 NDo=     1
 LinEq1:  Iter=  6 NonCon=     1 RMS=1.96D-05 Max=2.31D-04 NDo=     1
 LinEq1:  Iter=  7 NonCon=     1 RMS=7.91D-06 Max=1.59D-04 NDo=     1
 LinEq1:  Iter=  8 NonCon=     1 RMS=3.41D-06 Max=3.39D-05 NDo=     1
 LinEq1:  Iter=  9 NonCon=     1 RMS=9.42D-07 Max=1.31D-05 NDo=     1
 LinEq1:  Iter= 10 NonCon=     1 RMS=1.85D-07 Max=2.02D-06 NDo=     1
 LinEq1:  Iter= 11 NonCon=     1 RMS=3.48D-08 Max=3.64D-07 NDo=     1
 LinEq1:  Iter= 12 NonCon=     1 RMS=8.34D-09 Max=1.34D-07 NDo=     1
 LinEq1:  Iter= 13 NonCon=     1 RMS=1.50D-09 Max=2.60D-08 NDo=     1
 LinEq1:  Iter= 14 NonCon=     1 RMS=2.71D-10 Max=3.82D-09 NDo=     1
 LinEq1:  Iter= 15 NonCon=     0 RMS=4.97D-11 Max=5.48D-10 NDo=     1
 Linear equations converged to 1.000D-10 1.000D-09 after    15 iterations.
 End of Minotr F.D. properties file   721 does not exist.
 End of Minotr F.D. properties file   722 does not exist.
 End of Minotr F.D. properties file   788 does not exist.
 Leave Link 1002 at Mon Feb 21 20:58:31 2022, MaxMem= 16106127360 cpu:              63.6 elap:               2.3
 (Enter /sw/contrib/gaussian/g16/B01/g16/l1102.exe)
 Use density number 2.
 Symmetrizing basis deriv contribution to polar:
 IMax=3 JMax=2 DiffMx= 0.00D+00
 Leave Link 1102 at Mon Feb 21 20:58:31 2022, MaxMem= 16106127360 cpu:               0.6 elap:               0.0
 (Enter /sw/contrib/gaussian/g16/B01/g16/l1110.exe)
 Forming Gx(P) for generalized density number  2 NAtomX=     5.
 Integral derivatives from FoFJK, PRISM(SPDF).
 Do as many integral derivatives as possible in FoFJK.
 G2DrvN: MDV=   16106126844.
 G2DrvN: will do     6 centers at a time, making    1 passes.
 Calling FoFCou, ICntrl=  3107 FMM=F I1Cent=   0 AccDes= 0.00D+00.
 FoFJK:  IHMeth= 1 ICntrl=    3107 DoSepK=F KAlg= 0 I1Cent=           0 FoldK=F
 IRaf=         0 NMat=       1 IRICut=       1 DoRegI=T DoRafI=F ISym2E= 1 IDoP0=0 IntGTp=1.
 FoFCou: FMM=F IPFlag=           0 FMFlag=      100000 FMFlg1=           0
         NFxFlg=           0 DoJE=F BraDBF=F KetDBF=F FulRan=T
         wScrn=  0.000000 ICntrl=      3107 IOpCl=  0 I1Cent=           0 NGrid=           0
         NMat0=    1 NMatS0=      1 NMatT0=    0 NMatD0=    1 NMtDS0=    0 NMtDT0=    0
 Petite list used in FoFCou.
 End of G2Drv F.D. properties file   721 does not exist.
 End of G2Drv F.D. properties file   722 does not exist.
 End of G2Drv F.D. properties file   788 does not exist.
 Leave Link 1110 at Mon Feb 21 20:58:35 2022, MaxMem= 16106127360 cpu:              84.3 elap:               3.0
 (Enter /sw/contrib/gaussian/g16/B01/g16/l1112.exe)
 MP22nd: MDV=   16106127360
 This link is doing NAtomX=     5 total of    18 degrees of freedom.
 Using ON3 I/O method in MakUI.
 Frozen-core window:  NFC=   4 NFV=   0.
 Using Ix for Sx.
 Use MO integrals over full window.
 Using OV2 memory method for fx*t*t/D, MaxI=    16 DoOO2=F NP=  28.
 R2 and R3 integrals will be kept in memory, NReq=   915591705.
 FoFCou: FMM=F IPFlag=           0 FMFlag=           0 FMFlg1=           0
         NFxFlg=           0 DoJE=F BraDBF=F KetDBF=F FulRan=T
         wScrn=  0.000000 ICntrl=       600 IOpCl=  0 I1Cent=           0 NGrid=           0
         NMat0=    1 NMatS0=      1 NMatT0=    0 NMatD0=    1 NMtDS0=    0 NMtDT0=    0
 Symmetry not used in FoFCou.
 DD1Dir will call FoFMem   1 times, MxPair=       272
 NAB=   136 NAA=     0 NBB=     0.
 Symmetry is being used.
 FoFJK:  IHMeth= 1 ICntrl=       0 DoSepK=F KAlg= 0 I1Cent=           0 FoldK=F
 IRaf=         0 NMat=      18 IRICut=      45 DoRegI=T DoRafI=T ISym2E= 2 IDoP0=3 IntGTp=3.
 Discarding MO integrals.
 Leave Link 1112 at Mon Feb 21 20:59:09 2022, MaxMem= 16106127360 cpu:             963.7 elap:              34.8
 (Enter /sw/contrib/gaussian/g16/B01/g16/l601.exe)
 Copying SCF densities to generalized density rwf, IOpCl= 0 IROHF=0.

 **********************************************************************

            Population analysis using the MP2 Density.

 **********************************************************************

 Orbital symmetries:
       Occupied  (A') (A') (A') (A') (A') (A') (A') (A') (A') (A')
                 (A") (A') (A") (A') (A") (A')
       Virtual   (A') (A") (A') (A') (A') (A") (A') (A') (A") (A')
                 (A") (A') (A') (A') (A") (A') (A') (A") (A') (A')
                 (A') (A') (A') (A') (A') (A") (A') (A") (A') (A')
                 (A") (A') (A") (A') (A') (A") (A') (A") (A') (A')
                 (A") (A') (A") (A') (A') (A") (A') (A') (A") (A')
                 (A") (A') (A') (A') (A") (A') (A") (A') (A") (A')
                 (A') (A') (A") (A') (A') (A") (A') (A") (A') (A')
                 (A") (A') (A') (A") (A") (A') (A') (A") (A') (A')
                 (A') (A") (A') (A") (A") (A') (A') (A") (A') (A')
                 (A") (A') (A') (A") (A') (A") (A') (A") (A') (A')
                 (A") (A') (A") (A') (A') (A") (A') (A') (A") (A')
                 (A") (A') (A') (A') (A") (A') (A') (A') (A") (A')
                 (A") (A') (A") (A') (A') (A") (A") (A') (A") (A')
                 (A') (A') (A') (A") (A") (A") (A') (A') (A') (A')
                 (A") (A') (A") (A') (A') (A") (A') (A') (A') (A')
                 (A") (A') (A') (A") (A') (A") (A') (A") (A') (A")
                 (A') (A") (A') (A") (A') (A") (A") (A') (A") (A')
                 (A") (A') (A") (A') (A") (A') (A") (A") (A') (A')
                 (A') (A') (A') (A') (A') (A') (A') (A') (A') (A')
                 (A')
 The electronic state is 1-A'.
 Alpha  occ. eigenvalues --  -20.69031 -20.68381 -20.65909 -15.81330  -1.62519
 Alpha  occ. eigenvalues --   -1.49472  -1.25328  -0.94843  -0.77202  -0.75966
 Alpha  occ. eigenvalues --   -0.71206  -0.67901  -0.61991  -0.58821  -0.48457
 Alpha  occ. eigenvalues --   -0.47411
 Alpha virt. eigenvalues --    0.02974   0.07109   0.08621   0.10169   0.13388
 Alpha virt. eigenvalues --    0.13388   0.14415   0.15443   0.17840   0.19411
 Alpha virt. eigenvalues --    0.19986   0.20661   0.22079   0.23678   0.23757
 Alpha virt. eigenvalues --    0.26702   0.29231   0.30348   0.31023   0.34384
 Alpha virt. eigenvalues --    0.34957   0.38767   0.42257   0.43213   0.52821
 Alpha virt. eigenvalues --    0.52858   0.55797   0.58030   0.62519   0.64107
 Alpha virt. eigenvalues --    0.67481   0.68467   0.70446   0.71170   0.72350
 Alpha virt. eigenvalues --    0.72916   0.74335   0.79272   0.79395   0.81111
 Alpha virt. eigenvalues --    0.81324   0.83122   0.86816   0.90919   0.92240
 Alpha virt. eigenvalues --    0.92920   0.95639   0.97489   0.98497   1.01699
 Alpha virt. eigenvalues --    1.05193   1.05500   1.08311   1.11727   1.14201
 Alpha virt. eigenvalues --    1.19038   1.21817   1.23337   1.33953   1.35258
 Alpha virt. eigenvalues --    1.38819   1.45563   1.48757   1.50747   1.53768
 Alpha virt. eigenvalues --    1.56826   1.57947   1.61248   1.66467   1.67158
 Alpha virt. eigenvalues --    1.70185   1.79213   1.82976   1.83518   1.88103
 Alpha virt. eigenvalues --    1.90775   1.95674   1.99366   2.00275   2.08101
 Alpha virt. eigenvalues --    2.12311   2.13043   2.15163   2.22647   2.26570
 Alpha virt. eigenvalues --    2.26799   2.28948   2.31465   2.34744   2.38635
 Alpha virt. eigenvalues --    2.42705   2.42832   2.45099   2.45872   2.47880
 Alpha virt. eigenvalues --    2.50065   2.58859   2.59910   2.62222   2.62452
 Alpha virt. eigenvalues --    2.63415   2.67186   2.75286   2.81536   2.84906
 Alpha virt. eigenvalues --    2.89341   2.89342   2.94068   2.95226   3.02724
 Alpha virt. eigenvalues --    3.06386   3.12716   3.20518   3.22375   3.31949
 Alpha virt. eigenvalues --    3.33736   3.52696   3.63787   3.83847   3.84409
 Alpha virt. eigenvalues --    4.14967   4.16824   4.18492   4.25812   4.34830
 Alpha virt. eigenvalues --    4.39357   4.46340   4.52061   4.65610   4.71227
 Alpha virt. eigenvalues --    4.80164   4.82943   4.83152   4.89654   5.02486
 Alpha virt. eigenvalues --    5.07627   5.10734   5.14626   5.17324   5.24456
 Alpha virt. eigenvalues --    5.27455   5.30406   5.33101   5.35168   5.60245
 Alpha virt. eigenvalues --    5.67346   5.78541   5.82929   5.95660   6.16968
 Alpha virt. eigenvalues --    6.31113   6.33589   6.39493   6.49649   6.50927
 Alpha virt. eigenvalues --    6.61536   6.66816   6.70591   6.75800   6.76524
 Alpha virt. eigenvalues --    6.83664   6.89265   7.01775   7.05702   7.05928
 Alpha virt. eigenvalues --    7.09212   7.12302   7.15190   7.18258   7.22636
 Alpha virt. eigenvalues --    7.24273   7.30786   7.32553   7.34752   7.39874
 Alpha virt. eigenvalues --    7.43107   7.48282   7.60963   7.61175   7.63186
 Alpha virt. eigenvalues --    7.66993   7.79981   7.87962   8.09442   8.31559
 Alpha virt. eigenvalues --    8.40919   8.54327  13.40176  14.37773  15.16983
 Alpha virt. eigenvalues --   16.15888
          Condensed to atoms (all electrons):
               1          2          3          4          5
     1  H    0.589675   0.127947   0.020288   0.012522  -0.000607
     2  O    0.127947   8.326045  -0.176040  -0.089241   0.015863
     3  O    0.020288  -0.176040   8.469794  -0.124737  -0.044128
     4  N    0.012522  -0.089241  -0.124737   6.961616  -0.053486
     5  O   -0.000607   0.015863  -0.044128  -0.053486   8.276105
 Mulliken charges:
               1
     1  H    0.250175
     2  O   -0.204574
     3  O   -0.145177
     4  N    0.293325
     5  O   -0.193748
 Sum of Mulliken charges =  -0.00000
 Mulliken charges with hydrogens summed into heavy atoms:
               1
     2  O    0.045600
     3  O   -0.145177
     4  N    0.293325
     5  O   -0.193748
 APT charges:
               1
     1  H    0.298102
     2  O   -0.290092
     3  O   -0.485119
     4  N    0.867005
     5  O   -0.389896
 Sum of APT charges =  -0.00000
 APT charges with hydrogens summed into heavy atoms:
               1
     2  O    0.008010
     3  O   -0.485119
     4  N    0.867005
     5  O   -0.389896
 Electronic spatial extent (au):  <R**2>=            251.7678
 Charge=             -0.0000 electrons
 Dipole moment (field-independent basis, Debye):
    X=              0.5115    Y=              1.3424    Z=              0.0000  Tot=              1.4365
 Quadrupole moment (field-independent basis, Debye-Ang):
   XX=            -22.5126   YY=            -18.6072   ZZ=            -22.0035
   XY=              3.2223   XZ=             -0.0000   YZ=             -0.0000
 Traceless Quadrupole moment (field-independent basis, Debye-Ang):
   XX=             -1.4715   YY=              2.4339   ZZ=             -0.9624
   XY=              3.2223   XZ=             -0.0000   YZ=             -0.0000
 Octapole moment (field-independent basis, Debye-Ang**2):
  XXX=              2.7939  YYY=             11.2667  ZZZ=             -0.0000  XYY=              7.8668
  XXY=              6.5652  XXZ=              0.0000  XZZ=             -1.5874  YZZ=             -0.8472
  YYZ=              0.0000  XYZ=              0.0000
 Hexadecapole moment (field-independent basis, Debye-Ang**3):
 XXXX=           -158.6593 YYYY=            -88.5737 ZZZZ=            -18.2214 XXXY=            -36.3656
 XXXZ=             -0.0000 YYYX=            -30.4168 YYYZ=             -0.0000 ZZZX=             -0.0000
 ZZZY=             -0.0000 XXYY=            -33.9518 XXZZ=            -30.8857 YYZZ=            -20.4510
 XXYZ=             -0.0000 YYXZ=             -0.0000 ZZXY=            -14.9059
 N-N= 1.170414723041D+02 E-N=-8.962076733001D+02  KE= 2.802068120199D+02
 Symmetry A'   KE= 2.662318530857D+02
 Symmetry A"   KE= 1.397495893418D+01
  Exact polarizability:  33.967   9.344  30.047   0.000   0.000  17.903
 Approx polarizability:  29.045   4.927  23.385   0.000   0.000  15.510
 No NMR shielding tensors so no spin-rotation constants.
 Leave Link  601 at Mon Feb 21 20:59:10 2022, MaxMem= 16106127360 cpu:               5.2 elap:               0.2
 (Enter /sw/contrib/gaussian/g16/B01/g16/l701.exe)
 ... and contract with generalized density number  2.
 Compute integral second derivatives.
 Leave Link  701 at Mon Feb 21 20:59:10 2022, MaxMem= 16106127360 cpu:               9.6 elap:               0.4
 (Enter /sw/contrib/gaussian/g16/B01/g16/l702.exe)
 L702 exits ... SP integral derivatives will be done elsewhere.
 Leave Link  702 at Mon Feb 21 20:59:10 2022, MaxMem= 16106127360 cpu:               0.5 elap:               0.0
 (Enter /sw/contrib/gaussian/g16/B01/g16/l703.exe)
 Integral derivatives from FoFJK, PRISM(SPDF).
 Compute integral second derivatives, UseDBF=F ICtDFT=           0.
 Calling FoFJK, ICntrl=  10100127 FMM=F ISym2X=1 I1Cent= 0 IOpClX= 0 NMat=1 NMatS=1 NMatT=0.
 FoFJK:  IHMeth= 1 ICntrl=10100127 DoSepK=F KAlg= 0 I1Cent=           0 FoldK=F
 IRaf=         0 NMat=       1 IRICut=       1 DoRegI=T DoRafI=F ISym2E= 1 IDoP0=0 IntGTp=1.
 FoFCou: FMM=F IPFlag=           0 FMFlag=      100000 FMFlg1=         800
         NFxFlg=           0 DoJE=F BraDBF=F KetDBF=F FulRan=T
         wScrn=  0.000000 ICntrl=  10100127 IOpCl=  0 I1Cent=           0 NGrid=           0
         NMat0=    1 NMatS0=      1 NMatT0=    0 NMatD0=    1 NMtDS0=    0 NMtDT0=    0
 Petite list used in FoFCou.
 Leave Link  703 at Mon Feb 21 20:59:25 2022, MaxMem= 16106127360 cpu:             426.9 elap:              15.3
 (Enter /sw/contrib/gaussian/g16/B01/g16/l716.exe)
 Dipole        = 2.01252575D-01 5.28122610D-01 1.90917688D-32
 Polarizability= 3.39672749D+01 9.34402846D+00 3.00468677D+01
                 6.16101247D-31 6.23616321D-31 1.79025620D+01
 Full mass-weighted force constant matrix:
 Low frequencies --- -264.9915  -39.0628  -25.8395   -0.0009    0.0007    0.0010
 Low frequencies ---   88.1483  230.9198  341.6301
 ******    1 imaginary frequencies (negative Signs) ****** 
 Diagonal vibrational polarizability:
       13.5028999      23.7948486      48.1762783
 Harmonic frequencies (cm**-1), IR intensities (KM/Mole), Raman scattering
 activities (A**4/AMU), depolarization ratios for plane and unpolarized
 incident light, reduced masses (AMU), force constants (mDyne/A),
 and normal coordinates:
                      1                      2                      3
                     A"                     A"                     A'
 Frequencies --   -264.9434               229.5731               341.6224
 Red. masses --      1.1342                11.0541                 8.6564
 Frc consts  --      0.0469                 0.3433                 0.5952
 IR Inten    --    125.0285                 0.4762                 3.2031
  Atom  AN      X      Y      Z        X      Y      Z        X      Y      Z
     1   1    -0.00  -0.00   1.00    -0.00   0.00  -0.54     0.53  -0.44  -0.00
     2   8    -0.00  -0.00  -0.06    -0.00  -0.00  -0.32    -0.10  -0.38  -0.00
     3   8    -0.00   0.00  -0.04     0.00  -0.00   0.34    -0.15   0.42   0.00
     4   7     0.00   0.00   0.05     0.00   0.00   0.53     0.06   0.27   0.00
     5   8     0.00  -0.00  -0.01     0.00   0.00  -0.45     0.17  -0.25  -0.00
                      4                      5                      6
                     A'                     A'                     A'
 Frequencies --    462.7963               783.4819               968.5350
 Red. masses --     12.1438                12.9485                15.4851
 Frc consts  --      1.5324                 4.6831                 8.5584
 IR Inten    --    200.2147               164.3268                20.4666
  Atom  AN      X      Y      Z        X      Y      Z        X      Y      Z
     1   1     0.43   0.18  -0.00    -0.34   0.19  -0.00    -0.15  -0.04   0.00
     2   8     0.32   0.19  -0.00     0.42   0.09   0.00    -0.52   0.03   0.00
     3   8     0.16   0.45   0.00    -0.05  -0.26  -0.00     0.75  -0.01  -0.00
     4   7    -0.35  -0.40   0.00    -0.14   0.62  -0.00    -0.12   0.23  -0.00
     5   8    -0.21  -0.30  -0.00    -0.23  -0.37   0.00    -0.12  -0.22   0.00
                      7                      8                      9
                     A'                     A'                     A'
 Frequencies --   1371.4274              1677.6731              3778.4587
 Red. masses --      1.1331                13.2685                 1.0675
 Frc consts  --      1.2557                22.0032                 8.9797
 IR Inten    --    150.4347               136.5299                81.4426
  Atom  AN      X      Y      Z        X      Y      Z        X      Y      Z
     1   1     0.99  -0.05  -0.00    -0.34   0.00   0.00     0.10   0.99   0.00
     2   8    -0.03   0.05  -0.00    -0.00  -0.04   0.00    -0.01  -0.06  -0.00
     3   8    -0.02  -0.05   0.00     0.01   0.15  -0.00     0.00   0.00  -0.00
     4   7     0.02   0.01   0.00     0.71  -0.06  -0.00    -0.00  -0.00   0.00
     5   8    -0.03  -0.01  -0.00    -0.60  -0.06   0.00     0.00   0.00   0.00

 -------------------
 - Thermochemistry -
 -------------------
 Temperature   298.150 Kelvin.  Pressure   1.00000 Atm.
 Atom     1 has atomic number  1 and mass   1.00783
 Atom     2 has atomic number  8 and mass  15.99491
 Atom     3 has atomic number  8 and mass  15.99491
 Atom     4 has atomic number  7 and mass  14.00307
 Atom     5 has atomic number  8 and mass  15.99491
 Molecular mass:    62.99564 amu.
 Principal axes and moments of inertia in atomic units:
                           1         2         3
     Eigenvalues --    33.06834 357.69537 390.76371
           X            0.81339  -0.58172   0.00000
           Y            0.58172   0.81339   0.00000
           Z            0.00000  -0.00000   1.00000
 This molecule is an asymmetric top.
 Rotational symmetry number  1.
 Rotational temperatures (Kelvin)      2.61924     0.24214     0.22165
 Rotational constants (GHZ):          54.57611     5.04547     4.61850
    1 imaginary frequencies ignored.
 Zero-point vibrational energy      57501.9 (Joules/Mol)
                                   13.74329 (Kcal/Mol)
 Warning -- explicit consideration of   3 degrees of freedom as
           vibrations may cause significant error
 Vibrational temperatures:    330.30   491.52   665.86  1127.26  1393.51
          (Kelvin)           1973.18  2413.80  5436.36
 
 Zero-point correction=                           0.021901 (Hartree/Particle)
 Thermal correction to Energy=                    0.026009
 Thermal correction to Enthalpy=                  0.026953
 Thermal correction to Gibbs Free Energy=        -0.004210
 Sum of electronic and zero-point Energies=           -280.424696
 Sum of electronic and thermal Energies=              -280.420588
 Sum of electronic and thermal Enthalpies=            -280.419644
 Sum of electronic and thermal Free Energies=         -280.450808
 
                     E (Thermal)             CV                S
                      KCal/Mol        Cal/Mol-Kelvin    Cal/Mol-Kelvin
 Total                   16.321             11.930             65.590
 Electronic               0.000              0.000              0.000
 Translational            0.889              2.981             38.341
 Rotational               0.889              2.981             23.051
 Vibrational             14.543              5.968              4.198
 Vibration     1          0.652              1.796              1.882
 Vibration     2          0.721              1.592              1.205
 Vibration     3          0.820              1.333              0.758
                       Q            Log10(Q)             Ln(Q)
 Total Bot       0.864347D+02          1.936688          4.459390
 Total V=0       0.102468D+13         12.010587         27.655399
 Vib (Bot)       0.180719D-09         -9.742997        -22.434079
 Vib (Bot)    1  0.858092D+00         -0.066466         -0.153044
 Vib (Bot)    2  0.542980D+00         -0.265216         -0.610683
 Vib (Bot)    3  0.366671D+00         -0.435724         -1.003291
 Vib (V=0)       0.214241D+01          0.330902          0.761930
 Vib (V=0)    1  0.149314D+01          0.174100          0.400880
 Vib (V=0)    2  0.123812D+01          0.092764          0.213597
 Vib (V=0)    3  0.112004D+01          0.049233          0.113363
 Electronic      0.100000D+01          0.000000          0.000000
 Translational   0.196526D+08          7.293420         16.793719
 Rotational      0.243369D+05          4.386266         10.099750
 
                                                                title
                                                             IR Spectrum
 
     3                                                                      1         1                                              
     7                                                                      6         3             9     7          4   3   2       
     7                                                                      7         7             6     8          6   4   3       
     8                                                                      8         1             9     3          3   2   0       
 
     X                                                                      X         X             X     X          X   X   X       
     X                                                                      X         X             X     X          X               
     X                                                                      X         X                   X          X               
     X                                                                      X         X                   X          X               
     X                                                                      X         X                   X          X               
     X                                                                      X         X                   X          X               
     X                                                                      X         X                   X          X               
     X                                                                      X         X                   X          X               
                                                                            X         X                   X          X               
                                                                            X         X                   X          X               
                                                                            X         X                   X          X               
                                                                            X         X                   X          X               
                                                                            X         X                   X          X               
                                                                            X         X                   X          X               
                                                                                      X                   X          X               
                                                                                                          X          X               
                                                                                                                     X               
                                                                                                                     X               
                                                                                                                     X               
                                                                                                                     X               
 
 ***** Axes restored to original set *****
 -------------------------------------------------------------------
 Center     Atomic                   Forces (Hartrees/Bohr)
 Number     Number              X              Y              Z
 -------------------------------------------------------------------
      1        1          -0.000212146   -0.000000000    0.000029264
      2        8          -0.000335002   -0.000000000   -0.001070708
      3        8          -0.004548178   -0.000000000    0.000676619
      4        7           0.003845881   -0.000000000   -0.005335426
      5        8           0.001249445    0.000000000    0.005700251
 -------------------------------------------------------------------
 Cartesian Forces:  Max     0.005700251 RMS     0.002578886
 -----------------------------------------------------------------------------------------------
                       Internal Coordinate Forces (Hartree/Bohr or radian)
  Cent   Atom   N1       Length/X         N2         Alpha/Y        N3         Beta/Z          J
 -----------------------------------------------------------------------------------------------
      1  H 
      2  O        1  -0.000029(     1)
      3  O        2   0.000680(     2)      1   0.000388(     5)
      4  N        3   0.000781(     3)      2   0.002251(     6)      1  -0.000000(     8)     0
      5  O        4   0.002500(     4)      3   0.011666(     7)      2   0.000000(     9)     0
 -----------------------------------------------------------------------------------------------
 Internal  Forces:  Max     0.011665630 RMS     0.004063774
 Force constants in Cartesian coordinates: 
                1             2             3             4             5 
      1  0.646428D-01
      2  0.000000D+00 -0.230281D-02
      3  0.546109D-02  0.000000D+00  0.512293D+00
      4 -0.357264D-01  0.000000D+00 -0.163515D-01  0.273339D+00
      5  0.000000D+00  0.290834D-02  0.000000D+00  0.000000D+00  0.211735D-02
      6  0.481103D-01  0.000000D+00 -0.508482D+00  0.344240D-01  0.000000D+00
      7 -0.183282D-01  0.000000D+00  0.124078D-01 -0.219732D+00  0.000000D+00
      8  0.000000D+00  0.104774D-02  0.000000D+00  0.000000D+00 -0.687427D-02
      9 -0.531956D-01  0.000000D+00 -0.630677D-03 -0.195157D-01  0.000000D+00
     10 -0.904703D-02  0.000000D+00 -0.483618D-02 -0.179398D-01  0.000000D+00
     11  0.000000D+00 -0.269071D-02  0.000000D+00  0.000000D+00 -0.446683D-02
     12  0.547931D-02  0.000000D+00 -0.445841D-02  0.117271D-01  0.000000D+00
     13 -0.154123D-02  0.000000D+00  0.331874D-02  0.587726D-04  0.000000D+00
     14  0.000000D+00  0.103744D-02  0.000000D+00  0.000000D+00  0.631541D-02
     15 -0.585512D-02  0.000000D+00  0.127857D-02 -0.102839D-01  0.000000D+00
                6             7             8             9            10 
      6  0.594482D+00
      7 -0.214281D-01  0.343430D+00
      8  0.000000D+00  0.000000D+00  0.518068D-02
      9 -0.785011D-01  0.403066D-01  0.000000D+00  0.183634D+00
     10 -0.517293D-01 -0.755737D-01  0.000000D+00  0.171673D+00  0.829186D+00
     11  0.000000D+00  0.000000D+00  0.596998D-02  0.000000D+00  0.000000D+00
     12  0.176617D-01  0.620027D-01  0.000000D+00 -0.841086D-01 -0.283386D-01
     13 -0.937687D-02 -0.297964D-01  0.000000D+00 -0.139269D+00 -0.726626D+00
     14  0.000000D+00  0.000000D+00 -0.532413D-02  0.000000D+00  0.000000D+00
     15 -0.251603D-01 -0.932890D-01  0.000000D+00 -0.203933D-01 -0.867692D-01
               11            12            13            14            15 
     11  0.121450D-01
     12  0.000000D+00  0.183689D+00
     13  0.000000D+00 -0.508705D-01  0.757904D+00
     14 -0.109575D-01  0.000000D+00  0.000000D+00  0.892874D-02
     15  0.000000D+00 -0.112783D+00  0.196197D+00  0.000000D+00  0.157058D+00
 Force constants in internal coordinates: 
                1             2             3             4             5 
      1  0.512293D+00
      2 -0.102912D-01  0.282214D+00
      3  0.329354D-02  0.334428D-02  0.120244D+00
      4 -0.352132D-02  0.652172D-02  0.155569D+00  0.813512D+00
      5  0.978768D-02  0.654493D-01  0.227544D-02  0.516213D-02  0.216689D+00
      6  0.455445D-02  0.600327D-01  0.402584D-01  0.237246D-01  0.314047D-01
      7 -0.110405D-02  0.401585D-01  0.410810D-01  0.934020D-01  0.217075D-01
      8  0.000000D+00  0.000000D+00  0.000000D+00  0.000000D+00  0.000000D+00
      9  0.000000D+00  0.000000D+00  0.000000D+00  0.000000D+00  0.000000D+00
                6             7             8             9 
      6  0.282697D+00
      7  0.979972D-01  0.502082D+00
      8  0.000000D+00  0.000000D+00 -0.768910D-02
      9  0.000000D+00  0.000000D+00 -0.396792D-02  0.412992D-01
 Leave Link  716 at Mon Feb 21 20:59:25 2022, MaxMem= 16106127360 cpu:               1.1 elap:               0.1
 (Enter /sw/contrib/gaussian/g16/B01/g16/l103.exe)

 GradGradGradGradGradGradGradGradGradGradGradGradGradGradGradGradGradGrad
 Berny optimization.
 Search for a local minimum.
 Step number   1 out of a maximum of    2
 All quantities printed in internal units (Hartrees-Bohrs-Radians)
 Second derivative matrix not updated -- analytic derivatives used.
 The second derivative matrix:
                          r1        r2        r3        r4        a1
           r1           0.51229
           r2          -0.01029   0.28221
           r3           0.00329   0.00334   0.12024
           r4          -0.00352   0.00652   0.15557   0.81351
           a1           0.00979   0.06545   0.00228   0.00516   0.21669
           a2           0.00455   0.06003   0.04026   0.02372   0.03140
           a3          -0.00110   0.04016   0.04108   0.09340   0.02171
           d1           0.00000  -0.00000  -0.00000  -0.00000  -0.00000
           d2          -0.00000   0.00000   0.00000   0.00000   0.00000
                          a2        a3        d1        d2
           a2           0.28270
           a3           0.09800   0.50208
           d1          -0.00000  -0.00000  -0.00769
           d2          -0.00000   0.00000  -0.00397   0.04130
 ITU=  0
     Eigenvalues ---   -0.00801   0.04162   0.08055   0.17537   0.22458
     Eigenvalues ---    0.32710   0.51297   0.52850   0.88067
 Eigenvalue     1 is  -8.01D-03 should be greater than     0.000000 Eigenvector:
                          d1        d2        a3        a2        r3
   1                    0.99678   0.08021   0.00000   0.00000  -0.00000
                          r4        a1        r2        r1
   1                    0.00000  -0.00000   0.00000  -0.00000
 Angle between quadratic step and forces=  18.23 degrees.
 Linear search not attempted -- first point.
 Variable       Old X    -DE/DX   Delta X   Delta X   Delta X     New X
                                 (Linear)    (Quad)   (Total)
    r1        1.83110  -0.00003   0.00000   0.00000   0.00000   1.83110
    r2        2.74940   0.00068   0.00000  -0.00091  -0.00091   2.74849
    r3        2.75670   0.00078   0.00000  -0.00277  -0.00277   2.75393
    r4        2.21236   0.00250   0.00000   0.00093   0.00093   2.21328
    a1        1.70335   0.00039   0.00000  -0.00032  -0.00032   1.70303
    a2        1.78543   0.00225   0.00000   0.00043   0.00043   1.78586
    a3        1.87982   0.01167   0.00000   0.02329   0.02329   1.90311
    d1        3.14159  -0.00000   0.00000  -0.00000   0.00000   3.14159
    d2        3.14159   0.00000   0.00000  -0.00000   0.00000   3.14159
         Item               Value     Threshold  Converged?
 Maximum Force            0.011666     0.000450     NO 
 RMS     Force            0.004064     0.000300     NO 
 Maximum Displacement     0.023291     0.001800     NO 
 RMS     Displacement     0.007832     0.001200     NO 
 Predicted change in Energy=-1.360435D-04
                       ----------------------------
                       ! Non-Optimized Parameters !
                       ! (Angstroms and Degrees)  !
 ----------------------                            ----------------------
 !      Name          Value   Derivative information (Atomic Units)     !
 ------------------------------------------------------------------------
 !       r1          0.969    -DE/DX =    0.0                           !
 !       r2          1.4544   -DE/DX =    0.0007                        !
 !       r3          1.4573   -DE/DX =    0.0008                        !
 !       r4          1.1712   -DE/DX =    0.0025                        !
 !       a1         97.5765   -DE/DX =    0.0004                        !
 !       a2        102.3224   -DE/DX =    0.0023                        !
 !       a3        109.0405   -DE/DX =    0.0117                        !
 !       d1        180.0      -DE/DX =    0.0                           !
 !       d2        180.0      -DE/DX =    0.0                           !
 ------------------------------------------------------------------------
 GradGradGradGradGradGradGradGradGradGradGradGradGradGradGradGradGradGrad

 Leave Link  103 at Mon Feb 21 20:59:26 2022, MaxMem= 16106127360 cpu:               0.6 elap:               0.0
 (Enter /sw/contrib/gaussian/g16/B01/g16/l9999.exe)

 ----------------------------------------------------------------------

 Electric dipole moment (input orientation):
 (Debye = 10**-18 statcoulomb cm , SI units = C m)
                  (au)            (Debye)         (10**-30 SI)
   Tot        0.565169D+00      0.143652D+01      0.479170D+01
   x         -0.149276D+00     -0.379423D+00     -0.126562D+01
   y          0.000000D+00      0.000000D+00      0.000000D+00
   z         -0.545099D+00     -0.138550D+01     -0.462154D+01

 Dipole polarizability, Alpha (input orientation).
 (esu units = cm**3 , SI units = C**2 m**2 J**-1)
 Alpha(0;0):
               (au)            (10**-24 esu)      (10**-40 SI)
   iso        0.273056D+02      0.404627D+01      0.450208D+01
   aniso      0.217347D+02      0.322075D+01      0.358357D+01
   xx         0.321332D+02      0.476165D+01      0.529805D+01
   yx         0.000000D+00      0.000000D+00      0.000000D+00
   yy         0.179026D+02      0.265289D+01      0.295173D+01
   zx         0.954659D+01      0.141466D+01      0.157402D+01
   zy         0.000000D+00      0.000000D+00      0.000000D+00
   zz         0.318809D+02      0.472426D+01      0.525645D+01

 ----------------------------------------------------------------------

 Dipole orientation:
     1          0.00000000          0.00000000         -0.00000000
     8         -0.48364258          0.00000000         -1.76607228
     8          2.04887625          0.00000000         -2.83637291
     7          1.54118544          0.00000000         -5.54592229
     8          3.48877697          0.00000000         -6.59540323

 Electric dipole moment (dipole orientation):
 (Debye = 10**-18 statcoulomb cm , SI units = C m)
                  (au)            (Debye)         (10**-30 SI)
   Tot        0.565169D+00      0.143652D+01      0.479170D+01
   x          0.000000D+00      0.000000D+00      0.000000D+00
   y          0.000000D+00      0.000000D+00      0.000000D+00
   z          0.565169D+00      0.143652D+01      0.479170D+01

 Dipole polarizability, Alpha (dipole orientation).
 (esu units = cm**3 , SI units = C**2 m**2 J**-1)
 Alpha(0;0):
               (au)            (10**-24 esu)      (10**-40 SI)
   iso        0.273056D+02      0.404627D+01      0.450208D+01
   aniso      0.217347D+02      0.322075D+01      0.358357D+01
   xx         0.272517D+02      0.403828D+01      0.449320D+01
   yx         0.000000D+00      0.000000D+00      0.000000D+00
   yy         0.179026D+02      0.265289D+01      0.295173D+01
   zx        -0.827887D+01     -0.122680D+01     -0.136500D+01
   zy         0.000000D+00      0.000000D+00      0.000000D+00
   zz         0.367625D+02      0.544763D+01      0.606131D+01

 ----------------------------------------------------------------------
 1\1\GINC-N2125\Freq\RMP2-FC\Aug-CC-pVTZ\H1N1O3\CGAVINH\21-Feb-2022\1\\
 #p freq mp2/aug-cc-pvtz density=current\\title\\0,1\H\O,1,r1\O,2,r2,1,
 a1\N,3,r3,2,a2,1,d1,0\O,4,r4,3,a3,2,d2,0\\r1=0.96897556\r2=1.45491931\
 r3=1.45878406\r4=1.17072885\a1=97.59494903\a2=102.29752444\a3=107.7059
 8012\d1=180.\d2=180.\\Version=ES64L-G16RevB.01\State=1-A'\HF=-279.5016
 275\MP2=-280.4465974\RMSD=3.734e-09\RMSF=2.579e-03\ZeroPoint=0.0219013
 \Thermal=0.0260091\Dipole=-0.1492764,0.,-0.5450987\DipoleDeriv=0.26555
 98,0.,0.0478875,0.,0.3552828,0.,0.0809752,0.,0.2734626,-0.3313785,0.,-
 0.2079916,0.,-0.3145447,0.,-0.1131461,0.,-0.2243515,-0.0383026,0.,0.15
 36101,0.,-0.0886362,0.,-0.7451097,0.,-1.3284187,0.8974928,0.,0.9022182
 ,0.,0.0706658,0.,0.911565,0.,1.6328572,-0.7933714,0.,-0.8957242,0.,-0.
 0227677,0.,-0.1342843,0.,-0.3535496\Polar=32.1332267,0.,17.902562,9.54
 65884,0.,31.8809159\Quadrupole=-1.527749,-0.7155383,2.2432873,0.,2.071
 7019,0.\PG=CS [SG(H1N1O3)]\NImag=1\\0.06464276,0.,-0.00230281,0.005461
 09,0.,0.51229294,-0.03572635,0.,-0.01635147,0.27333938,0.,0.00290834,0
 .,0.,0.00211735,0.04811033,0.,-0.50848242,0.03442399,0.,0.59448203,-0.
 01832815,0.,0.01240782,-0.21973201,0.,-0.02142814,0.34343022,0.,0.0010
 4774,0.,0.,-0.00687427,0.,0.,0.00518068,-0.05319561,0.,-0.00063068,-0.
 01951567,0.,-0.07850109,0.04030661,0.,0.18363368,-0.00904703,0.,-0.004
 83618,-0.01793978,0.,-0.05172931,-0.07557370,0.,0.17167324,0.82918615,
 0.,-0.00269071,0.,0.,-0.00446683,0.,0.,0.00596998,0.,0.,0.01214503,0.0
 0547931,0.,-0.00445841,0.01172705,0.,0.01766175,0.06200271,0.,-0.08410
 865,-0.02833857,0.,0.18368851,-0.00154123,0.,0.00331874,0.00005877,0.,
 -0.00937687,-0.02979636,0.,-0.13926856,-0.72662564,0.,-0.05087050,0.75
 790445,0.,0.00103744,0.,0.,0.00631541,0.,0.,-0.00532413,0.,0.,-0.01095
 747,0.,0.,0.00892874,-0.00585512,0.,0.00127857,-0.01028391,0.,-0.02516
 027,-0.09328899,0.,-0.02039327,-0.08676917,0.,-0.11278319,0.19619719,0
 .,0.15705816\\0.00021215,0.,-0.00002926,0.00033500,0.,0.00107071,0.004
 54818,0.,-0.00067662,-0.00384588,0.,0.00533543,-0.00124944,0.,-0.00570
 025\\\@


 THE RED LIGHT IS ALWAYS LONGER THAN THE GREEN LIGHT.

                     -- PETER'S THEORY OF RELATIVITY
 Job cpu time:       0 days  2 hours  1 minutes 30.4 seconds.
 Elapsed time:       0 days  0 hours  4 minutes 23.3 seconds.
 File lengths (MBytes):  RWF=   7239 Int=      0 D2E=      0 Chk=      8 Scr=      1
 Normal termination of Gaussian 16 at Mon Feb 21 20:59:27 2022.
