 Entering Gaussian System, Link 0=g16
 Input=hoono_a3_107p5967.gjf
 Output=hoono_a3_107p5967.log
 Initial command:
 /sw/contrib/gaussian/g16/B01/g16/l1.exe "/scr/Gau-2322.inp" -scrdir="/scr/"
 Entering Link 1 = /sw/contrib/gaussian/g16/B01/g16/l1.exe PID=      2324.
  
 Copyright (c) 1988-2017, Gaussian, Inc.  All Rights Reserved.
  
 This is part of the Gaussian(R) 16 program.  It is based on
 the Gaussian(R) 09 system (copyright 2009, Gaussian, Inc.),
 the Gaussian(R) 03 system (copyright 2003, Gaussian, Inc.),
 the Gaussian(R) 98 system (copyright 1998, Gaussian, Inc.),
 the Gaussian(R) 94 system (copyright 1995, Gaussian, Inc.),
 the Gaussian 92(TM) system (copyright 1992, Gaussian, Inc.),
 the Gaussian 90(TM) system (copyright 1990, Gaussian, Inc.),
 the Gaussian 88(TM) system (copyright 1988, Gaussian, Inc.),
 the Gaussian 86(TM) system (copyright 1986, Carnegie Mellon
 University), and the Gaussian 82(TM) system (copyright 1983,
 Carnegie Mellon University). Gaussian is a federally registered
 trademark of Gaussian, Inc.
  
 This software contains proprietary and confidential information,
 including trade secrets, belonging to Gaussian, Inc.
  
 This software is provided under written license and may be
 used, copied, transmitted, or stored only in accord with that
 written license.
  
 The following legend is applicable only to US Government
 contracts under FAR:
  
                    RESTRICTED RIGHTS LEGEND
  
 Use, reproduction and disclosure by the US Government is
 subject to restrictions as set forth in subparagraphs (a)
 and (c) of the Commercial Computer Software - Restricted
 Rights clause in FAR 52.227-19.
  
 Gaussian, Inc.
 340 Quinnipiac St., Bldg. 40, Wallingford CT 06492
  
  
 ---------------------------------------------------------------
 Warning -- This program may not be used in any manner that
 competes with the business of Gaussian, Inc. or will provide
 assistance to any competitor of Gaussian, Inc.  The licensee
 of this program is prohibited from giving any competitor of
 Gaussian, Inc. access to this program.  By using this program,
 the user acknowledges that Gaussian, Inc. is engaged in the
 business of creating and licensing software in the field of
 computational chemistry and represents and warrants to the
 licensee that it is not a competitor of Gaussian, Inc. and that
 it will not use this program in any manner prohibited above.
 ---------------------------------------------------------------
  

 Cite this work as:
 Gaussian 16, Revision B.01,
 M. J. Frisch, G. W. Trucks, H. B. Schlegel, G. E. Scuseria, 
 M. A. Robb, J. R. Cheeseman, G. Scalmani, V. Barone, 
 G. A. Petersson, H. Nakatsuji, X. Li, M. Caricato, A. V. Marenich, 
 J. Bloino, B. G. Janesko, R. Gomperts, B. Mennucci, H. P. Hratchian, 
 J. V. Ortiz, A. F. Izmaylov, J. L. Sonnenberg, D. Williams-Young, 
 F. Ding, F. Lipparini, F. Egidi, J. Goings, B. Peng, A. Petrone, 
 T. Henderson, D. Ranasinghe, V. G. Zakrzewski, J. Gao, N. Rega, 
 G. Zheng, W. Liang, M. Hada, M. Ehara, K. Toyota, R. Fukuda, 
 J. Hasegawa, M. Ishida, T. Nakajima, Y. Honda, O. Kitao, H. Nakai, 
 T. Vreven, K. Throssell, J. A. Montgomery, Jr., J. E. Peralta, 
 F. Ogliaro, M. J. Bearpark, J. J. Heyd, E. N. Brothers, K. N. Kudin, 
 V. N. Staroverov, T. A. Keith, R. Kobayashi, J. Normand, 
 K. Raghavachari, A. P. Rendell, J. C. Burant, S. S. Iyengar, 
 J. Tomasi, M. Cossi, J. M. Millam, M. Klene, C. Adamo, R. Cammi, 
 J. W. Ochterski, R. L. Martin, K. Morokuma, O. Farkas, 
 J. B. Foresman, and D. J. Fox, Gaussian, Inc., Wallingford CT, 2016.
 
 ******************************************
 Gaussian 16:  ES64L-G16RevB.01 20-Dec-2017
                21-Feb-2022 
 ******************************************
 %nproc=28
 Will use up to   28 processors via shared memory.
 %mem=120GB
 %chk=hoono_a3_107p5967.chk
 ---------------------------------------
 #p freq mp2/aug-cc-pvtz density=current
 ---------------------------------------
 1/10=4,30=1,38=1/1,3;
 2/12=2,17=6,18=5,40=1/2;
 3/5=16,6=1,7=10,11=9,25=1,30=1,71=2,140=1/1,2,3;
 4//1;
 5/5=2,38=5,98=1/2;
 8/6=3,8=1,10=1,19=11,30=-1/1;
 9/15=3,16=-3/6;
 11/6=1,8=1,15=11,17=12,24=-1,27=1,28=-2,29=300,32=6,42=3/1,2,10;
 10/6=2,21=1/2;
 8/6=4,8=1,10=1,19=11,30=-1/11,4;
 10/5=1,20=4/2;
 11/12=2,14=11,16=1,17=2,28=-2,42=3,76=2/2,10,12;
 6/7=2,8=2,9=2,10=2,22=-1/1;
 7/8=1,10=1,12=2,25=1,44=2/1,2,3,16;
 1/10=4,30=1/3;
 99//99;
 Leave Link    1 at Mon Feb 21 20:56:05 2022, MaxMem= 16106127360 cpu:               4.3 elap:               0.2
 (Enter /sw/contrib/gaussian/g16/B01/g16/l101.exe)
 -----
 title
 -----
 Symbolic Z-matrix:
 Charge =  0 Multiplicity = 1
 H
 O                    1    r1
 O                    2    r2       1    a1
 N                    3    r3       2    a2       1    d1       0
 O                    4    r4       3    a3       2    d2       0
       Variables:
  r1                    0.96898                  
  r2                    1.45492                  
  r3                    1.45878                  
  r4                    1.17073                  
  a1                   97.59495                  
  a2                  102.29752                  
  a3                  107.59673                  
  d1                  180.                       
  d2                  180.                       
 
 ITRead=  0  0  0  0  0
 MicOpt= -1 -1 -1 -1 -1
 NAtoms=      5 NQM=        5 NQMF=       0 NMMI=      0 NMMIF=      0
                NMic=       0 NMicF=      0.
                    Isotopes and Nuclear Properties:
 (Nuclear quadrupole moments (NQMom) in fm**2, nuclear magnetic moments (NMagM)
  in nuclear magnetons)

  Atom         1           2           3           4           5
 IAtWgt=           1          16          16          14          16
 AtmWgt=   1.0078250  15.9949146  15.9949146  14.0030740  15.9949146
 NucSpn=           1           0           0           2           0
 AtZEff=  -0.0000000  -0.0000000  -0.0000000  -0.0000000  -0.0000000
 NQMom=    0.0000000   0.0000000   0.0000000   2.0440000   0.0000000
 NMagM=    2.7928460   0.0000000   0.0000000   0.4037610   0.0000000
 AtZNuc=   1.0000000   8.0000000   8.0000000   7.0000000   8.0000000
 Leave Link  101 at Mon Feb 21 20:56:05 2022, MaxMem= 16106127360 cpu:               3.4 elap:               0.1
 (Enter /sw/contrib/gaussian/g16/B01/g16/l103.exe)

 GradGradGradGradGradGradGradGradGradGradGradGradGradGradGradGradGradGrad
 Berny optimization.
 Initialization pass.
                       ----------------------------
                       !    Initial Parameters    !
                       ! (Angstroms and Degrees)  !
 ----------------------                            ----------------------
 !      Name          Value   Derivative information (Atomic Units)     !
 ------------------------------------------------------------------------
 !       r1          0.969    calculate D2E/DX2 analytically            !
 !       r2          1.4549   calculate D2E/DX2 analytically            !
 !       r3          1.4588   calculate D2E/DX2 analytically            !
 !       r4          1.1707   calculate D2E/DX2 analytically            !
 !       a1         97.5949   calculate D2E/DX2 analytically            !
 !       a2        102.2975   calculate D2E/DX2 analytically            !
 !       a3        107.5967   calculate D2E/DX2 analytically            !
 !       d1        180.0      calculate D2E/DX2 analytically            !
 !       d2        180.0      calculate D2E/DX2 analytically            !
 ------------------------------------------------------------------------
 Trust Radius=3.00D-01 FncErr=1.00D-07 GrdErr=1.00D-07 EigMax=2.50D+02 EigMin=1.00D-04
 Number of steps in this run=      2 maximum allowed number of steps=      2.
 GradGradGradGradGradGradGradGradGradGradGradGradGradGradGradGradGradGrad

 Leave Link  103 at Mon Feb 21 20:56:05 2022, MaxMem= 16106127360 cpu:               0.5 elap:               0.0
 (Enter /sw/contrib/gaussian/g16/B01/g16/l202.exe)
                          Input orientation:                          
 ---------------------------------------------------------------------
 Center     Atomic      Atomic             Coordinates (Angstroms)
 Number     Number       Type             X           Y           Z
 ---------------------------------------------------------------------
      1          1           0        0.000000    0.000000    0.000000
      2          8           0        0.000000    0.000000    0.968976
      3          8           0        1.442156    0.000000    1.161271
      4          7           0        1.561752    0.000000    2.615144
      5          8           0        2.702959    0.000000    2.876393
 ---------------------------------------------------------------------
                    Distance matrix (angstroms):
                    1          2          3          4          5
     1  H    0.000000
     2  O    0.968976   0.000000
     3  O    1.851584   1.454919   0.000000
     4  N    3.045989   2.269127   1.458784   0.000000
     5  O    3.947103   3.308206   2.128678   1.170729   0.000000
 Stoichiometry    HNO3
 Framework group  CS[SG(HNO3)]
 Deg. of freedom     7
 Full point group                 CS      NOp   2
 Largest Abelian subgroup         CS      NOp   2
 Largest concise Abelian subgroup C1      NOp   1
                         Standard orientation:                         
 ---------------------------------------------------------------------
 Center     Atomic      Atomic             Coordinates (Angstroms)
 Number     Number       Type             X           Y           Z
 ---------------------------------------------------------------------
      1          1           0        1.547514    1.682203    0.000000
      2          8           0        1.453983    0.717752    0.000000
      3          8           0       -0.000000    0.665560    0.000000
      4          7           0       -0.259374   -0.769981   -0.000000
      5          8           0       -1.420470   -0.919854   -0.000000
 ---------------------------------------------------------------------
 Rotational constants (GHZ):          54.5447552           5.0482813           4.6206283
 Leave Link  202 at Mon Feb 21 20:56:05 2022, MaxMem= 16106127360 cpu:               0.4 elap:               0.0
 (Enter /sw/contrib/gaussian/g16/B01/g16/l301.exe)
 Standard basis: Aug-CC-pVTZ (5D, 7F)
 Ernie: Thresh=  0.10000D-02 Tol=  0.10000D-05 Strict=F.
 Ernie:  12 primitive shells out of 131 were deleted.
 There are   166 symmetry adapted cartesian basis functions of A'  symmetry.
 There are    79 symmetry adapted cartesian basis functions of A"  symmetry.
 There are   136 symmetry adapted basis functions of A'  symmetry.
 There are    71 symmetry adapted basis functions of A"  symmetry.
   207 basis functions,   315 primitive gaussians,   245 cartesian basis functions
    16 alpha electrons       16 beta electrons
       nuclear repulsion energy       117.0553132660 Hartrees.
 IExCor=    0 DFT=F Ex=HF Corr=None ExCW=0 ScaHFX=  1.000000
 ScaDFX=  1.000000  1.000000  1.000000  1.000000 ScalE2=  1.000000  1.000000
 IRadAn=      5 IRanWt=     -1 IRanGd=            0 ICorTp=0 IEmpDi=  4
 NAtoms=    5 NActive=    5 NUniq=    5 SFac= 1.00D+00 NAtFMM=   60 NAOKFM=F Big=F
 Integral buffers will be    131072 words long.
 Raffenetti 1 integral format.
 Two-electron integral symmetry is turned on.
 Leave Link  301 at Mon Feb 21 20:56:05 2022, MaxMem= 16106127360 cpu:               1.5 elap:               0.1
 (Enter /sw/contrib/gaussian/g16/B01/g16/l302.exe)
 NPDir=0 NMtPBC=     1 NCelOv=     1 NCel=       1 NClECP=     1 NCelD=      1
         NCelK=      1 NCelE2=     1 NClLst=     1 CellRange=     0.0.
 One-electron integrals computed using PRISM.
 One-electron integral symmetry used in STVInt
 NBasis=   207 RedAO= T EigKep=  1.81D-04  NBF=   136    71
 NBsUse=   207 1.00D-06 EigRej= -1.00D+00 NBFU=   136    71
 Leave Link  302 at Mon Feb 21 20:56:06 2022, MaxMem= 16106127360 cpu:               4.6 elap:               0.2
 (Enter /sw/contrib/gaussian/g16/B01/g16/l303.exe)
 DipDrv:  MaxL=1.
 Leave Link  303 at Mon Feb 21 20:56:06 2022, MaxMem= 16106127360 cpu:               1.3 elap:               0.1
 (Enter /sw/contrib/gaussian/g16/B01/g16/l401.exe)
 ExpMin= 2.53D-02 ExpMax= 1.53D+04 ExpMxC= 5.22D+02 IAcc=3 IRadAn=         5 AccDes= 0.00D+00
 Harris functional with IExCor=  205 and IRadAn=       5 diagonalized for initial guess.
 HarFok:  IExCor=  205 AccDes= 0.00D+00 IRadAn=         5 IDoV= 1 UseB2=F ITyADJ=14
 ICtDFT=  3500011 ScaDFX=  1.000000  1.000000  1.000000  1.000000
 FoFCou: FMM=F IPFlag=           0 FMFlag=      100000 FMFlg1=           0
         NFxFlg=           0 DoJE=T BraDBF=F KetDBF=T FulRan=T
         wScrn=  0.000000 ICntrl=       500 IOpCl=  0 I1Cent=   200000004 NGrid=           0
         NMat0=    1 NMatS0=      1 NMatT0=    0 NMatD0=    1 NMtDS0=    0 NMtDT0=    0
 Petite list used in FoFCou.
 Harris En= -279.628588156911    
 JPrj=0 DoOrth=F DoCkMO=F.
 Initial guess orbital symmetries:
       Occupied  (A') (A') (A') (A') (A') (A') (A') (A') (A') (A')
                 (A") (A') (A') (A") (A") (A')
       Virtual   (A") (A') (A') (A') (A') (A') (A") (A') (A') (A')
                 (A") (A') (A") (A') (A') (A") (A') (A") (A') (A')
                 (A') (A') (A') (A') (A') (A") (A') (A") (A') (A')
                 (A") (A') (A") (A') (A') (A") (A') (A") (A') (A')
                 (A") (A') (A") (A') (A") (A') (A') (A') (A") (A")
                 (A') (A') (A') (A') (A") (A') (A") (A') (A") (A')
                 (A') (A') (A") (A') (A') (A") (A') (A") (A') (A')
                 (A") (A') (A') (A") (A") (A') (A') (A") (A') (A')
                 (A') (A") (A') (A") (A") (A') (A') (A") (A') (A')
                 (A') (A") (A') (A") (A') (A") (A") (A') (A') (A')
                 (A") (A') (A") (A') (A') (A') (A") (A') (A") (A')
                 (A") (A') (A') (A') (A") (A') (A') (A') (A") (A')
                 (A") (A') (A') (A") (A") (A') (A') (A") (A") (A')
                 (A') (A') (A') (A") (A") (A') (A") (A') (A') (A')
                 (A') (A") (A") (A') (A') (A") (A') (A') (A') (A')
                 (A") (A') (A') (A") (A') (A") (A') (A") (A') (A")
                 (A') (A") (A') (A") (A') (A") (A") (A") (A') (A')
                 (A") (A') (A") (A') (A") (A') (A") (A") (A') (A')
                 (A') (A') (A') (A') (A') (A') (A') (A') (A') (A')
                 (A')
 The electronic state of the initial guess is 1-A'.
 Leave Link  401 at Mon Feb 21 20:56:06 2022, MaxMem= 16106127360 cpu:               6.8 elap:               0.3
 (Enter /sw/contrib/gaussian/g16/B01/g16/l502.exe)
 Keep R1 ints in memory in symmetry-blocked form, NReq=348887737.
 FoFCou: FMM=F IPFlag=           0 FMFlag=           0 FMFlg1=           0
         NFxFlg=           0 DoJE=F BraDBF=F KetDBF=F FulRan=T
         wScrn=  0.000000 ICntrl=       600 IOpCl=  0 I1Cent=           0 NGrid=           0
         NMat0=    1 NMatS0=  21528 NMatT0=    0 NMatD0=    1 NMtDS0=    0 NMtDT0=    0
 Petite list used in FoFCou.
 Closed shell SCF:
 Using DIIS extrapolation, IDIIS=  1040.
 NGot= 16106127360 LenX= 15988850015 LenY= 15988789549
 Requested convergence on RMS density matrix=1.00D-08 within 128 cycles.
 Requested convergence on MAX density matrix=1.00D-06.
 Requested convergence on             energy=1.00D-06.
 No special actions if energy rises.

 Cycle   1  Pass 1  IDiag  1:
 E= -279.369862821006    
 DIIS: error= 2.53D-02 at cycle   1 NSaved=   1.
 NSaved= 1 IEnMin= 1 EnMin= -279.369862821006     IErMin= 1 ErrMin= 2.53D-02
 ErrMax= 2.53D-02  0.00D+00 EMaxC= 1.00D-01 BMatC= 4.39D-01 BMatP= 4.39D-01
 IDIUse=3 WtCom= 7.47D-01 WtEn= 2.53D-01
 Coeff-Com:  0.100D+01
 Coeff-En:   0.100D+01
 Coeff:      0.100D+01
 Gap=     0.511 Goal=   None    Shift=    0.000
 GapD=    0.511 DampG=2.000 DampE=0.500 DampFc=1.0000 IDamp=-1.
 RMSDP=1.63D-03 MaxDP=1.01D-01              OVMax= 1.14D-01

 Cycle   2  Pass 1  IDiag  1:
 E= -279.452173712988     Delta-E=       -0.082310891981 Rises=F Damp=F
 DIIS: error= 1.81D-02 at cycle   2 NSaved=   2.
 NSaved= 2 IEnMin= 2 EnMin= -279.452173712988     IErMin= 2 ErrMin= 1.81D-02
 ErrMax= 1.81D-02  0.00D+00 EMaxC= 1.00D-01 BMatC= 7.22D-02 BMatP= 4.39D-01
 IDIUse=3 WtCom= 8.19D-01 WtEn= 1.81D-01
 Coeff-Com:  0.196D+00 0.804D+00
 Coeff-En:   0.000D+00 0.100D+01
 Coeff:      0.160D+00 0.840D+00
 Gap=     0.533 Goal=   None    Shift=    0.000
 RMSDP=9.01D-04 MaxDP=3.76D-02 DE=-8.23D-02 OVMax= 6.97D-02

 Cycle   3  Pass 1  IDiag  1:
 E= -279.481608414700     Delta-E=       -0.029434701712 Rises=F Damp=F
 DIIS: error= 1.05D-02 at cycle   3 NSaved=   3.
 NSaved= 3 IEnMin= 3 EnMin= -279.481608414700     IErMin= 3 ErrMin= 1.05D-02
 ErrMax= 1.05D-02  0.00D+00 EMaxC= 1.00D-01 BMatC= 2.85D-02 BMatP= 7.22D-02
 IDIUse=3 WtCom= 8.95D-01 WtEn= 1.05D-01
 Coeff-Com: -0.330D-01 0.376D+00 0.656D+00
 Coeff-En:   0.000D+00 0.237D+00 0.763D+00
 Coeff:     -0.295D-01 0.362D+00 0.668D+00
 Gap=     0.512 Goal=   None    Shift=    0.000
 RMSDP=3.76D-04 MaxDP=1.57D-02 DE=-2.94D-02 OVMax= 3.80D-02

 Cycle   4  Pass 1  IDiag  1:
 E= -279.500531404992     Delta-E=       -0.018922990292 Rises=F Damp=F
 DIIS: error= 1.27D-03 at cycle   4 NSaved=   4.
 NSaved= 4 IEnMin= 4 EnMin= -279.500531404992     IErMin= 4 ErrMin= 1.27D-03
 ErrMax= 1.27D-03  0.00D+00 EMaxC= 1.00D-01 BMatC= 4.98D-04 BMatP= 2.85D-02
 IDIUse=3 WtCom= 9.87D-01 WtEn= 1.27D-02
 Coeff-Com: -0.117D-01 0.571D-01 0.160D+00 0.795D+00
 Coeff-En:   0.000D+00 0.000D+00 0.000D+00 0.100D+01
 Coeff:     -0.115D-01 0.564D-01 0.158D+00 0.797D+00
 Gap=     0.504 Goal=   None    Shift=    0.000
 RMSDP=8.99D-05 MaxDP=2.75D-03 DE=-1.89D-02 OVMax= 1.12D-02

 Cycle   5  Pass 1  IDiag  1:
 E= -279.501210005922     Delta-E=       -0.000678600930 Rises=F Damp=F
 DIIS: error= 7.32D-04 at cycle   5 NSaved=   5.
 NSaved= 5 IEnMin= 5 EnMin= -279.501210005922     IErMin= 5 ErrMin= 7.32D-04
 ErrMax= 7.32D-04  0.00D+00 EMaxC= 1.00D-01 BMatC= 8.69D-05 BMatP= 4.98D-04
 IDIUse=3 WtCom= 9.93D-01 WtEn= 7.32D-03
 Coeff-Com:  0.618D-02-0.727D-01-0.119D+00 0.164D-01 0.117D+01
 Coeff-En:   0.000D+00 0.000D+00 0.000D+00 0.000D+00 0.100D+01
 Coeff:      0.614D-02-0.721D-01-0.118D+00 0.163D-01 0.117D+01
 Gap=     0.504 Goal=   None    Shift=    0.000
 RMSDP=7.66D-05 MaxDP=2.12D-03 DE=-6.79D-04 OVMax= 1.12D-02

 Cycle   6  Pass 1  IDiag  1:
 E= -279.501526334794     Delta-E=       -0.000316328872 Rises=F Damp=F
 DIIS: error= 2.75D-04 at cycle   6 NSaved=   6.
 NSaved= 6 IEnMin= 6 EnMin= -279.501526334794     IErMin= 6 ErrMin= 2.75D-04
 ErrMax= 2.75D-04  0.00D+00 EMaxC= 1.00D-01 BMatC= 1.66D-05 BMatP= 8.69D-05
 IDIUse=3 WtCom= 9.97D-01 WtEn= 2.75D-03
 Coeff-Com:  0.548D-03 0.214D-02 0.549D-02-0.129D+00-0.237D+00 0.136D+01
 Coeff-En:   0.000D+00 0.000D+00 0.000D+00 0.000D+00 0.000D+00 0.100D+01
 Coeff:      0.546D-03 0.214D-02 0.547D-02-0.129D+00-0.236D+00 0.136D+01
 Gap=     0.504 Goal=   None    Shift=    0.000
 RMSDP=4.52D-05 MaxDP=1.23D-03 DE=-3.16D-04 OVMax= 5.57D-03

 Cycle   7  Pass 1  IDiag  1:
 E= -279.501598615997     Delta-E=       -0.000072281203 Rises=F Damp=F
 DIIS: error= 1.22D-04 at cycle   7 NSaved=   7.
 NSaved= 7 IEnMin= 7 EnMin= -279.501598615997     IErMin= 7 ErrMin= 1.22D-04
 ErrMax= 1.22D-04  0.00D+00 EMaxC= 1.00D-01 BMatC= 4.38D-06 BMatP= 1.66D-05
 IDIUse=3 WtCom= 9.99D-01 WtEn= 1.22D-03
 Coeff-Com: -0.940D-03 0.134D-01 0.265D-01-0.229D-01-0.283D+00 0.380D+00
 Coeff-Com:  0.887D+00
 Coeff-En:   0.000D+00 0.000D+00 0.000D+00 0.000D+00 0.000D+00 0.000D+00
 Coeff-En:   0.100D+01
 Coeff:     -0.939D-03 0.134D-01 0.264D-01-0.229D-01-0.283D+00 0.380D+00
 Coeff:      0.887D+00
 Gap=     0.504 Goal=   None    Shift=    0.000
 RMSDP=1.31D-05 MaxDP=3.71D-04 DE=-7.23D-05 OVMax= 1.54D-03

 Cycle   8  Pass 1  IDiag  1:
 E= -279.501607297240     Delta-E=       -0.000008681243 Rises=F Damp=F
 DIIS: error= 5.59D-05 at cycle   8 NSaved=   8.
 NSaved= 8 IEnMin= 8 EnMin= -279.501607297240     IErMin= 8 ErrMin= 5.59D-05
 ErrMax= 5.59D-05  0.00D+00 EMaxC= 1.00D-01 BMatC= 6.07D-07 BMatP= 4.38D-06
 IDIUse=1 WtCom= 1.00D+00 WtEn= 0.00D+00
 Coeff-Com: -0.447D-03 0.341D-02 0.760D-02 0.272D-01-0.402D-01-0.199D+00
 Coeff-Com:  0.184D+00 0.102D+01
 Coeff:     -0.447D-03 0.341D-02 0.760D-02 0.272D-01-0.402D-01-0.199D+00
 Coeff:      0.184D+00 0.102D+01
 Gap=     0.504 Goal=   None    Shift=    0.000
 RMSDP=6.79D-06 MaxDP=2.02D-04 DE=-8.68D-06 OVMax= 7.28D-04

 Cycle   9  Pass 1  IDiag  1:
 E= -279.501609038680     Delta-E=       -0.000001741440 Rises=F Damp=F
 DIIS: error= 1.63D-05 at cycle   9 NSaved=   9.
 NSaved= 9 IEnMin= 9 EnMin= -279.501609038680     IErMin= 9 ErrMin= 1.63D-05
 ErrMax= 1.63D-05  0.00D+00 EMaxC= 1.00D-01 BMatC= 6.99D-08 BMatP= 6.07D-07
 IDIUse=1 WtCom= 1.00D+00 WtEn= 0.00D+00
 Coeff-Com:  0.125D-03-0.173D-02-0.312D-02-0.214D-02 0.344D-01 0.226D-03
 Coeff-Com: -0.172D+00-0.984D-01 0.124D+01
 Coeff:      0.125D-03-0.173D-02-0.312D-02-0.214D-02 0.344D-01 0.226D-03
 Coeff:     -0.172D+00-0.984D-01 0.124D+01
 Gap=     0.504 Goal=   None    Shift=    0.000
 RMSDP=1.93D-06 MaxDP=6.67D-05 DE=-1.74D-06 OVMax= 1.75D-04

 Cycle  10  Pass 1  IDiag  1:
 E= -279.501609198620     Delta-E=       -0.000000159940 Rises=F Damp=F
 DIIS: error= 4.18D-06 at cycle  10 NSaved=  10.
 NSaved=10 IEnMin=10 EnMin= -279.501609198620     IErMin=10 ErrMin= 4.18D-06
 ErrMax= 4.18D-06  0.00D+00 EMaxC= 1.00D-01 BMatC= 5.46D-09 BMatP= 6.99D-08
 IDIUse=1 WtCom= 1.00D+00 WtEn= 0.00D+00
 Coeff-Com:  0.303D-04-0.234D-03-0.313D-03-0.266D-02 0.152D-02 0.196D-01
 Coeff-Com: -0.134D-01-0.728D-01-0.811D-01 0.115D+01
 Coeff:      0.303D-04-0.234D-03-0.313D-03-0.266D-02 0.152D-02 0.196D-01
 Coeff:     -0.134D-01-0.728D-01-0.811D-01 0.115D+01
 Gap=     0.504 Goal=   None    Shift=    0.000
 RMSDP=4.95D-07 MaxDP=2.09D-05 DE=-1.60D-07 OVMax= 4.10D-05

 Cycle  11  Pass 1  IDiag  1:
 E= -279.501609210911     Delta-E=       -0.000000012291 Rises=F Damp=F
 DIIS: error= 2.00D-06 at cycle  11 NSaved=  11.
 NSaved=11 IEnMin=11 EnMin= -279.501609210911     IErMin=11 ErrMin= 2.00D-06
 ErrMax= 2.00D-06  0.00D+00 EMaxC= 1.00D-01 BMatC= 6.51D-10 BMatP= 5.46D-09
 IDIUse=1 WtCom= 1.00D+00 WtEn= 0.00D+00
 Coeff-Com: -0.212D-04 0.243D-03 0.489D-03 0.522D-03-0.427D-02-0.353D-02
 Coeff-Com:  0.217D-01 0.298D-01-0.138D+00-0.175D+00 0.127D+01
 Coeff:     -0.212D-04 0.243D-03 0.489D-03 0.522D-03-0.427D-02-0.353D-02
 Coeff:      0.217D-01 0.298D-01-0.138D+00-0.175D+00 0.127D+01
 Gap=     0.504 Goal=   None    Shift=    0.000
 RMSDP=1.74D-07 MaxDP=6.26D-06 DE=-1.23D-08 OVMax= 1.74D-05

 Cycle  12  Pass 1  IDiag  1:
 E= -279.501609212688     Delta-E=       -0.000000001777 Rises=F Damp=F
 DIIS: error= 5.74D-07 at cycle  12 NSaved=  12.
 NSaved=12 IEnMin=12 EnMin= -279.501609212688     IErMin=12 ErrMin= 5.74D-07
 ErrMax= 5.74D-07  0.00D+00 EMaxC= 1.00D-01 BMatC= 7.13D-11 BMatP= 6.51D-10
 IDIUse=1 WtCom= 1.00D+00 WtEn= 0.00D+00
 Coeff-Com:  0.126D-05-0.291D-04-0.633D-04 0.181D-03 0.108D-02-0.234D-02
 Coeff-Com: -0.408D-02 0.562D-02 0.413D-01-0.116D+00-0.276D+00 0.135D+01
 Coeff:      0.126D-05-0.291D-04-0.633D-04 0.181D-03 0.108D-02-0.234D-02
 Coeff:     -0.408D-02 0.562D-02 0.413D-01-0.116D+00-0.276D+00 0.135D+01
 Gap=     0.504 Goal=   None    Shift=    0.000
 RMSDP=7.11D-08 MaxDP=2.71D-06 DE=-1.78D-09 OVMax= 6.75D-06

 Cycle  13  Pass 1  IDiag  1:
 E= -279.501609212915     Delta-E=       -0.000000000227 Rises=F Damp=F
 DIIS: error= 1.65D-07 at cycle  13 NSaved=  13.
 NSaved=13 IEnMin=13 EnMin= -279.501609212915     IErMin=13 ErrMin= 1.65D-07
 ErrMax= 1.65D-07  0.00D+00 EMaxC= 1.00D-01 BMatC= 3.95D-12 BMatP= 7.13D-11
 IDIUse=1 WtCom= 1.00D+00 WtEn= 0.00D+00
 Coeff-Com:  0.128D-05-0.140D-04-0.228D-04-0.874D-04 0.126D-03 0.754D-03
 Coeff-Com: -0.904D-03-0.320D-02 0.769D-03 0.410D-01-0.373D-01-0.321D+00
 Coeff-Com:  0.132D+01
 Coeff:      0.128D-05-0.140D-04-0.228D-04-0.874D-04 0.126D-03 0.754D-03
 Coeff:     -0.904D-03-0.320D-02 0.769D-03 0.410D-01-0.373D-01-0.321D+00
 Coeff:      0.132D+01
 Gap=     0.504 Goal=   None    Shift=    0.000
 RMSDP=1.89D-08 MaxDP=5.59D-07 DE=-2.27D-10 OVMax= 1.56D-06

 Cycle  14  Pass 1  IDiag  1:
 E= -279.501609212928     Delta-E=       -0.000000000013 Rises=F Damp=F
 DIIS: error= 2.49D-08 at cycle  14 NSaved=  14.
 NSaved=14 IEnMin=14 EnMin= -279.501609212928     IErMin=14 ErrMin= 2.49D-08
 ErrMax= 2.49D-08  0.00D+00 EMaxC= 1.00D-01 BMatC= 1.90D-13 BMatP= 3.95D-12
 IDIUse=1 WtCom= 1.00D+00 WtEn= 0.00D+00
 Coeff-Com: -0.187D-06 0.306D-05 0.555D-05 0.429D-05-0.817D-04 0.477D-04
 Coeff-Com:  0.284D-03 0.208D-03-0.244D-02 0.161D-02 0.169D-01-0.263D-01
 Coeff-Com: -0.197D+00 0.121D+01
 Coeff:     -0.187D-06 0.306D-05 0.555D-05 0.429D-05-0.817D-04 0.477D-04
 Coeff:      0.284D-03 0.208D-03-0.244D-02 0.161D-02 0.169D-01-0.263D-01
 Coeff:     -0.197D+00 0.121D+01
 Gap=     0.504 Goal=   None    Shift=    0.000
 RMSDP=3.73D-09 MaxDP=8.89D-08 DE=-1.34D-11 OVMax= 3.36D-07

 SCF Done:  E(RHF) =  -279.501609213     A.U. after   14 cycles
            NFock= 14  Conv=0.37D-08     -V/T= 2.0023
 KE= 2.788558792403D+02 PE=-8.954548857328D+02 EE= 2.200420840136D+02
 Leave Link  502 at Mon Feb 21 20:56:10 2022, MaxMem= 16106127360 cpu:              56.3 elap:               3.8
 (Enter /sw/contrib/gaussian/g16/B01/g16/l801.exe)
 ExpMin= 2.53D-02 ExpMax= 1.53D+04 ExpMxC= 5.22D+02 IAcc=3 IRadAn=         5 AccDes= 0.00D+00
 HarFok:  IExCor=  205 AccDes= 0.00D+00 IRadAn=         5 IDoV=-2 UseB2=F ITyADJ=14
 ICtDFT= 12500011 ScaDFX=  1.000000  1.000000  1.000000  1.000000
 Largest valence mixing into a core orbital is  2.08D-04
 Largest core mixing into a valence orbital is  3.65D-05
 Range of M.O.s used for correlation:     5   207
 NBasis=   207 NAE=    16 NBE=    16 NFC=     4 NFV=     0
 NROrb=    203 NOA=    12 NOB=    12 NVA=   191 NVB=   191

 **** Warning!!: The largest alpha MO coefficient is  0.17542118D+02

 Leave Link  801 at Mon Feb 21 20:56:10 2022, MaxMem= 16106127360 cpu:               2.2 elap:               0.1
 (Enter /sw/contrib/gaussian/g16/B01/g16/l906.exe)
 Frozen-core derivative calculation, NFC=   4 NFV=   0.
 FulOut=F Deriv=T AODrv=T NAtomX=     5
   MMem=           0  MDisk=          12 MDiskD=          12
  W3Min=      811440 MinDsk=     2425030 NBas6D=         245
 NBas2D=       30762    NTT=       30135    LW2=     7400000
    MDV= 16105574283 MDiskM=      328644 NBas2p=       30702
 Disk-based method using ON**2 memory for 12 occupieds at a time.
 Permanent disk used for amplitudes=    11516536 words.
 Estimated scratch disk usage=   321251614 words.
 IMap=   1   2   3   4   5   6   7   8   9  10  11  12  13  14  15  16
 Actual    scratch disk usage=   310331678 words.
 JobTyp=1 Pass  1:  I=   5 to  16 NPSUse= 28 ParTrn=T ParDer=T DoDerP=T.
 (rs|ai) integrals will be sorted in core.
 Spin components of T(2) and E(2):
     alpha-alpha T2 =       0.3399103610D-01 E2=     -0.1223807236D+00
     alpha-beta  T2 =       0.1867811971D+00 E2=     -0.7002036291D+00
     beta-beta   T2 =       0.3399103610D-01 E2=     -0.1223807236D+00
 The integrals were generated   1 times.
 ANorm=    0.1120162162D+01
 E2 =    -0.9449650762D+00 EUMP2 =    -0.28044657428917D+03
 Leave Link  906 at Mon Feb 21 20:57:47 2022, MaxMem= 16106127360 cpu:            2701.6 elap:              96.6
 (Enter /sw/contrib/gaussian/g16/B01/g16/l1101.exe)
 Using compressed Sx but separate Hx and Fx, NAtomX=     5.
 Will process      6 centers per pass.
 Leave Link 1101 at Mon Feb 21 20:57:47 2022, MaxMem= 16106127360 cpu:               6.5 elap:               0.3
 (Enter /sw/contrib/gaussian/g16/B01/g16/l1102.exe)
 Leave Link 1102 at Mon Feb 21 20:57:47 2022, MaxMem= 16106127360 cpu:               0.5 elap:               0.0
 (Enter /sw/contrib/gaussian/g16/B01/g16/l1110.exe)
 Forming Gx(P) for the SCF density, NAtomX=     5.
 Integral derivatives from FoFJK, PRISM(SPDF).
 Do as many integral derivatives as possible in FoFJK.
 G2DrvN: MDV=   16106126844.
 G2DrvN: will do     6 centers at a time, making    1 passes.
 Calling FoFCou, ICntrl=  3107 FMM=F I1Cent=   0 AccDes= 0.00D+00.
 FoFJK:  IHMeth= 1 ICntrl=    3107 DoSepK=F KAlg= 0 I1Cent=           0 FoldK=F
 IRaf=         0 NMat=       1 IRICut=       1 DoRegI=T DoRafI=F ISym2E= 1 IDoP0=0 IntGTp=1.
 FoFCou: FMM=F IPFlag=           0 FMFlag=      100000 FMFlg1=           0
         NFxFlg=           0 DoJE=F BraDBF=F KetDBF=F FulRan=T
         wScrn=  0.000000 ICntrl=      3107 IOpCl=  0 I1Cent=           0 NGrid=           0
         NMat0=    1 NMatS0=      1 NMatT0=    0 NMatD0=    1 NMtDS0=    0 NMtDT0=    0
 Petite list used in FoFCou.
 End of G2Drv F.D. properties file   721 does not exist.
 End of G2Drv F.D. properties file   722 does not exist.
 End of G2Drv F.D. properties file   788 does not exist.
 Leave Link 1110 at Mon Feb 21 20:57:50 2022, MaxMem= 16106127360 cpu:              83.0 elap:               3.0
 (Enter /sw/contrib/gaussian/g16/B01/g16/l1002.exe)
 Minotr:  Closed shell wavefunction.
          IDoAtm=11111
          Frozen-core window.
          Direct CPHF calculation.
          Differentiating once with respect to electric field.
                with respect to dipole field.
          Differentiating once with respect to nuclear coordinates.
          Requested convergence is 1.0D-08 RMS, and 1.0D-07 maximum.
          Secondary convergence is 1.0D-12 RMS, and 1.0D-12 maximum.
          NewPWx=T KeepS1=T KeepF1=T KeepIn=T MapXYZ=F SortEE=F KeepMc=T.
 Keep R1 ints in memory in symmetry-blocked form, NReq=348888983.
 FoFCou: FMM=F IPFlag=           0 FMFlag=           0 FMFlg1=           0
         NFxFlg=           0 DoJE=F BraDBF=F KetDBF=F FulRan=T
         wScrn=  0.000000 ICntrl=       600 IOpCl=  0 I1Cent=           0 NGrid=           0
         NMat0=    1 NMatS0=  21528 NMatT0=    0 NMatD0=    1 NMtDS0=    0 NMtDT0=    0
 Petite list used in FoFCou.
          MDV=   16106127360 using IRadAn=       1.
          Solving linear equations simultaneously, MaxMat=       0.
          There are    18 degrees of freedom in the 1st order CPHF.  IDoFFX=6 NUNeed=    18.
     15 vectors produced by pass  0 Test12= 1.70D-14 5.56D-09 XBig12= 8.30D+00 1.09D+00.
 AX will form    15 AO Fock derivatives at one time.
     15 vectors produced by pass  1 Test12= 1.70D-14 5.56D-09 XBig12= 1.35D+00 2.63D-01.
     15 vectors produced by pass  2 Test12= 1.70D-14 5.56D-09 XBig12= 1.42D-01 9.85D-02.
     15 vectors produced by pass  3 Test12= 1.70D-14 5.56D-09 XBig12= 4.93D-03 1.09D-02.
     15 vectors produced by pass  4 Test12= 1.70D-14 5.56D-09 XBig12= 9.82D-05 1.93D-03.
     15 vectors produced by pass  5 Test12= 1.70D-14 5.56D-09 XBig12= 1.41D-06 1.82D-04.
     15 vectors produced by pass  6 Test12= 1.70D-14 5.56D-09 XBig12= 1.14D-08 1.53D-05.
     12 vectors produced by pass  7 Test12= 1.70D-14 5.56D-09 XBig12= 8.39D-11 1.31D-06.
      3 vectors produced by pass  8 Test12= 1.70D-14 5.56D-09 XBig12= 5.89D-13 1.22D-07.
      2 vectors produced by pass  9 Test12= 1.70D-14 5.56D-09 XBig12= 3.81D-15 1.02D-08.
 InvSVY:  IOpt=1 It=  1 EMax= 1.11D-15
 Solved reduced A of dimension   122 with    15 vectors.
 FullF1:  Do perturbations      1 to      18.
 Saving first derivative matrices.
 End of Minotr F.D. properties file   721 does not exist.
 End of Minotr F.D. properties file   722 does not exist.
 End of Minotr F.D. properties file   788 does not exist.
 Leave Link 1002 at Mon Feb 21 20:57:53 2022, MaxMem= 16106127360 cpu:              80.3 elap:               2.9
 (Enter /sw/contrib/gaussian/g16/B01/g16/l811.exe)
 MDV= 16106127360.
 Form MO integral derivatives with frozen-active canonical formalism.
 MOERI=1 MOERIx=1 NAtoms=     5 NAtomX=     5.
 Discarding MO integrals.
 MO basis two electron integral derivatives will not be stored on disk.
 IAlg= 3 DoFC=T DoPWx=T Debug=F.
 Frozen-core window:  NFC=   4 NFV=   0.
 Reordered first order wavefunction length =     18678272
 In DefCFB: NBatch=  1 ICI= 16 ICA=191 LFMax= 96
            Large arrays: LIAPS=   619940160 LIARS=   288257200 words.
 In StABat: MaxSiz= 55 MinSiz= 25 NAtomB=  5
 DoIAMN: NPSUse= 28.
 Leave Link  811 at Mon Feb 21 20:59:11 2022, MaxMem= 16106127360 cpu:            2197.7 elap:              78.6
 (Enter /sw/contrib/gaussian/g16/B01/g16/l804.exe)
 Frozen-core window:  NFC=   4 NFV=   0.
 Closed-shell transformation, MDV= 16106127360 ITran=4 ISComp=1.
 Semi-Direct transformation.
 ModeAB=           2 MOrb=            16 LenV=   16104923009
 LASXX=     67341636 LTotXX=    67341636 LenRXX=    67341636
 LTotAB=    68301760 MaxLAS=    99807120 LenRXY=    99807120
 NonZer=   134683272 LenScr=   202817536 LnRSAI=           0
 LnScr1=           0 LExtra=           0 Total=    369966292
 MaxDsk=          -1 SrtSym=           F ITran=            4
 DoSDTr:  NPSUse= 28
 JobTyp=0 Pass  1:  I=   1 to  16.
 (rs|ai) integrals will be sorted in core.
 Complete sort for first half transformation.
 First half transformation complete.
 Begin second half transformation for I=  10.
 Begin second half transformation for I=  10.
 Complete sort for second half transformation.
 Second half transformation complete.
 Spin components of T(2) and E(2):
     alpha-alpha T2 =       0.3399103610D-01 E2=     -0.1223807236D+00
     alpha-beta  T2 =       0.1867811971D+00 E2=     -0.7002036291D+00
     beta-beta   T2 =       0.3399103610D-01 E2=     -0.1223807236D+00
 ANorm=    0.1584148522D+01
 E2 =    -0.9449650762D+00 EUMP2 =    -0.28044657428917D+03
 Leave Link  804 at Mon Feb 21 20:59:27 2022, MaxMem= 16106127360 cpu:             428.8 elap:              15.4
 (Enter /sw/contrib/gaussian/g16/B01/g16/l1002.exe)
 Minotr:  Closed shell wavefunction.
          Computing MP2/KS-MP2 derivatives.
          Using Z-Vector for PSCF gradient.
          Skipping F1 and S1 gradient terms here.
          IDoAtm=11111
          Frozen-core window.
          Using MO integrals in the linear equations.
          Forming densities via direct SCF.
          Differentiating once with respect to electric field.
                with respect to dipole field.
          Differentiating once with respect to nuclear coordinates.
          Using symmetry in CPHF.
          Requested convergence is 1.0D-10 RMS, and 1.0D-09 maximum.
          NewPWx=F KeepS1=T KeepF1=T KeepIn=T MapXYZ=F SortEE=F KeepMc=T.
          MDV=   16106127360 using IRadAn=       5.
          Solving linear equations separately, MaxMat=       0.
          There are     1 degrees of freedom in the 1st order CPHF.  IDoFFX=0 NUNeed=     1.
 FoFJK:  IHMeth= 1 ICntrl=       0 DoSepK=F KAlg= 0 I1Cent=           0 FoldK=F
 IRaf=         0 NMat=       1 IRICut=       1 DoRegI=T DoRafI=F ISym2E= 0 IDoP0=0 IntGTp=1.
 FoFCou: FMM=F IPFlag=           0 FMFlag=      100000 FMFlg1=           0
         NFxFlg=           0 DoJE=F BraDBF=F KetDBF=F FulRan=T
         wScrn=  0.000000 ICntrl=         0 IOpCl=  0 I1Cent=           0 NGrid=           0
         NMat0=    1 NMatS0=      1 NMatT0=    0 NMatD0=    1 NMtDS0=    0 NMtDT0=    0
 Symmetry not used in FoFCou.
 LinEq1:  Iter=  0 NonCon=     1 RMS=5.93D-03 Max=1.31D-01 NDo=     1
 LinEq1:  Iter=  1 NonCon=     1 RMS=1.89D-03 Max=3.81D-02 NDo=     1
 LinEq1:  Iter=  2 NonCon=     1 RMS=8.63D-04 Max=1.40D-02 NDo=     1
 LinEq1:  Iter=  3 NonCon=     1 RMS=3.85D-04 Max=7.79D-03 NDo=     1
 LinEq1:  Iter=  4 NonCon=     1 RMS=1.18D-04 Max=1.84D-03 NDo=     1
 LinEq1:  Iter=  5 NonCon=     1 RMS=4.35D-05 Max=6.89D-04 NDo=     1
 LinEq1:  Iter=  6 NonCon=     1 RMS=1.95D-05 Max=2.31D-04 NDo=     1
 LinEq1:  Iter=  7 NonCon=     1 RMS=7.88D-06 Max=1.59D-04 NDo=     1
 LinEq1:  Iter=  8 NonCon=     1 RMS=3.41D-06 Max=3.39D-05 NDo=     1
 LinEq1:  Iter=  9 NonCon=     1 RMS=9.42D-07 Max=1.31D-05 NDo=     1
 LinEq1:  Iter= 10 NonCon=     1 RMS=1.85D-07 Max=2.02D-06 NDo=     1
 LinEq1:  Iter= 11 NonCon=     1 RMS=3.48D-08 Max=3.64D-07 NDo=     1
 LinEq1:  Iter= 12 NonCon=     1 RMS=8.34D-09 Max=1.34D-07 NDo=     1
 LinEq1:  Iter= 13 NonCon=     1 RMS=1.50D-09 Max=2.60D-08 NDo=     1
 LinEq1:  Iter= 14 NonCon=     1 RMS=2.71D-10 Max=3.81D-09 NDo=     1
 LinEq1:  Iter= 15 NonCon=     0 RMS=4.97D-11 Max=5.47D-10 NDo=     1
 Linear equations converged to 1.000D-10 1.000D-09 after    15 iterations.
 End of Minotr F.D. properties file   721 does not exist.
 End of Minotr F.D. properties file   722 does not exist.
 End of Minotr F.D. properties file   788 does not exist.
 Leave Link 1002 at Mon Feb 21 20:59:29 2022, MaxMem= 16106127360 cpu:              66.1 elap:               2.4
 (Enter /sw/contrib/gaussian/g16/B01/g16/l1102.exe)
 Use density number 2.
 Symmetrizing basis deriv contribution to polar:
 IMax=3 JMax=2 DiffMx= 0.00D+00
 Leave Link 1102 at Mon Feb 21 20:59:29 2022, MaxMem= 16106127360 cpu:               0.6 elap:               0.0
 (Enter /sw/contrib/gaussian/g16/B01/g16/l1110.exe)
 Forming Gx(P) for generalized density number  2 NAtomX=     5.
 Integral derivatives from FoFJK, PRISM(SPDF).
 Do as many integral derivatives as possible in FoFJK.
 G2DrvN: MDV=   16106126844.
 G2DrvN: will do     6 centers at a time, making    1 passes.
 Calling FoFCou, ICntrl=  3107 FMM=F I1Cent=   0 AccDes= 0.00D+00.
 FoFJK:  IHMeth= 1 ICntrl=    3107 DoSepK=F KAlg= 0 I1Cent=           0 FoldK=F
 IRaf=         0 NMat=       1 IRICut=       1 DoRegI=T DoRafI=F ISym2E= 1 IDoP0=0 IntGTp=1.
 FoFCou: FMM=F IPFlag=           0 FMFlag=      100000 FMFlg1=           0
         NFxFlg=           0 DoJE=F BraDBF=F KetDBF=F FulRan=T
         wScrn=  0.000000 ICntrl=      3107 IOpCl=  0 I1Cent=           0 NGrid=           0
         NMat0=    1 NMatS0=      1 NMatT0=    0 NMatD0=    1 NMtDS0=    0 NMtDT0=    0
 Petite list used in FoFCou.
 End of G2Drv F.D. properties file   721 does not exist.
 End of G2Drv F.D. properties file   722 does not exist.
 End of G2Drv F.D. properties file   788 does not exist.
 Leave Link 1110 at Mon Feb 21 20:59:32 2022, MaxMem= 16106127360 cpu:              82.9 elap:               3.0
 (Enter /sw/contrib/gaussian/g16/B01/g16/l1112.exe)
 MP22nd: MDV=   16106127360
 This link is doing NAtomX=     5 total of    18 degrees of freedom.
 Using ON3 I/O method in MakUI.
 Frozen-core window:  NFC=   4 NFV=   0.
 Using Ix for Sx.
 Use MO integrals over full window.
 Using OV2 memory method for fx*t*t/D, MaxI=    16 DoOO2=F NP=  28.
 R2 and R3 integrals will be kept in memory, NReq=   915591705.
 FoFCou: FMM=F IPFlag=           0 FMFlag=           0 FMFlg1=           0
         NFxFlg=           0 DoJE=F BraDBF=F KetDBF=F FulRan=T
         wScrn=  0.000000 ICntrl=       600 IOpCl=  0 I1Cent=           0 NGrid=           0
         NMat0=    1 NMatS0=      1 NMatT0=    0 NMatD0=    1 NMtDS0=    0 NMtDT0=    0
 Symmetry not used in FoFCou.
 DD1Dir will call FoFMem   1 times, MxPair=       272
 NAB=   136 NAA=     0 NBB=     0.
 Symmetry is being used.
 FoFJK:  IHMeth= 1 ICntrl=       0 DoSepK=F KAlg= 0 I1Cent=           0 FoldK=F
 IRaf=         0 NMat=      18 IRICut=      45 DoRegI=T DoRafI=T ISym2E= 2 IDoP0=3 IntGTp=3.
 Discarding MO integrals.
 Leave Link 1112 at Mon Feb 21 21:00:04 2022, MaxMem= 16106127360 cpu:             870.9 elap:              31.4
 (Enter /sw/contrib/gaussian/g16/B01/g16/l601.exe)
 Copying SCF densities to generalized density rwf, IOpCl= 0 IROHF=0.

 **********************************************************************

            Population analysis using the MP2 Density.

 **********************************************************************

 Orbital symmetries:
       Occupied  (A') (A') (A') (A') (A') (A') (A') (A') (A') (A')
                 (A") (A') (A") (A') (A") (A')
       Virtual   (A') (A") (A') (A') (A') (A") (A') (A') (A") (A')
                 (A") (A') (A') (A') (A") (A') (A') (A") (A') (A')
                 (A') (A') (A') (A') (A') (A") (A') (A") (A') (A')
                 (A") (A') (A") (A') (A') (A") (A') (A") (A') (A')
                 (A") (A') (A") (A') (A') (A") (A') (A') (A") (A')
                 (A") (A') (A') (A') (A") (A') (A") (A') (A") (A')
                 (A') (A') (A") (A') (A') (A") (A') (A") (A') (A')
                 (A") (A') (A') (A") (A") (A') (A') (A") (A') (A')
                 (A') (A") (A') (A") (A") (A') (A') (A") (A') (A')
                 (A") (A') (A') (A") (A') (A") (A') (A") (A') (A')
                 (A") (A') (A") (A') (A') (A') (A") (A') (A") (A')
                 (A") (A') (A') (A') (A") (A') (A') (A') (A") (A')
                 (A") (A') (A") (A') (A') (A") (A") (A') (A") (A')
                 (A') (A') (A') (A") (A") (A") (A') (A') (A') (A')
                 (A") (A') (A") (A') (A') (A") (A') (A') (A') (A')
                 (A") (A') (A') (A") (A') (A") (A') (A") (A') (A")
                 (A') (A") (A') (A") (A') (A") (A") (A') (A") (A')
                 (A") (A') (A") (A') (A") (A') (A") (A") (A') (A')
                 (A') (A') (A') (A') (A') (A') (A') (A') (A') (A')
                 (A')
 The electronic state is 1-A'.
 Alpha  occ. eigenvalues --  -20.69027 -20.68377 -20.65901 -15.81333  -1.62528
 Alpha  occ. eigenvalues --   -1.49464  -1.25319  -0.94847  -0.77196  -0.75970
 Alpha  occ. eigenvalues --   -0.71209  -0.67898  -0.61986  -0.58812  -0.48452
 Alpha  occ. eigenvalues --   -0.47423
 Alpha virt. eigenvalues --    0.02974   0.07104   0.08623   0.10169   0.13387
 Alpha virt. eigenvalues --    0.13387   0.14416   0.15443   0.17842   0.19410
 Alpha virt. eigenvalues --    0.19987   0.20663   0.22078   0.23689   0.23758
 Alpha virt. eigenvalues --    0.26710   0.29222   0.30345   0.31021   0.34388
 Alpha virt. eigenvalues --    0.34955   0.38770   0.42262   0.43217   0.52813
 Alpha virt. eigenvalues --    0.52867   0.55792   0.58019   0.62513   0.64128
 Alpha virt. eigenvalues --    0.67484   0.68469   0.70431   0.71176   0.72344
 Alpha virt. eigenvalues --    0.72915   0.74325   0.79278   0.79415   0.81118
 Alpha virt. eigenvalues --    0.81329   0.83127   0.86816   0.90926   0.92244
 Alpha virt. eigenvalues --    0.92943   0.95637   0.97467   0.98499   1.01703
 Alpha virt. eigenvalues --    1.05193   1.05501   1.08317   1.11725   1.14208
 Alpha virt. eigenvalues --    1.19045   1.21797   1.23343   1.33958   1.35276
 Alpha virt. eigenvalues --    1.38833   1.45580   1.48755   1.50734   1.53767
 Alpha virt. eigenvalues --    1.56837   1.57945   1.61242   1.66470   1.67174
 Alpha virt. eigenvalues --    1.70173   1.79202   1.82966   1.83521   1.88126
 Alpha virt. eigenvalues --    1.90754   1.95678   1.99378   2.00255   2.08126
 Alpha virt. eigenvalues --    2.12328   2.13030   2.15178   2.22665   2.26578
 Alpha virt. eigenvalues --    2.26824   2.28949   2.31468   2.34770   2.38638
 Alpha virt. eigenvalues --    2.42726   2.42826   2.45074   2.45839   2.47901
 Alpha virt. eigenvalues --    2.50061   2.58849   2.59930   2.62212   2.62467
 Alpha virt. eigenvalues --    2.63411   2.67225   2.75248   2.81457   2.84857
 Alpha virt. eigenvalues --    2.89338   2.89415   2.94200   2.95182   3.02740
 Alpha virt. eigenvalues --    3.06353   3.12761   3.20526   3.22356   3.31972
 Alpha virt. eigenvalues --    3.33704   3.52775   3.63742   3.83849   3.84406
 Alpha virt. eigenvalues --    4.14974   4.16866   4.18502   4.25816   4.34806
 Alpha virt. eigenvalues --    4.39360   4.46342   4.52074   4.65564   4.71240
 Alpha virt. eigenvalues --    4.80134   4.82973   4.83180   4.89659   5.02498
 Alpha virt. eigenvalues --    5.07617   5.10763   5.14640   5.17278   5.24473
 Alpha virt. eigenvalues --    5.27474   5.30370   5.33113   5.35140   5.60210
 Alpha virt. eigenvalues --    5.67344   5.78668   5.82934   5.95654   6.16977
 Alpha virt. eigenvalues --    6.31133   6.33568   6.39496   6.49673   6.50959
 Alpha virt. eigenvalues --    6.61549   6.66817   6.70646   6.75798   6.76539
 Alpha virt. eigenvalues --    6.83685   6.89217   7.01823   7.05702   7.05957
 Alpha virt. eigenvalues --    7.09228   7.12292   7.15206   7.18267   7.22649
 Alpha virt. eigenvalues --    7.24281   7.30792   7.32556   7.34757   7.39869
 Alpha virt. eigenvalues --    7.43107   7.48270   7.60977   7.61116   7.63231
 Alpha virt. eigenvalues --    7.67025   7.80072   7.87905   8.09455   8.31568
 Alpha virt. eigenvalues --    8.40919   8.54319  13.40250  14.37653  15.17046
 Alpha virt. eigenvalues --   16.15959
          Condensed to atoms (all electrons):
               1          2          3          4          5
     1  H    0.589688   0.127909   0.020309   0.012532  -0.000603
     2  O    0.127909   8.326402  -0.176239  -0.089149   0.015894
     3  O    0.020309  -0.176239   8.469845  -0.124324  -0.044577
     4  N    0.012532  -0.089149  -0.124324   6.960794  -0.053304
     5  O   -0.000603   0.015894  -0.044577  -0.053304   8.276379
 Mulliken charges:
               1
     1  H    0.250165
     2  O   -0.204816
     3  O   -0.145013
     4  N    0.293452
     5  O   -0.193788
 Sum of Mulliken charges =  -0.00000
 Mulliken charges with hydrogens summed into heavy atoms:
               1
     2  O    0.045349
     3  O   -0.145013
     4  N    0.293452
     5  O   -0.193788
 APT charges:
               1
     1  H    0.298014
     2  O   -0.290251
     3  O   -0.484255
     4  N    0.866209
     5  O   -0.389718
 Sum of APT charges =  -0.00000
 APT charges with hydrogens summed into heavy atoms:
               1
     2  O    0.007764
     3  O   -0.484255
     4  N    0.866209
     5  O   -0.389718
 Electronic spatial extent (au):  <R**2>=            251.6764
 Charge=             -0.0000 electrons
 Dipole moment (field-independent basis, Debye):
    X=              0.5117    Y=              1.3408    Z=              0.0000  Tot=              1.4352
 Quadrupole moment (field-independent basis, Debye-Ang):
   XX=            -22.5161   YY=            -18.6065   ZZ=            -22.0030
   XY=              3.2196   XZ=             -0.0000   YZ=              0.0000
 Traceless Quadrupole moment (field-independent basis, Debye-Ang):
   XX=             -1.4742   YY=              2.4353   ZZ=             -0.9611
   XY=              3.2196   XZ=             -0.0000   YZ=              0.0000
 Octapole moment (field-independent basis, Debye-Ang**2):
  XXX=              2.7887  YYY=             11.2636  ZZZ=             -0.0000  XYY=              7.8631
  XXY=              6.5641  XXZ=              0.0000  XZZ=             -1.5882  YZZ=             -0.8466
  YYZ=              0.0000  XYZ=              0.0000
 Hexadecapole moment (field-independent basis, Debye-Ang**3):
 XXXX=           -158.6757 YYYY=            -88.4803 ZZZZ=            -18.2199 XXXY=            -36.3398
 XXXZ=             -0.0000 YYYX=            -30.3907 YYYZ=             -0.0000 ZZZX=             -0.0000
 ZZZY=             -0.0000 XXYY=            -33.9507 XXZZ=            -30.8868 YYZZ=            -20.4334
 XXYZ=             -0.0000 YYXZ=             -0.0000 ZZXY=            -14.8934
 N-N= 1.170553132660D+02 E-N=-8.962365279838D+02  KE= 2.802076067889D+02
 Symmetry A'   KE= 2.662323554797D+02
 Symmetry A"   KE= 1.397525130915D+01
  Exact polarizability:  33.965   9.334  30.031   0.000   0.000  17.901
 Approx polarizability:  29.047   4.912  23.374   0.000   0.000  15.509
 No NMR shielding tensors so no spin-rotation constants.
 Leave Link  601 at Mon Feb 21 21:00:04 2022, MaxMem= 16106127360 cpu:               4.3 elap:               0.2
 (Enter /sw/contrib/gaussian/g16/B01/g16/l701.exe)
 ... and contract with generalized density number  2.
 Compute integral second derivatives.
 Leave Link  701 at Mon Feb 21 21:00:04 2022, MaxMem= 16106127360 cpu:               6.1 elap:               0.2
 (Enter /sw/contrib/gaussian/g16/B01/g16/l702.exe)
 L702 exits ... SP integral derivatives will be done elsewhere.
 Leave Link  702 at Mon Feb 21 21:00:04 2022, MaxMem= 16106127360 cpu:               0.6 elap:               0.0
 (Enter /sw/contrib/gaussian/g16/B01/g16/l703.exe)
 Integral derivatives from FoFJK, PRISM(SPDF).
 Compute integral second derivatives, UseDBF=F ICtDFT=           0.
 Calling FoFJK, ICntrl=  10100127 FMM=F ISym2X=1 I1Cent= 0 IOpClX= 0 NMat=1 NMatS=1 NMatT=0.
 FoFJK:  IHMeth= 1 ICntrl=10100127 DoSepK=F KAlg= 0 I1Cent=           0 FoldK=F
 IRaf=         0 NMat=       1 IRICut=       1 DoRegI=T DoRafI=F ISym2E= 1 IDoP0=0 IntGTp=1.
 FoFCou: FMM=F IPFlag=           0 FMFlag=      100000 FMFlg1=         800
         NFxFlg=           0 DoJE=F BraDBF=F KetDBF=F FulRan=T
         wScrn=  0.000000 ICntrl=  10100127 IOpCl=  0 I1Cent=           0 NGrid=           0
         NMat0=    1 NMatS0=      1 NMatT0=    0 NMatD0=    1 NMtDS0=    0 NMtDT0=    0
 Petite list used in FoFCou.
 Leave Link  703 at Mon Feb 21 21:00:19 2022, MaxMem= 16106127360 cpu:             420.6 elap:              15.1
 (Enter /sw/contrib/gaussian/g16/B01/g16/l716.exe)
 Dipole        = 2.01335524D-01 5.27523492D-01 4.86278473D-32
 Polarizability= 3.39645602D+01 9.33376229D+00 3.00305160D+01
                 4.74896338D-30 2.37216618D-30 1.79005938D+01
 Full mass-weighted force constant matrix:
 Low frequencies --- -264.6598  -40.7152  -26.9726   -0.0016   -0.0012   -0.0005
 Low frequencies ---   91.3035  231.1482  341.6383
 ******    1 imaginary frequencies (negative Signs) ****** 
 Diagonal vibrational polarizability:
       13.4648725      23.6910039      48.2960615
 Harmonic frequencies (cm**-1), IR intensities (KM/Mole), Raman scattering
 activities (A**4/AMU), depolarization ratios for plane and unpolarized
 incident light, reduced masses (AMU), force constants (mDyne/A),
 and normal coordinates:
                      1                      2                      3
                     A"                     A"                     A'
 Frequencies --   -264.6055               229.5549               341.6296
 Red. masses --      1.1338                11.0969                 8.6597
 Frc consts  --      0.0468                 0.3445                 0.5955
 IR Inten    --    125.0485                 0.4557                 3.1206
  Atom  AN      X      Y      Z        X      Y      Z        X      Y      Z
     1   1    -0.00   0.00   1.00    -0.00   0.00  -0.54     0.53  -0.44  -0.00
     2   8     0.00   0.00  -0.06    -0.00   0.00  -0.32    -0.10  -0.38  -0.00
     3   8    -0.00  -0.00  -0.04    -0.00  -0.00   0.35    -0.15   0.42   0.00
     4   7     0.00  -0.00   0.05     0.00  -0.00   0.53     0.06   0.27   0.00
     5   8    -0.00   0.00  -0.01    -0.00   0.00  -0.45     0.17  -0.25  -0.00
                      4                      5                      6
                     A'                     A'                     A'
 Frequencies --    463.6716               783.3216               968.6398
 Red. masses --     12.1302                12.9516                15.4919
 Frc consts  --      1.5365                 4.6822                 8.5640
 IR Inten    --    200.2528               163.7653                20.3052
  Atom  AN      X      Y      Z        X      Y      Z        X      Y      Z
     1   1     0.44   0.18  -0.00    -0.34   0.19   0.00    -0.15  -0.04  -0.00
     2   8     0.32   0.19  -0.00     0.42   0.09  -0.00    -0.52   0.03  -0.00
     3   8     0.16   0.45   0.00    -0.05  -0.26  -0.00     0.76  -0.01   0.00
     4   7    -0.35  -0.40   0.00    -0.14   0.62   0.00    -0.12   0.23   0.00
     5   8    -0.21  -0.30  -0.00    -0.23  -0.37   0.00    -0.12  -0.22  -0.00
                      7                      8                      9
                     A'                     A'                     A'
 Frequencies --   1371.4369              1677.6959              3778.4388
 Red. masses --      1.1331                13.2732                 1.0675
 Frc consts  --      1.2557                22.0117                 8.9796
 IR Inten    --    150.2236               136.2148                81.3534
  Atom  AN      X      Y      Z        X      Y      Z        X      Y      Z
     1   1     0.99  -0.05  -0.00    -0.34   0.00   0.00     0.10   0.99   0.00
     2   8    -0.03   0.05  -0.00    -0.00  -0.04   0.00    -0.01  -0.06   0.00
     3   8    -0.02  -0.05   0.00     0.01   0.15  -0.00     0.00   0.00  -0.00
     4   7     0.02   0.01   0.00     0.71  -0.06  -0.00    -0.00  -0.00  -0.00
     5   8    -0.03  -0.01  -0.00    -0.60  -0.06   0.00     0.00   0.00   0.00

 -------------------
 - Thermochemistry -
 -------------------
 Temperature   298.150 Kelvin.  Pressure   1.00000 Atm.
 Atom     1 has atomic number  1 and mass   1.00783
 Atom     2 has atomic number  8 and mass  15.99491
 Atom     3 has atomic number  8 and mass  15.99491
 Atom     4 has atomic number  7 and mass  14.00307
 Atom     5 has atomic number  8 and mass  15.99491
 Molecular mass:    62.99564 amu.
 Principal axes and moments of inertia in atomic units:
                           1         2         3
     Eigenvalues --    33.08735 357.49616 390.58351
           X            0.81365  -0.58136   0.00000
           Y            0.58136   0.81365   0.00000
           Z           -0.00000   0.00000   1.00000
 This molecule is an asymmetric top.
 Rotational symmetry number  1.
 Rotational temperatures (Kelvin)      2.61774     0.24228     0.22176
 Rotational constants (GHZ):          54.54476     5.04828     4.62063
    1 imaginary frequencies ignored.
 Zero-point vibrational energy      57506.8 (Joules/Mol)
                                   13.74446 (Kcal/Mol)
 Warning -- explicit consideration of   3 degrees of freedom as
           vibrations may cause significant error
 Vibrational temperatures:    330.28   491.53   667.12  1127.03  1393.66
          (Kelvin)           1973.19  2413.83  5436.33
 
 Zero-point correction=                           0.021903 (Hartree/Particle)
 Thermal correction to Energy=                    0.026010
 Thermal correction to Enthalpy=                  0.026954
 Thermal correction to Gibbs Free Energy=        -0.004208
 Sum of electronic and zero-point Energies=           -280.424671
 Sum of electronic and thermal Energies=              -280.420564
 Sum of electronic and thermal Enthalpies=            -280.419620
 Sum of electronic and thermal Free Energies=         -280.450782
 
                     E (Thermal)             CV                S
                      KCal/Mol        Cal/Mol-Kelvin    Cal/Mol-Kelvin
 Total                   16.322             11.928             65.587
 Electronic               0.000              0.000              0.000
 Translational            0.889              2.981             38.341
 Rotational               0.889              2.981             23.051
 Vibrational             14.544              5.967              4.196
 Vibration     1          0.652              1.796              1.882
 Vibration     2          0.721              1.592              1.205
 Vibration     3          0.821              1.331              0.755
                       Q            Log10(Q)             Ln(Q)
 Total Bot       0.862050D+02          1.935533          4.456728
 Total V=0       0.102398D+13         12.010292         27.654719
 Vib (Bot)       0.180278D-09         -9.744056        -22.436519
 Vib (Bot)    1  0.858167D+00         -0.066428         -0.152957
 Vib (Bot)    2  0.542966D+00         -0.265227         -0.610709
 Vib (Bot)    3  0.365712D+00         -0.436861         -1.005909
 Vib (V=0)       0.214143D+01          0.330703          0.761472
 Vib (V=0)    1  0.149320D+01          0.174119          0.400923
 Vib (V=0)    2  0.123811D+01          0.092761          0.213589
 Vib (V=0)    3  0.111947D+01          0.049013          0.112857
 Electronic      0.100000D+01          0.000000          0.000000
 Translational   0.196526D+08          7.293420         16.793719
 Rotational      0.243315D+05          4.386169         10.099528
 
                                                                title
                                                             IR Spectrum
 
     3                                                                      1         1                                              
     7                                                                      6         3             9     7          4   3   2       
     7                                                                      7         7             6     8          6   4   3       
     8                                                                      8         1             9     3          4   2   0       
 
     X                                                                      X         X             X     X          X   X   X       
     X                                                                      X         X             X     X          X               
     X                                                                      X         X                   X          X               
     X                                                                      X         X                   X          X               
     X                                                                      X         X                   X          X               
     X                                                                      X         X                   X          X               
     X                                                                      X         X                   X          X               
     X                                                                      X         X                   X          X               
                                                                            X         X                   X          X               
                                                                            X         X                   X          X               
                                                                            X         X                   X          X               
                                                                            X         X                   X          X               
                                                                            X         X                   X          X               
                                                                            X         X                   X          X               
                                                                                      X                   X          X               
                                                                                                          X          X               
                                                                                                                     X               
                                                                                                                     X               
                                                                                                                     X               
                                                                                                                     X               
 
 ***** Axes restored to original set *****
 -------------------------------------------------------------------
 Center     Atomic                   Forces (Hartrees/Bohr)
 Number     Number              X              Y              Z
 -------------------------------------------------------------------
      1        1          -0.000234766    0.000000000    0.000031363
      2        8          -0.000377495   -0.000000000   -0.001165318
      3        8          -0.004903846    0.000000000    0.000724445
      4        7           0.004178244   -0.000000000   -0.005750758
      5        8           0.001337863    0.000000000    0.006160267
 -------------------------------------------------------------------
 Cartesian Forces:  Max     0.006160267 RMS     0.002785639
 -----------------------------------------------------------------------------------------------
                       Internal Coordinate Forces (Hartree/Bohr or radian)
  Cent   Atom   N1       Length/X         N2         Alpha/Y        N3         Beta/Z          J
 -----------------------------------------------------------------------------------------------
      1  H 
      2  O        1  -0.000031(     1)
      3  O        2   0.000757(     2)      1   0.000430(     5)
      4  N        3   0.000860(     3)      2   0.002438(     6)      1   0.000000(     8)     0
      5  O        4   0.002679(     4)      3   0.012625(     7)      2   0.000000(     9)     0
 -----------------------------------------------------------------------------------------------
 Internal  Forces:  Max     0.012624560 RMS     0.004396941
 Force constants in Cartesian coordinates: 
                1             2             3             4             5 
      1  0.646420D-01
      2  0.000000D+00 -0.229813D-02
      3  0.547367D-02  0.000000D+00  0.512287D+00
      4 -0.357202D-01  0.000000D+00 -0.163549D-01  0.273380D+00
      5  0.000000D+00  0.289634D-02  0.000000D+00  0.000000D+00  0.211743D-02
      6  0.480986D-01  0.000000D+00 -0.508478D+00  0.344967D-01  0.000000D+00
      7 -0.183259D-01  0.000000D+00  0.123972D-01 -0.219686D+00  0.000000D+00
      8  0.000000D+00  0.105221D-02  0.000000D+00  0.000000D+00 -0.689698D-02
      9 -0.531972D-01  0.000000D+00 -0.642783D-03 -0.195162D-01  0.000000D+00
     10 -0.903005D-02  0.000000D+00 -0.483306D-02 -0.180052D-01  0.000000D+00
     11  0.000000D+00 -0.268835D-02  0.000000D+00  0.000000D+00 -0.443045D-02
     12  0.548820D-02  0.000000D+00 -0.443498D-02  0.117412D-01  0.000000D+00
     13 -0.156579D-02  0.000000D+00  0.331718D-02  0.311490D-04  0.000000D+00
     14  0.000000D+00  0.103793D-02  0.000000D+00  0.000000D+00  0.631366D-02
     15 -0.586322D-02  0.000000D+00  0.126854D-02 -0.103668D-01  0.000000D+00
                6             7             8             9            10 
      6  0.594469D+00
      7 -0.214475D-01  0.343577D+00
      8  0.000000D+00  0.000000D+00  0.525062D-02
      9 -0.784939D-01  0.406590D-01  0.000000D+00  0.183830D+00
     10 -0.516665D-01 -0.753607D-01  0.000000D+00  0.171416D+00  0.829205D+00
     11  0.000000D+00  0.000000D+00  0.576866D-02  0.000000D+00  0.000000D+00
     12  0.177021D-01  0.619157D-01  0.000000D+00 -0.842874D-01 -0.291829D-01
     13 -0.948129D-02 -0.302040D-01  0.000000D+00 -0.139361D+00 -0.726809D+00
     14  0.000000D+00  0.000000D+00 -0.517451D-02  0.000000D+00  0.000000D+00
     15 -0.251995D-01 -0.935245D-01  0.000000D+00 -0.204059D-01 -0.857331D-01
               11            12            13            14            15 
     11  0.124250D-01
     12  0.000000D+00  0.183465D+00
     13  0.000000D+00 -0.499623D-01  0.758548D+00
     14 -0.110749D-01  0.000000D+00  0.000000D+00  0.889778D-02
     15  0.000000D+00 -0.112444D+00  0.195488D+00  0.000000D+00  0.156781D+00
 Force constants in internal coordinates: 
                1             2             3             4             5 
      1  0.512287D+00
      2 -0.102824D-01  0.282284D+00
      3  0.328005D-02  0.341807D-02  0.120485D+00
      4 -0.351661D-02  0.657275D-02  0.155783D+00  0.813628D+00
      5  0.978809D-02  0.654592D-01  0.227513D-02  0.519057D-02  0.216683D+00
      6  0.454720D-02  0.601032D-01  0.402005D-01  0.238786D-01  0.314117D-01
      7 -0.109805D-02  0.403619D-01  0.418115D-01  0.941152D-01  0.217390D-01
      8  0.000000D+00  0.000000D+00  0.000000D+00  0.000000D+00  0.000000D+00
      9  0.000000D+00  0.000000D+00  0.000000D+00  0.000000D+00  0.000000D+00
                6             7             8             9 
      6  0.282697D+00
      7  0.981723D-01  0.503702D+00
      8  0.000000D+00  0.000000D+00 -0.768287D-02
      9  0.000000D+00  0.000000D+00 -0.397219D-02  0.413169D-01
 Leave Link  716 at Mon Feb 21 21:00:20 2022, MaxMem= 16106127360 cpu:               1.4 elap:               0.1
 (Enter /sw/contrib/gaussian/g16/B01/g16/l103.exe)

 GradGradGradGradGradGradGradGradGradGradGradGradGradGradGradGradGradGrad
 Berny optimization.
 Search for a local minimum.
 Step number   1 out of a maximum of    2
 All quantities printed in internal units (Hartrees-Bohrs-Radians)
 Second derivative matrix not updated -- analytic derivatives used.
 The second derivative matrix:
                          r1        r2        r3        r4        a1
           r1           0.51229
           r2          -0.01028   0.28228
           r3           0.00328   0.00342   0.12049
           r4          -0.00352   0.00657   0.15578   0.81363
           a1           0.00979   0.06546   0.00228   0.00519   0.21668
           a2           0.00455   0.06010   0.04020   0.02388   0.03141
           a3          -0.00110   0.04036   0.04181   0.09412   0.02174
           d1           0.00000   0.00000  -0.00000  -0.00000   0.00000
           d2           0.00000   0.00000  -0.00000  -0.00000   0.00000
                          a2        a3        d1        d2
           a2           0.28270
           a3           0.09817   0.50370
           d1           0.00000   0.00000  -0.00768
           d2           0.00000   0.00000  -0.00397   0.04132
 ITU=  0
     Eigenvalues ---   -0.00800   0.04164   0.08072   0.17538   0.22453
     Eigenvalues ---    0.32727   0.51296   0.52941   0.88151
 Eigenvalue     1 is  -8.00D-03 should be greater than     0.000000 Eigenvector:
                          d1        d2        r3        a2        a3
   1                    0.99677   0.08028   0.00000  -0.00000  -0.00000
                          a1        r2        r1        r4
   1                    0.00000  -0.00000  -0.00000  -0.00000
 Angle between quadratic step and forces=  18.18 degrees.
 Linear search not attempted -- first point.
 Variable       Old X    -DE/DX   Delta X   Delta X   Delta X     New X
                                 (Linear)    (Quad)   (Total)
    r1        1.83110  -0.00003   0.00000   0.00000   0.00000   1.83110
    r2        2.74940   0.00076   0.00000  -0.00092  -0.00092   2.74848
    r3        2.75670   0.00086   0.00000  -0.00292  -0.00292   2.75378
    r4        2.21236   0.00268   0.00000   0.00094   0.00094   2.21330
    a1        1.70335   0.00043   0.00000  -0.00032  -0.00032   1.70304
    a2        1.78543   0.00244   0.00000   0.00047   0.00047   1.78589
    a3        1.87792   0.01262   0.00000   0.02513   0.02513   1.90304
    d1        3.14159   0.00000   0.00000   0.00000   0.00000   3.14159
    d2        3.14159   0.00000   0.00000   0.00000   0.00000   3.14159
         Item               Value     Threshold  Converged?
 Maximum Force            0.012625     0.000450     NO 
 RMS     Force            0.004397     0.000300     NO 
 Maximum Displacement     0.025127     0.001800     NO 
 RMS     Displacement     0.008446     0.001200     NO 
 Predicted change in Energy=-1.587630D-04
                       ----------------------------
                       ! Non-Optimized Parameters !
                       ! (Angstroms and Degrees)  !
 ----------------------                            ----------------------
 !      Name          Value   Derivative information (Atomic Units)     !
 ------------------------------------------------------------------------
 !       r1          0.969    -DE/DX =    0.0                           !
 !       r2          1.4544   -DE/DX =    0.0008                        !
 !       r3          1.4572   -DE/DX =    0.0009                        !
 !       r4          1.1712   -DE/DX =    0.0027                        !
 !       a1         97.5768   -DE/DX =    0.0004                        !
 !       a2        102.3242   -DE/DX =    0.0024                        !
 !       a3        109.0364   -DE/DX =    0.0126                        !
 !       d1        180.0      -DE/DX =    0.0                           !
 !       d2        180.0      -DE/DX =    0.0                           !
 ------------------------------------------------------------------------
 GradGradGradGradGradGradGradGradGradGradGradGradGradGradGradGradGradGrad

 Leave Link  103 at Mon Feb 21 21:00:20 2022, MaxMem= 16106127360 cpu:               0.5 elap:               0.0
 (Enter /sw/contrib/gaussian/g16/B01/g16/l9999.exe)

 ----------------------------------------------------------------------

 Electric dipole moment (input orientation):
 (Debye = 10**-18 statcoulomb cm , SI units = C m)
                  (au)            (Debye)         (10**-30 SI)
   Tot        0.564639D+00      0.143517D+01      0.478721D+01
   x         -0.149476D+00     -0.379929D+00     -0.126731D+01
   y          0.000000D+00      0.000000D+00      0.000000D+00
   z         -0.544494D+00     -0.138397D+01     -0.461641D+01

 Dipole polarizability, Alpha (input orientation).
 (esu units = cm**3 , SI units = C**2 m**2 J**-1)
 Alpha(0;0):
               (au)            (10**-24 esu)      (10**-40 SI)
   iso        0.272986D+02      0.404523D+01      0.450092D+01
   aniso      0.217184D+02      0.321833D+01      0.358088D+01
   xx         0.321344D+02      0.476183D+01      0.529825D+01
   yx         0.000000D+00      0.000000D+00      0.000000D+00
   yy         0.179006D+02      0.265259D+01      0.295141D+01
   zx         0.953780D+01      0.141336D+01      0.157257D+01
   zy         0.000000D+00      0.000000D+00      0.000000D+00
   zz         0.318607D+02      0.472126D+01      0.525311D+01

 ----------------------------------------------------------------------

 Dipole orientation:
     1          0.00000000          0.00000000          0.00000000
     8         -0.48474304         -0.00000000         -1.76577055
     8          2.04710832          0.00000000         -2.83764914
     7          1.53772912          0.00000000         -5.54688163
     8          3.48666625          0.00000000         -6.59386162

 Electric dipole moment (dipole orientation):
 (Debye = 10**-18 statcoulomb cm , SI units = C m)
                  (au)            (Debye)         (10**-30 SI)
   Tot        0.564639D+00      0.143517D+01      0.478721D+01
   x          0.000000D+00      0.000000D+00      0.000000D+00
   y          0.000000D+00      0.000000D+00      0.000000D+00
   z          0.564639D+00      0.143517D+01      0.478721D+01

 Dipole polarizability, Alpha (dipole orientation).
 (esu units = cm**3 , SI units = C**2 m**2 J**-1)
 Alpha(0;0):
               (au)            (10**-24 esu)      (10**-40 SI)
   iso        0.272986D+02      0.404523D+01      0.450092D+01
   aniso      0.217184D+02      0.321833D+01      0.358088D+01
   xx         0.272456D+02      0.403737D+01      0.449219D+01
   yx         0.000000D+00      0.000000D+00      0.000000D+00
   yy         0.179006D+02      0.265259D+01      0.295141D+01
   zx        -0.827085D+01     -0.122561D+01     -0.136368D+01
   zy         0.000000D+00      0.000000D+00      0.000000D+00
   zz         0.367495D+02      0.544572D+01      0.605918D+01

 ----------------------------------------------------------------------
 1\1\GINC-N2127\Freq\RMP2-FC\Aug-CC-pVTZ\H1N1O3\CGAVINH\21-Feb-2022\1\\
 #p freq mp2/aug-cc-pvtz density=current\\title\\0,1\H\O,1,r1\O,2,r2,1,
 a1\N,3,r3,2,a2,1,d1,0\O,4,r4,3,a3,2,d2,0\\r1=0.96897556\r2=1.45491931\
 r3=1.45878406\r4=1.17072885\a1=97.59494903\a2=102.29752444\a3=107.5967
 261\d1=180.\d2=180.\\Version=ES64L-G16RevB.01\State=1-A'\HF=-279.50160
 92\MP2=-280.4465743\RMSD=3.730e-09\RMSF=2.786e-03\ZeroPoint=0.0219032\
 Thermal=0.0260103\Dipole=-0.1494757,0.,-0.5444943\DipoleDeriv=0.265492
 3,0.,0.0478549,0.,0.3552601,0.,0.0808796,0.,0.27329,-0.3316678,0.,-0.2
 080913,0.,-0.3145744,0.,-0.1133186,0.,-0.2245096,-0.0376089,0.,0.15407
 5,0.,-0.088778,0.,-0.744463,0.,-1.3263783,0.8976685,0.,0.9016241,0.,0.
 071029,0.,0.9106237,0.,1.6299301,-0.7938841,0.,-0.8954627,0.,-0.022936
 7,0.,-0.1337217,0.,-0.3523322\Polar=32.1344207,0.,17.9005938,9.5377963
 ,0.,31.8606556\Quadrupole=-1.5289212,-0.7145668,2.2434881,0.,2.0698298
 ,0.\PG=CS [SG(H1N1O3)]\NImag=1\\0.06464197,0.,-0.00229813,0.00547367,0
 .,0.51228734,-0.03572022,0.,-0.01635494,0.27338046,0.,0.00289634,0.,0.
 ,0.00211743,0.04809856,0.,-0.50847812,0.03449671,0.,0.59446941,-0.0183
 2592,0.,0.01239716,-0.21968615,0.,-0.02144747,0.34357674,0.,0.00105221
 ,0.,0.,-0.00689698,0.,0.,0.00525062,-0.05319720,0.,-0.00064278,-0.0195
 1620,0.,-0.07849392,0.04065903,0.,0.18383000,-0.00903005,0.,-0.0048330
 6,-0.01800524,0.,-0.05166650,-0.07536072,0.,0.17141554,0.82920513,0.,-
 0.00268835,0.,0.,-0.00443045,0.,0.,0.00576866,0.,0.,0.01242499,0.00548
 820,0.,-0.00443498,0.01174119,0.,0.01770212,0.06191575,0.,-0.08428744,
 -0.02918288,0.,0.18346466,-0.00156579,0.,0.00331718,0.00003115,0.,-0.0
 0948129,-0.03020395,0.,-0.13936116,-0.72680913,0.,-0.04996226,0.758547
 72,0.,0.00103793,0.,0.,0.00631366,0.,0.,-0.00517451,0.,0.,-0.01107486,
 0.,0.,0.00889778,-0.00586322,0.,0.00126854,-0.01036675,0.,-0.02519949,
 -0.09352446,0.,-0.02040585,-0.08573310,0.,-0.11244436,0.19548753,0.,0.
 15678116\\0.00023477,0.,-0.00003136,0.00037749,0.,0.00116532,0.0049038
 5,0.,-0.00072445,-0.00417824,0.,0.00575076,-0.00133786,0.,-0.00616027\
 \\@


 HE THAT RISETH LATE MUST TROT ALL DAY.

                  -- BENJAMIN FRANKLIN
 Job cpu time:       0 days  1 hours 57 minutes 15.2 seconds.
 Elapsed time:       0 days  0 hours  4 minutes 14.5 seconds.
 File lengths (MBytes):  RWF=   7239 Int=      0 D2E=      0 Chk=      8 Scr=      1
 Normal termination of Gaussian 16 at Mon Feb 21 21:00:21 2022.
