 Entering Gaussian System, Link 0=g16
 Input=hoono_d1_172p3999.gjf
 Output=hoono_d1_172p3999.log
 Initial command:
 /sw/contrib/gaussian/g16/B01/g16/l1.exe "/scr/Gau-3006.inp" -scrdir="/scr/"
 Entering Link 1 = /sw/contrib/gaussian/g16/B01/g16/l1.exe PID=      3007.
  
 Copyright (c) 1988-2017, Gaussian, Inc.  All Rights Reserved.
  
 This is part of the Gaussian(R) 16 program.  It is based on
 the Gaussian(R) 09 system (copyright 2009, Gaussian, Inc.),
 the Gaussian(R) 03 system (copyright 2003, Gaussian, Inc.),
 the Gaussian(R) 98 system (copyright 1998, Gaussian, Inc.),
 the Gaussian(R) 94 system (copyright 1995, Gaussian, Inc.),
 the Gaussian 92(TM) system (copyright 1992, Gaussian, Inc.),
 the Gaussian 90(TM) system (copyright 1990, Gaussian, Inc.),
 the Gaussian 88(TM) system (copyright 1988, Gaussian, Inc.),
 the Gaussian 86(TM) system (copyright 1986, Carnegie Mellon
 University), and the Gaussian 82(TM) system (copyright 1983,
 Carnegie Mellon University). Gaussian is a federally registered
 trademark of Gaussian, Inc.
  
 This software contains proprietary and confidential information,
 including trade secrets, belonging to Gaussian, Inc.
  
 This software is provided under written license and may be
 used, copied, transmitted, or stored only in accord with that
 written license.
  
 The following legend is applicable only to US Government
 contracts under FAR:
  
                    RESTRICTED RIGHTS LEGEND
  
 Use, reproduction and disclosure by the US Government is
 subject to restrictions as set forth in subparagraphs (a)
 and (c) of the Commercial Computer Software - Restricted
 Rights clause in FAR 52.227-19.
  
 Gaussian, Inc.
 340 Quinnipiac St., Bldg. 40, Wallingford CT 06492
  
  
 ---------------------------------------------------------------
 Warning -- This program may not be used in any manner that
 competes with the business of Gaussian, Inc. or will provide
 assistance to any competitor of Gaussian, Inc.  The licensee
 of this program is prohibited from giving any competitor of
 Gaussian, Inc. access to this program.  By using this program,
 the user acknowledges that Gaussian, Inc. is engaged in the
 business of creating and licensing software in the field of
 computational chemistry and represents and warrants to the
 licensee that it is not a competitor of Gaussian, Inc. and that
 it will not use this program in any manner prohibited above.
 ---------------------------------------------------------------
  

 Cite this work as:
 Gaussian 16, Revision B.01,
 M. J. Frisch, G. W. Trucks, H. B. Schlegel, G. E. Scuseria, 
 M. A. Robb, J. R. Cheeseman, G. Scalmani, V. Barone, 
 G. A. Petersson, H. Nakatsuji, X. Li, M. Caricato, A. V. Marenich, 
 J. Bloino, B. G. Janesko, R. Gomperts, B. Mennucci, H. P. Hratchian, 
 J. V. Ortiz, A. F. Izmaylov, J. L. Sonnenberg, D. Williams-Young, 
 F. Ding, F. Lipparini, F. Egidi, J. Goings, B. Peng, A. Petrone, 
 T. Henderson, D. Ranasinghe, V. G. Zakrzewski, J. Gao, N. Rega, 
 G. Zheng, W. Liang, M. Hada, M. Ehara, K. Toyota, R. Fukuda, 
 J. Hasegawa, M. Ishida, T. Nakajima, Y. Honda, O. Kitao, H. Nakai, 
 T. Vreven, K. Throssell, J. A. Montgomery, Jr., J. E. Peralta, 
 F. Ogliaro, M. J. Bearpark, J. J. Heyd, E. N. Brothers, K. N. Kudin, 
 V. N. Staroverov, T. A. Keith, R. Kobayashi, J. Normand, 
 K. Raghavachari, A. P. Rendell, J. C. Burant, S. S. Iyengar, 
 J. Tomasi, M. Cossi, J. M. Millam, M. Klene, C. Adamo, R. Cammi, 
 J. W. Ochterski, R. L. Martin, K. Morokuma, O. Farkas, 
 J. B. Foresman, and D. J. Fox, Gaussian, Inc., Wallingford CT, 2016.
 
 ******************************************
 Gaussian 16:  ES64L-G16RevB.01 20-Dec-2017
                21-Feb-2022 
 ******************************************
 %nproc=28
 Will use up to   28 processors via shared memory.
 %mem=120GB
 %chk=hoono_d1_172p3999.chk
 ---------------------------------------
 #p freq mp2/aug-cc-pvtz density=current
 ---------------------------------------
 1/10=4,30=1,38=1/1,3;
 2/12=2,17=6,18=5,40=1/2;
 3/5=16,6=1,7=10,11=9,25=1,30=1,71=2,140=1/1,2,3;
 4//1;
 5/5=2,38=5,98=1/2;
 8/6=3,8=1,10=1,19=11,30=-1/1;
 9/15=3,16=-3/6;
 11/6=1,8=1,15=11,17=12,24=-1,27=1,28=-2,29=300,32=6,42=3/1,2,10;
 10/6=2,21=1/2;
 8/6=4,8=1,10=1,19=11,30=-1/11,4;
 10/5=1,20=4/2;
 11/12=2,14=11,16=1,17=2,28=-2,42=3,76=2/2,10,12;
 6/7=2,8=2,9=2,10=2,22=-1/1;
 7/8=1,10=1,12=2,25=1,44=2/1,2,3,16;
 1/10=4,30=1/3;
 99//99;
 Leave Link    1 at Mon Feb 21 21:03:21 2022, MaxMem= 16106127360 cpu:               2.2 elap:               0.1
 (Enter /sw/contrib/gaussian/g16/B01/g16/l101.exe)
 -----
 title
 -----
 Symbolic Z-matrix:
 Charge =  0 Multiplicity = 1
 H
 O                    1    r1
 O                    2    r2       1    a1
 N                    3    r3       2    a2       1    d1       0
 O                    4    r4       3    a3       2    d2       0
       Variables:
  r1                    0.96898                  
  r2                    1.45492                  
  r3                    1.45878                  
  r4                    1.17073                  
  a1                   97.59495                  
  a2                  102.29752                  
  a3                  109.06955                  
  d1                  172.39995                  
  d2                  180.                       
 
 ITRead=  0  0  0  0  0
 MicOpt= -1 -1 -1 -1 -1
 NAtoms=      5 NQM=        5 NQMF=       0 NMMI=      0 NMMIF=      0
                NMic=       0 NMicF=      0.
                    Isotopes and Nuclear Properties:
 (Nuclear quadrupole moments (NQMom) in fm**2, nuclear magnetic moments (NMagM)
  in nuclear magnetons)

  Atom         1           2           3           4           5
 IAtWgt=           1          16          16          14          16
 AtmWgt=   1.0078250  15.9949146  15.9949146  14.0030740  15.9949146
 NucSpn=           1           0           0           2           0
 AtZEff=  -0.0000000  -0.0000000  -0.0000000  -0.0000000  -0.0000000
 NQMom=    0.0000000   0.0000000   0.0000000   2.0440000   0.0000000
 NMagM=    2.7928460   0.0000000   0.0000000   0.4037610   0.0000000
 AtZNuc=   1.0000000   8.0000000   8.0000000   7.0000000   8.0000000
 Leave Link  101 at Mon Feb 21 21:03:21 2022, MaxMem= 16106127360 cpu:               2.5 elap:               0.1
 (Enter /sw/contrib/gaussian/g16/B01/g16/l103.exe)

 GradGradGradGradGradGradGradGradGradGradGradGradGradGradGradGradGradGrad
 Berny optimization.
 Initialization pass.
                       ----------------------------
                       !    Initial Parameters    !
                       ! (Angstroms and Degrees)  !
 ----------------------                            ----------------------
 !      Name          Value   Derivative information (Atomic Units)     !
 ------------------------------------------------------------------------
 !       r1          0.969    calculate D2E/DX2 analytically            !
 !       r2          1.4549   calculate D2E/DX2 analytically            !
 !       r3          1.4588   calculate D2E/DX2 analytically            !
 !       r4          1.1707   calculate D2E/DX2 analytically            !
 !       a1         97.5949   calculate D2E/DX2 analytically            !
 !       a2        102.2975   calculate D2E/DX2 analytically            !
 !       a3        109.0696   calculate D2E/DX2 analytically            !
 !       d1        172.4      calculate D2E/DX2 analytically            !
 !       d2        180.0      calculate D2E/DX2 analytically            !
 ------------------------------------------------------------------------
 Trust Radius=3.00D-01 FncErr=1.00D-07 GrdErr=1.00D-07 EigMax=2.50D+02 EigMin=1.00D-04
 Number of steps in this run=      2 maximum allowed number of steps=      2.
 GradGradGradGradGradGradGradGradGradGradGradGradGradGradGradGradGradGrad

 Leave Link  103 at Mon Feb 21 21:03:21 2022, MaxMem= 16106127360 cpu:               0.5 elap:               0.0
 (Enter /sw/contrib/gaussian/g16/B01/g16/l202.exe)
                          Input orientation:                          
 ---------------------------------------------------------------------
 Center     Atomic      Atomic             Coordinates (Angstroms)
 Number     Number       Type             X           Y           Z
 ---------------------------------------------------------------------
      1          1           0        0.000000    0.000000    0.000000
      2          8           0        0.000000    0.000000    0.968976
      3          8           0        1.442156    0.000000    1.161271
      4          7           0        1.563406    0.188508    2.602733
      5          8           0        2.697683    0.206766    2.892026
 ---------------------------------------------------------------------
                    Distance matrix (angstroms):
                    1          2          3          4          5
     1  H    0.000000
     2  O    0.968976   0.000000
     3  O    1.851584   1.454919   0.000000
     4  N    3.042038   2.269127   1.458784   0.000000
     5  O    3.960310   3.319392   2.148165   1.170729   0.000000
 Stoichiometry    HNO3
 Framework group  C1[X(HNO3)]
 Deg. of freedom     9
 Full point group                 C1      NOp   1
 Largest Abelian subgroup         C1      NOp   1
 Largest concise Abelian subgroup C1      NOp   1
                         Standard orientation:                         
 ---------------------------------------------------------------------
 Center     Atomic      Atomic             Coordinates (Angstroms)
 Number     Number       Type             X           Y           Z
 ---------------------------------------------------------------------
      1          1           0       -2.244725    0.430044    0.105978
      2          8           0       -1.599055   -0.283215   -0.009284
      3          8           0       -0.400279    0.541234   -0.012425
      4          7           0        0.663365   -0.456970    0.004921
      5          8           0        1.699480    0.088074    0.004156
 ---------------------------------------------------------------------
 Rotational constants (GHZ):          54.9035032           5.0114267           4.5934932
 Leave Link  202 at Mon Feb 21 21:03:21 2022, MaxMem= 16106127360 cpu:               0.3 elap:               0.0
 (Enter /sw/contrib/gaussian/g16/B01/g16/l301.exe)
 Standard basis: Aug-CC-pVTZ (5D, 7F)
 Ernie: Thresh=  0.10000D-02 Tol=  0.10000D-05 Strict=F.
 Ernie:  12 primitive shells out of 131 were deleted.
 There are   245 symmetry adapted cartesian basis functions of A   symmetry.
 There are   207 symmetry adapted basis functions of A   symmetry.
   207 basis functions,   315 primitive gaussians,   245 cartesian basis functions
    16 alpha electrons       16 beta electrons
       nuclear repulsion energy       116.8744887659 Hartrees.
 IExCor=    0 DFT=F Ex=HF Corr=None ExCW=0 ScaHFX=  1.000000
 ScaDFX=  1.000000  1.000000  1.000000  1.000000 ScalE2=  1.000000  1.000000
 IRadAn=      5 IRanWt=     -1 IRanGd=            0 ICorTp=0 IEmpDi=  4
 NAtoms=    5 NActive=    5 NUniq=    5 SFac= 1.00D+00 NAtFMM=   60 NAOKFM=F Big=F
 Integral buffers will be    131072 words long.
 Raffenetti 1 integral format.
 Two-electron integral symmetry is turned on.
 Leave Link  301 at Mon Feb 21 21:03:21 2022, MaxMem= 16106127360 cpu:               1.8 elap:               0.1
 (Enter /sw/contrib/gaussian/g16/B01/g16/l302.exe)
 NPDir=0 NMtPBC=     1 NCelOv=     1 NCel=       1 NClECP=     1 NCelD=      1
         NCelK=      1 NCelE2=     1 NClLst=     1 CellRange=     0.0.
 One-electron integrals computed using PRISM.
 One-electron integral symmetry used in STVInt
 NBasis=   207 RedAO= T EigKep=  1.82D-04  NBF=   207
 NBsUse=   207 1.00D-06 EigRej= -1.00D+00 NBFU=   207
 Leave Link  302 at Mon Feb 21 21:03:21 2022, MaxMem= 16106127360 cpu:               5.1 elap:               0.2
 (Enter /sw/contrib/gaussian/g16/B01/g16/l303.exe)
 DipDrv:  MaxL=1.
 Leave Link  303 at Mon Feb 21 21:03:21 2022, MaxMem= 16106127360 cpu:               1.1 elap:               0.1
 (Enter /sw/contrib/gaussian/g16/B01/g16/l401.exe)
 ExpMin= 2.53D-02 ExpMax= 1.53D+04 ExpMxC= 5.22D+02 IAcc=3 IRadAn=         5 AccDes= 0.00D+00
 Harris functional with IExCor=  205 and IRadAn=       5 diagonalized for initial guess.
 HarFok:  IExCor=  205 AccDes= 0.00D+00 IRadAn=         5 IDoV= 1 UseB2=F ITyADJ=14
 ICtDFT=  3500011 ScaDFX=  1.000000  1.000000  1.000000  1.000000
 FoFCou: FMM=F IPFlag=           0 FMFlag=      100000 FMFlg1=           0
         NFxFlg=           0 DoJE=T BraDBF=F KetDBF=T FulRan=T
         wScrn=  0.000000 ICntrl=       500 IOpCl=  0 I1Cent=   200000004 NGrid=           0
         NMat0=    1 NMatS0=      1 NMatT0=    0 NMatD0=    1 NMtDS0=    0 NMtDT0=    0
 Petite list used in FoFCou.
 Harris En= -279.628733130366    
 JPrj=0 DoOrth=F DoCkMO=F.
 Leave Link  401 at Mon Feb 21 21:03:22 2022, MaxMem= 16106127360 cpu:               7.2 elap:               0.3
 (Enter /sw/contrib/gaussian/g16/B01/g16/l502.exe)
 Keep R1 ints in memory in canonical form, NReq=245616937.
 FoFCou: FMM=F IPFlag=           0 FMFlag=           0 FMFlg1=           0
         NFxFlg=           0 DoJE=F BraDBF=F KetDBF=F FulRan=T
         wScrn=  0.000000 ICntrl=       600 IOpCl=  0 I1Cent=           0 NGrid=           0
         NMat0=    1 NMatS0=  21528 NMatT0=    0 NMatD0=    1 NMtDS0=    0 NMtDT0=    0
 Symmetry not used in FoFCou.
 Two-electron integral symmetry not used.
 Closed shell SCF:
 Using DIIS extrapolation, IDIIS=  1040.
 NGot= 16106127360 LenX= 15874260251 LenY= 15874199785
 Requested convergence on RMS density matrix=1.00D-08 within 128 cycles.
 Requested convergence on MAX density matrix=1.00D-06.
 Requested convergence on             energy=1.00D-06.
 No special actions if energy rises.

 Cycle   1  Pass 1  IDiag  1:
 E= -279.370537283451    
 DIIS: error= 2.48D-02 at cycle   1 NSaved=   1.
 NSaved= 1 IEnMin= 1 EnMin= -279.370537283451     IErMin= 1 ErrMin= 2.48D-02
 ErrMax= 2.48D-02  0.00D+00 EMaxC= 1.00D-01 BMatC= 4.38D-01 BMatP= 4.38D-01
 IDIUse=3 WtCom= 7.52D-01 WtEn= 2.48D-01
 Coeff-Com:  0.100D+01
 Coeff-En:   0.100D+01
 Coeff:      0.100D+01
 Gap=     0.518 Goal=   None    Shift=    0.000
 GapD=    0.518 DampG=2.000 DampE=0.500 DampFc=1.0000 IDamp=-1.
 RMSDP=1.62D-03 MaxDP=9.92D-02              OVMax= 1.13D-01

 Cycle   2  Pass 1  IDiag  1:
 E= -279.452469461272     Delta-E=       -0.081932177821 Rises=F Damp=F
 DIIS: error= 1.75D-02 at cycle   2 NSaved=   2.
 NSaved= 2 IEnMin= 2 EnMin= -279.452469461272     IErMin= 2 ErrMin= 1.75D-02
 ErrMax= 1.75D-02  0.00D+00 EMaxC= 1.00D-01 BMatC= 7.18D-02 BMatP= 4.38D-01
 IDIUse=3 WtCom= 8.25D-01 WtEn= 1.75D-01
 Coeff-Com:  0.195D+00 0.805D+00
 Coeff-En:   0.000D+00 0.100D+01
 Coeff:      0.161D+00 0.839D+00
 Gap=     0.532 Goal=   None    Shift=    0.000
 RMSDP=9.00D-04 MaxDP=3.73D-02 DE=-8.19D-02 OVMax= 6.81D-02

 Cycle   3  Pass 1  IDiag  1:
 E= -279.481668503524     Delta-E=       -0.029199042252 Rises=F Damp=F
 DIIS: error= 1.01D-02 at cycle   3 NSaved=   3.
 NSaved= 3 IEnMin= 3 EnMin= -279.481668503524     IErMin= 3 ErrMin= 1.01D-02
 ErrMax= 1.01D-02  0.00D+00 EMaxC= 1.00D-01 BMatC= 2.86D-02 BMatP= 7.18D-02
 IDIUse=3 WtCom= 8.99D-01 WtEn= 1.01D-01
 Coeff-Com: -0.330D-01 0.378D+00 0.655D+00
 Coeff-En:   0.000D+00 0.240D+00 0.760D+00
 Coeff:     -0.297D-01 0.364D+00 0.666D+00
 Gap=     0.510 Goal=   None    Shift=    0.000
 RMSDP=3.76D-04 MaxDP=1.54D-02 DE=-2.92D-02 OVMax= 3.80D-02

 Cycle   4  Pass 1  IDiag  1:
 E= -279.500666723735     Delta-E=       -0.018998220211 Rises=F Damp=F
 DIIS: error= 1.27D-03 at cycle   4 NSaved=   4.
 NSaved= 4 IEnMin= 4 EnMin= -279.500666723735     IErMin= 4 ErrMin= 1.27D-03
 ErrMax= 1.27D-03  0.00D+00 EMaxC= 1.00D-01 BMatC= 4.90D-04 BMatP= 2.86D-02
 IDIUse=3 WtCom= 9.87D-01 WtEn= 1.27D-02
 Coeff-Com: -0.117D-01 0.575D-01 0.158D+00 0.796D+00
 Coeff-En:   0.000D+00 0.000D+00 0.000D+00 0.100D+01
 Coeff:     -0.115D-01 0.568D-01 0.156D+00 0.798D+00
 Gap=     0.502 Goal=   None    Shift=    0.000
 RMSDP=9.01D-05 MaxDP=2.18D-03 DE=-1.90D-02 OVMax= 1.10D-02

 Cycle   5  Pass 1  IDiag  1:
 E= -279.501339842860     Delta-E=       -0.000673119125 Rises=F Damp=F
 DIIS: error= 7.20D-04 at cycle   5 NSaved=   5.
 NSaved= 5 IEnMin= 5 EnMin= -279.501339842860     IErMin= 5 ErrMin= 7.20D-04
 ErrMax= 7.20D-04  0.00D+00 EMaxC= 1.00D-01 BMatC= 8.70D-05 BMatP= 4.90D-04
 IDIUse=3 WtCom= 9.93D-01 WtEn= 7.20D-03
 Coeff-Com:  0.613D-02-0.723D-01-0.118D+00 0.202D-01 0.116D+01
 Coeff-En:   0.000D+00 0.000D+00 0.000D+00 0.000D+00 0.100D+01
 Coeff:      0.608D-02-0.717D-01-0.117D+00 0.201D-01 0.116D+01
 Gap=     0.502 Goal=   None    Shift=    0.000
 RMSDP=7.62D-05 MaxDP=2.10D-03 DE=-6.73D-04 OVMax= 1.10D-02

 Cycle   6  Pass 1  IDiag  1:
 E= -279.501654456629     Delta-E=       -0.000314613769 Rises=F Damp=F
 DIIS: error= 2.83D-04 at cycle   6 NSaved=   6.
 NSaved= 6 IEnMin= 6 EnMin= -279.501654456629     IErMin= 6 ErrMin= 2.83D-04
 ErrMax= 2.83D-04  0.00D+00 EMaxC= 1.00D-01 BMatC= 1.67D-05 BMatP= 8.70D-05
 IDIUse=3 WtCom= 9.97D-01 WtEn= 2.83D-03
 Coeff-Com:  0.596D-03 0.156D-02 0.453D-02-0.130D+00-0.231D+00 0.135D+01
 Coeff-En:   0.000D+00 0.000D+00 0.000D+00 0.000D+00 0.000D+00 0.100D+01
 Coeff:      0.595D-03 0.156D-02 0.452D-02-0.129D+00-0.230D+00 0.135D+01
 Gap=     0.502 Goal=   None    Shift=    0.000
 RMSDP=4.53D-05 MaxDP=1.06D-03 DE=-3.15D-04 OVMax= 5.53D-03

 Cycle   7  Pass 1  IDiag  1:
 E= -279.501727033683     Delta-E=       -0.000072577054 Rises=F Damp=F
 DIIS: error= 1.01D-04 at cycle   7 NSaved=   7.
 NSaved= 7 IEnMin= 7 EnMin= -279.501727033683     IErMin= 7 ErrMin= 1.01D-04
 ErrMax= 1.01D-04  0.00D+00 EMaxC= 1.00D-01 BMatC= 4.51D-06 BMatP= 1.67D-05
 IDIUse=3 WtCom= 9.99D-01 WtEn= 1.01D-03
 Coeff-Com: -0.938D-03 0.135D-01 0.265D-01-0.243D-01-0.287D+00 0.391D+00
 Coeff-Com:  0.881D+00
 Coeff-En:   0.000D+00 0.000D+00 0.000D+00 0.000D+00 0.000D+00 0.000D+00
 Coeff-En:   0.100D+01
 Coeff:     -0.937D-03 0.135D-01 0.265D-01-0.242D-01-0.287D+00 0.391D+00
 Coeff:      0.881D+00
 Gap=     0.502 Goal=   None    Shift=    0.000
 RMSDP=1.33D-05 MaxDP=3.78D-04 DE=-7.26D-05 OVMax= 1.54D-03

 Cycle   8  Pass 1  IDiag  1:
 E= -279.501735925752     Delta-E=       -0.000008892069 Rises=F Damp=F
 DIIS: error= 4.84D-05 at cycle   8 NSaved=   8.
 NSaved= 8 IEnMin= 8 EnMin= -279.501735925752     IErMin= 8 ErrMin= 4.84D-05
 ErrMax= 4.84D-05  0.00D+00 EMaxC= 1.00D-01 BMatC= 6.07D-07 BMatP= 4.51D-06
 IDIUse=1 WtCom= 1.00D+00 WtEn= 0.00D+00
 Coeff-Com: -0.449D-03 0.345D-02 0.760D-02 0.274D-01-0.410D-01-0.198D+00
 Coeff-Com:  0.171D+00 0.103D+01
 Coeff:     -0.449D-03 0.345D-02 0.760D-02 0.274D-01-0.410D-01-0.198D+00
 Coeff:      0.171D+00 0.103D+01
 Gap=     0.502 Goal=   None    Shift=    0.000
 RMSDP=6.91D-06 MaxDP=2.03D-04 DE=-8.89D-06 OVMax= 7.47D-04

 Cycle   9  Pass 1  IDiag  1:
 E= -279.501737702356     Delta-E=       -0.000001776604 Rises=F Damp=F
 DIIS: error= 1.57D-05 at cycle   9 NSaved=   9.
 NSaved= 9 IEnMin= 9 EnMin= -279.501737702356     IErMin= 9 ErrMin= 1.57D-05
 ErrMax= 1.57D-05  0.00D+00 EMaxC= 1.00D-01 BMatC= 6.92D-08 BMatP= 6.07D-07
 IDIUse=1 WtCom= 1.00D+00 WtEn= 0.00D+00
 Coeff-Com:  0.123D-03-0.172D-02-0.307D-02-0.205D-02 0.342D-01-0.394D-04
 Coeff-Com: -0.167D+00-0.103D+00 0.124D+01
 Coeff:      0.123D-03-0.172D-02-0.307D-02-0.205D-02 0.342D-01-0.394D-04
 Coeff:     -0.167D+00-0.103D+00 0.124D+01
 Gap=     0.502 Goal=   None    Shift=    0.000
 RMSDP=1.94D-06 MaxDP=5.17D-05 DE=-1.78D-06 OVMax= 1.74D-04

 Cycle  10  Pass 1  IDiag  1:
 E= -279.501737862662     Delta-E=       -0.000000160307 Rises=F Damp=F
 DIIS: error= 4.01D-06 at cycle  10 NSaved=  10.
 NSaved=10 IEnMin=10 EnMin= -279.501737862662     IErMin=10 ErrMin= 4.01D-06
 ErrMax= 4.01D-06  0.00D+00 EMaxC= 1.00D-01 BMatC= 5.55D-09 BMatP= 6.92D-08
 IDIUse=1 WtCom= 1.00D+00 WtEn= 0.00D+00
 Coeff-Com:  0.310D-04-0.243D-03-0.324D-03-0.270D-02 0.164D-02 0.197D-01
 Coeff-Com: -0.130D-01-0.744D-01-0.804D-01 0.115D+01
 Coeff:      0.310D-04-0.243D-03-0.324D-03-0.270D-02 0.164D-02 0.197D-01
 Coeff:     -0.130D-01-0.744D-01-0.804D-01 0.115D+01
 Gap=     0.502 Goal=   None    Shift=    0.000
 RMSDP=5.06D-07 MaxDP=2.10D-05 DE=-1.60D-07 OVMax= 4.13D-05

 Cycle  11  Pass 1  IDiag  1:
 E= -279.501737875278     Delta-E=       -0.000000012616 Rises=F Damp=F
 DIIS: error= 1.77D-06 at cycle  11 NSaved=  11.
 NSaved=11 IEnMin=11 EnMin= -279.501737875278     IErMin=11 ErrMin= 1.77D-06
 ErrMax= 1.77D-06  0.00D+00 EMaxC= 1.00D-01 BMatC= 6.67D-10 BMatP= 5.55D-09
 IDIUse=1 WtCom= 1.00D+00 WtEn= 0.00D+00
 Coeff-Com: -0.214D-04 0.245D-03 0.489D-03 0.536D-03-0.430D-02-0.359D-02
 Coeff-Com:  0.211D-01 0.312D-01-0.139D+00-0.180D+00 0.127D+01
 Coeff:     -0.214D-04 0.245D-03 0.489D-03 0.536D-03-0.430D-02-0.359D-02
 Coeff:      0.211D-01 0.312D-01-0.139D+00-0.180D+00 0.127D+01
 Gap=     0.502 Goal=   None    Shift=    0.000
 RMSDP=1.81D-07 MaxDP=6.51D-06 DE=-1.26D-08 OVMax= 1.71D-05

 Cycle  12  Pass 1  IDiag  1:
 E= -279.501737877135     Delta-E=       -0.000000001857 Rises=F Damp=F
 DIIS: error= 5.60D-07 at cycle  12 NSaved=  12.
 NSaved=12 IEnMin=12 EnMin= -279.501737877135     IErMin=12 ErrMin= 5.60D-07
 ErrMax= 5.60D-07  0.00D+00 EMaxC= 1.00D-01 BMatC= 7.48D-11 BMatP= 6.67D-10
 IDIUse=1 WtCom= 1.00D+00 WtEn= 0.00D+00
 Coeff-Com:  0.131D-05-0.299D-04-0.651D-04 0.183D-03 0.110D-02-0.231D-02
 Coeff-Com: -0.420D-02 0.542D-02 0.425D-01-0.114D+00-0.286D+00 0.136D+01
 Coeff:      0.131D-05-0.299D-04-0.651D-04 0.183D-03 0.110D-02-0.231D-02
 Coeff:     -0.420D-02 0.542D-02 0.425D-01-0.114D+00-0.286D+00 0.136D+01
 Gap=     0.502 Goal=   None    Shift=    0.000
 RMSDP=7.54D-08 MaxDP=2.83D-06 DE=-1.86D-09 OVMax= 6.93D-06

 Cycle  13  Pass 1  IDiag  1:
 E= -279.501737877389     Delta-E=       -0.000000000254 Rises=F Damp=F
 DIIS: error= 1.67D-07 at cycle  13 NSaved=  13.
 NSaved=13 IEnMin=13 EnMin= -279.501737877389     IErMin=13 ErrMin= 1.67D-07
 ErrMax= 1.67D-07  0.00D+00 EMaxC= 1.00D-01 BMatC= 5.24D-12 BMatP= 7.48D-11
 IDIUse=1 WtCom= 1.00D+00 WtEn= 0.00D+00
 Coeff-Com:  0.133D-05-0.143D-04-0.229D-04-0.959D-04 0.112D-03 0.834D-03
 Coeff-Com: -0.819D-03-0.353D-02 0.187D-04 0.449D-01-0.336D-01-0.359D+00
 Coeff-Com:  0.135D+01
 Coeff:      0.133D-05-0.143D-04-0.229D-04-0.959D-04 0.112D-03 0.834D-03
 Coeff:     -0.819D-03-0.353D-02 0.187D-04 0.449D-01-0.336D-01-0.359D+00
 Coeff:      0.135D+01
 Gap=     0.502 Goal=   None    Shift=    0.000
 RMSDP=2.34D-08 MaxDP=5.69D-07 DE=-2.54D-10 OVMax= 2.92D-06

 Cycle  14  Pass 1  IDiag  1:
 E= -279.501737877410     Delta-E=       -0.000000000021 Rises=F Damp=F
 DIIS: error= 7.36D-08 at cycle  14 NSaved=  14.
 NSaved=14 IEnMin=14 EnMin= -279.501737877410     IErMin=14 ErrMin= 7.36D-08
 ErrMax= 7.36D-08  0.00D+00 EMaxC= 1.00D-01 BMatC= 7.21D-13 BMatP= 5.24D-12
 IDIUse=1 WtCom= 1.00D+00 WtEn= 0.00D+00
 Coeff-Com: -0.374D-06 0.547D-05 0.949D-05 0.139D-04-0.120D-03-0.118D-04
 Coeff-Com:  0.463D-03 0.564D-03-0.325D-02-0.193D-02 0.261D-01-0.470D-02
 Coeff-Com: -0.367D+00 0.135D+01
 Coeff:     -0.374D-06 0.547D-05 0.949D-05 0.139D-04-0.120D-03-0.118D-04
 Coeff:      0.463D-03 0.564D-03-0.325D-02-0.193D-02 0.261D-01-0.470D-02
 Coeff:     -0.367D+00 0.135D+01
 Gap=     0.502 Goal=   None    Shift=    0.000
 RMSDP=9.03D-09 MaxDP=2.41D-07 DE=-2.11D-11 OVMax= 1.54D-06

 SCF Done:  E(RHF) =  -279.501737877     A.U. after   14 cycles
            NFock= 14  Conv=0.90D-08     -V/T= 2.0024
 KE= 2.788454297720D+02 PE=-8.950754417309D+02 EE= 2.198537853155D+02
 Leave Link  502 at Mon Feb 21 21:03:28 2022, MaxMem= 16106127360 cpu:              39.7 elap:               6.9
 (Enter /sw/contrib/gaussian/g16/B01/g16/l801.exe)
 ExpMin= 2.53D-02 ExpMax= 1.53D+04 ExpMxC= 5.22D+02 IAcc=3 IRadAn=         5 AccDes= 0.00D+00
 HarFok:  IExCor=  205 AccDes= 0.00D+00 IRadAn=         5 IDoV=-2 UseB2=F ITyADJ=14
 ICtDFT= 12500011 ScaDFX=  1.000000  1.000000  1.000000  1.000000
 Largest valence mixing into a core orbital is  2.08D-04
 Largest core mixing into a valence orbital is  3.63D-05
 Range of M.O.s used for correlation:     5   207
 NBasis=   207 NAE=    16 NBE=    16 NFC=     4 NFV=     0
 NROrb=    203 NOA=    12 NOB=    12 NVA=   191 NVB=   191

 **** Warning!!: The largest alpha MO coefficient is  0.17780930D+02

 Leave Link  801 at Mon Feb 21 21:03:29 2022, MaxMem= 16106127360 cpu:               2.6 elap:               0.1
 (Enter /sw/contrib/gaussian/g16/B01/g16/l906.exe)
 Frozen-core derivative calculation, NFC=   4 NFV=   0.
 FulOut=F Deriv=T AODrv=T NAtomX=     5
   MMem=           0  MDisk=          12 MDiskD=          12
  W3Min=      811440 MinDsk=     2425030 NBas6D=         245
 NBas2D=       30762    NTT=       30135    LW2=     7400000
    MDV= 16105638402 MDiskM=      328645 NBas2p=       30702
 Disk-based method using ON**2 memory for 12 occupieds at a time.
 Permanent disk used for amplitudes=    11516536 words.
 Estimated scratch disk usage=   321251614 words.
 IMap=   1   2   3   4   5   6   7   8   9  10  11  12  13  14  15  16
 Actual    scratch disk usage=   310331678 words.
 JobTyp=1 Pass  1:  I=   5 to  16 NPSUse= 28 ParTrn=T ParDer=T DoDerP=T.
 (rs|ai) integrals will be sorted in core.
 Spin components of T(2) and E(2):
     alpha-alpha T2 =       0.3402606342D-01 E2=     -0.1224080241D+00
     alpha-beta  T2 =       0.1868532804D+00 E2=     -0.7002486694D+00
     beta-beta   T2 =       0.3402606342D-01 E2=     -0.1224080241D+00
 The integrals were generated   1 times.
 ANorm=    0.1120225606D+01
 E2 =    -0.9450647177D+00 EUMP2 =    -0.28044680259508D+03
 Leave Link  906 at Mon Feb 21 21:05:06 2022, MaxMem= 16106127360 cpu:            2736.2 elap:              97.8
 (Enter /sw/contrib/gaussian/g16/B01/g16/l1101.exe)
 Using compressed Sx but separate Hx and Fx, NAtomX=     5.
 Will process      6 centers per pass.
 Leave Link 1101 at Mon Feb 21 21:05:07 2022, MaxMem= 16106127360 cpu:               5.1 elap:               0.2
 (Enter /sw/contrib/gaussian/g16/B01/g16/l1102.exe)
 Leave Link 1102 at Mon Feb 21 21:05:07 2022, MaxMem= 16106127360 cpu:               1.3 elap:               0.1
 (Enter /sw/contrib/gaussian/g16/B01/g16/l1110.exe)
 Forming Gx(P) for the SCF density, NAtomX=     5.
 Integral derivatives from FoFJK, PRISM(SPDF).
 Do as many integral derivatives as possible in FoFJK.
 G2DrvN: MDV=   16106126844.
 G2DrvN: will do     6 centers at a time, making    1 passes.
 Calling FoFCou, ICntrl=  3107 FMM=F I1Cent=   0 AccDes= 0.00D+00.
 FoFJK:  IHMeth= 1 ICntrl=    3107 DoSepK=F KAlg= 0 I1Cent=           0 FoldK=F
 IRaf=         0 NMat=       1 IRICut=       1 DoRegI=T DoRafI=F ISym2E= 0 IDoP0=0 IntGTp=1.
 FoFCou: FMM=F IPFlag=           0 FMFlag=      100000 FMFlg1=           0
         NFxFlg=           0 DoJE=F BraDBF=F KetDBF=F FulRan=T
         wScrn=  0.000000 ICntrl=      3107 IOpCl=  0 I1Cent=           0 NGrid=           0
         NMat0=    1 NMatS0=      1 NMatT0=    0 NMatD0=    1 NMtDS0=    0 NMtDT0=    0
 Symmetry not used in FoFCou.
 End of G2Drv F.D. properties file   721 does not exist.
 End of G2Drv F.D. properties file   722 does not exist.
 End of G2Drv F.D. properties file   788 does not exist.
 Leave Link 1110 at Mon Feb 21 21:05:10 2022, MaxMem= 16106127360 cpu:              83.5 elap:               3.0
 (Enter /sw/contrib/gaussian/g16/B01/g16/l1002.exe)
 Minotr:  Closed shell wavefunction.
          IDoAtm=11111
          Frozen-core window.
          Direct CPHF calculation.
          Differentiating once with respect to electric field.
                with respect to dipole field.
          Differentiating once with respect to nuclear coordinates.
          Requested convergence is 1.0D-08 RMS, and 1.0D-07 maximum.
          Secondary convergence is 1.0D-12 RMS, and 1.0D-12 maximum.
          NewPWx=T KeepS1=T KeepF1=T KeepIn=T MapXYZ=F SortEE=F KeepMc=T.
 Keep R1 ints in memory in canonical form, NReq=245618178.
 FoFCou: FMM=F IPFlag=           0 FMFlag=           0 FMFlg1=           0
         NFxFlg=           0 DoJE=F BraDBF=F KetDBF=F FulRan=T
         wScrn=  0.000000 ICntrl=       600 IOpCl=  0 I1Cent=           0 NGrid=           0
         NMat0=    1 NMatS0=  21528 NMatT0=    0 NMatD0=    1 NMtDS0=    0 NMtDT0=    0
 Symmetry not used in FoFCou.
 Two-electron integral symmetry not used.
          MDV=   16106127360 using IRadAn=       1.
          Solving linear equations simultaneously, MaxMat=       0.
          There are    18 degrees of freedom in the 1st order CPHF.  IDoFFX=6 NUNeed=    18.
     15 vectors produced by pass  0 Test12= 1.70D-14 5.56D-09 XBig12= 9.51D+00 1.09D+00.
 AX will form    15 AO Fock derivatives at one time.
     15 vectors produced by pass  1 Test12= 1.70D-14 5.56D-09 XBig12= 1.17D+00 2.23D-01.
     15 vectors produced by pass  2 Test12= 1.70D-14 5.56D-09 XBig12= 1.24D-01 9.32D-02.
     15 vectors produced by pass  3 Test12= 1.70D-14 5.56D-09 XBig12= 4.10D-03 1.00D-02.
     15 vectors produced by pass  4 Test12= 1.70D-14 5.56D-09 XBig12= 7.50D-05 1.57D-03.
     15 vectors produced by pass  5 Test12= 1.70D-14 5.56D-09 XBig12= 1.02D-06 1.48D-04.
     15 vectors produced by pass  6 Test12= 1.70D-14 5.56D-09 XBig12= 9.61D-09 1.28D-05.
     12 vectors produced by pass  7 Test12= 1.70D-14 5.56D-09 XBig12= 7.61D-11 1.07D-06.
      3 vectors produced by pass  8 Test12= 1.70D-14 5.56D-09 XBig12= 7.05D-13 1.24D-07.
      2 vectors produced by pass  9 Test12= 1.70D-14 5.56D-09 XBig12= 5.06D-15 9.90D-09.
 InvSVY:  IOpt=1 It=  1 EMax= 1.33D-15
 Solved reduced A of dimension   122 with    15 vectors.
 FullF1:  Do perturbations      1 to      18.
 Saving first derivative matrices.
 End of Minotr F.D. properties file   721 does not exist.
 End of Minotr F.D. properties file   722 does not exist.
 End of Minotr F.D. properties file   788 does not exist.
 Leave Link 1002 at Mon Feb 21 21:05:13 2022, MaxMem= 16106127360 cpu:              98.5 elap:               3.6
 (Enter /sw/contrib/gaussian/g16/B01/g16/l811.exe)
 MDV= 16106127360.
 Form MO integral derivatives with frozen-active canonical formalism.
 MOERI=1 MOERIx=1 NAtoms=     5 NAtomX=     5.
 Discarding MO integrals.
 MO basis two electron integral derivatives will not be stored on disk.
 IAlg= 3 DoFC=T DoPWx=T Debug=F.
 Frozen-core window:  NFC=   4 NFV=   0.
 Reordered first order wavefunction length =     18678272
 In DefCFB: NBatch=  1 ICI= 16 ICA=191 LFMax= 96
            Large arrays: LIAPS=   619940160 LIARS=   288257200 words.
 In StABat: MaxSiz= 55 MinSiz= 25 NAtomB=  5
 DoIAMN: NPSUse= 28.
 Leave Link  811 at Mon Feb 21 21:06:57 2022, MaxMem= 16106127360 cpu:            2888.4 elap:             103.6
 (Enter /sw/contrib/gaussian/g16/B01/g16/l804.exe)
 Frozen-core window:  NFC=   4 NFV=   0.
 Closed-shell transformation, MDV= 16106127360 ITran=4 ISComp=1.
 Semi-Direct transformation.
 ModeAB=           2 MOrb=            16 LenV=   16104925835
 LASXX=     67341636 LTotXX=    67341636 LenRXX=    67341636
 LTotAB=    68301760 MaxLAS=    99807120 LenRXY=    99807120
 NonZer=   134683272 LenScr=   202817536 LnRSAI=           0
 LnScr1=           0 LExtra=           0 Total=    369966292
 MaxDsk=          -1 SrtSym=           F ITran=            4
 DoSDTr:  NPSUse= 28
 JobTyp=0 Pass  1:  I=   1 to  16.
 (rs|ai) integrals will be sorted in core.
 Complete sort for first half transformation.
 First half transformation complete.
 Begin second half transformation for I=  10.
 Begin second half transformation for I=  10.
 Complete sort for second half transformation.
 Second half transformation complete.
 SymMOI:  orbitals are not symmetric.
 Spin components of T(2) and E(2):
     alpha-alpha T2 =       0.3402606342D-01 E2=     -0.1224080241D+00
     alpha-beta  T2 =       0.1868532804D+00 E2=     -0.7002486694D+00
     beta-beta   T2 =       0.3402606342D-01 E2=     -0.1224080241D+00
 ANorm=    0.1584238244D+01
 E2 =    -0.9450647177D+00 EUMP2 =    -0.28044680259508D+03
 Leave Link  804 at Mon Feb 21 21:07:11 2022, MaxMem= 16106127360 cpu:             376.4 elap:              13.5
 (Enter /sw/contrib/gaussian/g16/B01/g16/l1002.exe)
 Minotr:  Closed shell wavefunction.
          Computing MP2/KS-MP2 derivatives.
          Using Z-Vector for PSCF gradient.
          Skipping F1 and S1 gradient terms here.
          IDoAtm=11111
          Frozen-core window.
          Using MO integrals in the linear equations.
          Forming densities via direct SCF.
          Differentiating once with respect to electric field.
                with respect to dipole field.
          Differentiating once with respect to nuclear coordinates.
          Requested convergence is 1.0D-10 RMS, and 1.0D-09 maximum.
          NewPWx=F KeepS1=T KeepF1=T KeepIn=T MapXYZ=F SortEE=F KeepMc=T.
          MDV=   16106127360 using IRadAn=       5.
          Solving linear equations separately, MaxMat=       0.
          There are     1 degrees of freedom in the 1st order CPHF.  IDoFFX=0 NUNeed=     1.
 FoFJK:  IHMeth= 1 ICntrl=       0 DoSepK=F KAlg= 0 I1Cent=           0 FoldK=F
 IRaf=         0 NMat=       1 IRICut=       1 DoRegI=T DoRafI=F ISym2E= 0 IDoP0=0 IntGTp=1.
 FoFCou: FMM=F IPFlag=           0 FMFlag=      100000 FMFlg1=           0
         NFxFlg=           0 DoJE=F BraDBF=F KetDBF=F FulRan=T
         wScrn=  0.000000 ICntrl=         0 IOpCl=  0 I1Cent=           0 NGrid=           0
         NMat0=    1 NMatS0=      1 NMatT0=    0 NMatD0=    1 NMtDS0=    0 NMtDT0=    0
 Symmetry not used in FoFCou.
 LinEq1:  Iter=  0 NonCon=     1 RMS=5.96D-03 Max=1.31D-01 NDo=     1
 LinEq1:  Iter=  1 NonCon=     1 RMS=1.90D-03 Max=3.79D-02 NDo=     1
 LinEq1:  Iter=  2 NonCon=     1 RMS=8.68D-04 Max=1.34D-02 NDo=     1
 LinEq1:  Iter=  3 NonCon=     1 RMS=3.86D-04 Max=7.71D-03 NDo=     1
 LinEq1:  Iter=  4 NonCon=     1 RMS=1.19D-04 Max=1.82D-03 NDo=     1
 LinEq1:  Iter=  5 NonCon=     1 RMS=4.55D-05 Max=7.16D-04 NDo=     1
 LinEq1:  Iter=  6 NonCon=     1 RMS=2.04D-05 Max=2.36D-04 NDo=     1
 LinEq1:  Iter=  7 NonCon=     1 RMS=8.20D-06 Max=1.58D-04 NDo=     1
 LinEq1:  Iter=  8 NonCon=     1 RMS=3.55D-06 Max=3.57D-05 NDo=     1
 LinEq1:  Iter=  9 NonCon=     1 RMS=1.01D-06 Max=1.70D-05 NDo=     1
 LinEq1:  Iter= 10 NonCon=     1 RMS=2.43D-07 Max=6.68D-06 NDo=     1
 LinEq1:  Iter= 11 NonCon=     1 RMS=7.05D-08 Max=2.00D-06 NDo=     1
 LinEq1:  Iter= 12 NonCon=     1 RMS=1.96D-08 Max=2.95D-07 NDo=     1
 LinEq1:  Iter= 13 NonCon=     1 RMS=3.84D-09 Max=4.15D-08 NDo=     1
 LinEq1:  Iter= 14 NonCon=     1 RMS=6.18D-10 Max=9.87D-09 NDo=     1
 LinEq1:  Iter= 15 NonCon=     1 RMS=1.29D-10 Max=2.14D-09 NDo=     1
 LinEq1:  Iter= 16 NonCon=     0 RMS=3.24D-11 Max=3.96D-10 NDo=     1
 Linear equations converged to 1.000D-10 1.000D-09 after    16 iterations.
 End of Minotr F.D. properties file   721 does not exist.
 End of Minotr F.D. properties file   722 does not exist.
 End of Minotr F.D. properties file   788 does not exist.
 Leave Link 1002 at Mon Feb 21 21:07:13 2022, MaxMem= 16106127360 cpu:              68.7 elap:               2.5
 (Enter /sw/contrib/gaussian/g16/B01/g16/l1102.exe)
 Use density number 2.
 Symmetrizing basis deriv contribution to polar:
 IMax=3 JMax=2 DiffMx= 0.00D+00
 Leave Link 1102 at Mon Feb 21 21:07:13 2022, MaxMem= 16106127360 cpu:               0.8 elap:               0.1
 (Enter /sw/contrib/gaussian/g16/B01/g16/l1110.exe)
 Forming Gx(P) for generalized density number  2 NAtomX=     5.
 Integral derivatives from FoFJK, PRISM(SPDF).
 Do as many integral derivatives as possible in FoFJK.
 G2DrvN: MDV=   16106126844.
 G2DrvN: will do     6 centers at a time, making    1 passes.
 Calling FoFCou, ICntrl=  3107 FMM=F I1Cent=   0 AccDes= 0.00D+00.
 FoFJK:  IHMeth= 1 ICntrl=    3107 DoSepK=F KAlg= 0 I1Cent=           0 FoldK=F
 IRaf=         0 NMat=       1 IRICut=       1 DoRegI=T DoRafI=F ISym2E= 0 IDoP0=0 IntGTp=1.
 FoFCou: FMM=F IPFlag=           0 FMFlag=      100000 FMFlg1=           0
         NFxFlg=           0 DoJE=F BraDBF=F KetDBF=F FulRan=T
         wScrn=  0.000000 ICntrl=      3107 IOpCl=  0 I1Cent=           0 NGrid=           0
         NMat0=    1 NMatS0=      1 NMatT0=    0 NMatD0=    1 NMtDS0=    0 NMtDT0=    0
 Symmetry not used in FoFCou.
 End of G2Drv F.D. properties file   721 does not exist.
 End of G2Drv F.D. properties file   722 does not exist.
 End of G2Drv F.D. properties file   788 does not exist.
 Leave Link 1110 at Mon Feb 21 21:07:16 2022, MaxMem= 16106127360 cpu:              83.5 elap:               3.0
 (Enter /sw/contrib/gaussian/g16/B01/g16/l1112.exe)
 MP22nd: MDV=   16106127360
 This link is doing NAtomX=     5 total of    18 degrees of freedom.
 Using ON3 I/O method in MakUI.
 Frozen-core window:  NFC=   4 NFV=   0.
 Using Ix for Sx.
 Use MO integrals over full window.
 Using OV2 memory method for fx*t*t/D, MaxI=    16 DoOO2=F NP=  28.
 R2 and R3 integrals will be kept in memory, NReq=   915591705.
 FoFCou: FMM=F IPFlag=           0 FMFlag=           0 FMFlg1=           0
         NFxFlg=           0 DoJE=F BraDBF=F KetDBF=F FulRan=T
         wScrn=  0.000000 ICntrl=       600 IOpCl=  0 I1Cent=           0 NGrid=           0
         NMat0=    1 NMatS0=      1 NMatT0=    0 NMatD0=    1 NMtDS0=    0 NMtDT0=    0
 Symmetry not used in FoFCou.
 DD1Dir will call FoFMem   1 times, MxPair=       272
 NAB=   136 NAA=     0 NBB=     0.
 Symmetry is being used.
 FoFJK:  IHMeth= 1 ICntrl=       0 DoSepK=F KAlg= 0 I1Cent=           0 FoldK=F
 IRaf=         0 NMat=      18 IRICut=      45 DoRegI=T DoRafI=T ISym2E= 2 IDoP0=3 IntGTp=3.
 Discarding MO integrals.
 Leave Link 1112 at Mon Feb 21 21:07:50 2022, MaxMem= 16106127360 cpu:             943.9 elap:              34.1
 (Enter /sw/contrib/gaussian/g16/B01/g16/l601.exe)
 Copying SCF densities to generalized density rwf, IOpCl= 0 IROHF=0.

 **********************************************************************

            Population analysis using the MP2 Density.

 **********************************************************************

 Orbital symmetries:
       Occupied  (A) (A) (A) (A) (A) (A) (A) (A) (A) (A) (A) (A)
                 (A) (A) (A) (A)
       Virtual   (A) (A) (A) (A) (A) (A) (A) (A) (A) (A) (A) (A)
                 (A) (A) (A) (A) (A) (A) (A) (A) (A) (A) (A) (A)
                 (A) (A) (A) (A) (A) (A) (A) (A) (A) (A) (A) (A)
                 (A) (A) (A) (A) (A) (A) (A) (A) (A) (A) (A) (A)
                 (A) (A) (A) (A) (A) (A) (A) (A) (A) (A) (A) (A)
                 (A) (A) (A) (A) (A) (A) (A) (A) (A) (A) (A) (A)
                 (A) (A) (A) (A) (A) (A) (A) (A) (A) (A) (A) (A)
                 (A) (A) (A) (A) (A) (A) (A) (A) (A) (A) (A) (A)
                 (A) (A) (A) (A) (A) (A) (A) (A) (A) (A) (A) (A)
                 (A) (A) (A) (A) (A) (A) (A) (A) (A) (A) (A) (A)
                 (A) (A) (A) (A) (A) (A) (A) (A) (A) (A) (A) (A)
                 (A) (A) (A) (A) (A) (A) (A) (A) (A) (A) (A) (A)
                 (A) (A) (A) (A) (A) (A) (A) (A) (A) (A) (A) (A)
                 (A) (A) (A) (A) (A) (A) (A) (A) (A) (A) (A) (A)
                 (A) (A) (A) (A) (A) (A) (A) (A) (A) (A) (A) (A)
                 (A) (A) (A) (A) (A) (A) (A) (A) (A) (A) (A)
 The electronic state is 1-A.
 Alpha  occ. eigenvalues --  -20.69095 -20.68428 -20.66005 -15.81278  -1.62403
 Alpha  occ. eigenvalues --   -1.49578  -1.25442  -0.94808  -0.77267  -0.75930
 Alpha  occ. eigenvalues --   -0.71226  -0.67913  -0.62021  -0.58917  -0.48597
 Alpha  occ. eigenvalues --   -0.47214
 Alpha virt. eigenvalues --    0.02961   0.07166   0.08594   0.10173   0.13302
 Alpha virt. eigenvalues --    0.13469   0.14400   0.15449   0.17820   0.19415
 Alpha virt. eigenvalues --    0.19956   0.20647   0.22081   0.23540   0.23733
 Alpha virt. eigenvalues --    0.26645   0.29305   0.30185   0.31132   0.34346
 Alpha virt. eigenvalues --    0.35163   0.38736   0.41982   0.43028   0.52722
 Alpha virt. eigenvalues --    0.53013   0.55855   0.58136   0.62596   0.63821
 Alpha virt. eigenvalues --    0.67413   0.68400   0.70662   0.71207   0.72129
 Alpha virt. eigenvalues --    0.73131   0.74616   0.78786   0.79405   0.81034
 Alpha virt. eigenvalues --    0.81334   0.83227   0.86797   0.90833   0.91836
 Alpha virt. eigenvalues --    0.93049   0.95612   0.97349   0.98725   1.01597
 Alpha virt. eigenvalues --    1.05460   1.05549   1.08294   1.11604   1.13454
 Alpha virt. eigenvalues --    1.19474   1.21990   1.23333   1.33796   1.35060
 Alpha virt. eigenvalues --    1.38739   1.45442   1.49002   1.50862   1.53760
 Alpha virt. eigenvalues --    1.56710   1.58019   1.60858   1.66511   1.66761
 Alpha virt. eigenvalues --    1.70452   1.79113   1.83044   1.83601   1.87954
 Alpha virt. eigenvalues --    1.90773   1.95614   1.98565   2.01739   2.07767
 Alpha virt. eigenvalues --    2.11832   2.12959   2.15291   2.22289   2.26029
 Alpha virt. eigenvalues --    2.26937   2.28852   2.31301   2.34381   2.38700
 Alpha virt. eigenvalues --    2.41098   2.44287   2.45395   2.46477   2.47604
 Alpha virt. eigenvalues --    2.50402   2.58958   2.59765   2.61969   2.62530
 Alpha virt. eigenvalues --    2.63627   2.66661   2.75413   2.82672   2.85108
 Alpha virt. eigenvalues --    2.88767   2.89547   2.92095   2.95913   3.02261
 Alpha virt. eigenvalues --    3.07233   3.12078   3.20463   3.22797   3.31624
 Alpha virt. eigenvalues --    3.34119   3.51550   3.64550   3.83786   3.84666
 Alpha virt. eigenvalues --    4.14130   4.16346   4.19420   4.25593   4.34578
 Alpha virt. eigenvalues --    4.39377   4.46931   4.52146   4.65680   4.71093
 Alpha virt. eigenvalues --    4.80467   4.82391   4.82750   4.89632   5.02291
 Alpha virt. eigenvalues --    5.07490   5.10250   5.14518   5.18123   5.24595
 Alpha virt. eigenvalues --    5.27183   5.30628   5.32981   5.35357   5.60349
 Alpha virt. eigenvalues --    5.67360   5.76578   5.83060   5.95597   6.16904
 Alpha virt. eigenvalues --    6.31033   6.33968   6.39339   6.49394   6.50526
 Alpha virt. eigenvalues --    6.61761   6.66134   6.70316   6.75162   6.76760
 Alpha virt. eigenvalues --    6.83378   6.89835   7.01262   7.05521   7.05743
 Alpha virt. eigenvalues --    7.09218   7.12566   7.14787   7.18540   7.22490
 Alpha virt. eigenvalues --    7.24010   7.30574   7.32349   7.35201   7.39599
 Alpha virt. eigenvalues --    7.42983   7.48542   7.60716   7.61824   7.62984
 Alpha virt. eigenvalues --    7.66972   7.78728   7.88557   8.09224   8.31339
 Alpha virt. eigenvalues --    8.40454   8.54283  13.38819  14.39660  15.16118
 Alpha virt. eigenvalues --   16.15137
          Condensed to atoms (all electrons):
               1          2          3          4          5
     1  H    0.589923   0.128407   0.020121   0.012015  -0.000626
     2  O    0.128407   8.321095  -0.173049  -0.090153   0.015312
     3  O    0.020121  -0.173049   8.468431  -0.129653  -0.038747
     4  N    0.012015  -0.090153  -0.129653   6.971079  -0.055144
     5  O   -0.000626   0.015312  -0.038747  -0.055144   8.272506
 Mulliken charges:
               1
     1  H    0.250159
     2  O   -0.201611
     3  O   -0.147103
     4  N    0.291856
     5  O   -0.193301
 Sum of Mulliken charges =  -0.00000
 Mulliken charges with hydrogens summed into heavy atoms:
               1
     2  O    0.048548
     3  O   -0.147103
     4  N    0.291856
     5  O   -0.193301
 APT charges:
               1
     1  H    0.298625
     2  O   -0.287727
     3  O   -0.494851
     4  N    0.876003
     5  O   -0.392051
 Sum of APT charges =  -0.00000
 APT charges with hydrogens summed into heavy atoms:
               1
     2  O    0.010898
     3  O   -0.494851
     4  N    0.876003
     5  O   -0.392051
 Electronic spatial extent (au):  <R**2>=            252.8690
 Charge=             -0.0000 electrons
 Dipole moment (field-independent basis, Debye):
    X=             -1.2113    Y=              0.7825    Z=              0.2012  Tot=              1.4560
 Quadrupole moment (field-independent basis, Debye-Ang):
   XX=            -18.0331   YY=            -23.1055   ZZ=            -21.9783
   XY=             -2.7638   XZ=             -0.5310   YZ=              0.1633
 Traceless Quadrupole moment (field-independent basis, Debye-Ang):
   XX=              3.0059   YY=             -2.0666   ZZ=             -0.9393
   XY=             -2.7638   XZ=             -0.5310   YZ=              0.1633
 Octapole moment (field-independent basis, Debye-Ang**2):
  XXX=            -18.0524  YYY=              1.7551  ZZZ=              0.0649  XYY=             -1.0646
  XXY=              6.1210  XXZ=              1.2731  XZZ=              1.7077  YZZ=              0.2603
  YYZ=              0.0267  XYZ=             -0.2793
 Hexadecapole moment (field-independent basis, Debye-Ang**3):
 XXXX=           -190.5393 YYYY=            -41.0870 ZZZZ=            -18.2638 XXXY=            -11.9232
 XXXZ=             -3.2293 YYYX=             -0.9856 YYYZ=              0.1510 ZZZX=             -0.1944
 ZZZY=              0.1079 XXYY=            -42.5085 XXZZ=            -41.5065 YYZZ=             -9.8727
 XXYZ=              0.6633 YYXZ=             -0.1417 ZZXY=             -0.4961
 N-N= 1.168744887659D+02 E-N=-8.958594387036D+02  KE= 2.801976097939D+02
  Exact polarizability:  41.714  -0.966  22.514  -0.105   0.020  17.945
 Approx polarizability:  31.939   1.142  20.567  -0.091   0.076  15.545
 No NMR shielding tensors so no spin-rotation constants.
 Leave Link  601 at Mon Feb 21 21:07:51 2022, MaxMem= 16106127360 cpu:               4.8 elap:               0.2
 (Enter /sw/contrib/gaussian/g16/B01/g16/l701.exe)
 ... and contract with generalized density number  2.
 Compute integral second derivatives.
 Leave Link  701 at Mon Feb 21 21:07:51 2022, MaxMem= 16106127360 cpu:               5.8 elap:               0.2
 (Enter /sw/contrib/gaussian/g16/B01/g16/l702.exe)
 L702 exits ... SP integral derivatives will be done elsewhere.
 Leave Link  702 at Mon Feb 21 21:07:51 2022, MaxMem= 16106127360 cpu:               0.4 elap:               0.0
 (Enter /sw/contrib/gaussian/g16/B01/g16/l703.exe)
 Integral derivatives from FoFJK, PRISM(SPDF).
 Compute integral second derivatives, UseDBF=F ICtDFT=           0.
 Calling FoFJK, ICntrl=  10100127 FMM=F ISym2X=0 I1Cent= 0 IOpClX= 0 NMat=1 NMatS=1 NMatT=0.
 FoFJK:  IHMeth= 1 ICntrl=10100127 DoSepK=F KAlg= 0 I1Cent=           0 FoldK=F
 IRaf=         0 NMat=       1 IRICut=       1 DoRegI=T DoRafI=F ISym2E= 0 IDoP0=0 IntGTp=1.
 FoFCou: FMM=F IPFlag=           0 FMFlag=      100000 FMFlg1=         800
         NFxFlg=           0 DoJE=F BraDBF=F KetDBF=F FulRan=T
         wScrn=  0.000000 ICntrl=  10100127 IOpCl=  0 I1Cent=           0 NGrid=           0
         NMat0=    1 NMatS0=      1 NMatT0=    0 NMatD0=    1 NMtDS0=    0 NMtDT0=    0
 Symmetry not used in FoFCou.
 Leave Link  703 at Mon Feb 21 21:08:06 2022, MaxMem= 16106127360 cpu:             423.9 elap:              15.2
 (Enter /sw/contrib/gaussian/g16/B01/g16/l716.exe)
 Dipole        =-4.76569189D-01 3.07843775D-01 7.91740773D-02
 Polarizability= 4.17143473D+01-9.65582153D-01 2.25143952D+01
                -1.04550646D-01 2.02777542D-02 1.79445221D+01
 Full mass-weighted force constant matrix:
 Low frequencies --- -264.5729   -5.5517    0.0006    0.0009    0.0012    2.5809
 Low frequencies ---   11.9461  228.6220  342.1441
 ******    1 imaginary frequencies (negative Signs) ****** 
 Diagonal vibrational polarizability:
       34.9244807       5.0034584      47.5316631
 Harmonic frequencies (cm**-1), IR intensities (KM/Mole), Raman scattering
 activities (A**4/AMU), depolarization ratios for plane and unpolarized
 incident light, reduced masses (AMU), force constants (mDyne/A),
 and normal coordinates:
                      1                      2                      3
                      A                      A                      A
 Frequencies --   -264.5727               228.6114               342.1424
 Red. masses --      1.1401                10.5649                 8.6285
 Frc consts  --      0.0470                 0.3253                 0.5951
 IR Inten    --    125.1315                 0.8153                 4.7522
  Atom  AN      X      Y      Z        X      Y      Z        X      Y      Z
     1   1     0.06  -0.10   0.99    -0.06  -0.03  -0.57    -0.16  -0.67   0.04
     2   8    -0.01   0.01  -0.06     0.01  -0.00  -0.31     0.30  -0.25   0.01
     3   8    -0.00  -0.00  -0.04    -0.00   0.01   0.33    -0.14   0.43  -0.02
     4   7     0.01  -0.00   0.06    -0.01   0.01   0.53    -0.19   0.18  -0.00
     5   8     0.00   0.00  -0.01     0.00  -0.01  -0.44     0.02  -0.30   0.01
                      4                      5                      6
                      A                      A                      A
 Frequencies --    452.2302               785.6964               966.7696
 Red. masses --     12.2445                12.9332                15.3664
 Frc consts  --      1.4754                 4.7040                 8.4619
 IR Inten    --    198.1837               170.1886                23.2964
  Atom  AN      X      Y      Z        X      Y      Z        X      Y      Z
     1   1    -0.45  -0.08  -0.07     0.16   0.35   0.07    -0.15  -0.07   0.06
     2   8    -0.38  -0.03   0.00    -0.39  -0.18  -0.01    -0.40  -0.33  -0.00
     3   8    -0.40   0.25  -0.00     0.21  -0.18   0.00     0.59   0.46  -0.01
     4   7     0.52  -0.12   0.00    -0.26   0.58  -0.00     0.05  -0.27   0.01
     5   8     0.35  -0.11   0.00     0.39  -0.17   0.00    -0.22   0.11  -0.00
                      7                      8                      9
                      A                      A                      A
 Frequencies --   1371.5063              1677.2925              3778.4349
 Red. masses --      1.1326                13.2336                 1.0676
 Frc consts  --      1.2552                21.9354                 8.9798
 IR Inten    --    151.7095               140.7640                82.1318
  Atom  AN      X      Y      Z        X      Y      Z        X      Y      Z
     1   1     0.77   0.63   0.02     0.27   0.21   0.01    -0.67   0.73   0.12
     2   8     0.01  -0.06  -0.01     0.03  -0.03  -0.00     0.04  -0.04  -0.01
     3   8    -0.05   0.03   0.00    -0.09   0.12  -0.00    -0.00  -0.00  -0.00
     4   7     0.02   0.00   0.00    -0.54  -0.46   0.00     0.00  -0.00   0.00
     5   8    -0.03  -0.01  -0.00     0.52   0.30  -0.00    -0.00  -0.00  -0.00

 -------------------
 - Thermochemistry -
 -------------------
 Temperature   298.150 Kelvin.  Pressure   1.00000 Atm.
 Atom     1 has atomic number  1 and mass   1.00783
 Atom     2 has atomic number  8 and mass  15.99491
 Atom     3 has atomic number  8 and mass  15.99491
 Atom     4 has atomic number  7 and mass  14.00307
 Atom     5 has atomic number  8 and mass  15.99491
 Molecular mass:    62.99564 amu.
 Principal axes and moments of inertia in atomic units:
                           1         2         3
     Eigenvalues --    32.87115 360.12523 392.89079
           X            0.99994  -0.01057  -0.00243
           Y            0.01059   0.99993   0.00526
           Z            0.00237  -0.00528   0.99998
 This molecule is an asymmetric top.
 Rotational symmetry number  1.
 Rotational temperatures (Kelvin)      2.63495     0.24051     0.22045
 Rotational constants (GHZ):          54.90350     5.01143     4.59349
    1 imaginary frequencies ignored.
 Zero-point vibrational energy      57436.8 (Joules/Mol)
                                   13.72773 (Kcal/Mol)
 Warning -- explicit consideration of   3 degrees of freedom as
           vibrations may cause significant error
 Vibrational temperatures:    328.92   492.27   650.66  1130.44  1390.97
          (Kelvin)           1973.29  2413.25  5436.33
 
 Zero-point correction=                           0.021877 (Hartree/Particle)
 Thermal correction to Energy=                    0.025994
 Thermal correction to Enthalpy=                  0.026938
 Thermal correction to Gibbs Free Energy=        -0.004246
 Sum of electronic and zero-point Energies=           -280.424926
 Sum of electronic and thermal Energies=              -280.420809
 Sum of electronic and thermal Enthalpies=            -280.419865
 Sum of electronic and thermal Free Energies=         -280.451048
 
                     E (Thermal)             CV                S
                      KCal/Mol        Cal/Mol-Kelvin    Cal/Mol-Kelvin
 Total                   16.311             11.952             65.631
 Electronic               0.000              0.000              0.000
 Translational            0.889              2.981             38.341
 Rotational               0.889              2.981             23.057
 Vibrational             14.534              5.991              4.233
 Vibration     1          0.651              1.797              1.890
 Vibration     2          0.721              1.591              1.202
 Vibration     3          0.811              1.356              0.789
                       Q            Log10(Q)             Ln(Q)
 Total Bot       0.897109D+02          1.952845          4.496592
 Total V=0       0.103595D+13         12.015338         27.666339
 Vib (Bot)       0.186986D-09         -9.728190        -22.399986
 Vib (Bot)    1  0.862063D+00         -0.064461         -0.148427
 Vib (Bot)    2  0.541976D+00         -0.266020         -0.612534
 Vib (Bot)    3  0.378516D+00         -0.421916         -0.971498
 Vib (V=0)       0.215925D+01          0.334303          0.769761
 Vib (V=0)    1  0.149657D+01          0.175097          0.403176
 Vib (V=0)    2  0.123739D+01          0.092505          0.213001
 Vib (V=0)    3  0.112712D+01          0.051969          0.119662
 Electronic      0.100000D+01          0.000000          0.000000
 Translational   0.196526D+08          7.293420         16.793719
 Rotational      0.244127D+05          4.387616         10.102859
 
                                                                title
                                                             IR Spectrum
 
     3                                                                      1         1                                              
     7                                                                      6         3             9     7          4   3   2       
     7                                                                      7         7             6     8          5   4   2       
     8                                                                      7         2             7     6          2   2   9       
 
     X                                                                      X         X             X     X          X   X   X       
     X                                                                      X         X             X     X          X               
     X                                                                      X         X                   X          X               
     X                                                                      X         X                   X          X               
     X                                                                      X         X                   X          X               
     X                                                                      X         X                   X          X               
     X                                                                      X         X                   X          X               
     X                                                                      X         X                   X          X               
                                                                            X         X                   X          X               
                                                                            X         X                   X          X               
                                                                            X         X                   X          X               
                                                                            X         X                   X          X               
                                                                            X         X                   X          X               
                                                                            X         X                   X          X               
                                                                                      X                   X          X               
                                                                                                          X          X               
                                                                                                          X          X               
                                                                                                                     X               
                                                                                                                     X               
                                                                                                                     X               
 
 ***** Axes restored to original set *****
 -------------------------------------------------------------------
 Center     Atomic                   Forces (Hartrees/Bohr)
 Number     Number              X              Y              Z
 -------------------------------------------------------------------
      1        1          -0.000003535    0.000559232    0.000003383
      2        8           0.000370847   -0.000726479   -0.000005898
      3        8          -0.000434743   -0.000233965    0.000013941
      4        7          -0.000327556    0.000638956   -0.000136602
      5        8           0.000394988   -0.000237743    0.000125176
 -------------------------------------------------------------------
 Cartesian Forces:  Max     0.000726479 RMS     0.000363727
 -----------------------------------------------------------------------------------------------
                       Internal Coordinate Forces (Hartree/Bohr or radian)
  Cent   Atom   N1       Length/X         N2         Alpha/Y        N3         Beta/Z          J
 -----------------------------------------------------------------------------------------------
      1  H 
      2  O        1  -0.000003(     1)
      3  O        2  -0.000364(     2)      1   0.000006(     5)
      4  N        3   0.000046(     3)      2   0.000176(     6)      1  -0.001014(     8)     0
      5  O        4   0.000410(     4)      3  -0.000019(     7)      2  -0.000513(     9)     0
 -----------------------------------------------------------------------------------------------
 Internal  Forces:  Max     0.001014404 RMS     0.000424987
 Force constants in Cartesian coordinates: 
                1             2             3             4             5 
      1  0.646826D-01
      2  0.627911D-03 -0.224946D-02
      3  0.523230D-02 -0.315529D-03  0.512279D+00
      4 -0.357219D-01 -0.172443D-02 -0.161760D-01  0.272373D+00
      5 -0.256785D-03  0.298556D-02  0.495387D-03  0.387995D-02  0.276050D-02
      6  0.482933D-01  0.122597D-02 -0.508564D+00  0.334290D-01  0.352828D-02
      7 -0.185519D-01  0.199950D-02  0.124428D-01 -0.219640D+00  0.244793D-02
      8 -0.929157D-03  0.986175D-03  0.232677D-03 -0.151425D-02 -0.720786D-02
      9 -0.530772D-01 -0.776460D-04 -0.411047D-03 -0.193884D-01 -0.341839D-02
     10 -0.915630D-02 -0.718921D-03 -0.482941D-02 -0.173858D-01 -0.589611D-02
     11  0.163489D-02 -0.269090D-02 -0.489796D-03 -0.290336D-03 -0.450286D-02
     12  0.516121D-02 -0.534292D-03 -0.471136D-02  0.115563D-01  0.236913D-02
     13 -0.125248D-02 -0.184064D-03  0.333026D-02  0.374852D-03 -0.174988D-03
     14 -0.107686D-02  0.968628D-03  0.772610D-04 -0.350937D-03  0.596466D-02
     15 -0.560954D-02 -0.298503D-03  0.140765D-02 -0.942090D-02 -0.297440D-02
                6             7             8             9            10 
      6  0.594256D+00
      7 -0.214857D-01  0.341096D+00
      8 -0.548830D-02 -0.407476D-02  0.664351D-02
      9 -0.781238D-01  0.363306D-01  0.176613D-01  0.178930D+00
     10 -0.520934D-01 -0.777601D-01  0.243296D-01  0.173098D+00  0.828293D+00
     11  0.490979D-02  0.115486D-01  0.644405D-02 -0.150353D-01 -0.171757D-01
     12  0.165804D-01  0.622434D-01 -0.119988D-01 -0.800951D-01 -0.163766D-01
     13 -0.814315D-02 -0.251445D-01 -0.178114D-01 -0.136963D+00 -0.723991D+00
     14 -0.417574D-02 -0.119213D-01 -0.686586D-02  0.869955D-03 -0.538832D-03
     15 -0.241489D-01 -0.895311D-01 -0.406966D-03 -0.203002D-01 -0.997983D-01
               11            12            13            14            15 
     11  0.118973D-01
     12  0.230480D-01  0.183826D+00
     13  0.428253D-02 -0.625843D-01  0.750013D+00
     14 -0.111476D-01 -0.128840D-01  0.138879D-01  0.110802D-01
     15 -0.124327D-01 -0.115600D+00  0.204360D+00  0.161126D-01  0.158642D+00
 Force constants in internal coordinates: 
                1             2             3             4             5 
      1  0.512279D+00
      2 -0.103567D-01  0.281079D+00
      3  0.344240D-02  0.270996D-02  0.117303D+00
      4 -0.357561D-02  0.591390D-02  0.152942D+00  0.812120D+00
      5  0.957727D-02  0.655188D-01  0.226369D-02  0.479085D-02  0.216872D+00
      6  0.454863D-02  0.593401D-01  0.410775D-01  0.219371D-01  0.311107D-01
      7 -0.119267D-02  0.377751D-01  0.320410D-01  0.847148D-01  0.211397D-01
      8 -0.183885D-04 -0.175432D-02  0.203412D-02  0.430177D-03  0.195235D-02
      9  0.104007D-03 -0.796862D-03  0.780607D-05  0.539751D-04  0.135584D-02
                6             7             8             9 
      6  0.283614D+00
      7  0.958985D-01  0.482608D+00
      8  0.346689D-02  0.458181D-03 -0.741728D-02
      9  0.313292D-04 -0.308077D-03 -0.377963D-02  0.410352D-01
 Leave Link  716 at Mon Feb 21 21:08:06 2022, MaxMem= 16106127360 cpu:               0.7 elap:               0.0
 (Enter /sw/contrib/gaussian/g16/B01/g16/l103.exe)

 GradGradGradGradGradGradGradGradGradGradGradGradGradGradGradGradGradGrad
 Berny optimization.
 Search for a local minimum.
 Step number   1 out of a maximum of    2
 All quantities printed in internal units (Hartrees-Bohrs-Radians)
 Second derivative matrix not updated -- analytic derivatives used.
 The second derivative matrix:
                          r1        r2        r3        r4        a1
           r1           0.51228
           r2          -0.01036   0.28108
           r3           0.00344   0.00271   0.11730
           r4          -0.00358   0.00591   0.15294   0.81212
           a1           0.00958   0.06552   0.00226   0.00479   0.21687
           a2           0.00455   0.05934   0.04108   0.02194   0.03111
           a3          -0.00119   0.03778   0.03204   0.08471   0.02114
           d1          -0.00002  -0.00175   0.00203   0.00043   0.00195
           d2           0.00010  -0.00080   0.00001   0.00005   0.00136
                          a2        a3        d1        d2
           a2           0.28361
           a3           0.09590   0.48261
           d1           0.00347   0.00046  -0.00742
           d2           0.00003  -0.00031  -0.00378   0.04104
 ITU=  0
     Eigenvalues ---   -0.00782   0.04131   0.07843   0.17519   0.22586
     Eigenvalues ---    0.32523   0.51291   0.51737   0.87100
 Eigenvalue     1 is  -7.82D-03 should be greater than     0.000000 Eigenvector:
                          d1        d2        r3        a2        r2
   1                    0.99667   0.07760  -0.01612  -0.01140   0.01098
                          a1        r4        a3        r1
   1                   -0.01082   0.00261   0.00157   0.00067
 Angle between quadratic step and forces=  30.91 degrees.
 Linear search not attempted -- first point.
 Variable       Old X    -DE/DX   Delta X   Delta X   Delta X     New X
                                 (Linear)    (Quad)   (Total)
    r1        1.83110  -0.00000   0.00000  -0.00013  -0.00013   1.83097
    r2        2.74940  -0.00036   0.00000  -0.00304  -0.00304   2.74636
    r3        2.75670   0.00005   0.00000   0.00125   0.00125   2.75795
    r4        2.21236   0.00041   0.00000   0.00033   0.00033   2.21269
    a1        1.70335   0.00001   0.00000   0.00184   0.00184   1.70519
    a2        1.78543   0.00018   0.00000   0.00254   0.00254   1.78797
    a3        1.90362  -0.00002   0.00000  -0.00041  -0.00041   1.90321
    d1        3.00895  -0.00101   0.00000  -0.13378  -0.13378   2.87516
    d2        3.14159  -0.00051   0.00000  -0.02094  -0.02094   3.12065
         Item               Value     Threshold  Converged?
 Maximum Force            0.001014     0.000450     NO 
 RMS     Force            0.000425     0.000300     NO 
 Maximum Displacement     0.133782     0.001800     NO 
 RMS     Displacement     0.045163     0.001200     NO 
 Predicted change in Energy=-2.168096D-04
                       ----------------------------
                       ! Non-Optimized Parameters !
                       ! (Angstroms and Degrees)  !
 ----------------------                            ----------------------
 !      Name          Value   Derivative information (Atomic Units)     !
 ------------------------------------------------------------------------
 !       r1          0.9689   -DE/DX =    0.0                           !
 !       r2          1.4533   -DE/DX =   -0.0004                        !
 !       r3          1.4594   -DE/DX =    0.0                           !
 !       r4          1.1709   -DE/DX =    0.0004                        !
 !       a1         97.7003   -DE/DX =    0.0                           !
 !       a2        102.443    -DE/DX =    0.0002                        !
 !       a3        109.0462   -DE/DX =    0.0                           !
 !       d1        164.7348   -DE/DX =   -0.001                         !
 !       d2        178.8      -DE/DX =   -0.0005                        !
 ------------------------------------------------------------------------
 GradGradGradGradGradGradGradGradGradGradGradGradGradGradGradGradGradGrad

 Leave Link  103 at Mon Feb 21 21:08:06 2022, MaxMem= 16106127360 cpu:               0.5 elap:               0.0
 (Enter /sw/contrib/gaussian/g16/B01/g16/l9999.exe)

 ----------------------------------------------------------------------

 Electric dipole moment (input orientation):
 (Debye = 10**-18 statcoulomb cm , SI units = C m)
                  (au)            (Debye)         (10**-30 SI)
   Tot        0.572848D+00      0.145603D+01      0.485681D+01
   x         -0.146514D+00     -0.372402D+00     -0.124220D+01
   y          0.154404D-01      0.392455D-01      0.130909D+00
   z         -0.553579D+00     -0.140706D+01     -0.469344D+01

 Dipole polarizability, Alpha (input orientation).
 (esu units = cm**3 , SI units = C**2 m**2 J**-1)
 Alpha(0;0):
               (au)            (10**-24 esu)      (10**-40 SI)
   iso        0.273911D+02      0.405894D+01      0.451618D+01
   aniso      0.219111D+02      0.324688D+01      0.361264D+01
   xx         0.321334D+02      0.476168D+01      0.529808D+01
   yx         0.891191D+00      0.132061D+00      0.146938D+00
   yy         0.180978D+02      0.268182D+01      0.298392D+01
   zx         0.960853D+01      0.142384D+01      0.158423D+01
   zy         0.145948D+01      0.216273D+00      0.240636D+00
   zz         0.319421D+02      0.473333D+01      0.526654D+01

 ----------------------------------------------------------------------

 Dipole orientation:
     1          0.00000000          0.00000000          0.00000000
     8         -0.46833062         -0.04935483         -1.76950614
     8          2.07334450         -0.06870386         -2.81769897
     7          1.59940603         -0.49902465         -5.49904456
     8          3.53186816         -0.55576493         -6.57463448

 Electric dipole moment (dipole orientation):
 (Debye = 10**-18 statcoulomb cm , SI units = C m)
                  (au)            (Debye)         (10**-30 SI)
   Tot        0.572848D+00      0.145603D+01      0.485681D+01
   x          0.000000D+00      0.000000D+00      0.000000D+00
   y          0.000000D+00      0.000000D+00      0.000000D+00
   z          0.572848D+00      0.145603D+01      0.485681D+01

 Dipole polarizability, Alpha (dipole orientation).
 (esu units = cm**3 , SI units = C**2 m**2 J**-1)
 Alpha(0;0):
               (au)            (10**-24 esu)      (10**-40 SI)
   iso        0.273911D+02      0.405894D+01      0.451618D+01
   aniso      0.219111D+02      0.324688D+01      0.361264D+01
   xx         0.273726D+02      0.405620D+01      0.451313D+01
   yx        -0.682112D+00     -0.101079D+00     -0.112465D+00
   yy         0.181947D+02      0.269618D+01      0.299991D+01
   zx        -0.838907D+01     -0.124313D+01     -0.138317D+01
   zy         0.210855D+01      0.312455D+00      0.347654D+00
   zz         0.366060D+02      0.542444D+01      0.603551D+01

 ----------------------------------------------------------------------
 1\1\GINC-N2109\Freq\RMP2-FC\Aug-CC-pVTZ\H1N1O3\CGAVINH\21-Feb-2022\1\\
 #p freq mp2/aug-cc-pvtz density=current\\title\\0,1\H\O,1,r1\O,2,r2,1,
 a1\N,3,r3,2,a2,1,d1,0\O,4,r4,3,a3,2,d2,0\\r1=0.96897556\r2=1.45491931\
 r3=1.45878406\r4=1.17072885\a1=97.59494903\a2=102.29752444\a3=109.0695
 5123\d1=172.39995154\d2=180.\\Version=ES64L-G16RevB.01\State=1-A\HF=-2
 79.5017379\MP2=-280.4468026\RMSD=9.025e-09\RMSF=3.637e-04\ZeroPoint=0.
 0218765\Thermal=0.0259935\Dipole=-0.1465143,0.0154404,-0.553579\Dipole
 Deriv=0.2660421,-0.0011507,0.0481545,-0.0013305,0.3549572,-0.0013105,0
 .0818368,0.005734,0.2748754,-0.3278083,-0.0116503,-0.2060472,0.008844,
 -0.3135192,0.0035228,-0.1117787,-0.0092397,-0.2218532,-0.0471658,0.011
 4377,0.1462099,-0.1078175,-0.1056799,-0.1639577,-0.7454506,-0.142129,-
 1.3317066,0.8965097,0.1019988,0.9036594,0.1032499,0.0881708,0.1886389,
 0.9173208,0.1864411,1.6433294,-0.7875777,-0.1006355,-0.8919766,-0.0029
 46,-0.0239288,-0.0268936,-0.1419284,-0.0408064,-0.364645\Polar=32.1333
 836,0.8911909,18.0977864,9.6085324,1.4594798,31.9420946\Quadrupole=-1.
 5071911,-0.7422894,2.2494805,0.0483441,2.0903361,-0.0305939\PG=C01 [X(
 H1N1O3)]\NImag=1\\0.06468257,0.00062791,-0.00224946,0.00523230,-0.0003
 1553,0.51227867,-0.03572185,-0.00172443,-0.01617600,0.27237270,-0.0002
 5678,0.00298556,0.00049539,0.00387995,0.00276050,0.04829327,0.00122597
 ,-0.50856391,0.03342902,0.00352828,0.59425620,-0.01855193,0.00199950,0
 .01244284,-0.21963992,0.00244793,-0.02148569,0.34109648,-0.00092916,0.
 00098617,0.00023268,-0.00151425,-0.00720786,-0.00548830,-0.00407476,0.
 00664351,-0.05307723,-0.00007765,-0.00041105,-0.01938840,-0.00341839,-
 0.07812379,0.03633059,0.01766134,0.17893017,-0.00915630,-0.00071892,-0
 .00482941,-0.01738578,-0.00589611,-0.05209344,-0.07776008,0.02432957,0
 .17309768,0.82829331,0.00163489,-0.00269090,-0.00048980,-0.00029034,-0
 .00450286,0.00490979,0.01154862,0.00644405,-0.01503527,-0.01717571,0.0
 1189731,0.00516121,-0.00053429,-0.00471136,0.01155628,0.00236913,0.016
 58039,0.06224337,-0.01199876,-0.08009514,-0.01637656,0.02304797,0.1838
 2635,-0.00125248,-0.00018406,0.00333026,0.00037485,-0.00017499,-0.0081
 4315,-0.02514455,-0.01781141,-0.13696264,-0.72399114,0.00428253,-0.062
 58430,0.75001332,-0.00107686,0.00096863,0.00007726,-0.00035094,0.00596
 466,-0.00417574,-0.01192130,-0.00686586,0.00086995,-0.00053883,-0.0111
 4759,-0.01288405,0.01388793,0.01108017,-0.00560954,-0.00029850,0.00140
 765,-0.00942090,-0.00297440,-0.02414890,-0.08953112,-0.00040697,-0.020
 30019,-0.09979827,-0.01243269,-0.11560023,0.20435983,0.01611257,0.1586
 4167\\0.00000354,-0.00055923,-0.00000338,-0.00037085,0.00072648,0.0000
 0590,0.00043474,0.00023397,-0.00001394,0.00032756,-0.00063896,0.000136
 60,-0.00039499,0.00023774,-0.00012518\\\@


 CONTRAIWISE...CONTINUED TWEEDLEDEE, IF IT WAS SO, IT MIGHT BE,
 AND IF IT WERE SO, IT WOULD BE.....
 BUT AS IT ISN'T, IT AIN'T....
 THAT'S LOGIC.....
 ALICE THROUGH THE LOOKING GLASS
 Job cpu time:       0 days  2 hours  9 minutes 47.1 seconds.
 Elapsed time:       0 days  0 hours  4 minutes 45.4 seconds.
 File lengths (MBytes):  RWF=   7239 Int=      0 D2E=      0 Chk=      8 Scr=      1
 Normal termination of Gaussian 16 at Mon Feb 21 21:08:07 2022.
