title                                                                   
Freq      RMP2-FC                                                     Aug-CC-pVTZ         
Number of atoms                            I                5
Info1-9                                    I   N=           9
          33          24           0           0           0         100
           6           2           1
Full Title                                 C   N=           1
title       
Route                                      C   N=           4
#p freq mp2/aug-cc-pvtz density=current         
Charge                                     I                0
Multiplicity                               I                1
Number of electrons                        I               32
Number of alpha electrons                  I               16
Number of beta electrons                   I               16
Number of basis functions                  I              207
Number of independent functions            I              207
Number of point charges in /Mol/           I                0
Number of translation vectors              I                0
Atomic numbers                             I   N=           5
           1           8           8           7           8
Nuclear charges                            R   N=           5
  1.00000000E+00  8.00000000E+00  8.00000000E+00  7.00000000E+00  8.00000000E+00
Current cartesian coordinates              R   N=          15
  2.92246201E+00  3.21408097E+00  1.46618645E-31  2.74752978E+00  1.39135769E+00
  1.08881370E-31  3.61498089E-17  1.28999133E+00  3.47427895E-32 -4.94414768E-01
 -1.46208528E+00 -5.65641663E-32 -2.68022461E+00 -1.80378452E+00 -1.12704037E-31
Number of symbols in /Mol/                 I                0
Force Field                                I                0
Atom Types                                 C   N=           5
                                                            
Int Atom Types                             I   N=           5
           0           0           0           0           0
MM charges                                 R   N=           5
  0.00000000E+00  0.00000000E+00  0.00000000E+00  0.00000000E+00  0.00000000E+00
Integer atomic weights                     I   N=           5
           1          16          16          14          16
Real atomic weights                        R   N=           5
  1.00782504E+00  1.59949146E+01  1.59949146E+01  1.40030740E+01  1.59949146E+01
Atom fragment info                         I   N=           5
           0           0           0           0           0
Atom residue num                           I   N=           5
           0           0           0           0           0
Nuclear spins                              I   N=           5
           1           0           0           2           0
Nuclear ZEff                               R   N=           5
 -1.00000000E+00 -5.60000000E+00 -5.60000000E+00 -4.55000000E+00 -5.60000000E+00
Nuclear ZNuc                               R   N=           5
  1.00000000E+00  8.00000000E+00  8.00000000E+00  7.00000000E+00  8.00000000E+00
Nuclear QMom                               R   N=           5
  0.00000000E+00  0.00000000E+00  0.00000000E+00  2.04400000E+00  0.00000000E+00
Nuclear GFac                               R   N=           5
  2.79284600E+00  0.00000000E+00  0.00000000E+00  4.03761000E-01  0.00000000E+00
MicOpt                                     I   N=           5
          -1          -1          -1          -1          -1
Number of residues                         I                0
Number of secondary structures             I                0
SymInf integers                            I   N=          26
           1           2           1           1           1           1
           1          -1           0           0           0           0
           0           0           0           0           0           0
           0           0           0           0           0           0
           0           0
RotTr to input orientation                 R   N=          12
 -9.95426164E-01 -9.78008129E-17 -9.55340381E-02  9.55340381E-02 -7.37061654E-17
 -9.95426164E-01  9.03120404E-17 -1.00000000E+00  8.27123521E-17  2.60204101E+00
  0.00000000E+00  3.47857489E+00
Number of contracted shells                I               65
Number of primitive shells                 I              119
Pure/Cartesian d shells                    I                0
Pure/Cartesian f shells                    I                0
Highest angular momentum                   I                3
Largest degree of contraction              I                7
Shell types                                I   N=          65
           0           0           0           0           1           1
           1          -2          -2           0           0           0
           0           0           1           1           1           1
          -2          -2          -2          -3          -3           0
           0           0           0           0           1           1
           1           1          -2          -2          -2          -3
          -3           0           0           0           0           0
           1           1           1           1          -2          -2
          -2          -3          -3           0           0           0
           0           0           1           1           1           1
          -2          -2          -2          -3          -3
Number of primitives per shell             I   N=          65
           3           1           1           1           1           1
           1           1           1           7           6           1
           1           1           3           1           1           1
           1           1           1           1           1           7
           6           1           1           1           3           1
           1           1           1           1           1           1
           1           7           6           1           1           1
           3           1           1           1           1           1
           1           1           1           7           6           1
           1           1           3           1           1           1
           1           1           1           1           1
Shell to atom map                          I   N=          65
           1           1           1           1           1           1
           1           1           1           2           2           2
           2           2           2           2           2           2
           2           2           2           2           2           3
           3           3           3           3           3           3
           3           3           3           3           3           3
           3           4           4           4           4           4
           4           4           4           4           4           4
           4           4           4           5           5           5
           5           5           5           5           5           5
           5           5           5           5           5
Primitive exponents                        R   N=         119
  3.38700000E+01  5.09500000E+00  1.15900000E+00  3.25800000E-01  1.02700000E-01
  2.52600000E-02  1.40700000E+00  3.88000000E-01  1.02000000E-01  1.05700000E+00
  2.47000000E-01  1.53300000E+04  2.29900000E+03  5.22400000E+02  1.47300000E+02
  4.75500000E+01  1.67600000E+01  6.20700000E+00  5.22400000E+02  1.47300000E+02
  4.75500000E+01  1.67600000E+01  6.20700000E+00  6.88200000E-01  1.75200000E+00
  2.38400000E-01  7.37600000E-02  3.44600000E+01  7.74900000E+00  2.28000000E+00
  7.15600000E-01  2.14000000E-01  5.97400000E-02  2.31400000E+00  6.45000000E-01
  2.14000000E-01  1.42800000E+00  5.00000000E-01  1.53300000E+04  2.29900000E+03
  5.22400000E+02  1.47300000E+02  4.75500000E+01  1.67600000E+01  6.20700000E+00
  5.22400000E+02  1.47300000E+02  4.75500000E+01  1.67600000E+01  6.20700000E+00
  6.88200000E-01  1.75200000E+00  2.38400000E-01  7.37600000E-02  3.44600000E+01
  7.74900000E+00  2.28000000E+00  7.15600000E-01  2.14000000E-01  5.97400000E-02
  2.31400000E+00  6.45000000E-01  2.14000000E-01  1.42800000E+00  5.00000000E-01
  1.14200000E+04  1.71200000E+03  3.89300000E+02  1.10000000E+02  3.55700000E+01
  1.25400000E+01  4.64400000E+00  3.89300000E+02  1.10000000E+02  3.55700000E+01
  1.25400000E+01  4.64400000E+00  5.11800000E-01  1.29300000E+00  1.78700000E-01
  5.76000000E-02  2.66300000E+01  5.94800000E+00  1.74200000E+00  5.55000000E-01
  1.72500000E-01  4.91000000E-02  1.65400000E+00  4.69000000E-01  1.51000000E-01
  1.09300000E+00  3.64000000E-01  1.53300000E+04  2.29900000E+03  5.22400000E+02
  1.47300000E+02  4.75500000E+01  1.67600000E+01  6.20700000E+00  5.22400000E+02
  1.47300000E+02  4.75500000E+01  1.67600000E+01  6.20700000E+00  6.88200000E-01
  1.75200000E+00  2.38400000E-01  7.37600000E-02  3.44600000E+01  7.74900000E+00
  2.28000000E+00  7.15600000E-01  2.14000000E-01  5.97400000E-02  2.31400000E+00
  6.45000000E-01  2.14000000E-01  1.42800000E+00  5.00000000E-01
Contraction coefficients                   R   N=         119
  2.54948632E-02  1.90362766E-01  8.52162022E-01  1.00000000E+00  1.00000000E+00
  1.00000000E+00  1.00000000E+00  1.00000000E+00  1.00000000E+00  1.00000000E+00
  1.00000000E+00  5.19808943E-04  4.02025621E-03  2.07128267E-02  8.10105536E-02
  2.35962985E-01  4.42653446E-01  3.57064423E-01 -4.42115008E-05 -1.22591041E-03
 -1.05517725E-02 -6.74452633E-02 -1.71198607E-01  1.07329856E+00  1.00000000E+00
  1.00000000E+00  1.00000000E+00  4.11634896E-02  2.57762836E-01  8.02419274E-01
  1.00000000E+00  1.00000000E+00  1.00000000E+00  1.00000000E+00  1.00000000E+00
  1.00000000E+00  1.00000000E+00  1.00000000E+00  5.19808943E-04  4.02025621E-03
  2.07128267E-02  8.10105536E-02  2.35962985E-01  4.42653446E-01  3.57064423E-01
 -4.42115008E-05 -1.22591041E-03 -1.05517725E-02 -6.74452633E-02 -1.71198607E-01
  1.07329856E+00  1.00000000E+00  1.00000000E+00  1.00000000E+00  4.11634896E-02
  2.57762836E-01  8.02419274E-01  1.00000000E+00  1.00000000E+00  1.00000000E+00
  1.00000000E+00  1.00000000E+00  1.00000000E+00  1.00000000E+00  1.00000000E+00
  5.34563860E-04  4.13435660E-03  2.12335358E-02  8.25006224E-02  2.38138871E-01
  4.42551547E-01  3.53757422E-01 -4.89867350E-05 -1.19527323E-03 -1.03490714E-02
 -6.48680190E-02 -1.71552477E-01  1.07289568E+00  1.00000000E+00  1.00000000E+00
  1.00000000E+00  3.98072123E-02  2.49002660E-01  8.10479727E-01  1.00000000E+00
  1.00000000E+00  1.00000000E+00  1.00000000E+00  1.00000000E+00  1.00000000E+00
  1.00000000E+00  1.00000000E+00  5.19808943E-04  4.02025621E-03  2.07128267E-02
  8.10105536E-02  2.35962985E-01  4.42653446E-01  3.57064423E-01 -4.42115008E-05
 -1.22591041E-03 -1.05517725E-02 -6.74452633E-02 -1.71198607E-01  1.07329856E+00
  1.00000000E+00  1.00000000E+00  1.00000000E+00  4.11634896E-02  2.57762836E-01
  8.02419274E-01  1.00000000E+00  1.00000000E+00  1.00000000E+00  1.00000000E+00
  1.00000000E+00  1.00000000E+00  1.00000000E+00  1.00000000E+00
Coordinates of each shell                  R   N=         195
  2.92246201E+00  3.21408097E+00  1.18348307E-31  2.92246201E+00  3.21408097E+00
  1.18348307E-31  2.92246201E+00  3.21408097E+00  1.18348307E-31  2.92246201E+00
  3.21408097E+00  1.18348307E-31  2.92246201E+00  3.21408097E+00  1.18348307E-31
  2.92246201E+00  3.21408097E+00  1.18348307E-31  2.92246201E+00  3.21408097E+00
  1.18348307E-31  2.92246201E+00  3.21408097E+00  1.18348307E-31  2.92246201E+00
  3.21408097E+00  1.18348307E-31  2.74752978E+00  1.39135769E+00  8.12589516E-32
  2.74752978E+00  1.39135769E+00  8.12589516E-32  2.74752978E+00  1.39135769E+00
  8.12589516E-32  2.74752978E+00  1.39135769E+00  8.12589516E-32  2.74752978E+00
  1.39135769E+00  8.12589516E-32  2.74752978E+00  1.39135769E+00  8.12589516E-32
  2.74752978E+00  1.39135769E+00  8.12589516E-32  2.74752978E+00  1.39135769E+00
  8.12589516E-32  2.74752978E+00  1.39135769E+00  8.12589516E-32  2.74752978E+00
  1.39135769E+00  8.12589516E-32  2.74752978E+00  1.39135769E+00  8.12589516E-32
  2.74752978E+00  1.39135769E+00  8.12589516E-32  2.74752978E+00  1.39135769E+00
  8.12589516E-32  2.74752978E+00  1.39135769E+00  8.12589516E-32  6.24002541E-18
  1.28999133E+00  2.37414675E-32  6.24002541E-18  1.28999133E+00  2.37414675E-32
  6.24002541E-18  1.28999133E+00  2.37414675E-32  6.24002541E-18  1.28999133E+00
  2.37414675E-32  6.24002541E-18  1.28999133E+00  2.37414675E-32  6.24002541E-18
  1.28999133E+00  2.37414675E-32  6.24002541E-18  1.28999133E+00  2.37414675E-32
  6.24002541E-18  1.28999133E+00  2.37414675E-32  6.24002541E-18  1.28999133E+00
  2.37414675E-32  6.24002541E-18  1.28999133E+00  2.37414675E-32  6.24002541E-18
  1.28999133E+00  2.37414675E-32  6.24002541E-18  1.28999133E+00  2.37414675E-32
  6.24002541E-18  1.28999133E+00  2.37414675E-32  6.24002541E-18  1.28999133E+00
  2.37414675E-32 -4.94414768E-01 -1.46208528E+00 -3.69232414E-32 -4.94414768E-01
 -1.46208528E+00 -3.69232414E-32 -4.94414768E-01 -1.46208528E+00 -3.69232414E-32
 -4.94414768E-01 -1.46208528E+00 -3.69232414E-32 -4.94414768E-01 -1.46208528E+00
 -3.69232414E-32 -4.94414768E-01 -1.46208528E+00 -3.69232414E-32 -4.94414768E-01
 -1.46208528E+00 -3.69232414E-32 -4.94414768E-01 -1.46208528E+00 -3.69232414E-32
 -4.94414768E-01 -1.46208528E+00 -3.69232414E-32 -4.94414768E-01 -1.46208528E+00
 -3.69232414E-32 -4.94414768E-01 -1.46208528E+00 -3.69232414E-32 -4.94414768E-01
 -1.46208528E+00 -3.69232414E-32 -4.94414768E-01 -1.46208528E+00 -3.69232414E-32
 -4.94414768E-01 -1.46208528E+00 -3.69232414E-32 -2.68022461E+00 -1.80378452E+00
 -8.74861212E-32 -2.68022461E+00 -1.80378452E+00 -8.74861212E-32 -2.68022461E+00
 -1.80378452E+00 -8.74861212E-32 -2.68022461E+00 -1.80378452E+00 -8.74861212E-32
 -2.68022461E+00 -1.80378452E+00 -8.74861212E-32 -2.68022461E+00 -1.80378452E+00
 -8.74861212E-32 -2.68022461E+00 -1.80378452E+00 -8.74861212E-32 -2.68022461E+00
 -1.80378452E+00 -8.74861212E-32 -2.68022461E+00 -1.80378452E+00 -8.74861212E-32
 -2.68022461E+00 -1.80378452E+00 -8.74861212E-32 -2.68022461E+00 -1.80378452E+00
 -8.74861212E-32 -2.68022461E+00 -1.80378452E+00 -8.74861212E-32 -2.68022461E+00
 -1.80378452E+00 -8.74861212E-32 -2.68022461E+00 -1.80378452E+00 -8.74861212E-32
Num ILSW                                   I              100
ILSW                                       I   N=         100
           0           0           0           0           2           0
           0           0           0           0           0          -1
           5           0           0           0           2           0
           0           0           0           0           1           0
           1           0           0           0           0           0
           0           0      100000           0          -1           0
           0           0           0           0           0           0
           0           0           0           1           1           0
           0 -2000000000           1           0           0           0
           0           0           4          52           0           0
           0           0           0           0           0           0
           0           0           0           5           4           1
           0           0           0           0           0           0
           0           0           0           0           0           0
           0           0           0           0           0           0
           0           0           0           0           0           0
           0           0           0           0
Num RLSW                                   I               52
RLSW                                       R   N=          52
  1.00000000E+00  1.00000000E+00  1.00000000E+00  1.00000000E+00  1.00000000E+00
  0.00000000E+00  0.00000000E+00  1.00000000E+00  0.00000000E+00  0.00000000E+00
  0.00000000E+00  0.00000000E+00  1.00000000E+00  0.00000000E+00  0.00000000E+00
  0.00000000E+00  0.00000000E+00  1.00000000E+00  0.00000000E+00  0.00000000E+00
  0.00000000E+00  0.00000000E+00  1.00000000E+00  0.00000000E+00  0.00000000E+00
  0.00000000E+00  0.00000000E+00  1.00000000E+00  0.00000000E+00  0.00000000E+00
  0.00000000E+00  0.00000000E+00  1.00000000E+00  0.00000000E+00  0.00000000E+00
  0.00000000E+00  0.00000000E+00  0.00000000E+00  1.00000000E+00  1.00000000E+00
  0.00000000E+00  1.00000000E+00  0.00000000E+00  0.00000000E+00  0.00000000E+00
  0.00000000E+00  0.00000000E+00  0.00000000E+00  0.00000000E+00  0.00000000E+00
  0.00000000E+00  0.00000000E+00
MxBond                                     I                2
NBond                                      I   N=           5
           1           2           2           2           1
IBond                                      I   N=          10
           2           0           1           3           2           4
           3           5           4           0
RBond                                      R   N=          10
  1.00000000E+00  0.00000000E+00  1.00000000E+00  1.00000000E+00  1.00000000E+00
  1.00000000E+00  1.00000000E+00  2.00000000E+00  2.00000000E+00  0.00000000E+00
Virial Ratio                               R      2.002464197323283E+00
SCF Energy                                 R     -2.794995676979768E+02
MP2 Energy                                 R     -2.804466447626569E+02
Total Energy                               R     -2.804466447626569E+02
Post-SCF wavefunction norm                 R      1.585488495076757E+00
RMS Force                                  R      2.103437938850848E-03
RMS Density                                R      4.097892762717270E-09
NImag                                      I                1
Job Status                                 I                1
Nuclear derivative order                   I                2
External E-field                           R   N=          35
  0.00000000E+00  0.00000000E+00  0.00000000E+00  0.00000000E+00  0.00000000E+00
  0.00000000E+00  0.00000000E+00  0.00000000E+00  0.00000000E+00  0.00000000E+00
  0.00000000E+00  0.00000000E+00  0.00000000E+00  0.00000000E+00  0.00000000E+00
  0.00000000E+00  0.00000000E+00  0.00000000E+00  0.00000000E+00  0.00000000E+00
  0.00000000E+00  0.00000000E+00  0.00000000E+00  0.00000000E+00  0.00000000E+00
  0.00000000E+00  0.00000000E+00  0.00000000E+00  0.00000000E+00  0.00000000E+00
  0.00000000E+00  0.00000000E+00  0.00000000E+00  0.00000000E+00  0.00000000E+00
IOpCl                                      I                0
IROHF                                      I                0
Alpha Orbital Energies                     R   N=         207
 -2.06892249E+01 -2.06873564E+01 -2.06574256E+01 -1.58162028E+01 -1.62328191E+00
 -1.49269826E+00 -1.24818066E+00 -9.49737918E-01 -7.71146176E-01 -7.56846708E-01
 -7.08426231E-01 -6.80426990E-01 -6.21463612E-01 -5.88289989E-01 -4.83001058E-01
 -4.71489717E-01  3.02005881E-02  6.89886181E-02  8.55437528E-02  1.01472754E-01
  1.33836627E-01  1.34093339E-01  1.44514395E-01  1.54943147E-01  1.78714727E-01
  1.94066328E-01  1.99702885E-01  2.03304975E-01  2.21357898E-01  2.36324290E-01
  2.37142545E-01  2.65521794E-01  2.85424525E-01  3.04340286E-01  3.09807409E-01
  3.41882328E-01  3.49016155E-01  3.86901214E-01  4.22755284E-01  4.32365086E-01
  5.26301393E-01  5.28329733E-01  5.56250161E-01  5.80500731E-01  6.24419727E-01
  6.37088051E-01  6.73705091E-01  6.84497145E-01  7.07081975E-01  7.11572177E-01
  7.24358794E-01  7.30865422E-01  7.45446666E-01  7.90249885E-01  7.92802173E-01
  8.09495171E-01  8.14204667E-01  8.29648139E-01  8.66642352E-01  9.08210669E-01
  9.22735005E-01  9.24787112E-01  9.58572240E-01  9.74602721E-01  9.85483304E-01
  1.01823878E+00  1.05114042E+00  1.05372518E+00  1.08049885E+00  1.11605415E+00
  1.13916256E+00  1.18841907E+00  1.22013091E+00  1.23215876E+00  1.33652174E+00
  1.34652398E+00  1.38841927E+00  1.45022752E+00  1.48764517E+00  1.50973498E+00
  1.53664363E+00  1.56439422E+00  1.57588329E+00  1.61220149E+00  1.66244259E+00
  1.66961843E+00  1.70125428E+00  1.79297823E+00  1.83015935E+00  1.83116439E+00
  1.87887585E+00  1.90755216E+00  1.95588818E+00  1.98800505E+00  2.00318657E+00
  2.07125606E+00  2.11851915E+00  2.12913459E+00  2.15250638E+00  2.22038396E+00
  2.26270668E+00  2.26632234E+00  2.28740889E+00  2.31377196E+00  2.33892412E+00
  2.38610782E+00  2.42126311E+00  2.42392356E+00  2.45209767E+00  2.46064093E+00
  2.47312219E+00  2.49818210E+00  2.59141270E+00  2.59504131E+00  2.61589209E+00
  2.62289873E+00  2.63626569E+00  2.66551749E+00  2.75405509E+00  2.81471942E+00
  2.84633447E+00  2.87660686E+00  2.89531017E+00  2.90670589E+00  2.95693748E+00
  3.01762318E+00  3.05954326E+00  3.11589953E+00  3.20597903E+00  3.22426699E+00
  3.31306688E+00  3.33603780E+00  3.51359517E+00  3.63575322E+00  3.82847440E+00
  3.83989559E+00  4.14843138E+00  4.16842683E+00  4.18126047E+00  4.24871741E+00
  4.35184501E+00  4.39286259E+00  4.46476490E+00  4.51650804E+00  4.65438160E+00
  4.70722787E+00  4.79975313E+00  4.81136418E+00  4.83160825E+00  4.89347885E+00
  5.01621727E+00  5.07138418E+00  5.09440972E+00  5.14545194E+00  5.17290073E+00
  5.23744840E+00  5.26457734E+00  5.30403437E+00  5.32841119E+00  5.34653371E+00
  5.59980600E+00  5.66980948E+00  5.75665114E+00  5.83049767E+00  5.94770507E+00
  6.15956744E+00  6.30852714E+00  6.32990915E+00  6.39142017E+00  6.48858972E+00
  6.50101674E+00  6.61294312E+00  6.66886016E+00  6.69329868E+00  6.76078250E+00
  6.76350166E+00  6.82627833E+00  6.89187871E+00  7.00855478E+00  7.05353771E+00
  7.05892592E+00  7.09037993E+00  7.11810594E+00  7.14407484E+00  7.18078602E+00
  7.21469443E+00  7.24295867E+00  7.31118137E+00  7.32178567E+00  7.34107656E+00
  7.39301779E+00  7.42100373E+00  7.47902855E+00  7.60402381E+00  7.60450816E+00
  7.61472183E+00  7.65606575E+00  7.78096247E+00  7.88200292E+00  8.06908521E+00
  8.30504123E+00  8.40881194E+00  8.53457325E+00  1.33491729E+01  1.42840681E+01
  1.51452273E+01  1.61136021E+01
Alpha MO coefficients                      R   N=       42849
  3.70160680E-05 -9.71962022E-04 -4.78763887E-04 -1.24996671E-05 -2.24429473E-05
  1.68873999E-05  0.00000000E+00  4.13753962E-06  2.74897310E-04  0.00000000E+00
 -4.09369791E-05  1.33540841E-04  0.00000000E+00  2.54305546E-05  0.00000000E+00
  0.00000000E+00  1.37888887E-05  1.01368822E-05 -2.49523864E-05  0.00000000E+00
  0.00000000E+00  1.06416666E-05  3.01325135E-05  3.44907709E-05  8.77563482E-05
 -2.87963422E-05  7.04770756E-04  6.16835892E-04  8.47648855E-06  2.23720963E-06
  0.00000000E+00 -6.14458688E-05  1.93833290E-05  0.00000000E+00  3.50222096E-04
  8.62232847E-04  0.00000000E+00  1.07582191E-05  7.75682518E-05  0.00000000E+00
 -2.59639476E-06  0.00000000E+00  0.00000000E+00  7.08314196E-07 -6.81093998E-06
 -3.08243908E-05  0.00000000E+00  0.00000000E+00 -3.28026392E-05  8.63004942E-05
 -1.73381583E-05  0.00000000E+00  0.00000000E+00 -2.68432775E-04 -1.48716133E-04
  0.00000000E+00  8.02776033E-06  5.53183204E-06  0.00000000E+00  0.00000000E+00
  4.44831785E-06 -1.84366080E-05  0.00000000E+00 -4.34246926E-05 -3.61843810E-05
  0.00000000E+00  0.00000000E+00 -7.00021938E-05  1.40209741E-05 -8.90609001E-03
  1.48079737E-04 -4.20208353E-04 -1.15464893E-04 -4.76506560E-04 -8.87284491E-06
  3.14130853E-05  0.00000000E+00 -4.82969803E-05 -6.76341433E-05  0.00000000E+00
  2.51295405E-04 -9.53640517E-05  0.00000000E+00 -1.76859380E-04 -5.05318002E-05
  0.00000000E+00 -8.84444960E-06  0.00000000E+00  0.00000000E+00  2.09612451E-05
  1.78929902E-05 -4.93110033E-06  0.00000000E+00  0.00000000E+00 -1.00456763E-04
 -3.23798615E-05  3.94562826E-06  0.00000000E+00  0.00000000E+00 -1.86325783E-04
 -1.87877024E-04  0.00000000E+00  4.54287379E-06  1.32800104E-06  0.00000000E+00
  0.00000000E+00  4.81572005E-06 -1.66480966E-05  0.00000000E+00 -4.88131157E-05
 -1.22619030E-06  0.00000000E+00  0.00000000E+00 -7.27079699E-05  1.86406899E-04
  2.59665800E-04  1.46761960E-03 -7.90254685E-05 -1.45800499E-03  4.29029209E-04
 -1.45674248E-04 -4.14677026E-08  0.00000000E+00 -2.07080201E-03 -4.01991172E-04
  0.00000000E+00  1.02946117E-03  7.81702290E-04  0.00000000E+00 -1.71665027E-04
  5.84194289E-05  0.00000000E+00 -1.23320483E-04  0.00000000E+00  0.00000000E+00
  2.41164239E-04  9.40219315E-05 -4.42066645E-04  0.00000000E+00  0.00000000E+00
  9.03822771E-04 -4.31368656E-05  6.74049441E-06  0.00000000E+00  0.00000000E+00
 -3.35527513E-04 -1.13432605E-04  0.00000000E+00 -2.16890354E-06  1.61181689E-05
  0.00000000E+00  0.00000000E+00  1.80674294E-05  1.47963919E-05  0.00000000E+00
  1.68070164E-04 -6.65467190E-05  0.00000000E+00  0.00000000E+00 -2.49126408E-04
  3.54939921E-05  9.76616627E-01 -9.85313198E-03  4.35549431E-02  4.47750776E-03
 -4.54714174E-04  2.14339649E-03  4.82488389E-04  0.00000000E+00 -2.38209757E-03
 -6.04479529E-04  0.00000000E+00  1.13988341E-03  4.01704876E-06  0.00000000E+00
  2.47947726E-06 -4.03473858E-05  0.00000000E+00 -2.31915352E-04  0.00000000E+00
  0.00000000E+00  1.04224751E-04  3.12347928E-05  3.87072244E-04  0.00000000E+00
  0.00000000E+00 -8.28884712E-04 -4.17990031E-04 -1.55648485E-04  0.00000000E+00
  0.00000000E+00  2.60107034E-04  2.14331696E-05  0.00000000E+00  5.17679410E-05
  1.76919340E-05  0.00000000E+00  0.00000000E+00 -2.23880330E-05 -1.33971352E-05
  0.00000000E+00  1.36182467E-04  8.82652449E-06  0.00000000E+00  0.00000000E+00
 -1.88335126E-04 -1.39736542E-04  9.36832881E-05 -6.81709453E-04 -7.66761978E-04
 -5.07714398E-06 -2.29330673E-05 -2.67171042E-05  0.00000000E+00 -4.90789696E-05
  7.34040694E-05  0.00000000E+00  8.79106961E-05  4.86244789E-05  0.00000000E+00
  3.28124558E-05  0.00000000E+00  0.00000000E+00 -4.86177874E-05  2.21315093E-05
 -4.73037288E-06  0.00000000E+00  0.00000000E+00 -1.40212712E-04  1.17579993E-04
  4.73367259E-03 -2.78599018E-04  1.98428928E-05  1.54978501E-03  1.83596064E-03
  1.06359823E-04  8.08997403E-06  0.00000000E+00 -6.16045452E-04 -3.58570516E-05
  0.00000000E+00 -1.05966158E-03  8.18967219E-04  0.00000000E+00 -3.99074880E-04
  6.64308792E-05  0.00000000E+00  2.87309575E-05  0.00000000E+00  0.00000000E+00
 -5.46356004E-05  4.66522825E-06 -3.79158884E-04  0.00000000E+00  0.00000000E+00
  7.40379332E-04 -2.12771365E-05 -4.48372178E-04  0.00000000E+00  0.00000000E+00
  2.25228238E-04 -6.76547109E-06  0.00000000E+00  8.04339599E-05  1.30754786E-05
  0.00000000E+00  0.00000000E+00 -1.09761845E-04 -4.40438932E-06  0.00000000E+00
  2.54308303E-04 -2.73963376E-05  0.00000000E+00  0.00000000E+00 -3.59632436E-04
  4.37091443E-05  9.76885651E-01 -9.20375356E-03  4.32896545E-02  2.20449881E-03
 -8.48854265E-04  1.50810548E-03 -1.30652549E-03  0.00000000E+00 -1.46163519E-03
  1.31173974E-03  0.00000000E+00  1.11487423E-04 -1.21744792E-03  0.00000000E+00
 -1.38613279E-04 -2.54630482E-05  0.00000000E+00  5.16645300E-05  0.00000000E+00
  0.00000000E+00 -2.95776948E-05  1.97208681E-05  7.28607374E-04  0.00000000E+00
  0.00000000E+00 -2.64505879E-04 -3.76085577E-04 -3.74953295E-04  0.00000000E+00
  0.00000000E+00 -3.14260131E-04 -3.68780411E-04  0.00000000E+00  4.93929601E-05
 -4.66952422E-05  0.00000000E+00  0.00000000E+00 -3.77916801E-05 -1.50728939E-05
  0.00000000E+00  1.98314721E-05  3.07179049E-05  0.00000000E+00  0.00000000E+00
 -3.00202456E-04 -1.24672079E-04  3.46346726E-05  1.77629461E-05 -2.46059577E-04
 -7.80722491E-04 -1.60556747E-04 -2.85018566E-05 -9.27600415E-05  0.00000000E+00
  2.30650702E-04  6.06454255E-04  0.00000000E+00 -8.44035395E-04 -5.78823438E-04
  0.00000000E+00 -1.28760379E-04 -3.72470608E-05  0.00000000E+00 -1.15568516E-05
  0.00000000E+00  0.00000000E+00 -1.17683978E-05  1.18655378E-05 -3.11412428E-04
  0.00000000E+00  0.00000000E+00 -7.79551344E-04  1.19829975E-04 -2.71035883E-05
  0.00000000E+00  0.00000000E+00  1.05067759E-04 -1.08584591E-04  0.00000000E+00
 -1.98858923E-05 -1.16088528E-04  0.00000000E+00  0.00000000E+00 -5.73677214E-05
 -1.35613118E-04  0.00000000E+00  1.10266218E-05 -1.44926098E-04  0.00000000E+00
  0.00000000E+00  5.98214722E-05 -4.24062597E-04  8.94310135E-03  1.13551020E-05
  3.88867919E-04 -2.20784612E-04  1.01545507E-04  1.79071613E-05 -2.44025466E-05
  0.00000000E+00  3.81072366E-05  1.67043191E-04  0.00000000E+00  2.21410124E-04
  2.32375286E-04  0.00000000E+00  1.17977097E-04  2.25658284E-05  0.00000000E+00
 -6.91977314E-06  0.00000000E+00  0.00000000E+00 -1.61389111E-05  9.18719486E-07
  8.14829464E-06  0.00000000E+00  0.00000000E+00  6.40197795E-05  9.35951771E-05
 -9.73679601E-05  0.00000000E+00  0.00000000E+00  1.62265191E-04  1.73812509E-04
  0.00000000E+00  1.57121013E-05 -4.83183511E-06  0.00000000E+00  0.00000000E+00
 -7.19899802E-06 -1.05356766E-05  0.00000000E+00 -2.81421687E-05  4.73305491E-05
  0.00000000E+00  0.00000000E+00  8.09234046E-05  9.20976774E-05  4.75192639E-04
  2.02839722E-03  9.01318302E-05  1.37488630E-05 -4.11221847E-05 -2.45962078E-04
  0.00000000E+00  1.16598160E-04 -1.26350377E-03  0.00000000E+00  3.09539552E-04
 -3.28258580E-04  0.00000000E+00 -1.79323179E-06  0.00000000E+00  0.00000000E+00
  7.65640867E-05  1.56247284E-05 -1.59581016E-04  0.00000000E+00  0.00000000E+00
 -5.36964008E-04 -2.64337800E-05  9.76829565E-01 -9.15944376E-03  4.34489566E-02
  1.86687423E-04 -1.10719451E-03 -1.56277454E-03  1.43557159E-03  0.00000000E+00
  1.57358308E-03 -1.27607403E-03  0.00000000E+00 -5.61581030E-04 -8.39109681E-04
  0.00000000E+00  5.46204317E-05 -2.46611071E-05  0.00000000E+00  2.93729152E-05
  0.00000000E+00  0.00000000E+00 -1.17391156E-04 -3.92364341E-06  7.54539165E-04
  0.00000000E+00  0.00000000E+00 -1.99823280E-04 -2.35524310E-04 -2.70350110E-04
  0.00000000E+00  0.00000000E+00  1.66018599E-04  1.27444802E-04  0.00000000E+00
 -6.41182314E-05  1.09214887E-06  0.00000000E+00  0.00000000E+00  1.89102762E-05