 Entering Gaussian System, Link 0=g16
 Input=hoono_r1_0p954861.gjf
 Output=hoono_r1_0p954861.log
 Initial command:
 /sw/contrib/gaussian/g16/B01/g16/l1.exe "/scr/Gau-5147.inp" -scrdir="/scr/"
 Entering Link 1 = /sw/contrib/gaussian/g16/B01/g16/l1.exe PID=      5148.
  
 Copyright (c) 1988-2017, Gaussian, Inc.  All Rights Reserved.
  
 This is part of the Gaussian(R) 16 program.  It is based on
 the Gaussian(R) 09 system (copyright 2009, Gaussian, Inc.),
 the Gaussian(R) 03 system (copyright 2003, Gaussian, Inc.),
 the Gaussian(R) 98 system (copyright 1998, Gaussian, Inc.),
 the Gaussian(R) 94 system (copyright 1995, Gaussian, Inc.),
 the Gaussian 92(TM) system (copyright 1992, Gaussian, Inc.),
 the Gaussian 90(TM) system (copyright 1990, Gaussian, Inc.),
 the Gaussian 88(TM) system (copyright 1988, Gaussian, Inc.),
 the Gaussian 86(TM) system (copyright 1986, Carnegie Mellon
 University), and the Gaussian 82(TM) system (copyright 1983,
 Carnegie Mellon University). Gaussian is a federally registered
 trademark of Gaussian, Inc.
  
 This software contains proprietary and confidential information,
 including trade secrets, belonging to Gaussian, Inc.
  
 This software is provided under written license and may be
 used, copied, transmitted, or stored only in accord with that
 written license.
  
 The following legend is applicable only to US Government
 contracts under FAR:
  
                    RESTRICTED RIGHTS LEGEND
  
 Use, reproduction and disclosure by the US Government is
 subject to restrictions as set forth in subparagraphs (a)
 and (c) of the Commercial Computer Software - Restricted
 Rights clause in FAR 52.227-19.
  
 Gaussian, Inc.
 340 Quinnipiac St., Bldg. 40, Wallingford CT 06492
  
  
 ---------------------------------------------------------------
 Warning -- This program may not be used in any manner that
 competes with the business of Gaussian, Inc. or will provide
 assistance to any competitor of Gaussian, Inc.  The licensee
 of this program is prohibited from giving any competitor of
 Gaussian, Inc. access to this program.  By using this program,
 the user acknowledges that Gaussian, Inc. is engaged in the
 business of creating and licensing software in the field of
 computational chemistry and represents and warrants to the
 licensee that it is not a competitor of Gaussian, Inc. and that
 it will not use this program in any manner prohibited above.
 ---------------------------------------------------------------
  

 Cite this work as:
 Gaussian 16, Revision B.01,
 M. J. Frisch, G. W. Trucks, H. B. Schlegel, G. E. Scuseria, 
 M. A. Robb, J. R. Cheeseman, G. Scalmani, V. Barone, 
 G. A. Petersson, H. Nakatsuji, X. Li, M. Caricato, A. V. Marenich, 
 J. Bloino, B. G. Janesko, R. Gomperts, B. Mennucci, H. P. Hratchian, 
 J. V. Ortiz, A. F. Izmaylov, J. L. Sonnenberg, D. Williams-Young, 
 F. Ding, F. Lipparini, F. Egidi, J. Goings, B. Peng, A. Petrone, 
 T. Henderson, D. Ranasinghe, V. G. Zakrzewski, J. Gao, N. Rega, 
 G. Zheng, W. Liang, M. Hada, M. Ehara, K. Toyota, R. Fukuda, 
 J. Hasegawa, M. Ishida, T. Nakajima, Y. Honda, O. Kitao, H. Nakai, 
 T. Vreven, K. Throssell, J. A. Montgomery, Jr., J. E. Peralta, 
 F. Ogliaro, M. J. Bearpark, J. J. Heyd, E. N. Brothers, K. N. Kudin, 
 V. N. Staroverov, T. A. Keith, R. Kobayashi, J. Normand, 
 K. Raghavachari, A. P. Rendell, J. C. Burant, S. S. Iyengar, 
 J. Tomasi, M. Cossi, J. M. Millam, M. Klene, C. Adamo, R. Cammi, 
 J. W. Ochterski, R. L. Martin, K. Morokuma, O. Farkas, 
 J. B. Foresman, and D. J. Fox, Gaussian, Inc., Wallingford CT, 2016.
 
 ******************************************
 Gaussian 16:  ES64L-G16RevB.01 20-Dec-2017
                21-Feb-2022 
 ******************************************
 %nproc=28
 Will use up to   28 processors via shared memory.
 %mem=120GB
 %chk=hoono_r1_0p954861.chk
 ---------------------------------------
 #p freq mp2/aug-cc-pvtz density=current
 ---------------------------------------
 1/10=4,30=1,38=1/1,3;
 2/12=2,17=6,18=5,40=1/2;
 3/5=16,6=1,7=10,11=9,25=1,30=1,71=2,140=1/1,2,3;
 4//1;
 5/5=2,38=5,98=1/2;
 8/6=3,8=1,10=1,19=11,30=-1/1;
 9/15=3,16=-3/6;
 11/6=1,8=1,15=11,17=12,24=-1,27=1,28=-2,29=300,32=6,42=3/1,2,10;
 10/6=2,21=1/2;
 8/6=4,8=1,10=1,19=11,30=-1/11,4;
 10/5=1,20=4/2;
 11/12=2,14=11,16=1,17=2,28=-2,42=3,76=2/2,10,12;
 6/7=2,8=2,9=2,10=2,22=-1/1;
 7/8=1,10=1,12=2,25=1,44=2/1,2,3,16;
 1/10=4,30=1/3;
 99//99;
 Leave Link    1 at Mon Feb 21 20:02:47 2022, MaxMem= 16106127360 cpu:               2.8 elap:               0.1
 (Enter /sw/contrib/gaussian/g16/B01/g16/l101.exe)
 -----
 title
 -----
 Symbolic Z-matrix:
 Charge =  0 Multiplicity = 1
 H
 O                    1    r1
 O                    2    r2       1    a1
 N                    3    r3       2    a2       1    d1       0
 O                    4    r4       3    a3       2    d2       0
       Variables:
  r1                    0.95486                  
  r2                    1.45492                  
  r3                    1.45878                  
  r4                    1.17073                  
  a1                   97.59495                  
  a2                  102.29752                  
  a3                  109.06955                  
  d1                  180.                       
  d2                  180.                       
 
 ITRead=  0  0  0  0  0
 MicOpt= -1 -1 -1 -1 -1
 NAtoms=      5 NQM=        5 NQMF=       0 NMMI=      0 NMMIF=      0
                NMic=       0 NMicF=      0.
                    Isotopes and Nuclear Properties:
 (Nuclear quadrupole moments (NQMom) in fm**2, nuclear magnetic moments (NMagM)
  in nuclear magnetons)

  Atom         1           2           3           4           5
 IAtWgt=           1          16          16          14          16
 AtmWgt=   1.0078250  15.9949146  15.9949146  14.0030740  15.9949146
 NucSpn=           1           0           0           2           0
 AtZEff=  -0.0000000  -0.0000000  -0.0000000  -0.0000000  -0.0000000
 NQMom=    0.0000000   0.0000000   0.0000000   2.0440000   0.0000000
 NMagM=    2.7928460   0.0000000   0.0000000   0.4037610   0.0000000
 AtZNuc=   1.0000000   8.0000000   8.0000000   7.0000000   8.0000000
 Leave Link  101 at Mon Feb 21 20:02:47 2022, MaxMem= 16106127360 cpu:               3.1 elap:               0.1
 (Enter /sw/contrib/gaussian/g16/B01/g16/l103.exe)

 GradGradGradGradGradGradGradGradGradGradGradGradGradGradGradGradGradGrad
 Berny optimization.
 Initialization pass.
                       ----------------------------
                       !    Initial Parameters    !
                       ! (Angstroms and Degrees)  !
 ----------------------                            ----------------------
 !      Name          Value   Derivative information (Atomic Units)     !
 ------------------------------------------------------------------------
 !       r1          0.9549   calculate D2E/DX2 analytically            !
 !       r2          1.4549   calculate D2E/DX2 analytically            !
 !       r3          1.4588   calculate D2E/DX2 analytically            !
 !       r4          1.1707   calculate D2E/DX2 analytically            !
 !       a1         97.5949   calculate D2E/DX2 analytically            !
 !       a2        102.2975   calculate D2E/DX2 analytically            !
 !       a3        109.0696   calculate D2E/DX2 analytically            !
 !       d1        180.0      calculate D2E/DX2 analytically            !
 !       d2        180.0      calculate D2E/DX2 analytically            !
 ------------------------------------------------------------------------
 Trust Radius=3.00D-01 FncErr=1.00D-07 GrdErr=1.00D-07 EigMax=2.50D+02 EigMin=1.00D-04
 Number of steps in this run=      2 maximum allowed number of steps=      2.
 GradGradGradGradGradGradGradGradGradGradGradGradGradGradGradGradGradGrad

 Leave Link  103 at Mon Feb 21 20:02:48 2022, MaxMem= 16106127360 cpu:               1.1 elap:               0.1
 (Enter /sw/contrib/gaussian/g16/B01/g16/l202.exe)
                          Input orientation:                          
 ---------------------------------------------------------------------
 Center     Atomic      Atomic             Coordinates (Angstroms)
 Number     Number       Type             X           Y           Z
 ---------------------------------------------------------------------
      1          1           0        0.000000    0.000000    0.000000
      2          8           0        0.000000    0.000000    0.954861
      3          8           0        1.442156    0.000000    1.147156
      4          7           0        1.561752    0.000000    2.601030
      5          8           0        2.695867    0.000000    2.891524
 ---------------------------------------------------------------------
                    Distance matrix (angstroms):
                    1          2          3          4          5
     1  H    0.000000
     2  O    0.954861   0.000000
     3  O    1.842764   1.454919   0.000000
     4  N    3.033879   2.269127   1.458784   0.000000
     5  O    3.953304   3.319392   2.148165   1.170729   0.000000
 Stoichiometry    HNO3
 Framework group  CS[SG(HNO3)]
 Deg. of freedom     7
 Full point group                 CS      NOp   2
 Largest Abelian subgroup         CS      NOp   2
 Largest concise Abelian subgroup C1      NOp   1
                         Standard orientation:                         
 ---------------------------------------------------------------------
 Center     Atomic      Atomic             Coordinates (Angstroms)
 Number     Number       Type             X           Y           Z
 ---------------------------------------------------------------------
      1          1           0        1.547663    1.673708    0.000000
      2          8           0        1.454060    0.723446    0.000000
      3          8           0       -0.000000    0.673448    0.000000
      4          7           0       -0.261540   -0.761699   -0.000000
      5          8           0       -1.418670   -0.939620   -0.000000
 ---------------------------------------------------------------------
 Rotational constants (GHZ):          55.0138038           5.0132614           4.5945705
 Leave Link  202 at Mon Feb 21 20:02:48 2022, MaxMem= 16106127360 cpu:               1.3 elap:               0.1
 (Enter /sw/contrib/gaussian/g16/B01/g16/l301.exe)
 Standard basis: Aug-CC-pVTZ (5D, 7F)
 Ernie: Thresh=  0.10000D-02 Tol=  0.10000D-05 Strict=F.
 Ernie:  12 primitive shells out of 131 were deleted.
 There are   166 symmetry adapted cartesian basis functions of A'  symmetry.
 There are    79 symmetry adapted cartesian basis functions of A"  symmetry.
 There are   136 symmetry adapted basis functions of A'  symmetry.
 There are    71 symmetry adapted basis functions of A"  symmetry.
   207 basis functions,   315 primitive gaussians,   245 cartesian basis functions
    16 alpha electrons       16 beta electrons
       nuclear repulsion energy       116.9551812429 Hartrees.
 IExCor=    0 DFT=F Ex=HF Corr=None ExCW=0 ScaHFX=  1.000000
 ScaDFX=  1.000000  1.000000  1.000000  1.000000 ScalE2=  1.000000  1.000000
 IRadAn=      5 IRanWt=     -1 IRanGd=            0 ICorTp=0 IEmpDi=  4
 NAtoms=    5 NActive=    5 NUniq=    5 SFac= 1.00D+00 NAtFMM=   60 NAOKFM=F Big=F
 Integral buffers will be    131072 words long.
 Raffenetti 1 integral format.
 Two-electron integral symmetry is turned on.
 Leave Link  301 at Mon Feb 21 20:02:48 2022, MaxMem= 16106127360 cpu:               2.1 elap:               0.1
 (Enter /sw/contrib/gaussian/g16/B01/g16/l302.exe)
 NPDir=0 NMtPBC=     1 NCelOv=     1 NCel=       1 NClECP=     1 NCelD=      1
         NCelK=      1 NCelE2=     1 NClLst=     1 CellRange=     0.0.
 One-electron integrals computed using PRISM.
 One-electron integral symmetry used in STVInt
 NBasis=   207 RedAO= T EigKep=  1.80D-04  NBF=   136    71
 NBsUse=   207 1.00D-06 EigRej= -1.00D+00 NBFU=   136    71
 Leave Link  302 at Mon Feb 21 20:02:48 2022, MaxMem= 16106127360 cpu:               4.5 elap:               0.2
 (Enter /sw/contrib/gaussian/g16/B01/g16/l303.exe)
 DipDrv:  MaxL=1.
 Leave Link  303 at Mon Feb 21 20:02:48 2022, MaxMem= 16106127360 cpu:               1.9 elap:               0.1
 (Enter /sw/contrib/gaussian/g16/B01/g16/l401.exe)
 ExpMin= 2.53D-02 ExpMax= 1.53D+04 ExpMxC= 5.22D+02 IAcc=3 IRadAn=         5 AccDes= 0.00D+00
 Harris functional with IExCor=  205 and IRadAn=       5 diagonalized for initial guess.
 HarFok:  IExCor=  205 AccDes= 0.00D+00 IRadAn=         5 IDoV= 1 UseB2=F ITyADJ=14
 ICtDFT=  3500011 ScaDFX=  1.000000  1.000000  1.000000  1.000000
 FoFCou: FMM=F IPFlag=           0 FMFlag=      100000 FMFlg1=           0
         NFxFlg=           0 DoJE=T BraDBF=F KetDBF=T FulRan=T
         wScrn=  0.000000 ICntrl=       500 IOpCl=  0 I1Cent=   200000004 NGrid=           0
         NMat0=    1 NMatS0=      1 NMatT0=    0 NMatD0=    1 NMtDS0=    0 NMtDT0=    0
 Petite list used in FoFCou.
 Harris En= -279.628712819845    
 JPrj=0 DoOrth=F DoCkMO=F.
 Initial guess orbital symmetries:
       Occupied  (A') (A') (A') (A') (A') (A') (A') (A') (A') (A')
                 (A") (A') (A') (A") (A") (A')
       Virtual   (A") (A') (A') (A') (A') (A') (A") (A') (A') (A')
                 (A") (A') (A") (A') (A') (A") (A') (A") (A') (A')
                 (A') (A') (A') (A') (A') (A") (A') (A") (A') (A')
                 (A") (A') (A") (A') (A') (A") (A') (A") (A') (A')
                 (A") (A') (A") (A') (A") (A') (A') (A') (A") (A")
                 (A') (A') (A') (A') (A") (A') (A") (A') (A") (A')
                 (A') (A') (A") (A') (A') (A") (A') (A") (A') (A')
                 (A") (A') (A') (A") (A") (A') (A') (A") (A') (A')
                 (A') (A") (A') (A") (A') (A") (A') (A") (A') (A')
                 (A') (A") (A') (A") (A') (A") (A") (A') (A') (A")
                 (A') (A') (A") (A') (A') (A') (A') (A") (A") (A')
                 (A") (A') (A') (A') (A") (A') (A') (A') (A") (A')
                 (A") (A') (A') (A") (A") (A') (A") (A') (A") (A')
                 (A') (A') (A') (A") (A") (A') (A") (A') (A') (A')
                 (A') (A") (A") (A') (A') (A") (A') (A') (A') (A')
                 (A") (A') (A') (A") (A') (A") (A') (A") (A') (A")
                 (A') (A") (A') (A") (A') (A") (A") (A") (A') (A')
                 (A") (A') (A") (A') (A") (A') (A") (A") (A') (A')
                 (A') (A') (A') (A') (A') (A') (A') (A') (A') (A')
                 (A')
 The electronic state of the initial guess is 1-A'.
 Leave Link  401 at Mon Feb 21 20:02:48 2022, MaxMem= 16106127360 cpu:               7.7 elap:               0.3
 (Enter /sw/contrib/gaussian/g16/B01/g16/l502.exe)
 Keep R1 ints in memory in symmetry-blocked form, NReq=348887737.
 FoFCou: FMM=F IPFlag=           0 FMFlag=           0 FMFlg1=           0
         NFxFlg=           0 DoJE=F BraDBF=F KetDBF=F FulRan=T
         wScrn=  0.000000 ICntrl=       600 IOpCl=  0 I1Cent=           0 NGrid=           0
         NMat0=    1 NMatS0=  21528 NMatT0=    0 NMatD0=    1 NMtDS0=    0 NMtDT0=    0
 Petite list used in FoFCou.
 Closed shell SCF:
 Using DIIS extrapolation, IDIIS=  1040.
 NGot= 16106127360 LenX= 15988850015 LenY= 15988789549
 Requested convergence on RMS density matrix=1.00D-08 within 128 cycles.
 Requested convergence on MAX density matrix=1.00D-06.
 Requested convergence on             energy=1.00D-06.
 No special actions if energy rises.

 Cycle   1  Pass 1  IDiag  1:
 E= -279.370019053465    
 DIIS: error= 2.54D-02 at cycle   1 NSaved=   1.
 NSaved= 1 IEnMin= 1 EnMin= -279.370019053465     IErMin= 1 ErrMin= 2.54D-02
 ErrMax= 2.54D-02  0.00D+00 EMaxC= 1.00D-01 BMatC= 4.40D-01 BMatP= 4.40D-01
 IDIUse=3 WtCom= 7.46D-01 WtEn= 2.54D-01
 Coeff-Com:  0.100D+01
 Coeff-En:   0.100D+01
 Coeff:      0.100D+01
 Gap=     0.513 Goal=   None    Shift=    0.000
 GapD=    0.513 DampG=2.000 DampE=0.500 DampFc=1.0000 IDamp=-1.
 RMSDP=1.63D-03 MaxDP=9.91D-02              OVMax= 1.14D-01

 Cycle   2  Pass 1  IDiag  1:
 E= -279.452194642975     Delta-E=       -0.082175589510 Rises=F Damp=F
 DIIS: error= 1.82D-02 at cycle   2 NSaved=   2.
 NSaved= 2 IEnMin= 2 EnMin= -279.452194642975     IErMin= 2 ErrMin= 1.82D-02
 ErrMax= 1.82D-02  0.00D+00 EMaxC= 1.00D-01 BMatC= 7.30D-02 BMatP= 4.40D-01
 IDIUse=3 WtCom= 8.18D-01 WtEn= 1.82D-01
 Coeff-Com:  0.197D+00 0.803D+00
 Coeff-En:   0.000D+00 0.100D+01
 Coeff:      0.161D+00 0.839D+00
 Gap=     0.530 Goal=   None    Shift=    0.000
 RMSDP=9.07D-04 MaxDP=3.73D-02 DE=-8.22D-02 OVMax= 6.92D-02

 Cycle   3  Pass 1  IDiag  1:
 E= -279.481866099159     Delta-E=       -0.029671456184 Rises=F Damp=F
 DIIS: error= 1.05D-02 at cycle   3 NSaved=   3.
 NSaved= 3 IEnMin= 3 EnMin= -279.481866099159     IErMin= 3 ErrMin= 1.05D-02
 ErrMax= 1.05D-02  0.00D+00 EMaxC= 1.00D-01 BMatC= 2.90D-02 BMatP= 7.30D-02
 IDIUse=3 WtCom= 8.95D-01 WtEn= 1.05D-01
 Coeff-Com: -0.328D-01 0.377D+00 0.656D+00
 Coeff-En:   0.000D+00 0.239D+00 0.761D+00
 Coeff:     -0.294D-01 0.363D+00 0.667D+00
 Gap=     0.511 Goal=   None    Shift=    0.000
 RMSDP=3.78D-04 MaxDP=1.54D-02 DE=-2.97D-02 OVMax= 3.84D-02

 Cycle   4  Pass 1  IDiag  1:
 E= -279.501091040052     Delta-E=       -0.019224940893 Rises=F Damp=F
 DIIS: error= 1.33D-03 at cycle   4 NSaved=   4.
 NSaved= 4 IEnMin= 4 EnMin= -279.501091040052     IErMin= 4 ErrMin= 1.33D-03
 ErrMax= 1.33D-03  0.00D+00 EMaxC= 1.00D-01 BMatC= 5.05D-04 BMatP= 2.90D-02
 IDIUse=3 WtCom= 9.87D-01 WtEn= 1.33D-02
 Coeff-Com: -0.118D-01 0.586D-01 0.162D+00 0.792D+00
 Coeff-En:   0.000D+00 0.000D+00 0.000D+00 0.100D+01
 Coeff:     -0.117D-01 0.579D-01 0.160D+00 0.794D+00
 Gap=     0.503 Goal=   None    Shift=    0.000
 RMSDP=9.03D-05 MaxDP=2.78D-03 DE=-1.92D-02 OVMax= 1.12D-02

 Cycle   5  Pass 1  IDiag  1:
 E= -279.501772382676     Delta-E=       -0.000681342624 Rises=F Damp=F
 DIIS: error= 7.33D-04 at cycle   5 NSaved=   5.
 NSaved= 5 IEnMin= 5 EnMin= -279.501772382676     IErMin= 5 ErrMin= 7.33D-04
 ErrMax= 7.33D-04  0.00D+00 EMaxC= 1.00D-01 BMatC= 8.69D-05 BMatP= 5.05D-04
 IDIUse=3 WtCom= 9.93D-01 WtEn= 7.33D-03
 Coeff-Com:  0.613D-02-0.720D-01-0.118D+00 0.129D-01 0.117D+01
 Coeff-En:   0.000D+00 0.000D+00 0.000D+00 0.000D+00 0.100D+01
 Coeff:      0.609D-02-0.714D-01-0.117D+00 0.128D-01 0.117D+01
 Gap=     0.503 Goal=   None    Shift=    0.000
 RMSDP=7.67D-05 MaxDP=2.11D-03 DE=-6.81D-04 OVMax= 1.11D-02

 Cycle   6  Pass 1  IDiag  1:
 E= -279.502089015426     Delta-E=       -0.000316632750 Rises=F Damp=F
 DIIS: error= 2.88D-04 at cycle   6 NSaved=   6.
 NSaved= 6 IEnMin= 6 EnMin= -279.502089015426     IErMin= 6 ErrMin= 2.88D-04
 ErrMax= 2.88D-04  0.00D+00 EMaxC= 1.00D-01 BMatC= 1.66D-05 BMatP= 8.69D-05
 IDIUse=3 WtCom= 9.97D-01 WtEn= 2.88D-03
 Coeff-Com:  0.561D-03 0.200D-02 0.520D-02-0.127D+00-0.242D+00 0.136D+01
 Coeff-En:   0.000D+00 0.000D+00 0.000D+00 0.000D+00 0.000D+00 0.100D+01
 Coeff:      0.559D-03 0.199D-02 0.519D-02-0.126D+00-0.241D+00 0.136D+01
 Gap=     0.503 Goal=   None    Shift=    0.000
 RMSDP=4.54D-05 MaxDP=1.25D-03 DE=-3.17D-04 OVMax= 5.55D-03

 Cycle   7  Pass 1  IDiag  1:
 E= -279.502161766289     Delta-E=       -0.000072750863 Rises=F Damp=F
 DIIS: error= 1.20D-04 at cycle   7 NSaved=   7.
 NSaved= 7 IEnMin= 7 EnMin= -279.502161766289     IErMin= 7 ErrMin= 1.20D-04
 ErrMax= 1.20D-04  0.00D+00 EMaxC= 1.00D-01 BMatC= 4.42D-06 BMatP= 1.66D-05
 IDIUse=3 WtCom= 9.99D-01 WtEn= 1.20D-03
 Coeff-Com: -0.944D-03 0.135D-01 0.265D-01-0.216D-01-0.288D+00 0.385D+00
 Coeff-Com:  0.886D+00
 Coeff-En:   0.000D+00 0.000D+00 0.000D+00 0.000D+00 0.000D+00 0.000D+00
 Coeff-En:   0.100D+01
 Coeff:     -0.942D-03 0.135D-01 0.265D-01-0.216D-01-0.288D+00 0.384D+00
 Coeff:      0.886D+00
 Gap=     0.503 Goal=   None    Shift=    0.000
 RMSDP=1.32D-05 MaxDP=3.79D-04 DE=-7.28D-05 OVMax= 1.54D-03

 Cycle   8  Pass 1  IDiag  1:
 E= -279.502170530147     Delta-E=       -0.000008763858 Rises=F Damp=F
 DIIS: error= 5.83D-05 at cycle   8 NSaved=   8.
 NSaved= 8 IEnMin= 8 EnMin= -279.502170530147     IErMin= 8 ErrMin= 5.83D-05
 ErrMax= 5.83D-05  0.00D+00 EMaxC= 1.00D-01 BMatC= 6.01D-07 BMatP= 4.42D-06
 IDIUse=1 WtCom= 1.00D+00 WtEn= 0.00D+00
 Coeff-Com: -0.445D-03 0.340D-02 0.754D-02 0.270D-01-0.398D-01-0.198D+00
 Coeff-Com:  0.179D+00 0.102D+01
 Coeff:     -0.445D-03 0.340D-02 0.754D-02 0.270D-01-0.398D-01-0.198D+00
 Coeff:      0.179D+00 0.102D+01
 Gap=     0.503 Goal=   None    Shift=    0.000
 RMSDP=6.83D-06 MaxDP=2.02D-04 DE=-8.76D-06 OVMax= 7.40D-04

 Cycle   9  Pass 1  IDiag  1:
 E= -279.502172275476     Delta-E=       -0.000001745328 Rises=F Damp=F
 DIIS: error= 1.59D-05 at cycle   9 NSaved=   9.
 NSaved= 9 IEnMin= 9 EnMin= -279.502172275476     IErMin= 9 ErrMin= 1.59D-05
 ErrMax= 1.59D-05  0.00D+00 EMaxC= 1.00D-01 BMatC= 6.95D-08 BMatP= 6.01D-07
 IDIUse=1 WtCom= 1.00D+00 WtEn= 0.00D+00
 Coeff-Com:  0.124D-03-0.172D-02-0.309D-02-0.222D-02 0.345D-01 0.163D-03
 Coeff-Com: -0.170D+00-0.995D-01 0.124D+01
 Coeff:      0.124D-03-0.172D-02-0.309D-02-0.222D-02 0.345D-01 0.163D-03
 Coeff:     -0.170D+00-0.995D-01 0.124D+01
 Gap=     0.503 Goal=   None    Shift=    0.000
 RMSDP=1.94D-06 MaxDP=6.65D-05 DE=-1.75D-06 OVMax= 1.74D-04

 Cycle  10  Pass 1  IDiag  1:
 E= -279.502172435056     Delta-E=       -0.000000159580 Rises=F Damp=F
 DIIS: error= 4.11D-06 at cycle  10 NSaved=  10.
 NSaved=10 IEnMin=10 EnMin= -279.502172435056     IErMin=10 ErrMin= 4.11D-06
 ErrMax= 4.11D-06  0.00D+00 EMaxC= 1.00D-01 BMatC= 5.47D-09 BMatP= 6.95D-08
 IDIUse=1 WtCom= 1.00D+00 WtEn= 0.00D+00
 Coeff-Com:  0.299D-04-0.230D-03-0.303D-03-0.263D-02 0.134D-02 0.196D-01
 Coeff-Com: -0.128D-01-0.723D-01-0.857D-01 0.115D+01
 Coeff:      0.299D-04-0.230D-03-0.303D-03-0.263D-02 0.134D-02 0.196D-01
 Coeff:     -0.128D-01-0.723D-01-0.857D-01 0.115D+01
 Gap=     0.503 Goal=   None    Shift=    0.000
 RMSDP=5.03D-07 MaxDP=2.10D-05 DE=-1.60D-07 OVMax= 4.18D-05

 Cycle  11  Pass 1  IDiag  1:
 E= -279.502172447479     Delta-E=       -0.000000012423 Rises=F Damp=F
 DIIS: error= 2.03D-06 at cycle  11 NSaved=  11.
 NSaved=11 IEnMin=11 EnMin= -279.502172447479     IErMin=11 ErrMin= 2.03D-06
 ErrMax= 2.03D-06  0.00D+00 EMaxC= 1.00D-01 BMatC= 6.54D-10 BMatP= 5.47D-09
 IDIUse=1 WtCom= 1.00D+00 WtEn= 0.00D+00
 Coeff-Com: -0.212D-04 0.242D-03 0.485D-03 0.535D-03-0.426D-02-0.354D-02
 Coeff-Com:  0.214D-01 0.303D-01-0.138D+00-0.176D+00 0.127D+01
 Coeff:     -0.212D-04 0.242D-03 0.485D-03 0.535D-03-0.426D-02-0.354D-02
 Coeff:      0.214D-01 0.303D-01-0.138D+00-0.176D+00 0.127D+01
 Gap=     0.503 Goal=   None    Shift=    0.000
 RMSDP=1.77D-07 MaxDP=6.50D-06 DE=-1.24D-08 OVMax= 1.72D-05

 Cycle  12  Pass 1  IDiag  1:
 E= -279.502172449275     Delta-E=       -0.000000001796 Rises=F Damp=F
 DIIS: error= 5.85D-07 at cycle  12 NSaved=  12.
 NSaved=12 IEnMin=12 EnMin= -279.502172449275     IErMin=12 ErrMin= 5.85D-07
 ErrMax= 5.85D-07  0.00D+00 EMaxC= 1.00D-01 BMatC= 7.15D-11 BMatP= 6.54D-10
 IDIUse=1 WtCom= 1.00D+00 WtEn= 0.00D+00
 Coeff-Com:  0.127D-05-0.293D-04-0.639D-04 0.174D-03 0.111D-02-0.232D-02
 Coeff-Com: -0.415D-02 0.555D-02 0.419D-01-0.116D+00-0.277D+00 0.135D+01
 Coeff:      0.127D-05-0.293D-04-0.639D-04 0.174D-03 0.111D-02-0.232D-02
 Coeff:     -0.415D-02 0.555D-02 0.419D-01-0.116D+00-0.277D+00 0.135D+01
 Gap=     0.503 Goal=   None    Shift=    0.000
 RMSDP=7.19D-08 MaxDP=2.83D-06 DE=-1.80D-09 OVMax= 6.66D-06

 Cycle  13  Pass 1  IDiag  1:
 E= -279.502172449503     Delta-E=       -0.000000000228 Rises=F Damp=F
 DIIS: error= 1.69D-07 at cycle  13 NSaved=  13.
 NSaved=13 IEnMin=13 EnMin= -279.502172449503     IErMin=13 ErrMin= 1.69D-07
 ErrMax= 1.69D-07  0.00D+00 EMaxC= 1.00D-01 BMatC= 4.00D-12 BMatP= 7.15D-11
 IDIUse=1 WtCom= 1.00D+00 WtEn= 0.00D+00
 Coeff-Com:  0.127D-05-0.138D-04-0.223D-04-0.881D-04 0.116D-03 0.764D-03
 Coeff-Com: -0.868D-03-0.323D-02 0.523D-03 0.415D-01-0.369D-01-0.325D+00
 Coeff-Com:  0.132D+01
 Coeff:      0.127D-05-0.138D-04-0.223D-04-0.881D-04 0.116D-03 0.764D-03
 Coeff:     -0.868D-03-0.323D-02 0.523D-03 0.415D-01-0.369D-01-0.325D+00
 Coeff:      0.132D+01
 Gap=     0.503 Goal=   None    Shift=    0.000
 RMSDP=1.92D-08 MaxDP=5.59D-07 DE=-2.28D-10 OVMax= 1.57D-06

 Cycle  14  Pass 1  IDiag  1:
 E= -279.502172449516     Delta-E=       -0.000000000013 Rises=F Damp=F
 DIIS: error= 2.43D-08 at cycle  14 NSaved=  14.
 NSaved=14 IEnMin=14 EnMin= -279.502172449516     IErMin=14 ErrMin= 2.43D-08
 ErrMax= 2.43D-08  0.00D+00 EMaxC= 1.00D-01 BMatC= 1.95D-13 BMatP= 4.00D-12
 IDIUse=1 WtCom= 1.00D+00 WtEn= 0.00D+00
 Coeff-Com: -0.189D-06 0.309D-05 0.556D-05 0.471D-05-0.825D-04 0.459D-04
 Coeff-Com:  0.285D-03 0.217D-03-0.244D-02 0.150D-02 0.169D-01-0.254D-01
 Coeff-Com: -0.200D+00 0.121D+01
 Coeff:     -0.189D-06 0.309D-05 0.556D-05 0.471D-05-0.825D-04 0.459D-04
 Coeff:      0.285D-03 0.217D-03-0.244D-02 0.150D-02 0.169D-01-0.254D-01
 Coeff:     -0.200D+00 0.121D+01
 Gap=     0.503 Goal=   None    Shift=    0.000
 RMSDP=3.79D-09 MaxDP=9.15D-08 DE=-1.31D-11 OVMax= 3.40D-07

 SCF Done:  E(RHF) =  -279.502172450     A.U. after   14 cycles
            NFock= 14  Conv=0.38D-08     -V/T= 2.0023
 KE= 2.788725036580D+02 PE=-8.952414934414D+02 EE= 2.199116360909D+02
 Leave Link  502 at Mon Feb 21 20:02:52 2022, MaxMem= 16106127360 cpu:              58.2 elap:               3.9
 (Enter /sw/contrib/gaussian/g16/B01/g16/l801.exe)
 ExpMin= 2.53D-02 ExpMax= 1.53D+04 ExpMxC= 5.22D+02 IAcc=3 IRadAn=         5 AccDes= 0.00D+00
 HarFok:  IExCor=  205 AccDes= 0.00D+00 IRadAn=         5 IDoV=-2 UseB2=F ITyADJ=14
 ICtDFT= 12500011 ScaDFX=  1.000000  1.000000  1.000000  1.000000
 Largest valence mixing into a core orbital is  2.08D-04
 Largest core mixing into a valence orbital is  3.63D-05
 Range of M.O.s used for correlation:     5   207
 NBasis=   207 NAE=    16 NBE=    16 NFC=     4 NFV=     0
 NROrb=    203 NOA=    12 NOB=    12 NVA=   191 NVB=   191

 **** Warning!!: The largest alpha MO coefficient is  0.17935657D+02

 Leave Link  801 at Mon Feb 21 20:02:52 2022, MaxMem= 16106127360 cpu:               2.3 elap:               0.1
 (Enter /sw/contrib/gaussian/g16/B01/g16/l906.exe)
 Frozen-core derivative calculation, NFC=   4 NFV=   0.
 FulOut=F Deriv=T AODrv=T NAtomX=     5
   MMem=           0  MDisk=          12 MDiskD=          12
  W3Min=      811440 MinDsk=     2425030 NBas6D=         245
 NBas2D=       30762    NTT=       30135    LW2=     7400000
    MDV= 16105574283 MDiskM=      328644 NBas2p=       30702
 Disk-based method using ON**2 memory for 12 occupieds at a time.
 Permanent disk used for amplitudes=    11516536 words.
 Estimated scratch disk usage=   321251614 words.
 IMap=   1   2   3   4   5   6   7   8   9  10  11  12  13  14  15  16
 Actual    scratch disk usage=   310331678 words.
 JobTyp=1 Pass  1:  I=   5 to  16 NPSUse= 28 ParTrn=T ParDer=T DoDerP=T.
 (rs|ai) integrals will be sorted in core.
 Spin components of T(2) and E(2):
     alpha-alpha T2 =       0.3395696588D-01 E2=     -0.1223161449D+00
     alpha-beta  T2 =       0.1864414902D+00 E2=     -0.6997418113D+00
     beta-beta   T2 =       0.3395696588D-01 E2=     -0.1223161449D+00
 The integrals were generated   1 times.
 ANorm=    0.1119980099D+01
 E2 =    -0.9443741011D+00 EUMP2 =    -0.28044654655066D+03
 Leave Link  906 at Mon Feb 21 20:04:29 2022, MaxMem= 16106127360 cpu:            2712.0 elap:              97.0
 (Enter /sw/contrib/gaussian/g16/B01/g16/l1101.exe)
 Using compressed Sx but separate Hx and Fx, NAtomX=     5.
 Will process      6 centers per pass.
 Leave Link 1101 at Mon Feb 21 20:04:30 2022, MaxMem= 16106127360 cpu:               5.0 elap:               0.2
 (Enter /sw/contrib/gaussian/g16/B01/g16/l1102.exe)
 Leave Link 1102 at Mon Feb 21 20:04:30 2022, MaxMem= 16106127360 cpu:               0.5 elap:               0.0
 (Enter /sw/contrib/gaussian/g16/B01/g16/l1110.exe)
 Forming Gx(P) for the SCF density, NAtomX=     5.
 Integral derivatives from FoFJK, PRISM(SPDF).
 Do as many integral derivatives as possible in FoFJK.
 G2DrvN: MDV=   16106126844.
 G2DrvN: will do     6 centers at a time, making    1 passes.
 Calling FoFCou, ICntrl=  3107 FMM=F I1Cent=   0 AccDes= 0.00D+00.
 FoFJK:  IHMeth= 1 ICntrl=    3107 DoSepK=F KAlg= 0 I1Cent=           0 FoldK=F
 IRaf=         0 NMat=       1 IRICut=       1 DoRegI=T DoRafI=F ISym2E= 1 IDoP0=0 IntGTp=1.
 FoFCou: FMM=F IPFlag=           0 FMFlag=      100000 FMFlg1=           0
         NFxFlg=           0 DoJE=F BraDBF=F KetDBF=F FulRan=T
         wScrn=  0.000000 ICntrl=      3107 IOpCl=  0 I1Cent=           0 NGrid=           0
         NMat0=    1 NMatS0=      1 NMatT0=    0 NMatD0=    1 NMtDS0=    0 NMtDT0=    0
 Petite list used in FoFCou.
 End of G2Drv F.D. properties file   721 does not exist.
 End of G2Drv F.D. properties file   722 does not exist.
 End of G2Drv F.D. properties file   788 does not exist.
 Leave Link 1110 at Mon Feb 21 20:04:33 2022, MaxMem= 16106127360 cpu:              83.5 elap:               3.0
 (Enter /sw/contrib/gaussian/g16/B01/g16/l1002.exe)
 Minotr:  Closed shell wavefunction.
          IDoAtm=11111
          Frozen-core window.
          Direct CPHF calculation.
          Differentiating once with respect to electric field.
                with respect to dipole field.
          Differentiating once with respect to nuclear coordinates.
          Requested convergence is 1.0D-08 RMS, and 1.0D-07 maximum.
          Secondary convergence is 1.0D-12 RMS, and 1.0D-12 maximum.
          NewPWx=T KeepS1=T KeepF1=T KeepIn=T MapXYZ=F SortEE=F KeepMc=T.
 Keep R1 ints in memory in symmetry-blocked form, NReq=348888983.
 FoFCou: FMM=F IPFlag=           0 FMFlag=           0 FMFlg1=           0
         NFxFlg=           0 DoJE=F BraDBF=F KetDBF=F FulRan=T
         wScrn=  0.000000 ICntrl=       600 IOpCl=  0 I1Cent=           0 NGrid=           0
         NMat0=    1 NMatS0=  21528 NMatT0=    0 NMatD0=    1 NMtDS0=    0 NMtDT0=    0
 Petite list used in FoFCou.
          MDV=   16106127360 using IRadAn=       1.
          Solving linear equations simultaneously, MaxMat=       0.
          There are    18 degrees of freedom in the 1st order CPHF.  IDoFFX=6 NUNeed=    18.
     15 vectors produced by pass  0 Test12= 1.70D-14 5.56D-09 XBig12= 8.27D+00 1.06D+00.
 AX will form    15 AO Fock derivatives at one time.
     15 vectors produced by pass  1 Test12= 1.70D-14 5.56D-09 XBig12= 1.34D+00 2.64D-01.
     15 vectors produced by pass  2 Test12= 1.70D-14 5.56D-09 XBig12= 1.42D-01 9.82D-02.
     15 vectors produced by pass  3 Test12= 1.70D-14 5.56D-09 XBig12= 5.02D-03 1.13D-02.
     15 vectors produced by pass  4 Test12= 1.70D-14 5.56D-09 XBig12= 1.01D-04 1.97D-03.
     15 vectors produced by pass  5 Test12= 1.70D-14 5.56D-09 XBig12= 1.43D-06 1.81D-04.
     15 vectors produced by pass  6 Test12= 1.70D-14 5.56D-09 XBig12= 1.13D-08 1.40D-05.
     13 vectors produced by pass  7 Test12= 1.70D-14 5.56D-09 XBig12= 8.33D-11 1.30D-06.
      3 vectors produced by pass  8 Test12= 1.70D-14 5.56D-09 XBig12= 5.75D-13 1.24D-07.
      2 vectors produced by pass  9 Test12= 1.70D-14 5.56D-09 XBig12= 3.72D-15 9.86D-09.
 InvSVY:  IOpt=1 It=  1 EMax= 8.88D-16
 Solved reduced A of dimension   123 with    15 vectors.
 FullF1:  Do perturbations      1 to      18.
 Saving first derivative matrices.
 End of Minotr F.D. properties file   721 does not exist.
 End of Minotr F.D. properties file   722 does not exist.
 End of Minotr F.D. properties file   788 does not exist.
 Leave Link 1002 at Mon Feb 21 20:04:36 2022, MaxMem= 16106127360 cpu:              80.6 elap:               2.9
 (Enter /sw/contrib/gaussian/g16/B01/g16/l811.exe)
 MDV= 16106127360.
 Form MO integral derivatives with frozen-active canonical formalism.
 MOERI=1 MOERIx=1 NAtoms=     5 NAtomX=     5.
 Discarding MO integrals.
 MO basis two electron integral derivatives will not be stored on disk.
 IAlg= 3 DoFC=T DoPWx=T Debug=F.
 Frozen-core window:  NFC=   4 NFV=   0.
 Reordered first order wavefunction length =     18678272
 In DefCFB: NBatch=  1 ICI= 16 ICA=191 LFMax= 96
            Large arrays: LIAPS=   619940160 LIARS=   288257200 words.
 In StABat: MaxSiz= 55 MinSiz= 25 NAtomB=  5
 DoIAMN: NPSUse= 28.
 Leave Link  811 at Mon Feb 21 20:05:59 2022, MaxMem= 16106127360 cpu:            2314.5 elap:              82.8
 (Enter /sw/contrib/gaussian/g16/B01/g16/l804.exe)
 Frozen-core window:  NFC=   4 NFV=   0.
 Closed-shell transformation, MDV= 16106127360 ITran=4 ISComp=1.
 Semi-Direct transformation.
 ModeAB=           2 MOrb=            16 LenV=   16104923037
 LASXX=     67341636 LTotXX=    67341636 LenRXX=    67341636
 LTotAB=    68301760 MaxLAS=    99807120 LenRXY=    99807120
 NonZer=   134683272 LenScr=   202817536 LnRSAI=           0
 LnScr1=           0 LExtra=           0 Total=    369966292
 MaxDsk=          -1 SrtSym=           F ITran=            4
 DoSDTr:  NPSUse= 28
 JobTyp=0 Pass  1:  I=   1 to  16.
 (rs|ai) integrals will be sorted in core.
 Complete sort for first half transformation.
 First half transformation complete.
 Begin second half transformation for I=  10.
 Begin second half transformation for I=  10.
 Complete sort for second half transformation.
 Second half transformation complete.
 Spin components of T(2) and E(2):
     alpha-alpha T2 =       0.3395696588D-01 E2=     -0.1223161449D+00
     alpha-beta  T2 =       0.1864414902D+00 E2=     -0.6997418113D+00
     beta-beta   T2 =       0.3395696588D-01 E2=     -0.1223161449D+00
 ANorm=    0.1583891045D+01
 E2 =    -0.9443741011D+00 EUMP2 =    -0.28044654655066D+03
 Leave Link  804 at Mon Feb 21 20:06:14 2022, MaxMem= 16106127360 cpu:             431.8 elap:              15.5
 (Enter /sw/contrib/gaussian/g16/B01/g16/l1002.exe)
 Minotr:  Closed shell wavefunction.
          Computing MP2/KS-MP2 derivatives.
          Using Z-Vector for PSCF gradient.
          Skipping F1 and S1 gradient terms here.
          IDoAtm=11111
          Frozen-core window.
          Using MO integrals in the linear equations.
          Forming densities via direct SCF.
          Differentiating once with respect to electric field.
                with respect to dipole field.
          Differentiating once with respect to nuclear coordinates.
          Using symmetry in CPHF.
          Requested convergence is 1.0D-10 RMS, and 1.0D-09 maximum.
          NewPWx=F KeepS1=T KeepF1=T KeepIn=T MapXYZ=F SortEE=F KeepMc=T.
          MDV=   16106127360 using IRadAn=       5.
          Solving linear equations separately, MaxMat=       0.
          There are     1 degrees of freedom in the 1st order CPHF.  IDoFFX=0 NUNeed=     1.
 FoFJK:  IHMeth= 1 ICntrl=       0 DoSepK=F KAlg= 0 I1Cent=           0 FoldK=F
 IRaf=         0 NMat=       1 IRICut=       1 DoRegI=T DoRafI=F ISym2E= 0 IDoP0=0 IntGTp=1.
 FoFCou: FMM=F IPFlag=           0 FMFlag=      100000 FMFlg1=           0
         NFxFlg=           0 DoJE=F BraDBF=F KetDBF=F FulRan=T
         wScrn=  0.000000 ICntrl=         0 IOpCl=  0 I1Cent=           0 NGrid=           0
         NMat0=    1 NMatS0=      1 NMatT0=    0 NMatD0=    1 NMtDS0=    0 NMtDT0=    0
 Symmetry not used in FoFCou.
 LinEq1:  Iter=  0 NonCon=     1 RMS=5.95D-03 Max=1.32D-01 NDo=     1
 LinEq1:  Iter=  1 NonCon=     1 RMS=1.90D-03 Max=3.83D-02 NDo=     1
 LinEq1:  Iter=  2 NonCon=     1 RMS=8.66D-04 Max=1.43D-02 NDo=     1
 LinEq1:  Iter=  3 NonCon=     1 RMS=3.87D-04 Max=7.82D-03 NDo=     1
 LinEq1:  Iter=  4 NonCon=     1 RMS=1.19D-04 Max=1.90D-03 NDo=     1
 LinEq1:  Iter=  5 NonCon=     1 RMS=4.57D-05 Max=7.28D-04 NDo=     1
 LinEq1:  Iter=  6 NonCon=     1 RMS=2.04D-05 Max=2.30D-04 NDo=     1
 LinEq1:  Iter=  7 NonCon=     1 RMS=8.17D-06 Max=1.60D-04 NDo=     1
 LinEq1:  Iter=  8 NonCon=     1 RMS=3.45D-06 Max=3.42D-05 NDo=     1
 LinEq1:  Iter=  9 NonCon=     1 RMS=9.35D-07 Max=1.30D-05 NDo=     1
 LinEq1:  Iter= 10 NonCon=     1 RMS=1.83D-07 Max=2.00D-06 NDo=     1
 LinEq1:  Iter= 11 NonCon=     1 RMS=3.41D-08 Max=3.53D-07 NDo=     1
 LinEq1:  Iter= 12 NonCon=     1 RMS=8.22D-09 Max=1.27D-07 NDo=     1
 LinEq1:  Iter= 13 NonCon=     1 RMS=1.49D-09 Max=2.54D-08 NDo=     1
 LinEq1:  Iter= 14 NonCon=     1 RMS=2.70D-10 Max=3.79D-09 NDo=     1
 LinEq1:  Iter= 15 NonCon=     0 RMS=4.86D-11 Max=5.47D-10 NDo=     1
 Linear equations converged to 1.000D-10 1.000D-09 after    15 iterations.
 End of Minotr F.D. properties file   721 does not exist.
 End of Minotr F.D. properties file   722 does not exist.
 End of Minotr F.D. properties file   788 does not exist.
 Leave Link 1002 at Mon Feb 21 20:06:17 2022, MaxMem= 16106127360 cpu:              64.3 elap:               2.4
 (Enter /sw/contrib/gaussian/g16/B01/g16/l1102.exe)
 Use density number 2.
 Symmetrizing basis deriv contribution to polar:
 IMax=3 JMax=2 DiffMx= 0.00D+00
 Leave Link 1102 at Mon Feb 21 20:06:17 2022, MaxMem= 16106127360 cpu:               0.7 elap:               0.1
 (Enter /sw/contrib/gaussian/g16/B01/g16/l1110.exe)
 Forming Gx(P) for generalized density number  2 NAtomX=     5.
 Integral derivatives from FoFJK, PRISM(SPDF).
 Do as many integral derivatives as possible in FoFJK.
 G2DrvN: MDV=   16106126844.
 G2DrvN: will do     6 centers at a time, making    1 passes.
 Calling FoFCou, ICntrl=  3107 FMM=F I1Cent=   0 AccDes= 0.00D+00.
 FoFJK:  IHMeth= 1 ICntrl=    3107 DoSepK=F KAlg= 0 I1Cent=           0 FoldK=F
 IRaf=         0 NMat=       1 IRICut=       1 DoRegI=T DoRafI=F ISym2E= 1 IDoP0=0 IntGTp=1.
 FoFCou: FMM=F IPFlag=           0 FMFlag=      100000 FMFlg1=           0
         NFxFlg=           0 DoJE=F BraDBF=F KetDBF=F FulRan=T
         wScrn=  0.000000 ICntrl=      3107 IOpCl=  0 I1Cent=           0 NGrid=           0
         NMat0=    1 NMatS0=      1 NMatT0=    0 NMatD0=    1 NMtDS0=    0 NMtDT0=    0
 Petite list used in FoFCou.
 End of G2Drv F.D. properties file   721 does not exist.
 End of G2Drv F.D. properties file   722 does not exist.
 End of G2Drv F.D. properties file   788 does not exist.
 Leave Link 1110 at Mon Feb 21 20:06:20 2022, MaxMem= 16106127360 cpu:              84.9 elap:               3.1
 (Enter /sw/contrib/gaussian/g16/B01/g16/l1112.exe)
 MP22nd: MDV=   16106127360
 This link is doing NAtomX=     5 total of    18 degrees of freedom.
 Using ON3 I/O method in MakUI.
 Frozen-core window:  NFC=   4 NFV=   0.
 Using Ix for Sx.
 Use MO integrals over full window.
 Using OV2 memory method for fx*t*t/D, MaxI=    16 DoOO2=F NP=  28.
 R2 and R3 integrals will be kept in memory, NReq=   915591705.
 FoFCou: FMM=F IPFlag=           0 FMFlag=           0 FMFlg1=           0
         NFxFlg=           0 DoJE=F BraDBF=F KetDBF=F FulRan=T
         wScrn=  0.000000 ICntrl=       600 IOpCl=  0 I1Cent=           0 NGrid=           0
         NMat0=    1 NMatS0=      1 NMatT0=    0 NMatD0=    1 NMtDS0=    0 NMtDT0=    0
 Symmetry not used in FoFCou.
 DD1Dir will call FoFMem   1 times, MxPair=       272
 NAB=   136 NAA=     0 NBB=     0.
 Symmetry is being used.
 FoFJK:  IHMeth= 1 ICntrl=       0 DoSepK=F KAlg= 0 I1Cent=           0 FoldK=F
 IRaf=         0 NMat=      18 IRICut=      45 DoRegI=T DoRafI=T ISym2E= 2 IDoP0=3 IntGTp=3.
 Discarding MO integrals.
 Leave Link 1112 at Mon Feb 21 20:07:04 2022, MaxMem= 16106127360 cpu:            1212.5 elap:              44.0
 (Enter /sw/contrib/gaussian/g16/B01/g16/l601.exe)
 Copying SCF densities to generalized density rwf, IOpCl= 0 IROHF=0.

 **********************************************************************

            Population analysis using the MP2 Density.

 **********************************************************************

 Orbital symmetries:
       Occupied  (A') (A') (A') (A') (A') (A') (A') (A') (A') (A')
                 (A") (A') (A") (A') (A") (A')
       Virtual   (A') (A") (A') (A') (A") (A') (A') (A') (A") (A')
                 (A") (A') (A') (A') (A") (A') (A') (A") (A') (A')
                 (A') (A') (A') (A') (A") (A') (A') (A") (A') (A')
                 (A") (A') (A") (A') (A') (A") (A') (A') (A") (A')
                 (A") (A') (A") (A') (A') (A") (A') (A') (A") (A')
                 (A") (A') (A') (A') (A") (A') (A") (A') (A") (A')
                 (A') (A') (A") (A') (A') (A") (A') (A") (A') (A')
                 (A") (A') (A') (A") (A") (A') (A') (A") (A') (A')
                 (A') (A") (A') (A") (A') (A") (A') (A") (A') (A')
                 (A") (A') (A') (A") (A') (A") (A') (A") (A') (A')
                 (A") (A') (A") (A') (A') (A") (A') (A') (A") (A')
                 (A") (A') (A') (A') (A") (A') (A') (A') (A") (A')
                 (A") (A') (A") (A') (A') (A") (A") (A') (A") (A')
                 (A') (A') (A') (A") (A") (A") (A') (A') (A') (A')
                 (A") (A') (A') (A") (A') (A") (A') (A') (A') (A')
                 (A") (A') (A') (A") (A') (A") (A') (A") (A') (A")
                 (A') (A") (A') (A") (A') (A") (A") (A') (A") (A')
                 (A") (A') (A") (A') (A") (A') (A") (A") (A') (A')
                 (A') (A') (A') (A') (A') (A') (A') (A') (A') (A')
                 (A')
 The electronic state is 1-A'.
 Alpha  occ. eigenvalues --  -20.69127 -20.68457 -20.65886 -15.81313  -1.62436
 Alpha  occ. eigenvalues --   -1.49753  -1.25721  -0.94840  -0.77401  -0.76030
 Alpha  occ. eigenvalues --   -0.71213  -0.68150  -0.62088  -0.59011  -0.48571
 Alpha  occ. eigenvalues --   -0.47289
 Alpha virt. eigenvalues --    0.02989   0.07145   0.08588   0.10168   0.13385
 Alpha virt. eigenvalues --    0.13392   0.14464   0.15507   0.17805   0.19414
 Alpha virt. eigenvalues --    0.19976   0.20637   0.22076   0.23503   0.23725
 Alpha virt. eigenvalues --    0.26638   0.29368   0.30453   0.31100   0.34331
 Alpha virt. eigenvalues --    0.34896   0.38739   0.42357   0.43372   0.52723
 Alpha virt. eigenvalues --    0.52906   0.55845   0.58142   0.62578   0.63826
 Alpha virt. eigenvalues --    0.67428   0.68575   0.70633   0.71167   0.72530
 Alpha virt. eigenvalues --    0.72948   0.74496   0.79117   0.79225   0.81054
 Alpha virt. eigenvalues --    0.81256   0.83078   0.86803   0.90797   0.92268
 Alpha virt. eigenvalues --    0.92653   0.95775   0.97582   0.98653   1.01945
 Alpha virt. eigenvalues --    1.05133   1.05488   1.08364   1.11987   1.14286
 Alpha virt. eigenvalues --    1.18901   1.22164   1.23539   1.33842   1.34972
 Alpha virt. eigenvalues --    1.38601   1.45745   1.49169   1.51140   1.53764
 Alpha virt. eigenvalues --    1.56699   1.57886   1.61495   1.66285   1.66897
 Alpha virt. eigenvalues --    1.70340   1.79352   1.83175   1.83439   1.87783
 Alpha virt. eigenvalues --    1.91147   1.96339   1.99267   2.00864   2.07786
 Alpha virt. eigenvalues --    2.12260   2.13184   2.14989   2.22519   2.26305
 Alpha virt. eigenvalues --    2.26557   2.28960   2.31580   2.34478   2.38900
 Alpha virt. eigenvalues --    2.42454   2.43000   2.45408   2.46306   2.47742
 Alpha virt. eigenvalues --    2.50229   2.58411   2.59715   2.62031   2.62648
 Alpha virt. eigenvalues --    2.63413   2.66556   2.75747   2.82036   2.85627
 Alpha virt. eigenvalues --    2.88493   2.89361   2.92551   2.95765   3.02746
 Alpha virt. eigenvalues --    3.06908   3.11979   3.20425   3.22781   3.31864
 Alpha virt. eigenvalues --    3.34310   3.51645   3.64880   3.83862   3.86005
 Alpha virt. eigenvalues --    4.16146   4.16786   4.18709   4.25901   4.36392
 Alpha virt. eigenvalues --    4.39621   4.46803   4.52440   4.66330   4.71603
 Alpha virt. eigenvalues --    4.80658   4.82410   4.85265   4.89602   5.02319
 Alpha virt. eigenvalues --    5.07755   5.11527   5.15293   5.18698   5.26389
 Alpha virt. eigenvalues --    5.27580   5.31167   5.35909   5.36465   5.61394
 Alpha virt. eigenvalues --    5.67362   5.77346   5.83690   5.95901   6.16562
 Alpha virt. eigenvalues --    6.30908   6.33621   6.39807   6.49359   6.50542
 Alpha virt. eigenvalues --    6.61604   6.66666   6.69977   6.75701   6.76307
 Alpha virt. eigenvalues --    6.83303   6.89820   7.02162   7.05755   7.05925
 Alpha virt. eigenvalues --    7.09149   7.12712   7.15280   7.18147   7.22864
 Alpha virt. eigenvalues --    7.26736   7.32119   7.32593   7.35255   7.39875
 Alpha virt. eigenvalues --    7.43401   7.48443   7.60899   7.62093   7.62977
 Alpha virt. eigenvalues --    7.67051   7.80630   7.88744   8.09886   8.31864
 Alpha virt. eigenvalues --    8.42735   8.54942  13.39480  14.40641  15.37396
 Alpha virt. eigenvalues --   16.15240
          Condensed to atoms (all electrons):
               1          2          3          4          5
     1  H    0.605334   0.122857   0.021676   0.012777  -0.000696
     2  O    0.122857   8.317756  -0.175324  -0.091534   0.015661
     3  O    0.021676  -0.175324   8.470642  -0.130281  -0.038649
     4  N    0.012777  -0.091534  -0.130281   6.972083  -0.055742
     5  O   -0.000696   0.015661  -0.038649  -0.055742   8.272697
 Mulliken charges:
               1
     1  H    0.238053
     2  O   -0.189416
     3  O   -0.148064
     4  N    0.292697
     5  O   -0.193270
 Sum of Mulliken charges =  -0.00000
 Mulliken charges with hydrogens summed into heavy atoms:
               1
     2  O    0.048637
     3  O   -0.148064
     4  N    0.292697
     5  O   -0.193270
 APT charges:
               1
     1  H    0.299872
     2  O   -0.290458
     3  O   -0.494830
     4  N    0.876742
     5  O   -0.391326
 Sum of APT charges =  -0.00000
 APT charges with hydrogens summed into heavy atoms:
               1
     2  O    0.009414
     3  O   -0.494830
     4  N    0.876742
     5  O   -0.391326
 Electronic spatial extent (au):  <R**2>=            252.7339
 Charge=             -0.0000 electrons
 Dipole moment (field-independent basis, Debye):
    X=              0.5007    Y=              1.3427    Z=              0.0000  Tot=              1.4330
 Quadrupole moment (field-independent basis, Debye-Ang):
   XX=            -22.4627   YY=            -18.6703   ZZ=            -21.9925
   XY=              3.2280   XZ=             -0.0000   YZ=             -0.0000
 Traceless Quadrupole moment (field-independent basis, Debye-Ang):
   XX=             -1.4209   YY=              2.3716   ZZ=             -0.9506
   XY=              3.2280   XZ=             -0.0000   YZ=             -0.0000
 Octapole moment (field-independent basis, Debye-Ang**2):
  XXX=              2.8879  YYY=             11.1337  ZZZ=             -0.0000  XYY=              7.8105
  XXY=              6.5436  XXZ=              0.0000  XZZ=             -1.5544  YZZ=             -0.8352
  YYZ=              0.0000  XYZ=              0.0000
 Hexadecapole moment (field-independent basis, Debye-Ang**3):
 XXXX=           -158.2673 YYYY=            -89.9279 ZZZZ=            -18.2114 XXXY=            -36.6425
 XXXZ=             -0.0000 YYYX=            -30.9452 YYYZ=             -0.0000 ZZZX=             -0.0000
 ZZZY=             -0.0000 XXYY=            -34.0573 XXZZ=            -30.8183 YYZZ=            -20.6081
 XXYZ=             -0.0000 YYXZ=             -0.0000 ZZXY=            -15.0126
 N-N= 1.169551812429D+02 E-N=-8.960245444899D+02  KE= 2.802223643181D+02
 Symmetry A'   KE= 2.662498602620D+02
 Symmetry A"   KE= 1.397250405611D+01
  Exact polarizability:  33.936   9.406  30.059   0.000   0.000  17.893
 Approx polarizability:  28.969   5.087  23.376   0.000   0.000  15.499
 No NMR shielding tensors so no spin-rotation constants.
 Leave Link  601 at Mon Feb 21 20:07:04 2022, MaxMem= 16106127360 cpu:               6.8 elap:               0.3
 (Enter /sw/contrib/gaussian/g16/B01/g16/l701.exe)
 ... and contract with generalized density number  2.
 Compute integral second derivatives.
 Leave Link  701 at Mon Feb 21 20:07:05 2022, MaxMem= 16106127360 cpu:              11.1 elap:               0.5
 (Enter /sw/contrib/gaussian/g16/B01/g16/l702.exe)
 L702 exits ... SP integral derivatives will be done elsewhere.
 Leave Link  702 at Mon Feb 21 20:07:05 2022, MaxMem= 16106127360 cpu:               1.5 elap:               0.1
 (Enter /sw/contrib/gaussian/g16/B01/g16/l703.exe)
 Integral derivatives from FoFJK, PRISM(SPDF).
 Compute integral second derivatives, UseDBF=F ICtDFT=           0.
 Calling FoFJK, ICntrl=  10100127 FMM=F ISym2X=1 I1Cent= 0 IOpClX= 0 NMat=1 NMatS=1 NMatT=0.
 FoFJK:  IHMeth= 1 ICntrl=10100127 DoSepK=F KAlg= 0 I1Cent=           0 FoldK=F
 IRaf=         0 NMat=       1 IRICut=       1 DoRegI=T DoRafI=F ISym2E= 1 IDoP0=0 IntGTp=1.
 FoFCou: FMM=F IPFlag=           0 FMFlag=      100000 FMFlg1=         800
         NFxFlg=           0 DoJE=F BraDBF=F KetDBF=F FulRan=T
         wScrn=  0.000000 ICntrl=  10100127 IOpCl=  0 I1Cent=           0 NGrid=           0
         NMat0=    1 NMatS0=      1 NMatT0=    0 NMatD0=    1 NMtDS0=    0 NMtDT0=    0
 Petite list used in FoFCou.
 Leave Link  703 at Mon Feb 21 20:07:20 2022, MaxMem= 16106127360 cpu:             426.0 elap:              15.3
 (Enter /sw/contrib/gaussian/g16/B01/g16/l716.exe)
 Dipole        = 1.96993538D-01 5.28256562D-01 1.12522289D-31
 Polarizability= 3.39361014D+01 9.40628028D+00 3.00585232D+01
                 4.40585173D-30 1.58650443D-30 1.78929616D+01
 Full mass-weighted force constant matrix:
 Low frequencies --- -540.4156  -55.3796  -45.8180   -0.0012   -0.0006    0.0006
 Low frequencies ---   10.2878  228.3878  326.1431
 ******    1 imaginary frequencies (negative Signs) ****** 
 Diagonal vibrational polarizability:
       13.9947412      25.3981237      12.1295551
 Harmonic frequencies (cm**-1), IR intensities (KM/Mole), Raman scattering
 activities (A**4/AMU), depolarization ratios for plane and unpolarized
 incident light, reduced masses (AMU), force constants (mDyne/A),
 and normal coordinates:
                      1                      2                      3
                     A"                     A"                     A'
 Frequencies --   -531.7781               228.2261               325.8679
 Red. masses --      1.1198                12.3008                 7.9478
 Frc consts  --      0.1866                 0.3775                 0.4973
 IR Inten    --    126.9748                 0.0893                 5.7914
  Atom  AN      X      Y      Z        X      Y      Z        X      Y      Z
     1   1     0.00  -0.00   1.00    -0.00   0.00  -0.45     0.59  -0.43  -0.00
     2   8    -0.00  -0.00  -0.06     0.00   0.00  -0.34    -0.10  -0.36  -0.00
     3   8    -0.00   0.00  -0.05     0.00  -0.00   0.35    -0.14   0.42   0.00
     4   7     0.00   0.00   0.05     0.00  -0.00   0.58     0.04   0.23   0.00
     5   8     0.00  -0.00   0.00    -0.00   0.00  -0.48     0.16  -0.24  -0.00
                      4                      5                      6
                     A'                     A'                     A'
 Frequencies --    451.8913               779.4508               966.2114
 Red. masses --     12.2992                12.1547                15.6675
 Frc consts  --      1.4798                 4.3508                 8.6178
 IR Inten    --    198.7807               159.3997                26.3087
  Atom  AN      X      Y      Z        X      Y      Z        X      Y      Z
     1   1     0.41   0.20  -0.00    -0.42   0.18  -0.00    -0.10  -0.03   0.00
     2   8     0.32   0.21  -0.00     0.42   0.07  -0.00    -0.52   0.04  -0.00
     3   8     0.18   0.43   0.00    -0.07  -0.24   0.00     0.76  -0.03   0.00
     4   7    -0.35  -0.41   0.00    -0.14   0.60   0.00    -0.12   0.25   0.00
     5   8    -0.22  -0.30  -0.00    -0.20  -0.36  -0.00    -0.12  -0.23  -0.00
                      7                      8                      9
                     A'                     A'                     A'
 Frequencies --   1322.2786              1677.0428              3965.2756
 Red. masses --      1.1484                13.5057                 1.0675
 Frc consts  --      1.1830                22.3797                 9.8894
 IR Inten    --    155.7129               143.0755                84.2549
  Atom  AN      X      Y      Z        X      Y      Z        X      Y      Z
     1   1     0.99  -0.05   0.00    -0.31   0.00  -0.00     0.10   0.99  -0.00
     2   8    -0.02   0.06   0.00    -0.01  -0.04   0.00    -0.01  -0.06   0.00
     3   8    -0.02  -0.06  -0.00     0.00   0.15   0.00     0.00   0.00   0.00
     4   7     0.02   0.02  -0.00     0.71  -0.05  -0.00    -0.00  -0.00  -0.00
     5   8    -0.03  -0.01   0.00    -0.60  -0.07  -0.00     0.00   0.00  -0.00

 -------------------
 - Thermochemistry -
 -------------------
 Temperature   298.150 Kelvin.  Pressure   1.00000 Atm.
 Atom     1 has atomic number  1 and mass   1.00783
 Atom     2 has atomic number  8 and mass  15.99491
 Atom     3 has atomic number  8 and mass  15.99491
 Atom     4 has atomic number  7 and mass  14.00307
 Atom     5 has atomic number  8 and mass  15.99491
 Molecular mass:    62.99564 amu.
 Principal axes and moments of inertia in atomic units:
                           1         2         3
     Eigenvalues --    32.80524 359.99344 392.79868
           X            0.81030  -0.58602   0.00000
           Y            0.58602   0.81030   0.00000
           Z            0.00000  -0.00000   1.00000
 This molecule is an asymmetric top.
 Rotational symmetry number  1.
 Rotational temperatures (Kelvin)      2.64025     0.24060     0.22050
 Rotational constants (GHZ):          55.01380     5.01326     4.59457
    1 imaginary frequencies ignored.
 Zero-point vibrational energy      58116.0 (Joules/Mol)
                                   13.89007 (Kcal/Mol)
 Warning -- explicit consideration of   3 degrees of freedom as
           vibrations may cause significant error
 Vibrational temperatures:    328.37   468.85   650.17  1121.46  1390.16
          (Kelvin)           1902.46  2412.89  5705.15
 
 Zero-point correction=                           0.022135 (Hartree/Particle)
 Thermal correction to Energy=                    0.026276
 Thermal correction to Enthalpy=                  0.027220
 Thermal correction to Gibbs Free Energy=        -0.004006
 Sum of electronic and zero-point Energies=           -280.424411
 Sum of electronic and thermal Energies=              -280.420271
 Sum of electronic and thermal Enthalpies=            -280.419327
 Sum of electronic and thermal Free Energies=         -280.450553
 
                     E (Thermal)             CV                S
                      KCal/Mol        Cal/Mol-Kelvin    Cal/Mol-Kelvin
 Total                   16.488             12.018             65.721
 Electronic               0.000              0.000              0.000
 Translational            0.889              2.981             38.341
 Rotational               0.889              2.981             23.055
 Vibrational             14.711              6.057              4.326
 Vibration     1          0.651              1.798              1.893
 Vibration     2          0.710              1.624              1.280
 Vibration     3          0.811              1.357              0.790
                       Q            Log10(Q)             Ln(Q)
 Total Bot       0.696229D+02          1.842752          4.243093
 Total V=0       0.105741D+13         12.024244         27.686845
 Vib (Bot)       0.145306D-09         -9.837717        -22.652181
 Vib (Bot)    1  0.863663D+00         -0.063656         -0.146573
 Vib (Bot)    2  0.574830D+00         -0.240461         -0.553681
 Vib (Bot)    3  0.378904D+00         -0.421471         -0.970472
 Vib (V=0)       0.220686D+01          0.343775          0.791570
 Vib (V=0)    1  0.149795D+01          0.175499          0.404101
 Vib (V=0)    2  0.126186D+01          0.101011          0.232586
 Vib (V=0)    3  0.112735D+01          0.052059          0.119870
 Electronic      0.100000D+01          0.000000          0.000000
 Translational   0.196526D+08          7.293420         16.793719
 Rotational      0.243809D+05          4.387050         10.101555
 
                                                                title
                                                             IR Spectrum
 
     3                                                                         1          1                                          
     9                                                                         6          3           9     7         4   3  2       
     6                                                                         7          2           6     7         5   2  2       
     5                                                                         7          2           6     9         2   6  8       
 
     X                                                                         X          X           X     X         X   X  X       
     X                                                                         X          X           X     X         X              
     X                                                                         X          X           X     X         X              
     X                                                                         X          X                 X         X              
     X                                                                         X          X                 X         X              
     X                                                                         X          X                 X         X              
     X                                                                         X          X                 X         X              
     X                                                                         X          X                 X         X              
                                                                               X          X                 X         X              
                                                                               X          X                 X         X              
                                                                               X          X                 X         X              
                                                                               X          X                 X         X              
                                                                               X          X                 X         X              
                                                                               X          X                 X         X              
                                                                                          X                 X         X              
                                                                                          X                 X         X              
                                                                                                                      X              
                                                                                                                      X              
                                                                                                                      X              
                                                                                                                      X              
 
 ***** Axes restored to original set *****
 -------------------------------------------------------------------
 Center     Atomic                   Forces (Hartrees/Bohr)
 Number     Number              X              Y              Z
 -------------------------------------------------------------------
      1        1          -0.000075840   -0.000000000   -0.014344960
      2        8           0.000609483    0.000000000    0.014340761
      3        8          -0.000529135    0.000000000   -0.000000007
      4        7          -0.000290136    0.000000000   -0.000030770
      5        8           0.000285628   -0.000000000    0.000034976
 -------------------------------------------------------------------
 Cartesian Forces:  Max     0.014344960 RMS     0.005242521
 -----------------------------------------------------------------------------------------------
                       Internal Coordinate Forces (Hartree/Bohr or radian)
  Cent   Atom   N1       Length/X         N2         Alpha/Y        N3         Beta/Z          J
 -----------------------------------------------------------------------------------------------
      1  H 
      2  O        1   0.014345(     1)
      3  O        2  -0.000528(     2)      1   0.000137(     5)
      4  N        3   0.000004(     3)      2   0.000069(     6)      1   0.000000(     8)     0
      5  O        4   0.000285(     4)      3  -0.000082(     7)      2  -0.000000(     9)     0
 -----------------------------------------------------------------------------------------------
 Internal  Forces:  Max     0.014344960 RMS     0.004786192
 Force constants in Cartesian coordinates: 
                1             2             3             4             5 
      1  0.590271D-01
      2  0.000000D+00 -0.103754D-01
      3  0.543787D-02  0.000000D+00  0.564196D+00
      4 -0.294156D-01  0.000000D+00 -0.167778D-01  0.265909D+00
      5  0.000000D+00  0.110238D-01  0.000000D+00  0.000000D+00 -0.570079D-02
      6  0.492920D-01  0.000000D+00 -0.560423D+00  0.331319D-01  0.000000D+00
      7 -0.188901D-01  0.000000D+00  0.128652D-01 -0.219903D+00  0.000000D+00
      8  0.000000D+00  0.106674D-02  0.000000D+00  0.000000D+00 -0.678270D-02
      9 -0.542969D-01  0.000000D+00 -0.334901D-03 -0.187572D-01  0.000000D+00
     10 -0.944792D-02  0.000000D+00 -0.488330D-02 -0.170575D-01  0.000000D+00
     11  0.000000D+00 -0.275618D-02  0.000000D+00  0.000000D+00 -0.487091D-02
     12  0.540806D-02  0.000000D+00 -0.488338D-02  0.116492D-01  0.000000D+00
     13 -0.127347D-02  0.000000D+00  0.335793D-02  0.467403D-03  0.000000D+00
     14  0.000000D+00  0.104099D-02  0.000000D+00  0.000000D+00  0.633057D-02
     15 -0.584112D-02  0.000000D+00  0.144506D-02 -0.924614D-02  0.000000D+00
                6             7             8             9            10 
      6  0.647118D+00
      7 -0.216625D-01  0.341791D+00
      8  0.000000D+00  0.000000D+00  0.433960D-02
      9 -0.791480D-01  0.362906D-01  0.000000D+00  0.181620D+00
     10 -0.526201D-01 -0.780496D-01  0.000000D+00  0.175025D+00  0.828474D+00
     11  0.000000D+00  0.000000D+00  0.854314D-02  0.000000D+00  0.000000D+00
     12  0.171530D-01  0.628295D-01  0.000000D+00 -0.818990D-01 -0.178347D-01
     13 -0.814133D-02 -0.249487D-01  0.000000D+00 -0.138262D+00 -0.723919D+00
     14  0.000000D+00  0.000000D+00 -0.716678D-02  0.000000D+00  0.000000D+00
     15 -0.247003D-01 -0.903229D-01  0.000000D+00 -0.202383D-01 -0.996870D-01
               11            12            13            14            15 
     11  0.855056D-02
     12  0.000000D+00  0.186985D+00
     13  0.000000D+00 -0.620521D-01  0.749674D+00
     14 -0.946661D-02  0.000000D+00  0.000000D+00  0.926183D-02
     15  0.000000D+00 -0.117355D+00  0.205097D+00  0.000000D+00  0.160849D+00
 Force constants in internal coordinates: 
                1             2             3             4             5 
      1  0.564196D+00
      2 -0.107417D-01  0.281662D+00
      3  0.355180D-02  0.239526D-02  0.117409D+00
      4 -0.361148D-02  0.585990D-02  0.153051D+00  0.812020D+00
      5  0.973643D-02  0.660155D-01  0.236496D-02  0.484128D-02  0.218075D+00
      6  0.466740D-02  0.592565D-01  0.412894D-01  0.218688D-01  0.316467D-01
      7 -0.125364D-02  0.378525D-01  0.320011D-01  0.847812D-01  0.213285D-01
      8  0.000000D+00  0.000000D+00  0.000000D+00  0.000000D+00  0.000000D+00
      9  0.000000D+00  0.000000D+00  0.000000D+00  0.000000D+00  0.000000D+00
                6             7             8             9 
      6  0.283448D+00
      7  0.957538D-01  0.482758D+00
      8  0.000000D+00  0.000000D+00 -0.777663D-02
      9  0.000000D+00  0.000000D+00 -0.389245D-02  0.410825D-01
 Leave Link  716 at Mon Feb 21 20:07:20 2022, MaxMem= 16106127360 cpu:               1.1 elap:               0.1
 (Enter /sw/contrib/gaussian/g16/B01/g16/l103.exe)

 GradGradGradGradGradGradGradGradGradGradGradGradGradGradGradGradGradGrad
 Berny optimization.
 Search for a local minimum.
 Step number   1 out of a maximum of    2
 All quantities printed in internal units (Hartrees-Bohrs-Radians)
 Second derivative matrix not updated -- analytic derivatives used.
 The second derivative matrix:
                          r1        r2        r3        r4        a1
           r1           0.56420
           r2          -0.01074   0.28166
           r3           0.00355   0.00240   0.11741
           r4          -0.00361   0.00586   0.15305   0.81202
           a1           0.00974   0.06602   0.00236   0.00484   0.21807
           a2           0.00467   0.05926   0.04129   0.02187   0.03165
           a3          -0.00125   0.03785   0.03200   0.08478   0.02133
           d1          -0.00000   0.00000  -0.00000  -0.00000   0.00000
           d2           0.00000   0.00000  -0.00000  -0.00000   0.00000
                          a2        a3        d1        d2
           a2           0.28345
           a3           0.09575   0.48276
           d1           0.00000   0.00000  -0.00778
           d2           0.00000   0.00000  -0.00389   0.04108
 ITU=  0
     Eigenvalues ---   -0.00808   0.04139   0.07836   0.17581   0.22600
     Eigenvalues ---    0.32608   0.51750   0.56484   0.87099
 Eigenvalue     1 is  -8.08D-03 should be greater than     0.000000 Eigenvector:
                          d1        d2        r3        a2        a3
   1                    0.99688   0.07892   0.00000  -0.00000  -0.00000
                          a1        r4        r2        r1
   1                    0.00000  -0.00000  -0.00000  -0.00000
 Angle between quadratic step and forces=   4.43 degrees.
 Linear search not attempted -- first point.
 Variable       Old X    -DE/DX   Delta X   Delta X   Delta X     New X
                                 (Linear)    (Quad)   (Total)
    r1        1.80443   0.01434   0.00000   0.02543   0.02543   1.82985
    r2        2.74940  -0.00053   0.00000  -0.00089  -0.00089   2.74851
    r3        2.75670   0.00000   0.00000  -0.00186  -0.00186   2.75484
    r4        2.21236   0.00029   0.00000   0.00083   0.00083   2.21318
    a1        1.70335   0.00014   0.00000  -0.00027  -0.00027   1.70309
    a2        1.78543   0.00007   0.00000   0.00028   0.00028   1.78571
    a3        1.90362  -0.00008   0.00000  -0.00010  -0.00010   1.90352
    d1        3.14159   0.00000   0.00000  -0.00000   0.00000   3.14159
    d2        3.14159  -0.00000   0.00000  -0.00000   0.00000   3.14159
         Item               Value     Threshold  Converged?
 Maximum Force            0.014345     0.000450     NO 
 RMS     Force            0.004786     0.000300     NO 
 Maximum Displacement     0.025428     0.001800     NO 
 RMS     Displacement     0.008509     0.001200     NO 
 Predicted change in Energy=-1.827240D-04
                       ----------------------------
                       ! Non-Optimized Parameters !
                       ! (Angstroms and Degrees)  !
 ----------------------                            ----------------------
 !      Name          Value   Derivative information (Atomic Units)     !
 ------------------------------------------------------------------------
 !       r1          0.9683   -DE/DX =    0.0143                        !
 !       r2          1.4544   -DE/DX =   -0.0005                        !
 !       r3          1.4578   -DE/DX =    0.0                           !
 !       r4          1.1712   -DE/DX =    0.0003                        !
 !       a1         97.5796   -DE/DX =    0.0001                        !
 !       a2        102.3136   -DE/DX =    0.0001                        !
 !       a3        109.0639   -DE/DX =   -0.0001                        !
 !       d1        180.0      -DE/DX =    0.0                           !
 !       d2        180.0      -DE/DX =    0.0                           !
 ------------------------------------------------------------------------
 GradGradGradGradGradGradGradGradGradGradGradGradGradGradGradGradGradGrad

 Leave Link  103 at Mon Feb 21 20:07:21 2022, MaxMem= 16106127360 cpu:               1.1 elap:               0.1
 (Enter /sw/contrib/gaussian/g16/B01/g16/l9999.exe)

 ----------------------------------------------------------------------

 Electric dipole moment (input orientation):
 (Debye = 10**-18 statcoulomb cm , SI units = C m)
                  (au)            (Debye)         (10**-30 SI)
   Tot        0.563792D+00      0.143302D+01      0.478003D+01
   x         -0.144261D+00     -0.366675D+00     -0.122309D+01
   y          0.000000D+00      0.000000D+00      0.000000D+00
   z         -0.545023D+00     -0.138531D+01     -0.462090D+01

 Dipole polarizability, Alpha (input orientation).
 (esu units = cm**3 , SI units = C**2 m**2 J**-1)
 Alpha(0;0):
               (au)            (10**-24 esu)      (10**-40 SI)
   iso        0.272959D+02      0.404483D+01      0.450048D+01
   aniso      0.218093D+02      0.323180D+01      0.359586D+01
   xx         0.320636D+02      0.475133D+01      0.528657D+01
   yx         0.000000D+00      0.000000D+00      0.000000D+00
   yy         0.178930D+02      0.265146D+01      0.295015D+01
   zx         0.960378D+01      0.142313D+01      0.158345D+01
   zy         0.000000D+00      0.000000D+00      0.000000D+00
   zz         0.319311D+02      0.473169D+01      0.526472D+01

 ----------------------------------------------------------------------

 Dipole orientation:
     1          0.00000000          0.00000000         -0.00000000
     8         -0.46170933          0.00000000         -1.74435584
     8          2.07986254          0.00000000         -2.79297753
     7          1.59534281          0.00000000         -5.50676611
     8          3.52669970          0.00000000         -6.58583218

 Electric dipole moment (dipole orientation):
 (Debye = 10**-18 statcoulomb cm , SI units = C m)
                  (au)            (Debye)         (10**-30 SI)
   Tot        0.563792D+00      0.143302D+01      0.478003D+01
   x          0.000000D+00      0.000000D+00      0.000000D+00
   y          0.000000D+00      0.000000D+00      0.000000D+00
   z          0.563792D+00      0.143302D+01      0.478003D+01

 Dipole polarizability, Alpha (dipole orientation).
 (esu units = cm**3 , SI units = C**2 m**2 J**-1)
 Alpha(0;0):
               (au)            (10**-24 esu)      (10**-40 SI)
   iso        0.272959D+02      0.404483D+01      0.450048D+01
   aniso      0.218093D+02      0.323180D+01      0.359586D+01
   xx         0.273037D+02      0.404600D+01      0.450178D+01
   yx         0.000000D+00      0.000000D+00      0.000000D+00
   yy         0.178930D+02      0.265146D+01      0.295015D+01
   zx        -0.837899D+01     -0.124164D+01     -0.138151D+01
   zy         0.000000D+00      0.000000D+00      0.000000D+00
   zz         0.366909D+02      0.543703D+01      0.604951D+01

 ----------------------------------------------------------------------
 1\1\GINC-N2126\Freq\RMP2-FC\Aug-CC-pVTZ\H1N1O3\CGAVINH\21-Feb-2022\1\\
 #p freq mp2/aug-cc-pvtz density=current\\title\\0,1\H\O,1,r1\O,2,r2,1,
 a1\N,3,r3,2,a2,1,d1,0\O,4,r4,3,a3,2,d2,0\\r1=0.95486106\r2=1.45491931\
 r3=1.45878406\r4=1.17072885\a1=97.59494903\a2=102.29752444\a3=109.0695
 5123\d1=180.\d2=180.\\Version=ES64L-G16RevB.01\State=1-A'\HF=-279.5021
 724\MP2=-280.4465466\RMSD=3.787e-09\RMSF=5.243e-03\ZeroPoint=0.0221352
 \Thermal=0.0262757\Dipole=-0.1442609,0.,-0.5450232\DipoleDeriv=0.26460
 01,0.,0.0486709,0.,0.3575387,0.,0.0849174,0.,0.2774776,-0.328091,0.,-0
 .205197,0.,-0.3168845,0.,-0.1165917,0.,-0.2263979,-0.0464383,0.,0.1438
 201,0.,-0.0865633,0.,-0.7495732,0.,-1.3514885,0.8959368,0.,0.9101558,0
 .,0.0663659,0.,0.9220215,0.,1.667924,-0.7860076,0.,-0.8974498,0.,-0.02
 04568,0.,-0.1407741,0.,-0.3675151\Polar=32.063566,0.,17.8929616,9.6037
 817,0.,31.9310585\Quadrupole=-1.4975807,-0.7067834,2.2043641,0.,2.0787
 547,0.\PG=CS [SG(H1N1O3)]\NImag=1\\0.05902710,0.,-0.01037539,0.0054378
 7,0.,0.56419609,-0.02941558,0.,-0.01677775,0.26590864,0.,0.01102384,0.
 ,0.,-0.00570079,0.04929205,0.,-0.56042286,0.03313189,0.,0.64711816,-0.
 01889012,0.,0.01286524,-0.21990295,0.,-0.02166249,0.34179133,0.,0.0010
 6674,0.,0.,-0.00678270,0.,0.,0.00433960,-0.05429687,0.,-0.00033490,-0.
 01875721,0.,-0.07914804,0.03629064,0.,0.18162032,-0.00944792,0.,-0.004
 88330,-0.01705751,0.,-0.05262011,-0.07804958,0.,0.17502512,0.82847443,
 0.,-0.00275618,0.,0.,-0.00487091,0.,0.,0.00854314,0.,0.,0.00855056,0.0
 0540806,0.,-0.00488338,0.01164922,0.,0.01715305,0.06282952,0.,-0.08189
 903,-0.01783470,0.,0.18698457,-0.00127347,0.,0.00335793,0.00046740,0.,
 -0.00814133,-0.02494868,0.,-0.13826169,-0.72391942,0.,-0.06205210,0.74
 967416,0.,0.00104099,0.,0.,0.00633057,0.,0.,-0.00716678,0.,0.,-0.00946
 661,0.,0.,0.00926183,-0.00584112,0.,0.00144506,-0.00924614,0.,-0.02470
 030,-0.09032292,0.,-0.02023835,-0.09968701,0.,-0.11735521,0.20509719,0
 .,0.16084880\\0.00007584,0.,0.01434496,-0.00060948,0.,-0.01434076,0.00
 052913,0.,0.,0.00029014,0.,0.00003077,-0.00028563,0.,-0.00003498\\\@


 LORD, MAN... WERE YE BUT WHYLES WHERE I AM, 
 THE GENTILES YE WAD NE'ER ENVY 'EM.        
 IT'S TRUE, THEY NEEDNA STARVE OR SWEAT,     
 THRO' WINTER'S CAULD OR SIMMER'S HEAT...  
 THEY'VE NAE SAIR WARK TO CRAZE THEIR BANES, 
 AND FILL AULD AGE WITH GRIPS AN' GRANES...  
                                             
 BUT HUMAN BODIES ARE SIC FOOLS              
 FOR A' THEIR COLLEGES AND SCHOOLS,           
 THAT WHEN NAE REAL ILLS PERPLEX THEM,       
 THEY MAK ENOW THEMSELVES TO VEX THEM,       
 AN' AYE THE LESS THEY HAE TO STURT THEM,    
 IN LIKE PROPORTION LESS WILL HURT THEM....  
                                             
                (ROBERT BURNS 'THE TWA DOGS')
 Job cpu time:       0 days  2 hours  5 minutes 24.5 seconds.
 Elapsed time:       0 days  0 hours  4 minutes 32.5 seconds.
 File lengths (MBytes):  RWF=   7239 Int=      0 D2E=      0 Chk=      8 Scr=      1
 Normal termination of Gaussian 16 at Mon Feb 21 20:07:22 2022.
