 Entering Gaussian System, Link 0=g16
 Input=hoono_a2_100p5158.gjf
 Output=hoono_a2_100p5158.log
 Initial command:
 /sw/contrib/gaussian/g16/B01/g16/l1.exe "/scr/Gau-25771.inp" -scrdir="/scr/"
 Entering Link 1 = /sw/contrib/gaussian/g16/B01/g16/l1.exe PID=     25772.
  
 Copyright (c) 1988-2017, Gaussian, Inc.  All Rights Reserved.
  
 This is part of the Gaussian(R) 16 program.  It is based on
 the Gaussian(R) 09 system (copyright 2009, Gaussian, Inc.),
 the Gaussian(R) 03 system (copyright 2003, Gaussian, Inc.),
 the Gaussian(R) 98 system (copyright 1998, Gaussian, Inc.),
 the Gaussian(R) 94 system (copyright 1995, Gaussian, Inc.),
 the Gaussian 92(TM) system (copyright 1992, Gaussian, Inc.),
 the Gaussian 90(TM) system (copyright 1990, Gaussian, Inc.),
 the Gaussian 88(TM) system (copyright 1988, Gaussian, Inc.),
 the Gaussian 86(TM) system (copyright 1986, Carnegie Mellon
 University), and the Gaussian 82(TM) system (copyright 1983,
 Carnegie Mellon University). Gaussian is a federally registered
 trademark of Gaussian, Inc.
  
 This software contains proprietary and confidential information,
 including trade secrets, belonging to Gaussian, Inc.
  
 This software is provided under written license and may be
 used, copied, transmitted, or stored only in accord with that
 written license.
  
 The following legend is applicable only to US Government
 contracts under FAR:
  
                    RESTRICTED RIGHTS LEGEND
  
 Use, reproduction and disclosure by the US Government is
 subject to restrictions as set forth in subparagraphs (a)
 and (c) of the Commercial Computer Software - Restricted
 Rights clause in FAR 52.227-19.
  
 Gaussian, Inc.
 340 Quinnipiac St., Bldg. 40, Wallingford CT 06492
  
  
 ---------------------------------------------------------------
 Warning -- This program may not be used in any manner that
 competes with the business of Gaussian, Inc. or will provide
 assistance to any competitor of Gaussian, Inc.  The licensee
 of this program is prohibited from giving any competitor of
 Gaussian, Inc. access to this program.  By using this program,
 the user acknowledges that Gaussian, Inc. is engaged in the
 business of creating and licensing software in the field of
 computational chemistry and represents and warrants to the
 licensee that it is not a competitor of Gaussian, Inc. and that
 it will not use this program in any manner prohibited above.
 ---------------------------------------------------------------
  

 Cite this work as:
 Gaussian 16, Revision B.01,
 M. J. Frisch, G. W. Trucks, H. B. Schlegel, G. E. Scuseria, 
 M. A. Robb, J. R. Cheeseman, G. Scalmani, V. Barone, 
 G. A. Petersson, H. Nakatsuji, X. Li, M. Caricato, A. V. Marenich, 
 J. Bloino, B. G. Janesko, R. Gomperts, B. Mennucci, H. P. Hratchian, 
 J. V. Ortiz, A. F. Izmaylov, J. L. Sonnenberg, D. Williams-Young, 
 F. Ding, F. Lipparini, F. Egidi, J. Goings, B. Peng, A. Petrone, 
 T. Henderson, D. Ranasinghe, V. G. Zakrzewski, J. Gao, N. Rega, 
 G. Zheng, W. Liang, M. Hada, M. Ehara, K. Toyota, R. Fukuda, 
 J. Hasegawa, M. Ishida, T. Nakajima, Y. Honda, O. Kitao, H. Nakai, 
 T. Vreven, K. Throssell, J. A. Montgomery, Jr., J. E. Peralta, 
 F. Ogliaro, M. J. Bearpark, J. J. Heyd, E. N. Brothers, K. N. Kudin, 
 V. N. Staroverov, T. A. Keith, R. Kobayashi, J. Normand, 
 K. Raghavachari, A. P. Rendell, J. C. Burant, S. S. Iyengar, 
 J. Tomasi, M. Cossi, J. M. Millam, M. Klene, C. Adamo, R. Cammi, 
 J. W. Ochterski, R. L. Martin, K. Morokuma, O. Farkas, 
 J. B. Foresman, and D. J. Fox, Gaussian, Inc., Wallingford CT, 2016.
 
 ******************************************
 Gaussian 16:  ES64L-G16RevB.01 20-Dec-2017
                21-Feb-2022 
 ******************************************
 %nproc=28
 Will use up to   28 processors via shared memory.
 %mem=120GB
 %chk=hoono_a2_100p5158.chk
 ---------------------------------------
 #p freq mp2/aug-cc-pvtz density=current
 ---------------------------------------
 1/10=4,30=1,38=1/1,3;
 2/12=2,17=6,18=5,40=1/2;
 3/5=16,6=1,7=10,11=9,25=1,30=1,71=2,140=1/1,2,3;
 4//1;
 5/5=2,38=5,98=1/2;
 8/6=3,8=1,10=1,19=11,30=-1/1;
 9/15=3,16=-3/6;
 11/6=1,8=1,15=11,17=12,24=-1,27=1,28=-2,29=300,32=6,42=3/1,2,10;
 10/6=2,21=1/2;
 8/6=4,8=1,10=1,19=11,30=-1/11,4;
 10/5=1,20=4/2;
 11/12=2,14=11,16=1,17=2,28=-2,42=3,76=2/2,10,12;
 6/7=2,8=2,9=2,10=2,22=-1/1;
 7/8=1,10=1,12=2,25=1,44=2/1,2,3,16;
 1/10=4,30=1/3;
 99//99;
 Leave Link    1 at Mon Feb 21 20:46:14 2022, MaxMem= 16106127360 cpu:               3.4 elap:               0.1
 (Enter /sw/contrib/gaussian/g16/B01/g16/l101.exe)
 -----
 title
 -----
 Symbolic Z-matrix:
 Charge =  0 Multiplicity = 1
 H
 O                    1    r1
 O                    2    r2       1    a1
 N                    3    r3       2    a2       1    d1       0
 O                    4    r4       3    a3       2    d2       0
       Variables:
  r1                    0.96898                  
  r2                    1.45492                  
  r3                    1.45878                  
  r4                    1.17073                  
  a1                   97.59495                  
  a2                  100.51589                  
  a3                  109.06955                  
  d1                  180.                       
  d2                  180.                       
 
 ITRead=  0  0  0  0  0
 MicOpt= -1 -1 -1 -1 -1
 NAtoms=      5 NQM=        5 NQMF=       0 NMMI=      0 NMMIF=      0
                NMic=       0 NMicF=      0.
                    Isotopes and Nuclear Properties:
 (Nuclear quadrupole moments (NQMom) in fm**2, nuclear magnetic moments (NMagM)
  in nuclear magnetons)

  Atom         1           2           3           4           5
 IAtWgt=           1          16          16          14          16
 AtmWgt=   1.0078250  15.9949146  15.9949146  14.0030740  15.9949146
 NucSpn=           1           0           0           2           0
 AtZEff=  -0.0000000  -0.0000000  -0.0000000  -0.0000000  -0.0000000
 NQMom=    0.0000000   0.0000000   0.0000000   2.0440000   0.0000000
 NMagM=    2.7928460   0.0000000   0.0000000   0.4037610   0.0000000
 AtZNuc=   1.0000000   8.0000000   8.0000000   7.0000000   8.0000000
 Leave Link  101 at Mon Feb 21 20:46:15 2022, MaxMem= 16106127360 cpu:               3.4 elap:               0.1
 (Enter /sw/contrib/gaussian/g16/B01/g16/l103.exe)

 GradGradGradGradGradGradGradGradGradGradGradGradGradGradGradGradGradGrad
 Berny optimization.
 Initialization pass.
                       ----------------------------
                       !    Initial Parameters    !
                       ! (Angstroms and Degrees)  !
 ----------------------                            ----------------------
 !      Name          Value   Derivative information (Atomic Units)     !
 ------------------------------------------------------------------------
 !       r1          0.969    calculate D2E/DX2 analytically            !
 !       r2          1.4549   calculate D2E/DX2 analytically            !
 !       r3          1.4588   calculate D2E/DX2 analytically            !
 !       r4          1.1707   calculate D2E/DX2 analytically            !
 !       a1         97.5949   calculate D2E/DX2 analytically            !
 !       a2        100.5159   calculate D2E/DX2 analytically            !
 !       a3        109.0696   calculate D2E/DX2 analytically            !
 !       d1        180.0      calculate D2E/DX2 analytically            !
 !       d2        180.0      calculate D2E/DX2 analytically            !
 ------------------------------------------------------------------------
 Trust Radius=3.00D-01 FncErr=1.00D-07 GrdErr=1.00D-07 EigMax=2.50D+02 EigMin=1.00D-04
 Number of steps in this run=      2 maximum allowed number of steps=      2.
 GradGradGradGradGradGradGradGradGradGradGradGradGradGradGradGradGradGrad

 Leave Link  103 at Mon Feb 21 20:46:15 2022, MaxMem= 16106127360 cpu:               0.5 elap:               0.0
 (Enter /sw/contrib/gaussian/g16/B01/g16/l202.exe)
                          Input orientation:                          
 ---------------------------------------------------------------------
 Center     Atomic      Atomic             Coordinates (Angstroms)
 Number     Number       Type             X           Y           Z
 ---------------------------------------------------------------------
      1          1           0        0.000000    0.000000    0.000000
      2          8           0        0.000000    0.000000    0.968976
      3          8           0        1.442156    0.000000    1.161271
      4          7           0        1.516492    0.000000    2.618160
      5          8           0        2.641028    0.000000    2.943774
 ---------------------------------------------------------------------
                    Distance matrix (angstroms):
                    1          2          3          4          5
     1  H    0.000000
     2  O    0.968976   0.000000
     3  O    1.851584   1.454919   0.000000
     4  N    3.025642   2.240437   1.458784   0.000000
     5  O    3.954850   3.297705   2.148165   1.170729   0.000000
 Stoichiometry    HNO3
 Framework group  CS[SG(HNO3)]
 Deg. of freedom     7
 Full point group                 CS      NOp   2
 Largest Abelian subgroup         CS      NOp   2
 Largest concise Abelian subgroup C1      NOp   1
                         Standard orientation:                         
 ---------------------------------------------------------------------
 Center     Atomic      Atomic             Coordinates (Angstroms)
 Number     Number       Type             X           Y           Z
 ---------------------------------------------------------------------
      1          1           0        1.581546    1.648686    0.000000
      2          8           0        1.454918    0.688020    0.000000
      3          8           0        0.000000    0.685838    0.000000
      4          7           0       -0.264089   -0.748842   -0.000000
      5          8           0       -1.421533   -0.924707   -0.000000
 ---------------------------------------------------------------------
 Rotational constants (GHZ):          53.4322069           5.0791391           4.6382390
 Leave Link  202 at Mon Feb 21 20:46:15 2022, MaxMem= 16106127360 cpu:               0.5 elap:               0.0
 (Enter /sw/contrib/gaussian/g16/B01/g16/l301.exe)
 Standard basis: Aug-CC-pVTZ (5D, 7F)
 Ernie: Thresh=  0.10000D-02 Tol=  0.10000D-05 Strict=F.
 Ernie:  12 primitive shells out of 131 were deleted.
 There are   166 symmetry adapted cartesian basis functions of A'  symmetry.
 There are    79 symmetry adapted cartesian basis functions of A"  symmetry.
 There are   136 symmetry adapted basis functions of A'  symmetry.
 There are    71 symmetry adapted basis functions of A"  symmetry.
   207 basis functions,   315 primitive gaussians,   245 cartesian basis functions
    16 alpha electrons       16 beta electrons
       nuclear repulsion energy       117.1169017157 Hartrees.
 IExCor=    0 DFT=F Ex=HF Corr=None ExCW=0 ScaHFX=  1.000000
 ScaDFX=  1.000000  1.000000  1.000000  1.000000 ScalE2=  1.000000  1.000000
 IRadAn=      5 IRanWt=     -1 IRanGd=            0 ICorTp=0 IEmpDi=  4
 NAtoms=    5 NActive=    5 NUniq=    5 SFac= 1.00D+00 NAtFMM=   60 NAOKFM=F Big=F
 Integral buffers will be    131072 words long.
 Raffenetti 1 integral format.
 Two-electron integral symmetry is turned on.
 Leave Link  301 at Mon Feb 21 20:46:15 2022, MaxMem= 16106127360 cpu:               3.1 elap:               0.2
 (Enter /sw/contrib/gaussian/g16/B01/g16/l302.exe)
 NPDir=0 NMtPBC=     1 NCelOv=     1 NCel=       1 NClECP=     1 NCelD=      1
         NCelK=      1 NCelE2=     1 NClLst=     1 CellRange=     0.0.
 One-electron integrals computed using PRISM.
 One-electron integral symmetry used in STVInt
 NBasis=   207 RedAO= T EigKep=  1.82D-04  NBF=   136    71
 NBsUse=   207 1.00D-06 EigRej= -1.00D+00 NBFU=   136    71
 Leave Link  302 at Mon Feb 21 20:46:15 2022, MaxMem= 16106127360 cpu:               4.7 elap:               0.2
 (Enter /sw/contrib/gaussian/g16/B01/g16/l303.exe)
 DipDrv:  MaxL=1.
 Leave Link  303 at Mon Feb 21 20:46:15 2022, MaxMem= 16106127360 cpu:               1.8 elap:               0.1
 (Enter /sw/contrib/gaussian/g16/B01/g16/l401.exe)
 ExpMin= 2.53D-02 ExpMax= 1.53D+04 ExpMxC= 5.22D+02 IAcc=3 IRadAn=         5 AccDes= 0.00D+00
 Harris functional with IExCor=  205 and IRadAn=       5 diagonalized for initial guess.
 HarFok:  IExCor=  205 AccDes= 0.00D+00 IRadAn=         5 IDoV= 1 UseB2=F ITyADJ=14
 ICtDFT=  3500011 ScaDFX=  1.000000  1.000000  1.000000  1.000000
 FoFCou: FMM=F IPFlag=           0 FMFlag=      100000 FMFlg1=           0
         NFxFlg=           0 DoJE=T BraDBF=F KetDBF=T FulRan=T
         wScrn=  0.000000 ICntrl=       500 IOpCl=  0 I1Cent=   200000004 NGrid=           0
         NMat0=    1 NMatS0=      1 NMatT0=    0 NMatD0=    1 NMtDS0=    0 NMtDT0=    0
 Petite list used in FoFCou.
 Harris En= -279.628247327788    
 JPrj=0 DoOrth=F DoCkMO=F.
 Initial guess orbital symmetries:
       Occupied  (A') (A') (A') (A') (A') (A') (A') (A') (A') (A')
                 (A") (A') (A') (A") (A") (A')
       Virtual   (A") (A') (A') (A') (A') (A') (A") (A') (A') (A')
                 (A") (A') (A") (A') (A') (A") (A') (A") (A') (A')
                 (A') (A') (A') (A') (A') (A") (A') (A") (A') (A')
                 (A") (A') (A") (A') (A') (A") (A') (A") (A') (A')
                 (A') (A") (A") (A') (A") (A') (A') (A') (A") (A")
                 (A') (A') (A') (A') (A") (A') (A") (A') (A") (A')
                 (A') (A') (A") (A') (A') (A") (A') (A") (A') (A')
                 (A") (A') (A') (A") (A") (A') (A') (A") (A') (A')
                 (A') (A") (A') (A") (A') (A") (A') (A") (A') (A')
                 (A') (A") (A') (A") (A') (A") (A") (A') (A') (A")
                 (A') (A') (A") (A') (A') (A') (A') (A") (A") (A')
                 (A") (A') (A') (A') (A") (A') (A') (A') (A") (A')
                 (A") (A') (A') (A") (A") (A') (A') (A") (A") (A')
                 (A') (A') (A') (A") (A") (A') (A") (A') (A') (A')
                 (A') (A") (A") (A') (A') (A") (A') (A') (A') (A')
                 (A") (A') (A') (A") (A') (A") (A') (A") (A") (A')
                 (A') (A") (A') (A") (A') (A") (A") (A") (A') (A')
                 (A") (A') (A") (A') (A") (A') (A") (A") (A') (A')
                 (A') (A') (A') (A') (A') (A') (A') (A') (A') (A')
                 (A')
 The electronic state of the initial guess is 1-A'.
 Leave Link  401 at Mon Feb 21 20:46:15 2022, MaxMem= 16106127360 cpu:               6.7 elap:               0.3
 (Enter /sw/contrib/gaussian/g16/B01/g16/l502.exe)
 Keep R1 ints in memory in symmetry-blocked form, NReq=348887737.
 FoFCou: FMM=F IPFlag=           0 FMFlag=           0 FMFlg1=           0
         NFxFlg=           0 DoJE=F BraDBF=F KetDBF=F FulRan=T
         wScrn=  0.000000 ICntrl=       600 IOpCl=  0 I1Cent=           0 NGrid=           0
         NMat0=    1 NMatS0=  21528 NMatT0=    0 NMatD0=    1 NMtDS0=    0 NMtDT0=    0
 Petite list used in FoFCou.
 Closed shell SCF:
 Using DIIS extrapolation, IDIIS=  1040.
 NGot= 16106127360 LenX= 15988850015 LenY= 15988789549
 Requested convergence on RMS density matrix=1.00D-08 within 128 cycles.
 Requested convergence on MAX density matrix=1.00D-06.
 Requested convergence on             energy=1.00D-06.
 No special actions if energy rises.

 Cycle   1  Pass 1  IDiag  1:
 E= -279.369954674778    
 DIIS: error= 2.85D-02 at cycle   1 NSaved=   1.
 NSaved= 1 IEnMin= 1 EnMin= -279.369954674778     IErMin= 1 ErrMin= 2.85D-02
 ErrMax= 2.85D-02  0.00D+00 EMaxC= 1.00D-01 BMatC= 4.39D-01 BMatP= 4.39D-01
 IDIUse=3 WtCom= 7.15D-01 WtEn= 2.85D-01
 Coeff-Com:  0.100D+01
 Coeff-En:   0.100D+01
 Coeff:      0.100D+01
 Gap=     0.514 Goal=   None    Shift=    0.000
 GapD=    0.514 DampG=2.000 DampE=0.500 DampFc=1.0000 IDamp=-1.
 RMSDP=1.62D-03 MaxDP=9.88D-02              OVMax= 1.14D-01

 Cycle   2  Pass 1  IDiag  1:
 E= -279.451933649601     Delta-E=       -0.081978974822 Rises=F Damp=F
 DIIS: error= 1.80D-02 at cycle   2 NSaved=   2.
 NSaved= 2 IEnMin= 2 EnMin= -279.451933649601     IErMin= 2 ErrMin= 1.80D-02
 ErrMax= 1.80D-02  0.00D+00 EMaxC= 1.00D-01 BMatC= 7.22D-02 BMatP= 4.39D-01
 IDIUse=3 WtCom= 8.20D-01 WtEn= 1.80D-01
 Coeff-Com:  0.196D+00 0.804D+00
 Coeff-En:   0.000D+00 0.100D+01
 Coeff:      0.160D+00 0.840D+00
 Gap=     0.530 Goal=   None    Shift=    0.000
 RMSDP=9.02D-04 MaxDP=3.73D-02 DE=-8.20D-02 OVMax= 6.94D-02

 Cycle   3  Pass 1  IDiag  1:
 E= -279.481210678786     Delta-E=       -0.029277029185 Rises=F Damp=F
 DIIS: error= 1.04D-02 at cycle   3 NSaved=   3.
 NSaved= 3 IEnMin= 3 EnMin= -279.481210678786     IErMin= 3 ErrMin= 1.04D-02
 ErrMax= 1.04D-02  0.00D+00 EMaxC= 1.00D-01 BMatC= 2.88D-02 BMatP= 7.22D-02
 IDIUse=3 WtCom= 8.96D-01 WtEn= 1.04D-01
 Coeff-Com: -0.329D-01 0.378D+00 0.655D+00
 Coeff-En:   0.000D+00 0.240D+00 0.760D+00
 Coeff:     -0.295D-01 0.363D+00 0.666D+00
 Gap=     0.511 Goal=   None    Shift=    0.000
 RMSDP=3.77D-04 MaxDP=1.53D-02 DE=-2.93D-02 OVMax= 3.81D-02

 Cycle   4  Pass 1  IDiag  1:
 E= -279.500301990473     Delta-E=       -0.019091311687 Rises=F Damp=F
 DIIS: error= 1.27D-03 at cycle   4 NSaved=   4.
 NSaved= 4 IEnMin= 4 EnMin= -279.500301990473     IErMin= 4 ErrMin= 1.27D-03
 ErrMax= 1.27D-03  0.00D+00 EMaxC= 1.00D-01 BMatC= 4.93D-04 BMatP= 2.88D-02
 IDIUse=3 WtCom= 9.87D-01 WtEn= 1.27D-02
 Coeff-Com: -0.117D-01 0.573D-01 0.159D+00 0.796D+00
 Coeff-En:   0.000D+00 0.000D+00 0.000D+00 0.100D+01
 Coeff:     -0.115D-01 0.565D-01 0.157D+00 0.798D+00
 Gap=     0.502 Goal=   None    Shift=    0.000
 RMSDP=9.01D-05 MaxDP=2.77D-03 DE=-1.91D-02 OVMax= 1.12D-02

 Cycle   5  Pass 1  IDiag  1:
 E= -279.500975998324     Delta-E=       -0.000674007852 Rises=F Damp=F
 DIIS: error= 7.22D-04 at cycle   5 NSaved=   5.
 NSaved= 5 IEnMin= 5 EnMin= -279.500975998324     IErMin= 5 ErrMin= 7.22D-04
 ErrMax= 7.22D-04  0.00D+00 EMaxC= 1.00D-01 BMatC= 8.67D-05 BMatP= 4.93D-04
 IDIUse=3 WtCom= 9.93D-01 WtEn= 7.22D-03
 Coeff-Com:  0.611D-02-0.720D-01-0.118D+00 0.191D-01 0.116D+01
 Coeff-En:   0.000D+00 0.000D+00 0.000D+00 0.000D+00 0.100D+01
 Coeff:      0.607D-02-0.715D-01-0.117D+00 0.190D-01 0.116D+01
 Gap=     0.502 Goal=   None    Shift=    0.000
 RMSDP=7.59D-05 MaxDP=2.10D-03 DE=-6.74D-04 OVMax= 1.10D-02

 Cycle   6  Pass 1  IDiag  1:
 E= -279.501289080258     Delta-E=       -0.000313081933 Rises=F Damp=F
 DIIS: error= 2.83D-04 at cycle   6 NSaved=   6.
 NSaved= 6 IEnMin= 6 EnMin= -279.501289080258     IErMin= 6 ErrMin= 2.83D-04
 ErrMax= 2.83D-04  0.00D+00 EMaxC= 1.00D-01 BMatC= 1.66D-05 BMatP= 8.67D-05
 IDIUse=3 WtCom= 9.97D-01 WtEn= 2.83D-03
 Coeff-Com:  0.621D-03 0.125D-02 0.388D-02-0.128D+00-0.228D+00 0.135D+01
 Coeff-En:   0.000D+00 0.000D+00 0.000D+00 0.000D+00 0.000D+00 0.100D+01
 Coeff:      0.620D-03 0.125D-02 0.387D-02-0.128D+00-0.227D+00 0.135D+01
 Gap=     0.503 Goal=   None    Shift=    0.000
 RMSDP=4.50D-05 MaxDP=1.24D-03 DE=-3.13D-04 OVMax= 5.50D-03

 Cycle   7  Pass 1  IDiag  1:
 E= -279.501361062344     Delta-E=       -0.000071982086 Rises=F Damp=F
 DIIS: error= 1.22D-04 at cycle   7 NSaved=   7.
 NSaved= 7 IEnMin= 7 EnMin= -279.501361062344     IErMin= 7 ErrMin= 1.22D-04
 ErrMax= 1.22D-04  0.00D+00 EMaxC= 1.00D-01 BMatC= 4.59D-06 BMatP= 1.66D-05
 IDIUse=3 WtCom= 9.99D-01 WtEn= 1.22D-03
 Coeff-Com: -0.927D-03 0.135D-01 0.263D-01-0.250D-01-0.290D+00 0.405D+00
 Coeff-Com:  0.872D+00
 Coeff-En:   0.000D+00 0.000D+00 0.000D+00 0.000D+00 0.000D+00 0.000D+00
 Coeff-En:   0.100D+01
 Coeff:     -0.926D-03 0.135D-01 0.263D-01-0.250D-01-0.290D+00 0.404D+00
 Coeff:      0.872D+00
 Gap=     0.503 Goal=   None    Shift=    0.000
 RMSDP=1.32D-05 MaxDP=3.74D-04 DE=-7.20D-05 OVMax= 1.54D-03

 Cycle   8  Pass 1  IDiag  1:
 E= -279.501369936281     Delta-E=       -0.000008873937 Rises=F Damp=F
 DIIS: error= 5.49D-05 at cycle   8 NSaved=   8.
 NSaved= 8 IEnMin= 8 EnMin= -279.501369936281     IErMin= 8 ErrMin= 5.49D-05
 ErrMax= 5.49D-05  0.00D+00 EMaxC= 1.00D-01 BMatC= 6.00D-07 BMatP= 4.59D-06
 IDIUse=1 WtCom= 1.00D+00 WtEn= 0.00D+00
 Coeff-Com: -0.447D-03 0.342D-02 0.758D-02 0.274D-01-0.406D-01-0.197D+00
 Coeff-Com:  0.161D+00 0.104D+01
 Coeff:     -0.447D-03 0.342D-02 0.758D-02 0.274D-01-0.406D-01-0.197D+00
 Coeff:      0.161D+00 0.104D+01
 Gap=     0.502 Goal=   None    Shift=    0.000
 RMSDP=6.87D-06 MaxDP=2.02D-04 DE=-8.87D-06 OVMax= 7.42D-04

 Cycle   9  Pass 1  IDiag  1:
 E= -279.501371701332     Delta-E=       -0.000001765051 Rises=F Damp=F
 DIIS: error= 1.68D-05 at cycle   9 NSaved=   9.
 NSaved= 9 IEnMin= 9 EnMin= -279.501371701332     IErMin= 9 ErrMin= 1.68D-05
 ErrMax= 1.68D-05  0.00D+00 EMaxC= 1.00D-01 BMatC= 6.72D-08 BMatP= 6.00D-07
 IDIUse=1 WtCom= 1.00D+00 WtEn= 0.00D+00
 Coeff-Com:  0.124D-03-0.172D-02-0.307D-02-0.227D-02 0.342D-01 0.991D-03
 Coeff-Com: -0.163D+00-0.116D+00 0.125D+01
 Coeff:      0.124D-03-0.172D-02-0.307D-02-0.227D-02 0.342D-01 0.991D-03
 Coeff:     -0.163D+00-0.116D+00 0.125D+01
 Gap=     0.502 Goal=   None    Shift=    0.000
 RMSDP=1.91D-06 MaxDP=6.63D-05 DE=-1.77D-06 OVMax= 1.74D-04

 Cycle  10  Pass 1  IDiag  1:
 E= -279.501371858145     Delta-E=       -0.000000156813 Rises=F Damp=F
 DIIS: error= 4.45D-06 at cycle  10 NSaved=  10.
 NSaved=10 IEnMin=10 EnMin= -279.501371858145     IErMin=10 ErrMin= 4.45D-06
 ErrMax= 4.45D-06  0.00D+00 EMaxC= 1.00D-01 BMatC= 5.44D-09 BMatP= 6.72D-08
 IDIUse=1 WtCom= 1.00D+00 WtEn= 0.00D+00
 Coeff-Com:  0.298D-04-0.230D-03-0.298D-03-0.264D-02 0.139D-02 0.193D-01
 Coeff-Com: -0.112D-01-0.733D-01-0.852D-01 0.115D+01
 Coeff:      0.298D-04-0.230D-03-0.298D-03-0.264D-02 0.139D-02 0.193D-01
 Coeff:     -0.112D-01-0.733D-01-0.852D-01 0.115D+01
 Gap=     0.502 Goal=   None    Shift=    0.000
 RMSDP=4.97D-07 MaxDP=2.07D-05 DE=-1.57D-07 OVMax= 4.17D-05

 Cycle  11  Pass 1  IDiag  1:
 E= -279.501371870361     Delta-E=       -0.000000012216 Rises=F Damp=F
 DIIS: error= 2.01D-06 at cycle  11 NSaved=  11.
 NSaved=11 IEnMin=11 EnMin= -279.501371870361     IErMin=11 ErrMin= 2.01D-06
 ErrMax= 2.01D-06  0.00D+00 EMaxC= 1.00D-01 BMatC= 6.47D-10 BMatP= 5.44D-09
 IDIUse=1 WtCom= 1.00D+00 WtEn= 0.00D+00
 Coeff-Com: -0.211D-04 0.241D-03 0.483D-03 0.533D-03-0.428D-02-0.346D-02
 Coeff-Com:  0.203D-01 0.318D-01-0.140D+00-0.174D+00 0.127D+01
 Coeff:     -0.211D-04 0.241D-03 0.483D-03 0.533D-03-0.428D-02-0.346D-02
 Coeff:      0.203D-01 0.318D-01-0.140D+00-0.174D+00 0.127D+01
 Gap=     0.502 Goal=   None    Shift=    0.000
 RMSDP=1.75D-07 MaxDP=6.32D-06 DE=-1.22D-08 OVMax= 1.73D-05

 Cycle  12  Pass 1  IDiag  1:
 E= -279.501371872121     Delta-E=       -0.000000001760 Rises=F Damp=F
 DIIS: error= 5.69D-07 at cycle  12 NSaved=  12.
 NSaved=12 IEnMin=12 EnMin= -279.501371872121     IErMin=12 ErrMin= 5.69D-07
 ErrMax= 5.69D-07  0.00D+00 EMaxC= 1.00D-01 BMatC= 7.00D-11 BMatP= 6.47D-10
 IDIUse=1 WtCom= 1.00D+00 WtEn= 0.00D+00
 Coeff-Com:  0.121D-05-0.285D-04-0.620D-04 0.182D-03 0.107D-02-0.230D-02
 Coeff-Com: -0.403D-02 0.542D-02 0.416D-01-0.117D+00-0.268D+00 0.134D+01
 Coeff:      0.121D-05-0.285D-04-0.620D-04 0.182D-03 0.107D-02-0.230D-02
 Coeff:     -0.403D-02 0.542D-02 0.416D-01-0.117D+00-0.268D+00 0.134D+01
 Gap=     0.502 Goal=   None    Shift=    0.000
 RMSDP=7.01D-08 MaxDP=2.74D-06 DE=-1.76D-09 OVMax= 6.68D-06

 Cycle  13  Pass 1  IDiag  1:
 E= -279.501371872343     Delta-E=       -0.000000000222 Rises=F Damp=F
 DIIS: error= 1.66D-07 at cycle  13 NSaved=  13.
 NSaved=13 IEnMin=13 EnMin= -279.501371872343     IErMin=13 ErrMin= 1.66D-07
 ErrMax= 1.66D-07  0.00D+00 EMaxC= 1.00D-01 BMatC= 3.94D-12 BMatP= 7.00D-11
 IDIUse=1 WtCom= 1.00D+00 WtEn= 0.00D+00
 Coeff-Com:  0.127D-05-0.139D-04-0.224D-04-0.886D-04 0.124D-03 0.749D-03
 Coeff-Com: -0.811D-03-0.329D-02 0.647D-03 0.415D-01-0.384D-01-0.322D+00
 Coeff-Com:  0.132D+01
 Coeff:      0.127D-05-0.139D-04-0.224D-04-0.886D-04 0.124D-03 0.749D-03
 Coeff:     -0.811D-03-0.329D-02 0.647D-03 0.415D-01-0.384D-01-0.322D+00
 Coeff:      0.132D+01
 Gap=     0.502 Goal=   None    Shift=    0.000
 RMSDP=1.88D-08 MaxDP=5.58D-07 DE=-2.22D-10 OVMax= 1.56D-06

 Cycle  14  Pass 1  IDiag  1:
 E= -279.501371872357     Delta-E=       -0.000000000014 Rises=F Damp=F
 DIIS: error= 2.41D-08 at cycle  14 NSaved=  14.
 NSaved=14 IEnMin=14 EnMin= -279.501371872357     IErMin=14 ErrMin= 2.41D-08
 ErrMax= 2.41D-08  0.00D+00 EMaxC= 1.00D-01 BMatC= 1.96D-13 BMatP= 3.94D-12
 IDIUse=1 WtCom= 1.00D+00 WtEn= 0.00D+00
 Coeff-Com: -0.192D-06 0.312D-05 0.559D-05 0.455D-05-0.826D-04 0.456D-04
 Coeff-Com:  0.275D-03 0.241D-03-0.247D-02 0.156D-02 0.168D-01-0.253D-01
 Coeff-Com: -0.202D+00 0.121D+01
 Coeff:     -0.192D-06 0.312D-05 0.559D-05 0.455D-05-0.826D-04 0.456D-04
 Coeff:      0.275D-03 0.241D-03-0.247D-02 0.156D-02 0.168D-01-0.253D-01
 Coeff:     -0.202D+00 0.121D+01
 Gap=     0.502 Goal=   None    Shift=    0.000
 RMSDP=3.78D-09 MaxDP=8.91D-08 DE=-1.44D-11 OVMax= 3.42D-07

 SCF Done:  E(RHF) =  -279.501371872     A.U. after   14 cycles
            NFock= 14  Conv=0.38D-08     -V/T= 2.0023
 KE= 2.788563866338D+02 PE=-8.955742237203D+02 EE= 2.200995634984D+02
 Leave Link  502 at Mon Feb 21 20:46:19 2022, MaxMem= 16106127360 cpu:              58.5 elap:               3.8
 (Enter /sw/contrib/gaussian/g16/B01/g16/l801.exe)
 ExpMin= 2.53D-02 ExpMax= 1.53D+04 ExpMxC= 5.22D+02 IAcc=3 IRadAn=         5 AccDes= 0.00D+00
 HarFok:  IExCor=  205 AccDes= 0.00D+00 IRadAn=         5 IDoV=-2 UseB2=F ITyADJ=14
 ICtDFT= 12500011 ScaDFX=  1.000000  1.000000  1.000000  1.000000
 Largest valence mixing into a core orbital is  2.08D-04
 Largest core mixing into a valence orbital is  3.64D-05
 Range of M.O.s used for correlation:     5   207
 NBasis=   207 NAE=    16 NBE=    16 NFC=     4 NFV=     0
 NROrb=    203 NOA=    12 NOB=    12 NVA=   191 NVB=   191

 **** Warning!!: The largest alpha MO coefficient is  0.18125718D+02

 Leave Link  801 at Mon Feb 21 20:46:19 2022, MaxMem= 16106127360 cpu:               2.1 elap:               0.1
 (Enter /sw/contrib/gaussian/g16/B01/g16/l906.exe)
 Frozen-core derivative calculation, NFC=   4 NFV=   0.
 FulOut=F Deriv=T AODrv=T NAtomX=     5
   MMem=           0  MDisk=          12 MDiskD=          12
  W3Min=      811440 MinDsk=     2425030 NBas6D=         245
 NBas2D=       30762    NTT=       30135    LW2=     7400000
    MDV= 16105574283 MDiskM=      328644 NBas2p=       30702
 Disk-based method using ON**2 memory for 12 occupieds at a time.
 Permanent disk used for amplitudes=    11516536 words.
 Estimated scratch disk usage=   321251614 words.
 IMap=   1   2   3   4   5   6   7   8   9  10  11  12  13  14  15  16
 Actual    scratch disk usage=   310331678 words.
 JobTyp=1 Pass  1:  I=   5 to  16 NPSUse= 28 ParTrn=T ParDer=T DoDerP=T.
 (rs|ai) integrals will be sorted in core.
 Spin components of T(2) and E(2):
     alpha-alpha T2 =       0.3402250448D-01 E2=     -0.1224345952D+00
     alpha-beta  T2 =       0.1868658037D+00 E2=     -0.7003547322D+00
     beta-beta   T2 =       0.3402250448D-01 E2=     -0.1224345952D+00
 The integrals were generated   1 times.
 ANorm=    0.1120228018D+01
 E2 =    -0.9452239227D+00 EUMP2 =    -0.28044659579503D+03
 Leave Link  906 at Mon Feb 21 20:47:56 2022, MaxMem= 16106127360 cpu:            2702.0 elap:              96.6
 (Enter /sw/contrib/gaussian/g16/B01/g16/l1101.exe)
 Using compressed Sx but separate Hx and Fx, NAtomX=     5.
 Will process      6 centers per pass.
 Leave Link 1101 at Mon Feb 21 20:47:56 2022, MaxMem= 16106127360 cpu:               5.2 elap:               0.2
 (Enter /sw/contrib/gaussian/g16/B01/g16/l1102.exe)
 Leave Link 1102 at Mon Feb 21 20:47:56 2022, MaxMem= 16106127360 cpu:               1.3 elap:               0.1
 (Enter /sw/contrib/gaussian/g16/B01/g16/l1110.exe)
 Forming Gx(P) for the SCF density, NAtomX=     5.
 Integral derivatives from FoFJK, PRISM(SPDF).
 Do as many integral derivatives as possible in FoFJK.
 G2DrvN: MDV=   16106126844.
 G2DrvN: will do     6 centers at a time, making    1 passes.
 Calling FoFCou, ICntrl=  3107 FMM=F I1Cent=   0 AccDes= 0.00D+00.
 FoFJK:  IHMeth= 1 ICntrl=    3107 DoSepK=F KAlg= 0 I1Cent=           0 FoldK=F
 IRaf=         0 NMat=       1 IRICut=       1 DoRegI=T DoRafI=F ISym2E= 1 IDoP0=0 IntGTp=1.
 FoFCou: FMM=F IPFlag=           0 FMFlag=      100000 FMFlg1=           0
         NFxFlg=           0 DoJE=F BraDBF=F KetDBF=F FulRan=T
         wScrn=  0.000000 ICntrl=      3107 IOpCl=  0 I1Cent=           0 NGrid=           0
         NMat0=    1 NMatS0=      1 NMatT0=    0 NMatD0=    1 NMtDS0=    0 NMtDT0=    0
 Petite list used in FoFCou.
 End of G2Drv F.D. properties file   721 does not exist.
 End of G2Drv F.D. properties file   722 does not exist.
 End of G2Drv F.D. properties file   788 does not exist.
 Leave Link 1110 at Mon Feb 21 20:47:59 2022, MaxMem= 16106127360 cpu:              84.8 elap:               3.1
 (Enter /sw/contrib/gaussian/g16/B01/g16/l1002.exe)
 Minotr:  Closed shell wavefunction.
          IDoAtm=11111
          Frozen-core window.
          Direct CPHF calculation.
          Differentiating once with respect to electric field.
                with respect to dipole field.
          Differentiating once with respect to nuclear coordinates.
          Requested convergence is 1.0D-08 RMS, and 1.0D-07 maximum.
          Secondary convergence is 1.0D-12 RMS, and 1.0D-12 maximum.
          NewPWx=T KeepS1=T KeepF1=T KeepIn=T MapXYZ=F SortEE=F KeepMc=T.
 Keep R1 ints in memory in symmetry-blocked form, NReq=348888983.
 FoFCou: FMM=F IPFlag=           0 FMFlag=           0 FMFlg1=           0
         NFxFlg=           0 DoJE=F BraDBF=F KetDBF=F FulRan=T
         wScrn=  0.000000 ICntrl=       600 IOpCl=  0 I1Cent=           0 NGrid=           0
         NMat0=    1 NMatS0=  21528 NMatT0=    0 NMatD0=    1 NMtDS0=    0 NMtDT0=    0
 Petite list used in FoFCou.
          MDV=   16106127360 using IRadAn=       1.
          Solving linear equations simultaneously, MaxMat=       0.
          There are    18 degrees of freedom in the 1st order CPHF.  IDoFFX=6 NUNeed=    18.
     15 vectors produced by pass  0 Test12= 1.70D-14 5.56D-09 XBig12= 8.28D+00 1.07D+00.
 AX will form    15 AO Fock derivatives at one time.
     15 vectors produced by pass  1 Test12= 1.70D-14 5.56D-09 XBig12= 1.34D+00 2.77D-01.
     15 vectors produced by pass  2 Test12= 1.70D-14 5.56D-09 XBig12= 1.40D-01 9.60D-02.
     15 vectors produced by pass  3 Test12= 1.70D-14 5.56D-09 XBig12= 4.85D-03 1.06D-02.
     15 vectors produced by pass  4 Test12= 1.70D-14 5.56D-09 XBig12= 9.73D-05 1.88D-03.
     15 vectors produced by pass  5 Test12= 1.70D-14 5.56D-09 XBig12= 1.41D-06 1.71D-04.
     15 vectors produced by pass  6 Test12= 1.70D-14 5.56D-09 XBig12= 1.12D-08 1.44D-05.
     13 vectors produced by pass  7 Test12= 1.70D-14 5.56D-09 XBig12= 8.16D-11 1.29D-06.
      3 vectors produced by pass  8 Test12= 1.70D-14 5.56D-09 XBig12= 5.60D-13 1.20D-07.
      2 vectors produced by pass  9 Test12= 1.70D-14 5.56D-09 XBig12= 3.61D-15 1.01D-08.
 InvSVY:  IOpt=1 It=  1 EMax= 1.11D-15
 Solved reduced A of dimension   123 with    15 vectors.
 FullF1:  Do perturbations      1 to      18.
 Saving first derivative matrices.
 End of Minotr F.D. properties file   721 does not exist.
 End of Minotr F.D. properties file   722 does not exist.
 End of Minotr F.D. properties file   788 does not exist.
 Leave Link 1002 at Mon Feb 21 20:48:03 2022, MaxMem= 16106127360 cpu:             101.9 elap:               3.7
 (Enter /sw/contrib/gaussian/g16/B01/g16/l811.exe)
 MDV= 16106127360.
 Form MO integral derivatives with frozen-active canonical formalism.
 MOERI=1 MOERIx=1 NAtoms=     5 NAtomX=     5.
 Discarding MO integrals.
 MO basis two electron integral derivatives will not be stored on disk.
 IAlg= 3 DoFC=T DoPWx=T Debug=F.
 Frozen-core window:  NFC=   4 NFV=   0.
 Reordered first order wavefunction length =     18678272
 In DefCFB: NBatch=  1 ICI= 16 ICA=191 LFMax= 96
            Large arrays: LIAPS=   619940160 LIARS=   288257200 words.
 In StABat: MaxSiz= 55 MinSiz= 25 NAtomB=  5
 DoIAMN: NPSUse= 28.
 Leave Link  811 at Mon Feb 21 20:49:22 2022, MaxMem= 16106127360 cpu:            2215.9 elap:              79.3
 (Enter /sw/contrib/gaussian/g16/B01/g16/l804.exe)
 Frozen-core window:  NFC=   4 NFV=   0.
 Closed-shell transformation, MDV= 16106127360 ITran=4 ISComp=1.
 Semi-Direct transformation.
 ModeAB=           2 MOrb=            16 LenV=   16104922995
 LASXX=     67341636 LTotXX=    67341636 LenRXX=    67341636
 LTotAB=    68301760 MaxLAS=    99807120 LenRXY=    99807120
 NonZer=   134683272 LenScr=   202817536 LnRSAI=           0
 LnScr1=           0 LExtra=           0 Total=    369966292
 MaxDsk=          -1 SrtSym=           F ITran=            4
 DoSDTr:  NPSUse= 28
 JobTyp=0 Pass  1:  I=   1 to  16.
 (rs|ai) integrals will be sorted in core.
 Complete sort for first half transformation.
 First half transformation complete.
 Begin second half transformation for I=  10.
 Begin second half transformation for I=  10.
 Complete sort for second half transformation.
 Second half transformation complete.
 Spin components of T(2) and E(2):
     alpha-alpha T2 =       0.3402250448D-01 E2=     -0.1224345952D+00
     alpha-beta  T2 =       0.1868658037D+00 E2=     -0.7003547322D+00
     beta-beta   T2 =       0.3402250448D-01 E2=     -0.1224345952D+00
 ANorm=    0.1584241656D+01
 E2 =    -0.9452239227D+00 EUMP2 =    -0.28044659579503D+03
 Leave Link  804 at Mon Feb 21 20:49:38 2022, MaxMem= 16106127360 cpu:             431.2 elap:              15.5
 (Enter /sw/contrib/gaussian/g16/B01/g16/l1002.exe)
 Minotr:  Closed shell wavefunction.
          Computing MP2/KS-MP2 derivatives.
          Using Z-Vector for PSCF gradient.
          Skipping F1 and S1 gradient terms here.
          IDoAtm=11111
          Frozen-core window.
          Using MO integrals in the linear equations.
          Forming densities via direct SCF.
          Differentiating once with respect to electric field.
                with respect to dipole field.
          Differentiating once with respect to nuclear coordinates.
          Using symmetry in CPHF.
          Requested convergence is 1.0D-10 RMS, and 1.0D-09 maximum.
          NewPWx=F KeepS1=T KeepF1=T KeepIn=T MapXYZ=F SortEE=F KeepMc=T.
          MDV=   16106127360 using IRadAn=       5.
          Solving linear equations separately, MaxMat=       0.
          There are     1 degrees of freedom in the 1st order CPHF.  IDoFFX=0 NUNeed=     1.
 FoFJK:  IHMeth= 1 ICntrl=       0 DoSepK=F KAlg= 0 I1Cent=           0 FoldK=F
 IRaf=         0 NMat=       1 IRICut=       1 DoRegI=T DoRafI=F ISym2E= 0 IDoP0=0 IntGTp=1.
 FoFCou: FMM=F IPFlag=           0 FMFlag=      100000 FMFlg1=           0
         NFxFlg=           0 DoJE=F BraDBF=F KetDBF=F FulRan=T
         wScrn=  0.000000 ICntrl=         0 IOpCl=  0 I1Cent=           0 NGrid=           0
         NMat0=    1 NMatS0=      1 NMatT0=    0 NMatD0=    1 NMtDS0=    0 NMtDT0=    0
 Symmetry not used in FoFCou.
 LinEq1:  Iter=  0 NonCon=     1 RMS=5.93D-03 Max=1.33D-01 NDo=     1
 LinEq1:  Iter=  1 NonCon=     1 RMS=1.90D-03 Max=3.83D-02 NDo=     1
 LinEq1:  Iter=  2 NonCon=     1 RMS=8.65D-04 Max=1.47D-02 NDo=     1
 LinEq1:  Iter=  3 NonCon=     1 RMS=3.85D-04 Max=7.73D-03 NDo=     1
 LinEq1:  Iter=  4 NonCon=     1 RMS=1.18D-04 Max=1.86D-03 NDo=     1
 LinEq1:  Iter=  5 NonCon=     1 RMS=4.36D-05 Max=6.99D-04 NDo=     1
 LinEq1:  Iter=  6 NonCon=     1 RMS=1.96D-05 Max=2.19D-04 NDo=     1
 LinEq1:  Iter=  7 NonCon=     1 RMS=7.97D-06 Max=1.59D-04 NDo=     1
 LinEq1:  Iter=  8 NonCon=     1 RMS=3.42D-06 Max=3.36D-05 NDo=     1
 LinEq1:  Iter=  9 NonCon=     1 RMS=9.38D-07 Max=1.32D-05 NDo=     1
 LinEq1:  Iter= 10 NonCon=     1 RMS=1.85D-07 Max=2.02D-06 NDo=     1
 LinEq1:  Iter= 11 NonCon=     1 RMS=3.48D-08 Max=3.82D-07 NDo=     1
 LinEq1:  Iter= 12 NonCon=     1 RMS=8.41D-09 Max=1.36D-07 NDo=     1
 LinEq1:  Iter= 13 NonCon=     1 RMS=1.52D-09 Max=2.59D-08 NDo=     1
 LinEq1:  Iter= 14 NonCon=     1 RMS=2.72D-10 Max=3.97D-09 NDo=     1
 LinEq1:  Iter= 15 NonCon=     0 RMS=4.86D-11 Max=5.32D-10 NDo=     1
 Linear equations converged to 1.000D-10 1.000D-09 after    15 iterations.
 End of Minotr F.D. properties file   721 does not exist.
 End of Minotr F.D. properties file   722 does not exist.
 End of Minotr F.D. properties file   788 does not exist.
 Leave Link 1002 at Mon Feb 21 20:49:40 2022, MaxMem= 16106127360 cpu:              66.4 elap:               2.4
 (Enter /sw/contrib/gaussian/g16/B01/g16/l1102.exe)
 Use density number 2.
 Symmetrizing basis deriv contribution to polar:
 IMax=3 JMax=2 DiffMx= 0.00D+00
 Leave Link 1102 at Mon Feb 21 20:49:41 2022, MaxMem= 16106127360 cpu:               0.6 elap:               0.1
 (Enter /sw/contrib/gaussian/g16/B01/g16/l1110.exe)
 Forming Gx(P) for generalized density number  2 NAtomX=     5.
 Integral derivatives from FoFJK, PRISM(SPDF).
 Do as many integral derivatives as possible in FoFJK.
 G2DrvN: MDV=   16106126844.
 G2DrvN: will do     6 centers at a time, making    1 passes.
 Calling FoFCou, ICntrl=  3107 FMM=F I1Cent=   0 AccDes= 0.00D+00.
 FoFJK:  IHMeth= 1 ICntrl=    3107 DoSepK=F KAlg= 0 I1Cent=           0 FoldK=F
 IRaf=         0 NMat=       1 IRICut=       1 DoRegI=T DoRafI=F ISym2E= 1 IDoP0=0 IntGTp=1.
 FoFCou: FMM=F IPFlag=           0 FMFlag=      100000 FMFlg1=           0
         NFxFlg=           0 DoJE=F BraDBF=F KetDBF=F FulRan=T
         wScrn=  0.000000 ICntrl=      3107 IOpCl=  0 I1Cent=           0 NGrid=           0
         NMat0=    1 NMatS0=      1 NMatT0=    0 NMatD0=    1 NMtDS0=    0 NMtDT0=    0
 Petite list used in FoFCou.
 End of G2Drv F.D. properties file   721 does not exist.
 End of G2Drv F.D. properties file   722 does not exist.
 End of G2Drv F.D. properties file   788 does not exist.
 Leave Link 1110 at Mon Feb 21 20:49:44 2022, MaxMem= 16106127360 cpu:              84.7 elap:               3.1
 (Enter /sw/contrib/gaussian/g16/B01/g16/l1112.exe)
 MP22nd: MDV=   16106127360
 This link is doing NAtomX=     5 total of    18 degrees of freedom.
 Using ON3 I/O method in MakUI.
 Frozen-core window:  NFC=   4 NFV=   0.
 Using Ix for Sx.
 Use MO integrals over full window.
 Using OV2 memory method for fx*t*t/D, MaxI=    16 DoOO2=F NP=  28.
 R2 and R3 integrals will be kept in memory, NReq=   915591705.
 FoFCou: FMM=F IPFlag=           0 FMFlag=           0 FMFlg1=           0
         NFxFlg=           0 DoJE=F BraDBF=F KetDBF=F FulRan=T
         wScrn=  0.000000 ICntrl=       600 IOpCl=  0 I1Cent=           0 NGrid=           0
         NMat0=    1 NMatS0=      1 NMatT0=    0 NMatD0=    1 NMtDS0=    0 NMtDT0=    0
 Symmetry not used in FoFCou.
 DD1Dir will call FoFMem   1 times, MxPair=       272
 NAB=   136 NAA=     0 NBB=     0.
 Symmetry is being used.
 FoFJK:  IHMeth= 1 ICntrl=       0 DoSepK=F KAlg= 0 I1Cent=           0 FoldK=F
 IRaf=         0 NMat=      18 IRICut=      45 DoRegI=T DoRafI=T ISym2E= 2 IDoP0=3 IntGTp=3.
 Discarding MO integrals.
 Leave Link 1112 at Mon Feb 21 20:50:19 2022, MaxMem= 16106127360 cpu:             990.8 elap:              35.7
 (Enter /sw/contrib/gaussian/g16/B01/g16/l601.exe)
 Copying SCF densities to generalized density rwf, IOpCl= 0 IROHF=0.

 **********************************************************************

            Population analysis using the MP2 Density.

 **********************************************************************

 Orbital symmetries:
       Occupied  (A') (A') (A') (A') (A') (A') (A') (A') (A') (A')
                 (A") (A') (A") (A') (A") (A')
       Virtual   (A') (A") (A') (A') (A') (A") (A') (A') (A") (A')
                 (A") (A') (A') (A') (A") (A') (A') (A") (A') (A')
                 (A') (A') (A') (A') (A") (A') (A') (A") (A') (A')
                 (A") (A') (A") (A') (A') (A") (A') (A') (A") (A')
                 (A") (A') (A") (A') (A') (A") (A') (A') (A") (A')
                 (A") (A') (A') (A') (A") (A') (A") (A') (A") (A')
                 (A') (A') (A") (A') (A') (A") (A') (A") (A') (A')
                 (A") (A') (A') (A") (A") (A') (A') (A") (A') (A')
                 (A') (A") (A') (A") (A') (A") (A') (A") (A') (A')
                 (A") (A') (A') (A") (A') (A") (A') (A") (A') (A')
                 (A") (A') (A") (A') (A') (A") (A') (A') (A") (A')
                 (A") (A') (A') (A') (A") (A') (A') (A') (A") (A')
                 (A") (A') (A") (A') (A') (A") (A") (A') (A") (A')
                 (A') (A') (A') (A") (A") (A") (A') (A') (A') (A')
                 (A") (A') (A") (A') (A') (A") (A') (A') (A') (A')
                 (A") (A') (A') (A") (A') (A") (A') (A") (A') (A")
                 (A') (A") (A') (A') (A") (A") (A") (A') (A") (A')
                 (A") (A') (A") (A') (A") (A') (A") (A") (A') (A')
                 (A') (A') (A') (A') (A') (A') (A') (A') (A') (A')
                 (A')
 The electronic state is 1-A'.
 Alpha  occ. eigenvalues --  -20.69131 -20.68390 -20.65938 -15.81229  -1.62410
 Alpha  occ. eigenvalues --   -1.49626  -1.25352  -0.94844  -0.77421  -0.75843
 Alpha  occ. eigenvalues --   -0.71206  -0.67654  -0.61996  -0.59074  -0.48536
 Alpha  occ. eigenvalues --   -0.47287
 Alpha virt. eigenvalues --    0.02962   0.07189   0.08591   0.10124   0.13411
 Alpha virt. eigenvalues --    0.13416   0.14430   0.15508   0.17818   0.19395
 Alpha virt. eigenvalues --    0.19964   0.20639   0.22110   0.23554   0.23753
 Alpha virt. eigenvalues --    0.26483   0.29312   0.30490   0.31015   0.34304
 Alpha virt. eigenvalues --    0.35031   0.38804   0.42133   0.43052   0.52706
 Alpha virt. eigenvalues --    0.53058   0.56094   0.58439   0.62624   0.63679
 Alpha virt. eigenvalues --    0.67414   0.68432   0.70534   0.71242   0.72371
 Alpha virt. eigenvalues --    0.73043   0.74474   0.78957   0.79189   0.80944
 Alpha virt. eigenvalues --    0.81296   0.83231   0.86826   0.90731   0.92290
 Alpha virt. eigenvalues --    0.92578   0.95942   0.98389   0.98619   1.01655
 Alpha virt. eigenvalues --    1.05326   1.05347   1.08736   1.12201   1.14446
 Alpha virt. eigenvalues --    1.18759   1.22244   1.23097   1.33738   1.34907
 Alpha virt. eigenvalues --    1.38831   1.45236   1.48749   1.50883   1.54025
 Alpha virt. eigenvalues --    1.56856   1.58096   1.61607   1.66525   1.66995
 Alpha virt. eigenvalues --    1.70323   1.79240   1.82728   1.83251   1.87988
 Alpha virt. eigenvalues --    1.91303   1.95923   1.99378   2.00622   2.07663
 Alpha virt. eigenvalues --    2.11692   2.13076   2.15051   2.22507   2.26365
 Alpha virt. eigenvalues --    2.26544   2.28774   2.31776   2.35411   2.38839
 Alpha virt. eigenvalues --    2.42748   2.42862   2.45329   2.46459   2.47717
 Alpha virt. eigenvalues --    2.50809   2.59006   2.59461   2.61837   2.62752
 Alpha virt. eigenvalues --    2.63066   2.67099   2.76259   2.83206   2.86903
 Alpha virt. eigenvalues --    2.89235   2.89728   2.92215   2.95583   3.03581
 Alpha virt. eigenvalues --    3.07299   3.12636   3.20719   3.23280   3.31475
 Alpha virt. eigenvalues --    3.33243   3.50389   3.65410   3.84043   3.84464
 Alpha virt. eigenvalues --    4.15102   4.16201   4.18582   4.26229   4.34643
 Alpha virt. eigenvalues --    4.39694   4.46406   4.51759   4.67296   4.71176
 Alpha virt. eigenvalues --    4.81023   4.82312   4.83045   4.89741   5.02150
 Alpha virt. eigenvalues --    5.07701   5.10059   5.13917   5.18548   5.24764
 Alpha virt. eigenvalues --    5.27107   5.30837   5.33479   5.36562   5.62072
 Alpha virt. eigenvalues --    5.67401   5.77291   5.82896   5.95747   6.17507
 Alpha virt. eigenvalues --    6.30871   6.33630   6.39283   6.49283   6.50394
 Alpha virt. eigenvalues --    6.61721   6.66465   6.69741   6.76360   6.76367
 Alpha virt. eigenvalues --    6.83449   6.89586   7.00901   7.05092   7.05801
 Alpha virt. eigenvalues --    7.09040   7.12658   7.15283   7.18307   7.22225
 Alpha virt. eigenvalues --    7.24428   7.31074   7.32454   7.35761   7.40336
 Alpha virt. eigenvalues --    7.42878   7.48764   7.60223   7.61760   7.63621
 Alpha virt. eigenvalues --    7.67099   7.79558   7.89624   8.08661   8.31601
 Alpha virt. eigenvalues --    8.40936   8.54341  13.40608  14.35768  15.18379
 Alpha virt. eigenvalues --   16.15647
          Condensed to atoms (all electrons):
               1          2          3          4          5
     1  H    0.593342   0.127556   0.018607   0.013655  -0.000804
     2  O    0.127556   8.322013  -0.170560  -0.097625   0.016187
     3  O    0.018607  -0.170560   8.470141  -0.127436  -0.040726
     4  N    0.013655  -0.097625  -0.127436   6.972813  -0.056166
     5  O   -0.000804   0.016187  -0.040726  -0.056166   8.276312
 Mulliken charges:
               1
     1  H    0.247643
     2  O   -0.197571
     3  O   -0.150027
     4  N    0.294758
     5  O   -0.194804
 Sum of Mulliken charges =  -0.00000
 Mulliken charges with hydrogens summed into heavy atoms:
               1
     2  O    0.050073
     3  O   -0.150027
     4  N    0.294758
     5  O   -0.194804
 APT charges:
               1
     1  H    0.298372
     2  O   -0.279681
     3  O   -0.500035
     4  N    0.871933
     5  O   -0.390589
 Sum of APT charges =  -0.00000
 APT charges with hydrogens summed into heavy atoms:
               1
     2  O    0.018691
     3  O   -0.500035
     4  N    0.871933
     5  O   -0.390589
 Electronic spatial extent (au):  <R**2>=            250.8965
 Charge=             -0.0000 electrons
 Dipole moment (field-independent basis, Debye):
    X=              0.5521    Y=              1.3452    Z=              0.0000  Tot=              1.4541
 Quadrupole moment (field-independent basis, Debye-Ang):
   XX=            -22.2827   YY=            -18.7968   ZZ=            -22.0069
   XY=              3.3074   XZ=             -0.0000   YZ=             -0.0000
 Traceless Quadrupole moment (field-independent basis, Debye-Ang):
   XX=             -1.2539   YY=              2.2320   ZZ=             -0.9781
   XY=              3.3074   XZ=             -0.0000   YZ=             -0.0000
 Octapole moment (field-independent basis, Debye-Ang**2):
  XXX=              3.3677  YYY=             10.6488  ZZZ=             -0.0000  XYY=              7.8199
  XXY=              6.8512  XXZ=              0.0000  XZZ=             -1.5814  YZZ=             -0.8369
  YYZ=              0.0000  XYZ=              0.0000
 Hexadecapole moment (field-independent basis, Debye-Ang**3):
 XXXX=           -158.0559 YYYY=            -88.2285 ZZZZ=            -18.2347 XXXY=            -34.9471
 XXXZ=             -0.0000 YYYX=            -30.2024 YYYZ=             -0.0000 ZZZX=             -0.0000
 ZZZY=             -0.0000 XXYY=            -33.4955 XXZZ=            -30.9774 YYZZ=            -20.1708
 XXYZ=             -0.0000 YYXZ=             -0.0000 ZZXY=            -14.6439
 N-N= 1.171169017157D+02 E-N=-8.963600026009D+02  KE= 2.802083833238D+02
 Symmetry A'   KE= 2.662357975352D+02
 Symmetry A"   KE= 1.397258578864D+01
  Exact polarizability:  34.006   9.235  29.922   0.000   0.000  17.906
 Approx polarizability:  29.018   4.885  23.424   0.000   0.000  15.514
 No NMR shielding tensors so no spin-rotation constants.
 Leave Link  601 at Mon Feb 21 20:50:20 2022, MaxMem= 16106127360 cpu:               4.3 elap:               0.2
 (Enter /sw/contrib/gaussian/g16/B01/g16/l701.exe)
 ... and contract with generalized density number  2.
 Compute integral second derivatives.
 Leave Link  701 at Mon Feb 21 20:50:20 2022, MaxMem= 16106127360 cpu:               6.2 elap:               0.3
 (Enter /sw/contrib/gaussian/g16/B01/g16/l702.exe)
 L702 exits ... SP integral derivatives will be done elsewhere.
 Leave Link  702 at Mon Feb 21 20:50:20 2022, MaxMem= 16106127360 cpu:               1.7 elap:               0.1
 (Enter /sw/contrib/gaussian/g16/B01/g16/l703.exe)
 Integral derivatives from FoFJK, PRISM(SPDF).
 Compute integral second derivatives, UseDBF=F ICtDFT=           0.
 Calling FoFJK, ICntrl=  10100127 FMM=F ISym2X=1 I1Cent= 0 IOpClX= 0 NMat=1 NMatS=1 NMatT=0.
 FoFJK:  IHMeth= 1 ICntrl=10100127 DoSepK=F KAlg= 0 I1Cent=           0 FoldK=F
 IRaf=         0 NMat=       1 IRICut=       1 DoRegI=T DoRafI=F ISym2E= 1 IDoP0=0 IntGTp=1.
 FoFCou: FMM=F IPFlag=           0 FMFlag=      100000 FMFlg1=         800
         NFxFlg=           0 DoJE=F BraDBF=F KetDBF=F FulRan=T
         wScrn=  0.000000 ICntrl=  10100127 IOpCl=  0 I1Cent=           0 NGrid=           0
         NMat0=    1 NMatS0=      1 NMatT0=    0 NMatD0=    1 NMtDS0=    0 NMtDT0=    0
 Petite list used in FoFCou.
 Leave Link  703 at Mon Feb 21 20:50:35 2022, MaxMem= 16106127360 cpu:             427.5 elap:              15.3
 (Enter /sw/contrib/gaussian/g16/B01/g16/l716.exe)
 Dipole        = 2.17225027D-01 5.29235965D-01 2.50146417D-32
 Polarizability= 3.40064889D+01 9.23473972D+00 2.99224442D+01
                 4.44087536D-31 6.82752732D-31 1.79057043D+01
 Full mass-weighted force constant matrix:
 Low frequencies --- -256.5302  -38.2758  -27.6359    0.0005    0.0011    0.0019
 Low frequencies ---   80.6528  224.5482  344.5621
 ******    1 imaginary frequencies (negative Signs) ****** 
 Diagonal vibrational polarizability:
       13.6319239      24.6959781      51.5097622
 Harmonic frequencies (cm**-1), IR intensities (KM/Mole), Raman scattering
 activities (A**4/AMU), depolarization ratios for plane and unpolarized
 incident light, reduced masses (AMU), force constants (mDyne/A),
 and normal coordinates:
                      1                      2                      3
                     A"                     A"                     A'
 Frequencies --   -256.5297               224.5248               344.5621
 Red. masses --      1.1371                10.4372                 8.4987
 Frc consts  --      0.0441                 0.3100                 0.5945
 IR Inten    --    124.9800                 0.7505                14.2730
  Atom  AN      X      Y      Z        X      Y      Z        X      Y      Z
     1   1     0.00   0.00   1.00     0.00   0.00  -0.58     0.55  -0.44   0.00
     2   8     0.00   0.00  -0.07     0.00   0.00  -0.30    -0.08  -0.36   0.00
     3   8     0.00   0.00  -0.04     0.00   0.00   0.31    -0.12   0.47  -0.00
     4   7    -0.00  -0.00   0.06    -0.00  -0.00   0.53     0.02   0.21  -0.00
     5   8    -0.00  -0.00  -0.01    -0.00  -0.00  -0.44     0.15  -0.27   0.00
                      4                      5                      6
                     A'                     A'                     A'
 Frequencies --    467.4454               786.5782               966.6037
 Red. masses --     12.6984                13.1178                15.5254
 Frc consts  --      1.6348                 4.7818                 8.5466
 IR Inten    --    190.7906               168.6721                20.8438
  Atom  AN      X      Y      Z        X      Y      Z        X      Y      Z
     1   1    -0.34  -0.24  -0.00    -0.31   0.20  -0.00    -0.14  -0.04  -0.00
     2   8    -0.33  -0.24  -0.00     0.42   0.07   0.00    -0.53   0.04  -0.00
     3   8    -0.20  -0.39   0.00    -0.06  -0.26  -0.00     0.75  -0.03   0.00
     4   7     0.36   0.44   0.00    -0.15   0.63  -0.00    -0.12   0.24   0.00
     5   8     0.24   0.27  -0.00    -0.22  -0.38   0.00    -0.11  -0.22  -0.00
                      7                      8                      9
                     A'                     A'                     A'
 Frequencies --   1370.7182              1678.2398              3778.6306
 Red. masses --      1.1308                13.1635                 1.0675
 Frc consts  --      1.2517                21.8438                 8.9800
 IR Inten    --    150.7775               141.2041                79.0764
  Atom  AN      X      Y      Z        X      Y      Z        X      Y      Z
     1   1     0.99  -0.09   0.00    -0.35   0.02  -0.00     0.14   0.99  -0.00
     2   8    -0.03   0.05   0.00    -0.01  -0.04  -0.00    -0.01  -0.06  -0.00
     3   8    -0.02  -0.05  -0.00     0.00   0.15   0.00     0.00   0.00   0.00
     4   7     0.02   0.01  -0.00     0.70  -0.05   0.00    -0.00  -0.00   0.00
     5   8    -0.03  -0.01   0.00    -0.59  -0.07  -0.00     0.00   0.00  -0.00

 -------------------
 - Thermochemistry -
 -------------------
 Temperature   298.150 Kelvin.  Pressure   1.00000 Atm.
 Atom     1 has atomic number  1 and mass   1.00783
 Atom     2 has atomic number  8 and mass  15.99491
 Atom     3 has atomic number  8 and mass  15.99491
 Atom     4 has atomic number  7 and mass  14.00307
 Atom     5 has atomic number  8 and mass  15.99491
 Molecular mass:    62.99564 amu.
 Principal axes and moments of inertia in atomic units:
                           1         2         3
     Eigenvalues --    33.77628 355.32424 389.10052
           X            0.81752  -0.57589   0.00000
           Y            0.57589   0.81752   0.00000
           Z            0.00000  -0.00000   1.00000
 This molecule is an asymmetric top.
 Rotational symmetry number  1.
 Rotational temperatures (Kelvin)      2.56434     0.24376     0.22260
 Rotational constants (GHZ):          53.43221     5.07914     4.63824
    1 imaginary frequencies ignored.
 Zero-point vibrational energy      57524.2 (Joules/Mol)
                                   13.74862 (Kcal/Mol)
 Warning -- explicit consideration of   3 degrees of freedom as
           vibrations may cause significant error
 Vibrational temperatures:    323.04   495.75   672.55  1131.71  1390.73
          (Kelvin)           1972.16  2414.61  5436.61
 
 Zero-point correction=                           0.021910 (Hartree/Particle)
 Thermal correction to Energy=                    0.026017
 Thermal correction to Enthalpy=                  0.026961
 Thermal correction to Gibbs Free Energy=        -0.004212
 Sum of electronic and zero-point Energies=           -280.424686
 Sum of electronic and thermal Energies=              -280.420578
 Sum of electronic and thermal Enthalpies=            -280.419634
 Sum of electronic and thermal Free Energies=         -280.450808
 
                     E (Thermal)             CV                S
                      KCal/Mol        Cal/Mol-Kelvin    Cal/Mol-Kelvin
 Total                   16.326             11.919             65.611
 Electronic               0.000              0.000              0.000
 Translational            0.889              2.981             38.341
 Rotational               0.889              2.981             23.061
 Vibrational             14.549              5.957              4.209
 Vibration     1          0.649              1.804              1.922
 Vibration     2          0.723              1.586              1.191
 Vibration     3          0.825              1.322              0.745
                       Q            Log10(Q)             Ln(Q)
 Total Bot       0.866160D+02          1.937598          4.461485
 Total V=0       0.103612D+13         12.015411         27.666505
 Vib (Bot)       0.180171D-09         -9.744316        -22.437117
 Vib (Bot)    1  0.879302D+00         -0.055862         -0.128627
 Vib (Bot)    2  0.537340D+00         -0.269751         -0.621125
 Vib (Bot)    3  0.361618D+00         -0.441750         -1.017168
 Vib (V=0)       0.215524D+01          0.333496          0.767903
 Vib (V=0)    1  0.151152D+01          0.179414          0.413115
 Vib (V=0)    2  0.123399D+01          0.091310          0.210249
 Vib (V=0)    3  0.111706D+01          0.048078          0.110703
 Electronic      0.100000D+01          0.000000          0.000000
 Translational   0.196526D+08          7.293420         16.793719
 Rotational      0.244622D+05          4.388495         10.104883
 
                                                                title
                                                             IR Spectrum
 
     3                                                                      1         1                                              
     7                                                                      6         3             9     7          4   3   2       
     7                                                                      7         7             6     8          6   4   2       
     9                                                                      8         1             7     7          7   5   5       
 
     X                                                                      X         X             X     X          X   X   X       
     X                                                                      X         X             X     X          X               
     X                                                                      X         X                   X          X               
     X                                                                      X         X                   X          X               
     X                                                                      X         X                   X          X               
     X                                                                      X         X                   X          X               
     X                                                                      X         X                   X          X               
     X                                                                      X         X                   X          X               
                                                                            X         X                   X          X               
                                                                            X         X                   X          X               
                                                                            X         X                   X          X               
                                                                            X         X                   X          X               
                                                                            X         X                   X          X               
                                                                            X         X                   X          X               
                                                                            X         X                   X          X               
                                                                                      X                   X          X               
                                                                                                          X          X               
                                                                                                          X          X               
                                                                                                                     X               
                                                                                                                     X               
 
 ***** Axes restored to original set *****
 -------------------------------------------------------------------
 Center     Atomic                   Forces (Hartrees/Bohr)
 Number     Number              X              Y              Z
 -------------------------------------------------------------------
      1        1          -0.000465937   -0.000000000   -0.000156233
      2        8          -0.000771793   -0.000000000   -0.003670544
      3        8          -0.003198396   -0.000000000    0.002695188
      4        7           0.003805861    0.000000000   -0.000428821
      5        8           0.000630266    0.000000000    0.001560410
 -------------------------------------------------------------------
 Cartesian Forces:  Max     0.003805861 RMS     0.001812998
 -----------------------------------------------------------------------------------------------
                       Internal Coordinate Forces (Hartree/Bohr or radian)
  Cent   Atom   N1       Length/X         N2         Alpha/Y        N3         Beta/Z          J
 -----------------------------------------------------------------------------------------------
      1  H 
      2  O        1   0.000156(     1)
      3  O        2   0.001733(     2)      1   0.000853(     5)
      4  N        3   0.001356(     3)      2   0.009126(     6)      1  -0.000000(     8)     0
      5  O        4   0.001039(     4)      3   0.002928(     7)      2   0.000000(     9)     0
 -----------------------------------------------------------------------------------------------
 Internal  Forces:  Max     0.009126077 RMS     0.003308799
 Force constants in Cartesian coordinates: 
                1             2             3             4             5 
      1  0.647300D-01
      2  0.000000D+00 -0.214499D-02
      3  0.580386D-02  0.000000D+00  0.512377D+00
      4 -0.358820D-01  0.000000D+00 -0.167402D-01  0.275738D+00
      5  0.000000D+00  0.269446D-02  0.000000D+00  0.000000D+00  0.193794D-02
      6  0.478995D-01  0.000000D+00 -0.508067D+00  0.384863D-01  0.000000D+00
      7 -0.182930D-01  0.000000D+00  0.126679D-01 -0.219776D+00  0.000000D+00
      8  0.000000D+00  0.976932D-03  0.000000D+00  0.000000D+00 -0.699520D-02
      9 -0.524557D-01  0.000000D+00 -0.523486D-03 -0.224607D-01  0.000000D+00
     10 -0.976616D-02  0.000000D+00 -0.497635D-02 -0.208086D-01  0.000000D+00
     11  0.000000D+00 -0.255136D-02  0.000000D+00  0.000000D+00 -0.378499D-02
     12  0.448359D-02  0.000000D+00 -0.534703D-02  0.105020D-01  0.000000D+00
     13 -0.788874D-03  0.000000D+00  0.324475D-02  0.728182D-03  0.000000D+00
     14  0.000000D+00  0.102495D-02  0.000000D+00  0.000000D+00  0.614779D-02
     15 -0.573117D-02  0.000000D+00  0.156122D-02 -0.978743D-02  0.000000D+00
                6             7             8             9            10 
      6  0.597711D+00
      7 -0.222721D-01  0.339767D+00
      8  0.000000D+00  0.000000D+00  0.574943D-02
      9 -0.761457D-01  0.403045D-01  0.000000D+00  0.176789D+00
     10 -0.575105D-01 -0.834810D-01  0.000000D+00  0.173557D+00  0.831638D+00
     11  0.000000D+00  0.000000D+00  0.649962D-02  0.000000D+00  0.000000D+00
     12  0.113035D-01  0.588768D-01  0.000000D+00 -0.725381D-01  0.829681D-02
     13 -0.660315D-02 -0.182174D-01  0.000000D+00 -0.138945D+00 -0.717583D+00
     14  0.000000D+00  0.000000D+00 -0.623078D-02  0.000000D+00  0.000000D+00
     15 -0.248013D-01 -0.895770D-01  0.000000D+00 -0.275814D-01 -0.119367D+00
               11            12            13            14            15 
     11  0.974277D-02
     12  0.000000D+00  0.191043D+00
     13  0.000000D+00 -0.821591D-01  0.735861D+00
     14 -0.990604D-02  0.000000D+00  0.000000D+00  0.896407D-02
     15  0.000000D+00 -0.124461D+00  0.224462D+00  0.000000D+00  0.175283D+00
 Force constants in internal coordinates: 
                1             2             3             4             5 
      1  0.512377D+00
      2 -0.102708D-01  0.285421D+00
      3  0.386914D-02  0.479996D-02  0.120621D+00
      4 -0.355095D-02  0.561678D-02  0.153012D+00  0.812429D+00
      5  0.101615D-01  0.653572D-01  0.326650D-02  0.430626D-02  0.217322D+00
      6  0.555661D-02  0.682616D-01  0.521583D-01  0.205111D-01  0.314762D-01
      7 -0.132112D-02  0.389060D-01  0.312175D-01  0.871125D-01  0.214137D-01
      8  0.000000D+00  0.000000D+00  0.000000D+00  0.000000D+00  0.000000D+00
      9  0.000000D+00  0.000000D+00  0.000000D+00  0.000000D+00  0.000000D+00
                6             7             8             9 
      6  0.308334D+00
      7  0.955767D-01  0.485457D+00
      8  0.000000D+00  0.000000D+00 -0.689643D-02
      9  0.000000D+00  0.000000D+00 -0.388917D-02  0.403414D-01
 Leave Link  716 at Mon Feb 21 20:50:35 2022, MaxMem= 16106127360 cpu:               1.1 elap:               0.1
 (Enter /sw/contrib/gaussian/g16/B01/g16/l103.exe)

 GradGradGradGradGradGradGradGradGradGradGradGradGradGradGradGradGradGrad
 Berny optimization.
 Search for a local minimum.
 Step number   1 out of a maximum of    2
 All quantities printed in internal units (Hartrees-Bohrs-Radians)
 Second derivative matrix not updated -- analytic derivatives used.
 The second derivative matrix:
                          r1        r2        r3        r4        a1
           r1           0.51238
           r2          -0.01027   0.28542
           r3           0.00387   0.00480   0.12062
           r4          -0.00355   0.00562   0.15301   0.81243
           a1           0.01016   0.06536   0.00327   0.00431   0.21732
           a2           0.00556   0.06826   0.05216   0.02051   0.03148
           a3          -0.00132   0.03891   0.03122   0.08711   0.02141
           d1           0.00000  -0.00000  -0.00000  -0.00000  -0.00000
           d2          -0.00000   0.00000   0.00000   0.00000   0.00000
                          a2        a3        d1        d2
           a2           0.30833
           a3           0.09558   0.48546
           d1          -0.00000  -0.00000  -0.00690
           d2          -0.00000  -0.00000  -0.00389   0.04034
 ITU=  0
     Eigenvalues ---   -0.00721   0.04066   0.07804   0.17635   0.23992
     Eigenvalues ---    0.33559   0.51307   0.52578   0.87321
 Eigenvalue     1 is  -7.21D-03 should be greater than     0.000000 Eigenvector:
                          d1        d2        a3        a2        r3
   1                    0.99667   0.08151   0.00000   0.00000  -0.00000
                          r4        a1        r2        r1
   1                    0.00000  -0.00000   0.00000  -0.00000
 Angle between quadratic step and forces=  26.25 degrees.
 Linear search not attempted -- first point.
 Variable       Old X    -DE/DX   Delta X   Delta X   Delta X     New X
                                 (Linear)    (Quad)   (Total)
    r1        1.83110   0.00016   0.00000  -0.00001  -0.00001   1.83109
    r2        2.74940   0.00173   0.00000  -0.00114  -0.00114   2.74826
    r3        2.75670   0.00136   0.00000  -0.00327  -0.00327   2.75343
    r4        2.21236   0.00104   0.00000   0.00112   0.00112   2.21348
    a1        1.70335   0.00085   0.00000  -0.00011  -0.00011   1.70325
    a2        1.75433   0.00913   0.00000   0.03029   0.03029   1.78462
    a3        1.90362   0.00293   0.00000   0.00017   0.00017   1.90380
    d1        3.14159  -0.00000   0.00000  -0.00000   0.00000   3.14159
    d2        3.14159   0.00000   0.00000   0.00000   0.00000   3.14159
         Item               Value     Threshold  Converged?
 Maximum Force            0.009126     0.000450     NO 
 RMS     Force            0.003309     0.000300     NO 
 Maximum Displacement     0.030286     0.001800     NO 
 RMS     Displacement     0.010168     0.001200     NO 
 Predicted change in Energy=-1.357830D-04
                       ----------------------------
                       ! Non-Optimized Parameters !
                       ! (Angstroms and Degrees)  !
 ----------------------                            ----------------------
 !      Name          Value   Derivative information (Atomic Units)     !
 ------------------------------------------------------------------------
 !       r1          0.969    -DE/DX =    0.0002                        !
 !       r2          1.4543   -DE/DX =    0.0017                        !
 !       r3          1.4571   -DE/DX =    0.0014                        !
 !       r4          1.1713   -DE/DX =    0.001                         !
 !       a1         97.5888   -DE/DX =    0.0009                        !
 !       a2        102.2512   -DE/DX =    0.0091                        !
 !       a3        109.0795   -DE/DX =    0.0029                        !
 !       d1        180.0      -DE/DX =    0.0                           !
 !       d2        180.0      -DE/DX =    0.0                           !
 ------------------------------------------------------------------------
 GradGradGradGradGradGradGradGradGradGradGradGradGradGradGradGradGradGrad

 Leave Link  103 at Mon Feb 21 20:50:35 2022, MaxMem= 16106127360 cpu:               0.6 elap:               0.0
 (Enter /sw/contrib/gaussian/g16/B01/g16/l9999.exe)

 ----------------------------------------------------------------------

 Electric dipole moment (input orientation):
 (Debye = 10**-18 statcoulomb cm , SI units = C m)
                  (au)            (Debye)         (10**-30 SI)
   Tot        0.572082D+00      0.145409D+01      0.485031D+01
   x         -0.146200D+00     -0.371604D+00     -0.123954D+01
   y          0.000000D+00      0.000000D+00      0.000000D+00
   z         -0.553085D+00     -0.140580D+01     -0.468925D+01

 Dipole polarizability, Alpha (input orientation).
 (esu units = cm**3 , SI units = C**2 m**2 J**-1)
 Alpha(0;0):
               (au)            (10**-24 esu)      (10**-40 SI)
   iso        0.272782D+02      0.404221D+01      0.449757D+01
   aniso      0.215870D+02      0.319887D+01      0.355922D+01
   xx         0.315438D+02      0.467431D+01      0.520087D+01
   yx         0.000000D+00      0.000000D+00      0.000000D+00
   yy         0.179057D+02      0.265335D+01      0.295225D+01
   zx         0.944846D+01      0.140012D+01      0.155784D+01
   zy         0.000000D+00      0.000000D+00      0.000000D+00
   zz         0.323851D+02      0.479898D+01      0.533959D+01

 ----------------------------------------------------------------------

 Dipole orientation:
     1          0.00000000          0.00000000         -0.00000000
     8         -0.46795282          0.00000000         -1.77029422
     8          2.07396330          0.00000000         -2.81808115
     7          1.50619086          0.00000000         -5.51568051
     8          3.40343929          0.00000000         -6.65364861

 Electric dipole moment (dipole orientation):
 (Debye = 10**-18 statcoulomb cm , SI units = C m)
                  (au)            (Debye)         (10**-30 SI)
   Tot        0.572082D+00      0.145409D+01      0.485031D+01
   x          0.000000D+00      0.000000D+00      0.000000D+00
   y          0.000000D+00      0.000000D+00      0.000000D+00
   z          0.572082D+00      0.145409D+01      0.485031D+01

 Dipole polarizability, Alpha (dipole orientation).
 (esu units = cm**3 , SI units = C**2 m**2 J**-1)
 Alpha(0;0):
               (au)            (10**-24 esu)      (10**-40 SI)
   iso        0.272782D+02      0.404221D+01      0.449757D+01
   aniso      0.215870D+02      0.319887D+01      0.355922D+01
   xx         0.269298D+02      0.399059D+01      0.444013D+01
   yx         0.000000D+00      0.000000D+00      0.000000D+00
   yy         0.179057D+02      0.265335D+01      0.295225D+01
   zx        -0.800643D+01     -0.118643D+01     -0.132008D+01
   zy         0.000000D+00      0.000000D+00      0.000000D+00
   zz         0.369991D+02      0.548270D+01      0.610033D+01

 ----------------------------------------------------------------------
 1\1\GINC-N2125\Freq\RMP2-FC\Aug-CC-pVTZ\H1N1O3\CGAVINH\21-Feb-2022\1\\
 #p freq mp2/aug-cc-pvtz density=current\\title\\0,1\H\O,1,r1\O,2,r2,1,
 a1\N,3,r3,2,a2,1,d1,0\O,4,r4,3,a3,2,d2,0\\r1=0.96897556\r2=1.45491931\
 r3=1.45878406\r4=1.17072885\a1=97.59494903\a2=100.5158868\a3=109.06955
 123\d1=180.\d2=180.\\Version=ES64L-G16RevB.01\State=1-A'\HF=-279.50137
 19\MP2=-280.4465958\RMSD=3.777e-09\RMSF=1.813e-03\ZeroPoint=0.0219098\
 Thermal=0.0260173\Dipole=-0.1462003,0.,-0.5530849\DipoleDeriv=0.268513
 8,0.,0.0504852,0.,0.3554498,0.,0.0776517,0.,0.2711532,-0.3149935,0.,-0
 .198398,0.,-0.3164752,0.,-0.1027213,0.,-0.2075758,-0.0404089,0.,0.1785
 803,0.,-0.0845124,0.,-0.7200563,0.,-1.3751828,0.8429014,0.,0.8742551,0
 .,0.0673632,0.,0.8960246,0.,1.7055355,-0.7560128,0.,-0.9049226,0.,-0.0
 218254,0.,-0.1508987,0.,-0.3939302\Polar=31.543805,0.,17.9057043,9.448
 4558,0.,32.3851282\Quadrupole=-1.525161,-0.7271991,2.2523601,0.,2.0391
 953,0.\PG=CS [SG(H1N1O3)]\NImag=1\\0.06472999,0.,-0.00214499,0.0058038
 6,0.,0.51237656,-0.03588195,0.,-0.01674018,0.27573793,0.,0.00269446,0.
 ,0.,0.00193794,0.04789946,0.,-0.50806725,0.03848633,0.,0.59771072,-0.0
 1829300,0.,0.01266792,-0.21977560,0.,-0.02227211,0.33976700,0.,0.00097
 693,0.,0.,-0.00699520,0.,0.,0.00574943,-0.05245574,0.,-0.00052349,-0.0
 2246069,0.,-0.07614573,0.04030445,0.,0.17678869,-0.00976616,0.,-0.0049
 7635,-0.02080855,0.,-0.05751054,-0.08348099,0.,0.17355691,0.83163831,0
 .,-0.00255136,0.,0.,-0.00378499,0.,0.,0.00649962,0.,0.,0.00974277,0.00
 448359,0.,-0.00534703,0.01050196,0.,0.01130354,0.05887678,0.,-0.072538
 10,0.00829681,0.,0.19104271,-0.00078887,0.,0.00324475,0.00072818,0.,-0
 .00660315,-0.01821741,0.,-0.13894493,-0.71758261,0.,-0.08215915,0.7358
 6072,0.,0.00102495,0.,0.,0.00614779,0.,0.,-0.00623078,0.,0.,-0.0099060
 4,0.,0.,0.00896407,-0.00573117,0.,0.00156122,-0.00978743,0.,-0.0248012
 7,-0.08957705,0.,-0.02758138,-0.11936682,0.,-0.12446113,0.22446247,0.,
 0.17528256\\0.00046594,0.,0.00015623,0.00077179,0.,0.00367054,0.003198
 40,0.,-0.00269519,-0.00380586,0.,0.00042882,-0.00063027,0.,-0.00156041
 \\\@


 NOTHING MAKES A PERSON MORE PRODUCTIVE THAN THE LAST MINUTE.
 Job cpu time:       0 days  2 hours  0 minutes 13.4 seconds.
 Elapsed time:       0 days  0 hours  4 minutes 20.9 seconds.
 File lengths (MBytes):  RWF=   7239 Int=      0 D2E=      0 Chk=      8 Scr=      1
 Normal termination of Gaussian 16 at Mon Feb 21 20:50:36 2022.
