title                                                                   
Freq      RMP2-FC                                                     Aug-CC-pVTZ         
Number of atoms                            I                5
Info1-9                                    I   N=           9
          33          24           0           0           0         100
           6           2           1
Full Title                                 C   N=           1
title       
Route                                      C   N=           4
#p freq mp2/aug-cc-pvtz density=current         
Charge                                     I                0
Multiplicity                               I                1
Number of electrons                        I               32
Number of alpha electrons                  I               16
Number of beta electrons                   I               16
Number of basis functions                  I              207
Number of independent functions            I              207
Number of point charges in /Mol/           I                0
Number of translation vectors              I                0
Atomic numbers                             I   N=           5
           1           8           8           7           8
Nuclear charges                            R   N=           5
  1.00000000E+00  8.00000000E+00  8.00000000E+00  7.00000000E+00  8.00000000E+00
Current cartesian coordinates              R   N=          15
  2.89971149E+00  3.19259727E+00 -1.30367154E-31  2.74771936E+00  1.36781787E+00
 -5.06826591E-32  7.16534286E-17  1.27172754E+00 -6.65629362E-33 -4.92651386E-01
 -1.44059664E+00 -2.04626691E-33 -2.67911333E+00 -1.77809802E+00  7.68325309E-32
Number of symbols in /Mol/                 I                0
Force Field                                I                0
Atom Types                                 C   N=           5
                                                            
Int Atom Types                             I   N=           5
           0           0           0           0           0
MM charges                                 R   N=           5
  0.00000000E+00  0.00000000E+00  0.00000000E+00  0.00000000E+00  0.00000000E+00
Integer atomic weights                     I   N=           5
           1          16          16          14          16
Real atomic weights                        R   N=           5
  1.00782504E+00  1.59949146E+01  1.59949146E+01  1.40030740E+01  1.59949146E+01
Atom fragment info                         I   N=           5
           0           0           0           0           0
Atom residue num                           I   N=           5
           0           0           0           0           0
Nuclear spins                              I   N=           5
           1           0           0           2           0
Nuclear ZEff                               R   N=           5
 -1.00000000E+00 -5.60000000E+00 -5.60000000E+00 -4.55000000E+00 -5.60000000E+00
Nuclear ZNuc                               R   N=           5
  1.00000000E+00  8.00000000E+00  8.00000000E+00  7.00000000E+00  8.00000000E+00
Nuclear QMom                               R   N=           5
  0.00000000E+00  0.00000000E+00  0.00000000E+00  2.04400000E+00  0.00000000E+00
Nuclear GFac                               R   N=           5
  2.79284600E+00  0.00000000E+00  0.00000000E+00  4.03761000E-01  0.00000000E+00
MicOpt                                     I   N=           5
          -1          -1          -1          -1          -1
Number of residues                         I                0
Number of secondary structures             I                0
SymInf integers                            I   N=          26
           1           2           1           1           1           1
           1          -1           0           0           0           0
           0           0           0           0           0           0
           0           0           0           0           0           0
           0           0
RotTr to input orientation                 R   N=          12
 -9.96549049E-01 -9.83678826E-17 -8.30059841E-02  8.30059841E-02 -7.29476353E-17
 -9.96549049E-01  9.19733296E-17 -1.00000000E+00  8.08610194E-17  2.62470004E+00
  0.00000000E+00  3.42227318E+00
Number of contracted shells                I               65
Number of primitive shells                 I              119
Pure/Cartesian d shells                    I                0
Pure/Cartesian f shells                    I                0
Highest angular momentum                   I                3
Largest degree of contraction              I                7
Shell types                                I   N=          65
           0           0           0           0           1           1
           1          -2          -2           0           0           0
           0           0           1           1           1           1
          -2          -2          -2          -3          -3           0
           0           0           0           0           1           1
           1           1          -2          -2          -2          -3
          -3           0           0           0           0           0
           1           1           1           1          -2          -2
          -2          -3          -3           0           0           0
           0           0           1           1           1           1
          -2          -2          -2          -3          -3
Number of primitives per shell             I   N=          65
           3           1           1           1           1           1
           1           1           1           7           6           1
           1           1           3           1           1           1
           1           1           1           1           1           7
           6           1           1           1           3           1
           1           1           1           1           1           1
           1           7           6           1           1           1
           3           1           1           1           1           1
           1           1           1           7           6           1
           1           1           3           1           1           1
           1           1           1           1           1
Shell to atom map                          I   N=          65
           1           1           1           1           1           1
           1           1           1           2           2           2
           2           2           2           2           2           2
           2           2           2           2           2           3
           3           3           3           3           3           3
           3           3           3           3           3           3
           3           4           4           4           4           4
           4           4           4           4           4           4
           4           4           4           5           5           5
           5           5           5           5           5           5
           5           5           5           5           5
Primitive exponents                        R   N=         119
  3.38700000E+01  5.09500000E+00  1.15900000E+00  3.25800000E-01  1.02700000E-01
  2.52600000E-02  1.40700000E+00  3.88000000E-01  1.02000000E-01  1.05700000E+00
  2.47000000E-01  1.53300000E+04  2.29900000E+03  5.22400000E+02  1.47300000E+02
  4.75500000E+01  1.67600000E+01  6.20700000E+00  5.22400000E+02  1.47300000E+02
  4.75500000E+01  1.67600000E+01  6.20700000E+00  6.88200000E-01  1.75200000E+00
  2.38400000E-01  7.37600000E-02  3.44600000E+01  7.74900000E+00  2.28000000E+00
  7.15600000E-01  2.14000000E-01  5.97400000E-02  2.31400000E+00  6.45000000E-01
  2.14000000E-01  1.42800000E+00  5.00000000E-01  1.53300000E+04  2.29900000E+03
  5.22400000E+02  1.47300000E+02  4.75500000E+01  1.67600000E+01  6.20700000E+00
  5.22400000E+02  1.47300000E+02  4.75500000E+01  1.67600000E+01  6.20700000E+00
  6.88200000E-01  1.75200000E+00  2.38400000E-01  7.37600000E-02  3.44600000E+01
  7.74900000E+00  2.28000000E+00  7.15600000E-01  2.14000000E-01  5.97400000E-02
  2.31400000E+00  6.45000000E-01  2.14000000E-01  1.42800000E+00  5.00000000E-01
  1.14200000E+04  1.71200000E+03  3.89300000E+02  1.10000000E+02  3.55700000E+01
  1.25400000E+01  4.64400000E+00  3.89300000E+02  1.10000000E+02  3.55700000E+01
  1.25400000E+01  4.64400000E+00  5.11800000E-01  1.29300000E+00  1.78700000E-01
  5.76000000E-02  2.66300000E+01  5.94800000E+00  1.74200000E+00  5.55000000E-01
  1.72500000E-01  4.91000000E-02  1.65400000E+00  4.69000000E-01  1.51000000E-01
  1.09300000E+00  3.64000000E-01  1.53300000E+04  2.29900000E+03  5.22400000E+02
  1.47300000E+02  4.75500000E+01  1.67600000E+01  6.20700000E+00  5.22400000E+02
  1.47300000E+02  4.75500000E+01  1.67600000E+01  6.20700000E+00  6.88200000E-01
  1.75200000E+00  2.38400000E-01  7.37600000E-02  3.44600000E+01  7.74900000E+00
  2.28000000E+00  7.15600000E-01  2.14000000E-01  5.97400000E-02  2.31400000E+00
  6.45000000E-01  2.14000000E-01  1.42800000E+00  5.00000000E-01
Contraction coefficients                   R   N=         119
  2.54948632E-02  1.90362766E-01  8.52162022E-01  1.00000000E+00  1.00000000E+00
  1.00000000E+00  1.00000000E+00  1.00000000E+00  1.00000000E+00  1.00000000E+00
  1.00000000E+00  5.19808943E-04  4.02025621E-03  2.07128267E-02  8.10105536E-02
  2.35962985E-01  4.42653446E-01  3.57064423E-01 -4.42115008E-05 -1.22591041E-03
 -1.05517725E-02 -6.74452633E-02 -1.71198607E-01  1.07329856E+00  1.00000000E+00
  1.00000000E+00  1.00000000E+00  4.11634896E-02  2.57762836E-01  8.02419274E-01
  1.00000000E+00  1.00000000E+00  1.00000000E+00  1.00000000E+00  1.00000000E+00
  1.00000000E+00  1.00000000E+00  1.00000000E+00  5.19808943E-04  4.02025621E-03
  2.07128267E-02  8.10105536E-02  2.35962985E-01  4.42653446E-01  3.57064423E-01
 -4.42115008E-05 -1.22591041E-03 -1.05517725E-02 -6.74452633E-02 -1.71198607E-01
  1.07329856E+00  1.00000000E+00  1.00000000E+00  1.00000000E+00  4.11634896E-02
  2.57762836E-01  8.02419274E-01  1.00000000E+00  1.00000000E+00  1.00000000E+00
  1.00000000E+00  1.00000000E+00  1.00000000E+00  1.00000000E+00  1.00000000E+00
  5.34563860E-04  4.13435660E-03  2.12335358E-02  8.25006224E-02  2.38138871E-01
  4.42551547E-01  3.53757422E-01 -4.89867350E-05 -1.19527323E-03 -1.03490714E-02
 -6.48680190E-02 -1.71552477E-01  1.07289568E+00  1.00000000E+00  1.00000000E+00
  1.00000000E+00  3.98072123E-02  2.49002660E-01  8.10479727E-01  1.00000000E+00
  1.00000000E+00  1.00000000E+00  1.00000000E+00  1.00000000E+00  1.00000000E+00
  1.00000000E+00  1.00000000E+00  5.19808943E-04  4.02025621E-03  2.07128267E-02
  8.10105536E-02  2.35962985E-01  4.42653446E-01  3.57064423E-01 -4.42115008E-05
 -1.22591041E-03 -1.05517725E-02 -6.74452633E-02 -1.71198607E-01  1.07329856E+00
  1.00000000E+00  1.00000000E+00  1.00000000E+00  4.11634896E-02  2.57762836E-01
  8.02419274E-01  1.00000000E+00  1.00000000E+00  1.00000000E+00  1.00000000E+00
  1.00000000E+00  1.00000000E+00  1.00000000E+00  1.00000000E+00
Coordinates of each shell                  R   N=         195
  2.89971149E+00  3.19259727E+00 -5.36125553E-32  2.89971149E+00  3.19259727E+00
 -5.36125553E-32  2.89971149E+00  3.19259727E+00 -5.36125553E-32  2.89971149E+00
  3.19259727E+00 -5.36125553E-32  2.89971149E+00  3.19259727E+00 -5.36125553E-32
  2.89971149E+00  3.19259727E+00 -5.36125553E-32  2.89971149E+00  3.19259727E+00
 -5.36125553E-32  2.89971149E+00  3.19259727E+00 -5.36125553E-32  2.89971149E+00
  3.19259727E+00 -5.36125553E-32  2.74771936E+00  1.36781787E+00 -5.08023839E-32
  2.74771936E+00  1.36781787E+00 -5.08023839E-32  2.74771936E+00  1.36781787E+00
 -5.08023839E-32  2.74771936E+00  1.36781787E+00 -5.08023839E-32  2.74771936E+00
  1.36781787E+00 -5.08023839E-32  2.74771936E+00  1.36781787E+00 -5.08023839E-32
  2.74771936E+00  1.36781787E+00 -5.08023839E-32  2.74771936E+00  1.36781787E+00
 -5.08023839E-32  2.74771936E+00  1.36781787E+00 -5.08023839E-32  2.74771936E+00
  1.36781787E+00 -5.08023839E-32  2.74771936E+00  1.36781787E+00 -5.08023839E-32
  2.74771936E+00  1.36781787E+00 -5.08023839E-32  2.74771936E+00  1.36781787E+00
 -5.08023839E-32  2.74771936E+00  1.36781787E+00 -5.08023839E-32 -5.84171313E-18
  1.27172754E+00  0.00000000E+00 -5.84171313E-18  1.27172754E+00  0.00000000E+00
 -5.84171313E-18  1.27172754E+00  0.00000000E+00 -5.84171313E-18  1.27172754E+00
  0.00000000E+00 -5.84171313E-18  1.27172754E+00  0.00000000E+00 -5.84171313E-18
  1.27172754E+00  0.00000000E+00 -5.84171313E-18  1.27172754E+00  0.00000000E+00
 -5.84171313E-18  1.27172754E+00  0.00000000E+00 -5.84171313E-18  1.27172754E+00
  0.00000000E+00 -5.84171313E-18  1.27172754E+00  0.00000000E+00 -5.84171313E-18
  1.27172754E+00  0.00000000E+00 -5.84171313E-18  1.27172754E+00  0.00000000E+00
 -5.84171313E-18  1.27172754E+00  0.00000000E+00 -5.84171313E-18  1.27172754E+00
  0.00000000E+00 -4.92651386E-01 -1.44059664E+00  9.10859574E-33 -4.92651386E-01
 -1.44059664E+00  9.10859574E-33 -4.92651386E-01 -1.44059664E+00  9.10859574E-33
 -4.92651386E-01 -1.44059664E+00  9.10859574E-33 -4.92651386E-01 -1.44059664E+00
  9.10859574E-33 -4.92651386E-01 -1.44059664E+00  9.10859574E-33 -4.92651386E-01
 -1.44059664E+00  9.10859574E-33 -4.92651386E-01 -1.44059664E+00  9.10859574E-33
 -4.92651386E-01 -1.44059664E+00  9.10859574E-33 -4.92651386E-01 -1.44059664E+00
  9.10859574E-33 -4.92651386E-01 -1.44059664E+00  9.10859574E-33 -4.92651386E-01
 -1.44059664E+00  9.10859574E-33 -4.92651386E-01 -1.44059664E+00  9.10859574E-33
 -4.92651386E-01 -1.44059664E+00  9.10859574E-33 -2.67911333E+00 -1.77809802E+00
  4.95339321E-32 -2.67911333E+00 -1.77809802E+00  4.95339321E-32 -2.67911333E+00
 -1.77809802E+00  4.95339321E-32 -2.67911333E+00 -1.77809802E+00  4.95339321E-32
 -2.67911333E+00 -1.77809802E+00  4.95339321E-32 -2.67911333E+00 -1.77809802E+00
  4.95339321E-32 -2.67911333E+00 -1.77809802E+00  4.95339321E-32 -2.67911333E+00
 -1.77809802E+00  4.95339321E-32 -2.67911333E+00 -1.77809802E+00  4.95339321E-32
 -2.67911333E+00 -1.77809802E+00  4.95339321E-32 -2.67911333E+00 -1.77809802E+00
  4.95339321E-32 -2.67911333E+00 -1.77809802E+00  4.95339321E-32 -2.67911333E+00
 -1.77809802E+00  4.95339321E-32 -2.67911333E+00 -1.77809802E+00  4.95339321E-32
Num ILSW                                   I              100
ILSW                                       I   N=         100
           0           0           0           0           2           0
           0           0           0           0           0          -1
           5           0           0           0           2           0
           0           0           0           0           1           0
           1           0           0           0           0           0
           0           0      100000           0          -1           0
           0           0           0           0           0           0
           0           0           0           1           1           0
           0 -2000000000           1           0           0           0
           0           0           4          52           0           0
           0           0           0           0           0           0
           0           0           0           5           4           1
           0           0           0           0           0           0
           0           0           0           0           0           0
           0           0           0           0           0           0
           0           0           0           0           0           0
           0           0           0           0
Num RLSW                                   I               52
RLSW                                       R   N=          52
  1.00000000E+00  1.00000000E+00  1.00000000E+00  1.00000000E+00  1.00000000E+00
  0.00000000E+00  0.00000000E+00  1.00000000E+00  0.00000000E+00  0.00000000E+00
  0.00000000E+00  0.00000000E+00  1.00000000E+00  0.00000000E+00  0.00000000E+00
  0.00000000E+00  0.00000000E+00  1.00000000E+00  0.00000000E+00  0.00000000E+00
  0.00000000E+00  0.00000000E+00  1.00000000E+00  0.00000000E+00  0.00000000E+00
  0.00000000E+00  0.00000000E+00  1.00000000E+00  0.00000000E+00  0.00000000E+00
  0.00000000E+00  0.00000000E+00  1.00000000E+00  0.00000000E+00  0.00000000E+00
  0.00000000E+00  0.00000000E+00  0.00000000E+00  1.00000000E+00  1.00000000E+00
  0.00000000E+00  1.00000000E+00  0.00000000E+00  0.00000000E+00  0.00000000E+00
  0.00000000E+00  0.00000000E+00  0.00000000E+00  0.00000000E+00  0.00000000E+00
  0.00000000E+00  0.00000000E+00
MxBond                                     I                2
NBond                                      I   N=           5
           1           2           2           2           1
IBond                                      I   N=          10
           2           0           1           3           2           4
           3           5           4           0
RBond                                      R   N=          10
  1.00000000E+00  0.00000000E+00  1.00000000E+00  1.00000000E+00  1.00000000E+00
  1.00000000E+00  1.00000000E+00  2.00000000E+00  2.00000000E+00  0.00000000E+00
Virial Ratio                               R      2.002342277970571E+00
SCF Energy                                 R     -2.795015497183013E+02
MP2 Energy                                 R     -2.804467136814441E+02
Total Energy                               R     -2.804467136814441E+02
Post-SCF wavefunction norm                 R      1.584267461662211E+00
RMS Force                                  R      7.196998947235585E-04
RMS Density                                R      3.782023912879459E-09
NImag                                      I                1
Job Status                                 I                1
Nuclear derivative order                   I                2
External E-field                           R   N=          35
  0.00000000E+00  0.00000000E+00  0.00000000E+00  0.00000000E+00  0.00000000E+00
  0.00000000E+00  0.00000000E+00  0.00000000E+00  0.00000000E+00  0.00000000E+00
  0.00000000E+00  0.00000000E+00  0.00000000E+00  0.00000000E+00  0.00000000E+00
  0.00000000E+00  0.00000000E+00  0.00000000E+00  0.00000000E+00  0.00000000E+00
  0.00000000E+00  0.00000000E+00  0.00000000E+00  0.00000000E+00  0.00000000E+00
  0.00000000E+00  0.00000000E+00  0.00000000E+00  0.00000000E+00  0.00000000E+00
  0.00000000E+00  0.00000000E+00  0.00000000E+00  0.00000000E+00  0.00000000E+00
IOpCl                                      I                0
IROHF                                      I                0
Alpha Orbital Energies                     R   N=         207
 -2.06907873E+01 -2.06842803E+01 -2.06603104E+01 -1.58128133E+01 -1.62406733E+00
 -1.49626158E+00 -1.25428646E+00 -9.48108227E-01 -7.73199016E-01 -7.58645917E-01
 -7.11885110E-01 -6.79145786E-01 -6.20605928E-01 -5.90205295E-01 -4.85328537E-01
 -4.72509796E-01  2.97200353E-02  7.16406207E-02  8.59375715E-02  1.01688508E-01
  1.33914070E-01  1.34010764E-01  1.44088202E-01  1.54576902E-01  1.78231738E-01
  1.94089284E-01  1.99733945E-01  2.06390991E-01  2.20772001E-01  2.35398651E-01
  2.37369750E-01  2.65682706E-01  2.93434589E-01  3.03797425E-01  3.10705805E-01
  3.43363841E-01  3.49873900E-01  3.87252781E-01  4.22663861E-01  4.31379439E-01
  5.27475327E-01  5.29302652E-01  5.58335352E-01  5.81433214E-01  6.26024116E-01
  6.38214285E-01  6.74544456E-01  6.84617233E-01  7.06444197E-01  7.10633735E-01
  7.25754178E-01  7.28990289E-01  7.44537053E-01  7.92342136E-01  7.93078414E-01
  8.10866778E-01  8.12474695E-01  8.30078599E-01  8.68004067E-01  9.08516703E-01
  9.21456644E-01  9.26781444E-01  9.55733926E-01  9.77111885E-01  9.85247957E-01
  1.01689397E+00  1.05179962E+00  1.05465384E+00  1.08250046E+00  1.11759618E+00
  1.14233490E+00  1.18977785E+00  1.22080742E+00  1.23372312E+00  1.33910763E+00
  1.35120353E+00  1.38589473E+00  1.45478803E+00  1.48747869E+00  1.50765478E+00
  1.53770886E+00  1.56677773E+00  1.57964148E+00  1.61208270E+00  1.66350499E+00
  1.67008484E+00  1.70320008E+00  1.79510607E+00  1.83100800E+00  1.83527936E+00
  1.87788946E+00  1.91059228E+00  1.95565740E+00  1.99294469E+00  2.00493106E+00
  2.07831749E+00  2.12326063E+00  2.13204724E+00  2.14975735E+00  2.22537638E+00
  2.26372802E+00  2.26443429E+00  2.29020366E+00  2.31410166E+00  2.34328769E+00
  2.38641899E+00  2.42585980E+00  2.43095429E+00  2.45378125E+00  2.46265148E+00
  2.47793369E+00  2.50046097E+00  2.58995653E+00  2.59763999E+00  2.62169123E+00
  2.62409119E+00  2.63486318E+00  2.66661227E+00  2.75777420E+00  2.82616060E+00
  2.85147008E+00  2.88207882E+00  2.89325606E+00  2.92573975E+00  2.95635163E+00
  3.02460292E+00  3.06850940E+00  3.12102253E+00  3.20662271E+00  3.22526927E+00
  3.31563299E+00  3.34213860E+00  3.51822733E+00  3.64056376E+00  3.83787366E+00
  3.84291451E+00  4.14738731E+00  4.16656199E+00  4.18364462E+00  4.25808596E+00
  4.34834371E+00  4.39453876E+00  4.46257685E+00  4.52288438E+00  4.66057415E+00
  4.71968033E+00  4.80421962E+00  4.82472191E+00  4.82799621E+00  4.89568712E+00
  5.02392926E+00  5.07728865E+00  5.10307419E+00  5.14136920E+00  5.17624590E+00
  5.24596844E+00  5.27131492E+00  5.30738387E+00  5.32901327E+00  5.35630549E+00
  5.60461950E+00  5.67358901E+00  5.76742621E+00  5.83477180E+00  5.95766399E+00
  6.17105272E+00  6.30989293E+00  6.33602908E+00  6.39375138E+00  6.49369903E+00
  6.50529587E+00  6.61434739E+00  6.66804907E+00  6.70085635E+00  6.75935478E+00
  6.76240913E+00  6.83356719E+00  6.89862183E+00  7.01872943E+00  7.05328815E+00
  7.05681527E+00  7.08963048E+00  7.12478652E+00  7.14646358E+00  7.18179635E+00
  7.22578537E+00  7.24169528E+00  7.30541182E+00  7.32486024E+00  7.34833735E+00
  7.39963061E+00  7.43892323E+00  7.48465200E+00  7.60759053E+00  7.61941725E+00
  7.62661504E+00  7.66612432E+00  7.79212922E+00  7.88694943E+00  8.09348342E+00
  8.31653246E+00  8.40297809E+00  8.54365176E+00  1.33898724E+01  1.43914044E+01
  1.51720214E+01  1.61531164E+01
Alpha MO coefficients                      R   N=       42849
  9.12392759E-05 -5.88642384E-04 -6.95420760E-04 -3.76772032E-06 -1.49649995E-05
 -2.84360803E-05  0.00000000E+00 -4.94270876E-05  2.97768216E-05  0.00000000E+00
  8.11068833E-05  2.32384697E-05  0.00000000E+00  2.99826545E-05  0.00000000E+00
  0.00000000E+00 -5.45285288E-05  1.89741068E-05 -7.02525152E-06  0.00000000E+00
  0.00000000E+00 -1.48091632E-04  1.21270484E-04  4.64708873E-03 -2.86785815E-04
  1.89826305E-05  1.47940570E-03  1.78010705E-03  1.05943224E-04  8.66978861E-06
  0.00000000E+00 -6.16893497E-04 -5.02702478E-05  0.00000000E+00 -1.09042856E-03
  7.54243260E-04  0.00000000E+00 -3.97169352E-04  6.12898426E-05  0.00000000E+00
  2.87408156E-05  0.00000000E+00  0.00000000E+00 -5.34861929E-05  6.19896153E-06
 -3.74248617E-04  0.00000000E+00  0.00000000E+00  7.42752927E-04 -3.29639543E-05
 -4.42270698E-04  0.00000000E+00  0.00000000E+00  2.41368288E-04 -9.85039467E-06
  0.00000000E+00  7.99182702E-05  1.31698491E-05  0.00000000E+00  0.00000000E+00
 -1.09602332E-04 -2.67533694E-06  0.00000000E+00  2.55257130E-04 -2.73421222E-05
  0.00000000E+00  0.00000000E+00 -3.50221888E-04  4.66495612E-05  9.76909797E-01
 -9.21726200E-03  4.33199578E-02  2.03906483E-03 -8.98078075E-04  1.49092128E-03
 -1.35403546E-03  0.00000000E+00 -1.43215586E-03  1.38281740E-03  0.00000000E+00
  9.70439822E-05 -1.13807423E-03  0.00000000E+00 -1.29903852E-04 -9.96325825E-06
  0.00000000E+00  4.57971084E-05  0.00000000E+00  0.00000000E+00 -3.56191274E-05
  2.21271207E-05  7.48090522E-04  0.00000000E+00  0.00000000E+00 -2.28565939E-04
 -3.90714175E-04 -3.64707324E-04  0.00000000E+00  0.00000000E+00 -3.09500472E-04
 -3.62131241E-04  0.00000000E+00  4.72971685E-05 -4.86740169E-05  0.00000000E+00
  0.00000000E+00 -3.85545846E-05 -1.61149019E-05  0.00000000E+00  2.35332643E-05
  2.07782659E-05  0.00000000E+00  0.00000000E+00 -3.05035582E-04 -1.39655710E-04
  3.91460633E-05  4.60847469E-05 -2.65021785E-04 -6.93121001E-04 -1.41373806E-04
 -2.70045998E-05 -9.78602507E-05  0.00000000E+00  2.70069733E-04  7.11812933E-04
  0.00000000E+00 -8.27391415E-04 -4.58597610E-04  0.00000000E+00 -1.22764171E-04
 -2.58254719E-05  0.00000000E+00 -1.80682964E-05  0.00000000E+00  0.00000000E+00
 -2.95903170E-05  1.50793422E-05 -3.29833964E-04  0.00000000E+00  0.00000000E+00
 -8.30282609E-04  1.26239466E-04 -3.64579526E-05  0.00000000E+00  0.00000000E+00
  9.02092196E-05 -1.19689666E-04  0.00000000E+00 -2.06274683E-05 -1.20276013E-04
  0.00000000E+00  0.00000000E+00 -6.23065427E-05 -1.38116925E-04  0.00000000E+00
  3.12856367E-06 -1.53558302E-04  0.00000000E+00  0.00000000E+00  4.41484960E-05
 -4.18007517E-04 -2.61051950E-03  1.22312081E-04 -1.24990465E-04 -2.38016790E-04
  1.39019860E-04 -8.04925723E-06 -2.78865168E-05  0.00000000E+00  6.95012327E-05
  1.64323198E-04  0.00000000E+00  2.34324361E-04  1.91037826E-04  0.00000000E+00
  1.26082773E-04  2.31628970E-05  0.00000000E+00 -3.35101593E-06  0.00000000E+00
  0.00000000E+00 -1.79442208E-05  1.33757375E-06  6.78024382E-07  0.00000000E+00
  0.00000000E+00  8.05789156E-05  8.71993621E-05 -9.90303516E-05  0.00000000E+00
  0.00000000E+00  1.67676084E-04  1.58113232E-04  0.00000000E+00  1.58641640E-05
 -3.51455704E-06  0.00000000E+00  0.00000000E+00 -4.33108720E-06 -1.19143289E-05
  0.00000000E+00 -3.35332001E-05  4.55830073E-05  0.00000000E+00  0.00000000E+00
  8.38871252E-05  8.97631576E-05  4.08380455E-05 -9.90056331E-04 -4.84274671E-04
 -1.05003074E-05 -2.13785699E-05  1.57156933E-05  0.00000000E+00  1.49181566E-06
  2.76303560E-04  0.00000000E+00 -3.92626738E-05  1.33259989E-04  0.00000000E+00
  2.68028549E-05  0.00000000E+00  0.00000000E+00  1.17680993E-05  1.00957733E-05
 -2.65195732E-05  0.00000000E+00  0.00000000E+00  1.02427651E-05  3.27182424E-05
  1.13983854E-04  8.41266187E-05 -2.77478609E-05  7.54069764E-04  6.48008753E-04
  1.03780656E-05  2.44821694E-06  0.00000000E+00 -7.38150465E-05  1.71732173E-05
  0.00000000E+00  3.14315968E-04  8.99416773E-04  0.00000000E+00  7.36212922E-07
  7.94165757E-05  0.00000000E+00 -2.33785445E-06  0.00000000E+00  0.00000000E+00
 -1.32699243E-08 -5.78995530E-06 -3.57317897E-05  0.00000000E+00  0.00000000E+00
 -2.18214922E-05  8.05207226E-05 -2.34619655E-05  0.00000000E+00  0.00000000E+00
 -2.65176585E-04 -1.70645688E-04  0.00000000E+00  9.05459477E-06  5.97179997E-06
  0.00000000E+00  0.00000000E+00  2.78361494E-06 -1.89870939E-05  0.00000000E+00
 -3.91872885E-05 -3.80656104E-05  0.00000000E+00  0.00000000E+00 -7.40286541E-05
  1.88120005E-05  2.64949678E-03  3.92378465E-05  9.27880983E-05 -8.08832608E-05
 -4.63517982E-04  7.27942806E-06  1.58154555E-05  0.00000000E+00 -6.21523385E-05
 -5.61025855E-05  0.00000000E+00  2.33353722E-04 -1.82767831E-04  0.00000000E+00
 -1.85939850E-04 -6.34924219E-05  0.00000000E+00 -8.78150021E-06  0.00000000E+00
  0.00000000E+00  2.22515194E-05  1.98454090E-05  4.74743335E-06  0.00000000E+00
  0.00000000E+00 -1.16533184E-04 -4.71256110E-05 -6.14341048E-06  0.00000000E+00
  0.00000000E+00 -2.21023423E-04 -2.02425080E-04  0.00000000E+00  3.37382752E-06
 -3.70827794E-07  0.00000000E+00  0.00000000E+00  1.88155217E-06 -1.38008572E-05
  0.00000000E+00 -4.71171266E-05  2.65910526E-06  0.00000000E+00  0.00000000E+00
 -7.67936782E-05  1.88575829E-04  2.58662759E-04  1.46492144E-03 -7.81266083E-05
 -1.54062948E-03  3.92770788E-04 -1.44526731E-04 -9.52717970E-08  0.00000000E+00
 -2.08851148E-03 -4.04480151E-04  0.00000000E+00  1.04522136E-03  7.68858914E-04
  0.00000000E+00 -1.70685357E-04  5.47918617E-05  0.00000000E+00 -1.23331630E-04
  0.00000000E+00  0.00000000E+00  2.42975458E-04  9.44105826E-05 -4.42477204E-04
  0.00000000E+00  0.00000000E+00  8.98121296E-04 -6.50201607E-05  1.16381820E-05
  0.00000000E+00  0.00000000E+00 -3.40377238E-04 -1.23021442E-04  0.00000000E+00
 -1.36436667E-06  1.51721108E-05  0.00000000E+00  0.00000000E+00  1.89118296E-05
  1.33659786E-05  0.00000000E+00  1.64845219E-04 -7.17230952E-05  0.00000000E+00
  0.00000000E+00 -2.40575294E-04  4.14892151E-05  9.76649068E-01 -9.84845794E-03
  4.35681616E-02  4.50787148E-03 -4.41759263E-04  2.14760422E-03  4.81740040E-04
  0.00000000E+00 -2.38303440E-03 -6.04605683E-04  0.00000000E+00  1.14169234E-03
 -4.41138854E-06  0.00000000E+00  5.23051106E-06 -4.18857430E-05  0.00000000E+00
 -2.32404971E-04  0.00000000E+00  0.00000000E+00  1.02638881E-04  3.20593665E-05
  3.90390474E-04  0.00000000E+00  0.00000000E+00 -8.33283775E-04 -4.20098364E-04
 -1.53116656E-04  0.00000000E+00  0.00000000E+00  2.56815929E-04  1.64271192E-05
  0.00000000E+00  5.22006284E-05  1.77246149E-05  0.00000000E+00  0.00000000E+00
 -2.20669752E-05 -1.32967775E-05  0.00000000E+00  1.38454179E-04  9.40835641E-06
  0.00000000E+00  0.00000000E+00 -1.89307454E-04 -1.41043956E-04  4.72738727E-04
  2.00644197E-03  1.05002073E-04  1.65491921E-05 -3.97177617E-05 -2.47825661E-04
  0.00000000E+00  1.29402012E-04 -1.26299896E-03  0.00000000E+00  3.28435985E-04
 -3.35776962E-04  0.00000000E+00 -3.51949672E-06  0.00000000E+00  0.00000000E+00
  7.54311554E-05  2.08212831E-05 -1.64613605E-04  0.00000000E+00  0.00000000E+00
 -5.36102303E-04 -3.83653803E-05  9.76830339E-01 -9.16863191E-03  4.34466024E-02
  2.21111006E-04 -1.16860839E-03 -1.57233855E-03  1.43162186E-03  0.00000000E+00
  1.58666558E-03 -1.27961458E-03  0.00000000E+00 -5.53773834E-04 -8.20047885E-04
  0.00000000E+00  5.47159324E-05 -4.31675120E-05  0.00000000E+00  3.07823131E-05
  0.00000000E+00  0.00000000E+00 -1.18088900E-04 -7.64497469E-06  7.53509097E-04
  0.00000000E+00  0.00000000E+00 -1.99304848E-04 -2.18695123E-04 -2.67713023E-04
  0.00000000E+00  0.00000000E+00  1.56638014E-04  1.19425911E-04  0.00000000E+00
 -6.41707595E-05  1.98521181E-06  0.00000000E+00  0.00000000E+00  1.81696166E-05