 Entering Gaussian System, Link 0=g16
 Input=hoono_a1_95p56014.gjf
 Output=hoono_a1_95p56014.log
 Initial command:
 /sw/contrib/gaussian/g16/B01/g16/l1.exe "/scr/Gau-22395.inp" -scrdir="/scr/"
 Entering Link 1 = /sw/contrib/gaussian/g16/B01/g16/l1.exe PID=     22396.
  
 Copyright (c) 1988-2017, Gaussian, Inc.  All Rights Reserved.
  
 This is part of the Gaussian(R) 16 program.  It is based on
 the Gaussian(R) 09 system (copyright 2009, Gaussian, Inc.),
 the Gaussian(R) 03 system (copyright 2003, Gaussian, Inc.),
 the Gaussian(R) 98 system (copyright 1998, Gaussian, Inc.),
 the Gaussian(R) 94 system (copyright 1995, Gaussian, Inc.),
 the Gaussian 92(TM) system (copyright 1992, Gaussian, Inc.),
 the Gaussian 90(TM) system (copyright 1990, Gaussian, Inc.),
 the Gaussian 88(TM) system (copyright 1988, Gaussian, Inc.),
 the Gaussian 86(TM) system (copyright 1986, Carnegie Mellon
 University), and the Gaussian 82(TM) system (copyright 1983,
 Carnegie Mellon University). Gaussian is a federally registered
 trademark of Gaussian, Inc.
  
 This software contains proprietary and confidential information,
 including trade secrets, belonging to Gaussian, Inc.
  
 This software is provided under written license and may be
 used, copied, transmitted, or stored only in accord with that
 written license.
  
 The following legend is applicable only to US Government
 contracts under FAR:
  
                    RESTRICTED RIGHTS LEGEND
  
 Use, reproduction and disclosure by the US Government is
 subject to restrictions as set forth in subparagraphs (a)
 and (c) of the Commercial Computer Software - Restricted
 Rights clause in FAR 52.227-19.
  
 Gaussian, Inc.
 340 Quinnipiac St., Bldg. 40, Wallingford CT 06492
  
  
 ---------------------------------------------------------------
 Warning -- This program may not be used in any manner that
 competes with the business of Gaussian, Inc. or will provide
 assistance to any competitor of Gaussian, Inc.  The licensee
 of this program is prohibited from giving any competitor of
 Gaussian, Inc. access to this program.  By using this program,
 the user acknowledges that Gaussian, Inc. is engaged in the
 business of creating and licensing software in the field of
 computational chemistry and represents and warrants to the
 licensee that it is not a competitor of Gaussian, Inc. and that
 it will not use this program in any manner prohibited above.
 ---------------------------------------------------------------
  

 Cite this work as:
 Gaussian 16, Revision B.01,
 M. J. Frisch, G. W. Trucks, H. B. Schlegel, G. E. Scuseria, 
 M. A. Robb, J. R. Cheeseman, G. Scalmani, V. Barone, 
 G. A. Petersson, H. Nakatsuji, X. Li, M. Caricato, A. V. Marenich, 
 J. Bloino, B. G. Janesko, R. Gomperts, B. Mennucci, H. P. Hratchian, 
 J. V. Ortiz, A. F. Izmaylov, J. L. Sonnenberg, D. Williams-Young, 
 F. Ding, F. Lipparini, F. Egidi, J. Goings, B. Peng, A. Petrone, 
 T. Henderson, D. Ranasinghe, V. G. Zakrzewski, J. Gao, N. Rega, 
 G. Zheng, W. Liang, M. Hada, M. Ehara, K. Toyota, R. Fukuda, 
 J. Hasegawa, M. Ishida, T. Nakajima, Y. Honda, O. Kitao, H. Nakai, 
 T. Vreven, K. Throssell, J. A. Montgomery, Jr., J. E. Peralta, 
 F. Ogliaro, M. J. Bearpark, J. J. Heyd, E. N. Brothers, K. N. Kudin, 
 V. N. Staroverov, T. A. Keith, R. Kobayashi, J. Normand, 
 K. Raghavachari, A. P. Rendell, J. C. Burant, S. S. Iyengar, 
 J. Tomasi, M. Cossi, J. M. Millam, M. Klene, C. Adamo, R. Cammi, 
 J. W. Ochterski, R. L. Martin, K. Morokuma, O. Farkas, 
 J. B. Foresman, and D. J. Fox, Gaussian, Inc., Wallingford CT, 2016.
 
 ******************************************
 Gaussian 16:  ES64L-G16RevB.01 20-Dec-2017
                21-Feb-2022 
 ******************************************
 %nproc=28
 Will use up to   28 processors via shared memory.
 %mem=120GB
 %chk=hoono_a1_95p56014.chk
 ---------------------------------------
 #p freq mp2/aug-cc-pvtz density=current
 ---------------------------------------
 1/10=4,30=1,38=1/1,3;
 2/12=2,17=6,18=5,40=1/2;
 3/5=16,6=1,7=10,11=9,25=1,30=1,71=2,140=1/1,2,3;
 4//1;
 5/5=2,38=5,98=1/2;
 8/6=3,8=1,10=1,19=11,30=-1/1;
 9/15=3,16=-3/6;
 11/6=1,8=1,15=11,17=12,24=-1,27=1,28=-2,29=300,32=6,42=3/1,2,10;
 10/6=2,21=1/2;
 8/6=4,8=1,10=1,19=11,30=-1/11,4;
 10/5=1,20=4/2;
 11/12=2,14=11,16=1,17=2,28=-2,42=3,76=2/2,10,12;
 6/7=2,8=2,9=2,10=2,22=-1/1;
 7/8=1,10=1,12=2,25=1,44=2/1,2,3,16;
 1/10=4,30=1/3;
 99//99;
 Leave Link    1 at Mon Feb 21 20:37:27 2022, MaxMem= 16106127360 cpu:               2.7 elap:               0.1
 (Enter /sw/contrib/gaussian/g16/B01/g16/l101.exe)
 -----
 title
 -----
 Symbolic Z-matrix:
 Charge =  0 Multiplicity = 1
 H
 O                    1    r1
 O                    2    r2       1    a1
 N                    3    r3       2    a2       1    d1       0
 O                    4    r4       3    a3       2    d2       0
       Variables:
  r1                    0.96898                  
  r2                    1.45492                  
  r3                    1.45878                  
  r4                    1.17073                  
  a1                   95.56014                  
  a2                  102.29752                  
  a3                  109.06955                  
  d1                  180.                       
  d2                  180.                       
 
 ITRead=  0  0  0  0  0
 MicOpt= -1 -1 -1 -1 -1
 NAtoms=      5 NQM=        5 NQMF=       0 NMMI=      0 NMMIF=      0
                NMic=       0 NMicF=      0.
                    Isotopes and Nuclear Properties:
 (Nuclear quadrupole moments (NQMom) in fm**2, nuclear magnetic moments (NMagM)
  in nuclear magnetons)

  Atom         1           2           3           4           5
 IAtWgt=           1          16          16          14          16
 AtmWgt=   1.0078250  15.9949146  15.9949146  14.0030740  15.9949146
 NucSpn=           1           0           0           2           0
 AtZEff=  -0.0000000  -0.0000000  -0.0000000  -0.0000000  -0.0000000
 NQMom=    0.0000000   0.0000000   0.0000000   2.0440000   0.0000000
 NMagM=    2.7928460   0.0000000   0.0000000   0.4037610   0.0000000
 AtZNuc=   1.0000000   8.0000000   8.0000000   7.0000000   8.0000000
 Leave Link  101 at Mon Feb 21 20:37:27 2022, MaxMem= 16106127360 cpu:               3.3 elap:               0.2
 (Enter /sw/contrib/gaussian/g16/B01/g16/l103.exe)

 GradGradGradGradGradGradGradGradGradGradGradGradGradGradGradGradGradGrad
 Berny optimization.
 Initialization pass.
                       ----------------------------
                       !    Initial Parameters    !
                       ! (Angstroms and Degrees)  !
 ----------------------                            ----------------------
 !      Name          Value   Derivative information (Atomic Units)     !
 ------------------------------------------------------------------------
 !       r1          0.969    calculate D2E/DX2 analytically            !
 !       r2          1.4549   calculate D2E/DX2 analytically            !
 !       r3          1.4588   calculate D2E/DX2 analytically            !
 !       r4          1.1707   calculate D2E/DX2 analytically            !
 !       a1         95.5601   calculate D2E/DX2 analytically            !
 !       a2        102.2975   calculate D2E/DX2 analytically            !
 !       a3        109.0696   calculate D2E/DX2 analytically            !
 !       d1        180.0      calculate D2E/DX2 analytically            !
 !       d2        180.0      calculate D2E/DX2 analytically            !
 ------------------------------------------------------------------------
 Trust Radius=3.00D-01 FncErr=1.00D-07 GrdErr=1.00D-07 EigMax=2.50D+02 EigMin=1.00D-04
 Number of steps in this run=      2 maximum allowed number of steps=      2.
 GradGradGradGradGradGradGradGradGradGradGradGradGradGradGradGradGradGrad

 Leave Link  103 at Mon Feb 21 20:37:27 2022, MaxMem= 16106127360 cpu:               0.5 elap:               0.0
 (Enter /sw/contrib/gaussian/g16/B01/g16/l202.exe)
                          Input orientation:                          
 ---------------------------------------------------------------------
 Center     Atomic      Atomic             Coordinates (Angstroms)
 Number     Number       Type             X           Y           Z
 ---------------------------------------------------------------------
      1          1           0        0.000000    0.000000    0.000000
      2          8           0        0.000000    0.000000    0.968976
      3          8           0        1.448074    0.000000    1.109943
      4          7           0        1.619217    0.000000    2.558654
      5          8           0        2.762932    0.000000    2.808697
 ---------------------------------------------------------------------
                    Distance matrix (angstroms):
                    1          2          3          4          5
     1  H    0.000000
     2  O    0.968976   0.000000
     3  O    1.824525   1.454919   0.000000
     4  N    3.027965   2.269127   1.458784   0.000000
     5  O    3.939869   3.319392   2.148165   1.170729   0.000000
 Stoichiometry    HNO3
 Framework group  CS[SG(HNO3)]
 Deg. of freedom     7
 Full point group                 CS      NOp   2
 Largest Abelian subgroup         CS      NOp   2
 Largest concise Abelian subgroup C1      NOp   1
                         Standard orientation:                         
 ---------------------------------------------------------------------
 Center     Atomic      Atomic             Coordinates (Angstroms)
 Number     Number       Type             X           Y           Z
 ---------------------------------------------------------------------
      1          1           0        1.513191    1.692308   -0.000000
      2          8           0        1.453982    0.725144   -0.000000
      3          8           0        0.000000    0.672923   -0.000000
      4          7           0       -0.259346   -0.762622    0.000000
      5          8           0       -1.416203   -0.942311    0.000000
 ---------------------------------------------------------------------
 Rotational constants (GHZ):          54.8269980           5.0170754           4.5964649
 Leave Link  202 at Mon Feb 21 20:37:27 2022, MaxMem= 16106127360 cpu:               1.1 elap:               0.1
 (Enter /sw/contrib/gaussian/g16/B01/g16/l301.exe)
 Standard basis: Aug-CC-pVTZ (5D, 7F)
 Ernie: Thresh=  0.10000D-02 Tol=  0.10000D-05 Strict=F.
 Ernie:  12 primitive shells out of 131 were deleted.
 There are   166 symmetry adapted cartesian basis functions of A'  symmetry.
 There are    79 symmetry adapted cartesian basis functions of A"  symmetry.
 There are   136 symmetry adapted basis functions of A'  symmetry.
 There are    71 symmetry adapted basis functions of A"  symmetry.
   207 basis functions,   315 primitive gaussians,   245 cartesian basis functions
    16 alpha electrons       16 beta electrons
       nuclear repulsion energy       116.9196022117 Hartrees.
 IExCor=    0 DFT=F Ex=HF Corr=None ExCW=0 ScaHFX=  1.000000
 ScaDFX=  1.000000  1.000000  1.000000  1.000000 ScalE2=  1.000000  1.000000
 IRadAn=      5 IRanWt=     -1 IRanGd=            0 ICorTp=0 IEmpDi=  4
 NAtoms=    5 NActive=    5 NUniq=    5 SFac= 1.00D+00 NAtFMM=   60 NAOKFM=F Big=F
 Integral buffers will be    131072 words long.
 Raffenetti 1 integral format.
 Two-electron integral symmetry is turned on.
 Leave Link  301 at Mon Feb 21 20:37:27 2022, MaxMem= 16106127360 cpu:               2.8 elap:               0.1
 (Enter /sw/contrib/gaussian/g16/B01/g16/l302.exe)
 NPDir=0 NMtPBC=     1 NCelOv=     1 NCel=       1 NClECP=     1 NCelD=      1
         NCelK=      1 NCelE2=     1 NClLst=     1 CellRange=     0.0.
 One-electron integrals computed using PRISM.
 One-electron integral symmetry used in STVInt
 NBasis=   207 RedAO= T EigKep=  1.81D-04  NBF=   136    71
 NBsUse=   207 1.00D-06 EigRej= -1.00D+00 NBFU=   136    71
 Leave Link  302 at Mon Feb 21 20:37:27 2022, MaxMem= 16106127360 cpu:               4.7 elap:               0.2
 (Enter /sw/contrib/gaussian/g16/B01/g16/l303.exe)
 DipDrv:  MaxL=1.
 Leave Link  303 at Mon Feb 21 20:37:28 2022, MaxMem= 16106127360 cpu:               2.3 elap:               0.1
 (Enter /sw/contrib/gaussian/g16/B01/g16/l401.exe)
 ExpMin= 2.53D-02 ExpMax= 1.53D+04 ExpMxC= 5.22D+02 IAcc=3 IRadAn=         5 AccDes= 0.00D+00
 Harris functional with IExCor=  205 and IRadAn=       5 diagonalized for initial guess.
 HarFok:  IExCor=  205 AccDes= 0.00D+00 IRadAn=         5 IDoV= 1 UseB2=F ITyADJ=14
 ICtDFT=  3500011 ScaDFX=  1.000000  1.000000  1.000000  1.000000
 FoFCou: FMM=F IPFlag=           0 FMFlag=      100000 FMFlg1=           0
         NFxFlg=           0 DoJE=T BraDBF=F KetDBF=T FulRan=T
         wScrn=  0.000000 ICntrl=       500 IOpCl=  0 I1Cent=   200000004 NGrid=           0
         NMat0=    1 NMatS0=      1 NMatT0=    0 NMatD0=    1 NMtDS0=    0 NMtDT0=    0
 Petite list used in FoFCou.
 Harris En= -279.628143588514    
 JPrj=0 DoOrth=F DoCkMO=F.
 Initial guess orbital symmetries:
       Occupied  (A') (A') (A') (A') (A') (A') (A') (A') (A') (A')
                 (A") (A') (A') (A") (A") (A')
       Virtual   (A") (A') (A') (A') (A') (A') (A") (A') (A') (A')
                 (A") (A') (A") (A') (A') (A") (A') (A") (A') (A')
                 (A') (A') (A') (A') (A') (A") (A') (A") (A') (A')
                 (A") (A') (A") (A') (A') (A") (A') (A") (A') (A')
                 (A") (A') (A") (A') (A") (A') (A') (A') (A") (A")
                 (A') (A') (A') (A') (A") (A') (A") (A') (A") (A')
                 (A') (A') (A") (A') (A') (A") (A') (A") (A') (A')
                 (A") (A') (A') (A") (A") (A') (A') (A") (A') (A')
                 (A') (A") (A') (A") (A') (A") (A') (A") (A') (A')
                 (A') (A") (A') (A") (A') (A") (A") (A') (A') (A")
                 (A') (A') (A") (A') (A') (A') (A") (A') (A") (A')
                 (A") (A') (A') (A') (A") (A') (A') (A') (A") (A')
                 (A") (A') (A') (A") (A") (A') (A") (A') (A") (A')
                 (A') (A') (A') (A") (A") (A') (A") (A') (A') (A')
                 (A') (A") (A") (A') (A') (A") (A') (A') (A') (A')
                 (A') (A") (A') (A") (A') (A") (A') (A") (A") (A')
                 (A') (A") (A') (A") (A') (A") (A") (A") (A') (A')
                 (A") (A') (A") (A') (A") (A') (A") (A") (A') (A')
                 (A') (A') (A') (A') (A') (A') (A') (A') (A') (A')
                 (A')
 The electronic state of the initial guess is 1-A'.
 Leave Link  401 at Mon Feb 21 20:37:28 2022, MaxMem= 16106127360 cpu:               7.3 elap:               0.3
 (Enter /sw/contrib/gaussian/g16/B01/g16/l502.exe)
 Keep R1 ints in memory in symmetry-blocked form, NReq=348887737.
 FoFCou: FMM=F IPFlag=           0 FMFlag=           0 FMFlg1=           0
         NFxFlg=           0 DoJE=F BraDBF=F KetDBF=F FulRan=T
         wScrn=  0.000000 ICntrl=       600 IOpCl=  0 I1Cent=           0 NGrid=           0
         NMat0=    1 NMatS0=  21528 NMatT0=    0 NMatD0=    1 NMtDS0=    0 NMtDT0=    0
 Petite list used in FoFCou.
 Closed shell SCF:
 Using DIIS extrapolation, IDIIS=  1040.
 NGot= 16106127360 LenX= 15988850015 LenY= 15988789549
 Requested convergence on RMS density matrix=1.00D-08 within 128 cycles.
 Requested convergence on MAX density matrix=1.00D-06.
 Requested convergence on             energy=1.00D-06.
 No special actions if energy rises.

 Cycle   1  Pass 1  IDiag  1:
 E= -279.370047557314    
 DIIS: error= 2.80D-02 at cycle   1 NSaved=   1.
 NSaved= 1 IEnMin= 1 EnMin= -279.370047557314     IErMin= 1 ErrMin= 2.80D-02
 ErrMax= 2.80D-02  0.00D+00 EMaxC= 1.00D-01 BMatC= 4.38D-01 BMatP= 4.38D-01
 IDIUse=3 WtCom= 7.20D-01 WtEn= 2.80D-01
 Coeff-Com:  0.100D+01
 Coeff-En:   0.100D+01
 Coeff:      0.100D+01
 Gap=     0.513 Goal=   None    Shift=    0.000
 GapD=    0.513 DampG=2.000 DampE=0.500 DampFc=1.0000 IDamp=-1.
 RMSDP=1.62D-03 MaxDP=9.95D-02              OVMax= 1.13D-01

 Cycle   2  Pass 1  IDiag  1:
 E= -279.451888968215     Delta-E=       -0.081841410901 Rises=F Damp=F
 DIIS: error= 1.79D-02 at cycle   2 NSaved=   2.
 NSaved= 2 IEnMin= 2 EnMin= -279.451888968215     IErMin= 2 ErrMin= 1.79D-02
 ErrMax= 1.79D-02  0.00D+00 EMaxC= 1.00D-01 BMatC= 7.19D-02 BMatP= 4.38D-01
 IDIUse=3 WtCom= 8.21D-01 WtEn= 1.79D-01
 Coeff-Com:  0.195D+00 0.805D+00
 Coeff-En:   0.000D+00 0.100D+01
 Coeff:      0.160D+00 0.840D+00
 Gap=     0.530 Goal=   None    Shift=    0.000
 RMSDP=9.01D-04 MaxDP=3.74D-02 DE=-8.18D-02 OVMax= 6.92D-02

 Cycle   3  Pass 1  IDiag  1:
 E= -279.481039217590     Delta-E=       -0.029150249374 Rises=F Damp=F
 DIIS: error= 1.04D-02 at cycle   3 NSaved=   3.
 NSaved= 3 IEnMin= 3 EnMin= -279.481039217590     IErMin= 3 ErrMin= 1.04D-02
 ErrMax= 1.04D-02  0.00D+00 EMaxC= 1.00D-01 BMatC= 2.88D-02 BMatP= 7.19D-02
 IDIUse=3 WtCom= 8.96D-01 WtEn= 1.04D-01
 Coeff-Com: -0.330D-01 0.378D+00 0.655D+00
 Coeff-En:   0.000D+00 0.241D+00 0.759D+00
 Coeff:     -0.296D-01 0.364D+00 0.665D+00
 Gap=     0.511 Goal=   None    Shift=    0.000
 RMSDP=3.77D-04 MaxDP=1.54D-02 DE=-2.92D-02 OVMax= 3.82D-02

 Cycle   4  Pass 1  IDiag  1:
 E= -279.500177387519     Delta-E=       -0.019138169930 Rises=F Damp=F
 DIIS: error= 1.27D-03 at cycle   4 NSaved=   4.
 NSaved= 4 IEnMin= 4 EnMin= -279.500177387519     IErMin= 4 ErrMin= 1.27D-03
 ErrMax= 1.27D-03  0.00D+00 EMaxC= 1.00D-01 BMatC= 4.94D-04 BMatP= 2.88D-02
 IDIUse=3 WtCom= 9.87D-01 WtEn= 1.27D-02
 Coeff-Com: -0.117D-01 0.573D-01 0.158D+00 0.796D+00
 Coeff-En:   0.000D+00 0.000D+00 0.000D+00 0.100D+01
 Coeff:     -0.115D-01 0.566D-01 0.156D+00 0.799D+00
 Gap=     0.502 Goal=   None    Shift=    0.000
 RMSDP=9.05D-05 MaxDP=2.79D-03 DE=-1.91D-02 OVMax= 1.12D-02

 Cycle   5  Pass 1  IDiag  1:
 E= -279.500855472098     Delta-E=       -0.000678084579 Rises=F Damp=F
 DIIS: error= 7.20D-04 at cycle   5 NSaved=   5.
 NSaved= 5 IEnMin= 5 EnMin= -279.500855472098     IErMin= 5 ErrMin= 7.20D-04
 ErrMax= 7.20D-04  0.00D+00 EMaxC= 1.00D-01 BMatC= 8.75D-05 BMatP= 4.94D-04
 IDIUse=3 WtCom= 9.93D-01 WtEn= 7.20D-03
 Coeff-Com:  0.615D-02-0.725D-01-0.118D+00 0.211D-01 0.116D+01
 Coeff-En:   0.000D+00 0.000D+00 0.000D+00 0.000D+00 0.100D+01
 Coeff:      0.610D-02-0.720D-01-0.117D+00 0.210D-01 0.116D+01
 Gap=     0.502 Goal=   None    Shift=    0.000
 RMSDP=7.64D-05 MaxDP=2.10D-03 DE=-6.78D-04 OVMax= 1.11D-02

 Cycle   6  Pass 1  IDiag  1:
 E= -279.501171591005     Delta-E=       -0.000316118907 Rises=F Damp=F
 DIIS: error= 2.93D-04 at cycle   6 NSaved=   6.
 NSaved= 6 IEnMin= 6 EnMin= -279.501171591005     IErMin= 6 ErrMin= 2.93D-04
 ErrMax= 2.93D-04  0.00D+00 EMaxC= 1.00D-01 BMatC= 1.68D-05 BMatP= 8.75D-05
 IDIUse=3 WtCom= 9.97D-01 WtEn= 2.93D-03
 Coeff-Com:  0.649D-03 0.921D-03 0.334D-02-0.129D+00-0.221D+00 0.134D+01
 Coeff-En:   0.000D+00 0.000D+00 0.000D+00 0.000D+00 0.000D+00 0.100D+01
 Coeff:      0.647D-03 0.918D-03 0.333D-02-0.129D+00-0.220D+00 0.134D+01
 Gap=     0.503 Goal=   None    Shift=    0.000
 RMSDP=4.53D-05 MaxDP=1.25D-03 DE=-3.16D-04 OVMax= 5.53D-03

 Cycle   7  Pass 1  IDiag  1:
 E= -279.501244351599     Delta-E=       -0.000072760594 Rises=F Damp=F
 DIIS: error= 1.27D-04 at cycle   7 NSaved=   7.
 NSaved= 7 IEnMin= 7 EnMin= -279.501244351599     IErMin= 7 ErrMin= 1.27D-04
 ErrMax= 1.27D-04  0.00D+00 EMaxC= 1.00D-01 BMatC= 4.74D-06 BMatP= 1.68D-05
 IDIUse=3 WtCom= 9.99D-01 WtEn= 1.27D-03
 Coeff-Com: -0.943D-03 0.137D-01 0.267D-01-0.262D-01-0.293D+00 0.411D+00
 Coeff-Com:  0.869D+00
 Coeff-En:   0.000D+00 0.000D+00 0.000D+00 0.000D+00 0.000D+00 0.000D+00
 Coeff-En:   0.100D+01
 Coeff:     -0.942D-03 0.137D-01 0.267D-01-0.262D-01-0.292D+00 0.411D+00
 Coeff:      0.869D+00
 Gap=     0.503 Goal=   None    Shift=    0.000
 RMSDP=1.34D-05 MaxDP=3.79D-04 DE=-7.28D-05 OVMax= 1.56D-03

 Cycle   8  Pass 1  IDiag  1:
 E= -279.501253507751     Delta-E=       -0.000009156151 Rises=F Damp=F
 DIIS: error= 5.67D-05 at cycle   8 NSaved=   8.
 NSaved= 8 IEnMin= 8 EnMin= -279.501253507751     IErMin= 8 ErrMin= 5.67D-05
 ErrMax= 5.67D-05  0.00D+00 EMaxC= 1.00D-01 BMatC= 6.07D-07 BMatP= 4.74D-06
 IDIUse=1 WtCom= 1.00D+00 WtEn= 0.00D+00
 Coeff-Com: -0.450D-03 0.347D-02 0.763D-02 0.275D-01-0.414D-01-0.195D+00
 Coeff-Com:  0.151D+00 0.105D+01
 Coeff:     -0.450D-03 0.347D-02 0.763D-02 0.275D-01-0.414D-01-0.195D+00
 Coeff:      0.151D+00 0.105D+01
 Gap=     0.502 Goal=   None    Shift=    0.000
 RMSDP=7.04D-06 MaxDP=2.06D-04 DE=-9.16D-06 OVMax= 7.58D-04

 Cycle   9  Pass 1  IDiag  1:
 E= -279.501255329122     Delta-E=       -0.000001821371 Rises=F Damp=F
 DIIS: error= 1.53D-05 at cycle   9 NSaved=   9.
 NSaved= 9 IEnMin= 9 EnMin= -279.501255329122     IErMin= 9 ErrMin= 1.53D-05
 ErrMax= 1.53D-05  0.00D+00 EMaxC= 1.00D-01 BMatC= 6.86D-08 BMatP= 6.07D-07
 IDIUse=1 WtCom= 1.00D+00 WtEn= 0.00D+00
 Coeff-Com:  0.123D-03-0.172D-02-0.307D-02-0.203D-02 0.343D-01-0.377D-03
 Coeff-Com: -0.160D+00-0.112D+00 0.125D+01
 Coeff:      0.123D-03-0.172D-02-0.307D-02-0.203D-02 0.343D-01-0.377D-03
 Coeff:     -0.160D+00-0.112D+00 0.125D+01
 Gap=     0.502 Goal=   None    Shift=    0.000
 RMSDP=1.94D-06 MaxDP=6.63D-05 DE=-1.82D-06 OVMax= 1.76D-04

 Cycle  10  Pass 1  IDiag  1:
 E= -279.501255489267     Delta-E=       -0.000000160145 Rises=F Damp=F
 DIIS: error= 4.39D-06 at cycle  10 NSaved=  10.
 NSaved=10 IEnMin=10 EnMin= -279.501255489267     IErMin=10 ErrMin= 4.39D-06
 ErrMax= 4.39D-06  0.00D+00 EMaxC= 1.00D-01 BMatC= 5.58D-09 BMatP= 6.86D-08
 IDIUse=1 WtCom= 1.00D+00 WtEn= 0.00D+00
 Coeff-Com:  0.308D-04-0.241D-03-0.319D-03-0.270D-02 0.161D-02 0.195D-01
 Coeff-Com: -0.115D-01-0.754D-01-0.809D-01 0.115D+01
 Coeff:      0.308D-04-0.241D-03-0.319D-03-0.270D-02 0.161D-02 0.195D-01
 Coeff:     -0.115D-01-0.754D-01-0.809D-01 0.115D+01
 Gap=     0.502 Goal=   None    Shift=    0.000
 RMSDP=5.05D-07 MaxDP=2.11D-05 DE=-1.60D-07 OVMax= 4.20D-05

 Cycle  11  Pass 1  IDiag  1:
 E= -279.501255501841     Delta-E=       -0.000000012574 Rises=F Damp=F
 DIIS: error= 2.04D-06 at cycle  11 NSaved=  11.
 NSaved=11 IEnMin=11 EnMin= -279.501255501841     IErMin=11 ErrMin= 2.04D-06
 ErrMax= 2.04D-06  0.00D+00 EMaxC= 1.00D-01 BMatC= 6.63D-10 BMatP= 5.58D-09
 IDIUse=1 WtCom= 1.00D+00 WtEn= 0.00D+00
 Coeff-Com: -0.213D-04 0.245D-03 0.488D-03 0.526D-03-0.431D-02-0.343D-02
 Coeff-Com:  0.199D-01 0.324D-01-0.139D+00-0.179D+00 0.127D+01
 Coeff:     -0.213D-04 0.245D-03 0.488D-03 0.526D-03-0.431D-02-0.343D-02
 Coeff:      0.199D-01 0.324D-01-0.139D+00-0.179D+00 0.127D+01
 Gap=     0.502 Goal=   None    Shift=    0.000
 RMSDP=1.79D-07 MaxDP=6.55D-06 DE=-1.26D-08 OVMax= 1.74D-05

 Cycle  12  Pass 1  IDiag  1:
 E= -279.501255503655     Delta-E=       -0.000000001814 Rises=F Damp=F
 DIIS: error= 5.91D-07 at cycle  12 NSaved=  12.
 NSaved=12 IEnMin=12 EnMin= -279.501255503655     IErMin=12 ErrMin= 5.91D-07
 ErrMax= 5.91D-07  0.00D+00 EMaxC= 1.00D-01 BMatC= 7.16D-11 BMatP= 6.63D-10
 IDIUse=1 WtCom= 1.00D+00 WtEn= 0.00D+00
 Coeff-Com:  0.125D-05-0.292D-04-0.631D-04 0.185D-03 0.108D-02-0.229D-02
 Coeff-Com: -0.409D-02 0.535D-02 0.417D-01-0.114D+00-0.278D+00 0.135D+01
 Coeff:      0.125D-05-0.292D-04-0.631D-04 0.185D-03 0.108D-02-0.229D-02
 Coeff:     -0.409D-02 0.535D-02 0.417D-01-0.114D+00-0.278D+00 0.135D+01
 Gap=     0.502 Goal=   None    Shift=    0.000
 RMSDP=7.17D-08 MaxDP=2.83D-06 DE=-1.81D-09 OVMax= 6.68D-06

 Cycle  13  Pass 1  IDiag  1:
 E= -279.501255503885     Delta-E=       -0.000000000230 Rises=F Damp=F
 DIIS: error= 1.66D-07 at cycle  13 NSaved=  13.
 NSaved=13 IEnMin=13 EnMin= -279.501255503885     IErMin=13 ErrMin= 1.66D-07
 ErrMax= 1.66D-07  0.00D+00 EMaxC= 1.00D-01 BMatC= 4.00D-12 BMatP= 7.16D-11
 IDIUse=1 WtCom= 1.00D+00 WtEn= 0.00D+00
 Coeff-Com:  0.127D-05-0.139D-04-0.223D-04-0.885D-04 0.122D-03 0.746D-03
 Coeff-Com: -0.752D-03-0.332D-02 0.513D-03 0.411D-01-0.355D-01-0.326D+00
 Coeff-Com:  0.132D+01
 Coeff:      0.127D-05-0.139D-04-0.223D-04-0.885D-04 0.122D-03 0.746D-03
 Coeff:     -0.752D-03-0.332D-02 0.513D-03 0.411D-01-0.355D-01-0.326D+00
 Coeff:      0.132D+01
 Gap=     0.502 Goal=   None    Shift=    0.000
 RMSDP=1.91D-08 MaxDP=5.60D-07 DE=-2.30D-10 OVMax= 1.55D-06

 Cycle  14  Pass 1  IDiag  1:
 E= -279.501255503899     Delta-E=       -0.000000000014 Rises=F Damp=F
 DIIS: error= 2.43D-08 at cycle  14 NSaved=  14.
 NSaved=14 IEnMin=14 EnMin= -279.501255503899     IErMin=14 ErrMin= 2.43D-08
 ErrMax= 2.43D-08  0.00D+00 EMaxC= 1.00D-01 BMatC= 1.94D-13 BMatP= 4.00D-12
 IDIUse=1 WtCom= 1.00D+00 WtEn= 0.00D+00
 Coeff-Com: -0.188D-06 0.309D-05 0.552D-05 0.443D-05-0.819D-04 0.464D-04
 Coeff-Com:  0.268D-03 0.235D-03-0.242D-02 0.144D-02 0.169D-01-0.257D-01
 Coeff-Com: -0.198D+00 0.121D+01
 Coeff:     -0.188D-06 0.309D-05 0.552D-05 0.443D-05-0.819D-04 0.464D-04
 Coeff:      0.268D-03 0.235D-03-0.242D-02 0.144D-02 0.169D-01-0.257D-01
 Coeff:     -0.198D+00 0.121D+01
 Gap=     0.502 Goal=   None    Shift=    0.000
 RMSDP=3.77D-09 MaxDP=9.10D-08 DE=-1.39D-11 OVMax= 3.39D-07

 SCF Done:  E(RHF) =  -279.501255504     A.U. after   14 cycles
            NFock= 14  Conv=0.38D-08     -V/T= 2.0023
 KE= 2.788530008633D+02 PE=-8.951655626035D+02 EE= 2.198917040247D+02
 Leave Link  502 at Mon Feb 21 20:37:31 2022, MaxMem= 16106127360 cpu:              54.4 elap:               3.5
 (Enter /sw/contrib/gaussian/g16/B01/g16/l801.exe)
 ExpMin= 2.53D-02 ExpMax= 1.53D+04 ExpMxC= 5.22D+02 IAcc=3 IRadAn=         5 AccDes= 0.00D+00
 HarFok:  IExCor=  205 AccDes= 0.00D+00 IRadAn=         5 IDoV=-2 UseB2=F ITyADJ=14
 ICtDFT= 12500011 ScaDFX=  1.000000  1.000000  1.000000  1.000000
 Largest valence mixing into a core orbital is  2.08D-04
 Largest core mixing into a valence orbital is  3.63D-05
 Range of M.O.s used for correlation:     5   207
 NBasis=   207 NAE=    16 NBE=    16 NFC=     4 NFV=     0
 NROrb=    203 NOA=    12 NOB=    12 NVA=   191 NVB=   191

 **** Warning!!: The largest alpha MO coefficient is  0.17234299D+02

 Leave Link  801 at Mon Feb 21 20:37:32 2022, MaxMem= 16106127360 cpu:               2.1 elap:               0.1
 (Enter /sw/contrib/gaussian/g16/B01/g16/l906.exe)
 Frozen-core derivative calculation, NFC=   4 NFV=   0.
 FulOut=F Deriv=T AODrv=T NAtomX=     5
   MMem=           0  MDisk=          12 MDiskD=          12
  W3Min=      811440 MinDsk=     2425030 NBas6D=         245
 NBas2D=       30762    NTT=       30135    LW2=     7400000
    MDV= 16105574269 MDiskM=      328644 NBas2p=       30702
 Disk-based method using ON**2 memory for 12 occupieds at a time.
 Permanent disk used for amplitudes=    11516536 words.
 Estimated scratch disk usage=   321251614 words.
 IMap=   1   2   3   4   5   6   7   8   9  10  11  12  13  14  15  16
 Actual    scratch disk usage=   310331678 words.
 JobTyp=1 Pass  1:  I=   5 to  16 NPSUse= 28 ParTrn=T ParDer=T DoDerP=T.
 (rs|ai) integrals will be sorted in core.
 Spin components of T(2) and E(2):
     alpha-alpha T2 =       0.3404672532D-01 E2=     -0.1224599125D+00
     alpha-beta  T2 =       0.1869403987D+00 E2=     -0.7004258595D+00
     beta-beta   T2 =       0.3404672532D-01 E2=     -0.1224599125D+00
 The integrals were generated   1 times.
 ANorm=    0.1120282933D+01
 E2 =    -0.9453456845D+00 EUMP2 =    -0.28044660118844D+03
 Leave Link  906 at Mon Feb 21 20:39:08 2022, MaxMem= 16106127360 cpu:            2698.0 elap:              96.5
 (Enter /sw/contrib/gaussian/g16/B01/g16/l1101.exe)
 Using compressed Sx but separate Hx and Fx, NAtomX=     5.
 Will process      6 centers per pass.
 Leave Link 1101 at Mon Feb 21 20:39:08 2022, MaxMem= 16106127360 cpu:               5.9 elap:               0.2
 (Enter /sw/contrib/gaussian/g16/B01/g16/l1102.exe)
 Leave Link 1102 at Mon Feb 21 20:39:08 2022, MaxMem= 16106127360 cpu:               0.6 elap:               0.0
 (Enter /sw/contrib/gaussian/g16/B01/g16/l1110.exe)
 Forming Gx(P) for the SCF density, NAtomX=     5.
 Integral derivatives from FoFJK, PRISM(SPDF).
 Do as many integral derivatives as possible in FoFJK.
 G2DrvN: MDV=   16106126844.
 G2DrvN: will do     6 centers at a time, making    1 passes.
 Calling FoFCou, ICntrl=  3107 FMM=F I1Cent=   0 AccDes= 0.00D+00.
 FoFJK:  IHMeth= 1 ICntrl=    3107 DoSepK=F KAlg= 0 I1Cent=           0 FoldK=F
 IRaf=         0 NMat=       1 IRICut=       1 DoRegI=T DoRafI=F ISym2E= 1 IDoP0=0 IntGTp=1.
 FoFCou: FMM=F IPFlag=           0 FMFlag=      100000 FMFlg1=           0
         NFxFlg=           0 DoJE=F BraDBF=F KetDBF=F FulRan=T
         wScrn=  0.000000 ICntrl=      3107 IOpCl=  0 I1Cent=           0 NGrid=           0
         NMat0=    1 NMatS0=      1 NMatT0=    0 NMatD0=    1 NMtDS0=    0 NMtDT0=    0
 Petite list used in FoFCou.
 End of G2Drv F.D. properties file   721 does not exist.
 End of G2Drv F.D. properties file   722 does not exist.
 End of G2Drv F.D. properties file   788 does not exist.
 Leave Link 1110 at Mon Feb 21 20:39:11 2022, MaxMem= 16106127360 cpu:              84.9 elap:               3.1
 (Enter /sw/contrib/gaussian/g16/B01/g16/l1002.exe)
 Minotr:  Closed shell wavefunction.
          IDoAtm=11111
          Frozen-core window.
          Direct CPHF calculation.
          Differentiating once with respect to electric field.
                with respect to dipole field.
          Differentiating once with respect to nuclear coordinates.
          Requested convergence is 1.0D-08 RMS, and 1.0D-07 maximum.
          Secondary convergence is 1.0D-12 RMS, and 1.0D-12 maximum.
          NewPWx=T KeepS1=T KeepF1=T KeepIn=T MapXYZ=F SortEE=F KeepMc=T.
 Keep R1 ints in memory in symmetry-blocked form, NReq=348888983.
 FoFCou: FMM=F IPFlag=           0 FMFlag=           0 FMFlg1=           0
         NFxFlg=           0 DoJE=F BraDBF=F KetDBF=F FulRan=T
         wScrn=  0.000000 ICntrl=       600 IOpCl=  0 I1Cent=           0 NGrid=           0
         NMat0=    1 NMatS0=  21528 NMatT0=    0 NMatD0=    1 NMtDS0=    0 NMtDT0=    0
 Petite list used in FoFCou.
          MDV=   16106127360 using IRadAn=       1.
          Solving linear equations simultaneously, MaxMat=       0.
          There are    18 degrees of freedom in the 1st order CPHF.  IDoFFX=6 NUNeed=    18.
     15 vectors produced by pass  0 Test12= 1.70D-14 5.56D-09 XBig12= 8.28D+00 1.07D+00.
 AX will form    15 AO Fock derivatives at one time.
     15 vectors produced by pass  1 Test12= 1.70D-14 5.56D-09 XBig12= 1.34D+00 2.67D-01.
     15 vectors produced by pass  2 Test12= 1.70D-14 5.56D-09 XBig12= 1.40D-01 9.69D-02.
     15 vectors produced by pass  3 Test12= 1.70D-14 5.56D-09 XBig12= 4.91D-03 1.10D-02.
     15 vectors produced by pass  4 Test12= 1.70D-14 5.56D-09 XBig12= 9.94D-05 1.95D-03.
     15 vectors produced by pass  5 Test12= 1.70D-14 5.56D-09 XBig12= 1.43D-06 1.86D-04.
     15 vectors produced by pass  6 Test12= 1.70D-14 5.56D-09 XBig12= 1.13D-08 1.45D-05.
     12 vectors produced by pass  7 Test12= 1.70D-14 5.56D-09 XBig12= 8.24D-11 1.32D-06.
      3 vectors produced by pass  8 Test12= 1.70D-14 5.56D-09 XBig12= 5.68D-13 1.21D-07.
      2 vectors produced by pass  9 Test12= 1.70D-14 5.56D-09 XBig12= 3.70D-15 1.06D-08.
 InvSVY:  IOpt=1 It=  1 EMax= 9.99D-16
 Solved reduced A of dimension   122 with    15 vectors.
 FullF1:  Do perturbations      1 to      18.
 Saving first derivative matrices.
 End of Minotr F.D. properties file   721 does not exist.
 End of Minotr F.D. properties file   722 does not exist.
 End of Minotr F.D. properties file   788 does not exist.
 Leave Link 1002 at Mon Feb 21 20:39:14 2022, MaxMem= 16106127360 cpu:              81.3 elap:               2.9
 (Enter /sw/contrib/gaussian/g16/B01/g16/l811.exe)
 MDV= 16106127360.
 Form MO integral derivatives with frozen-active canonical formalism.
 MOERI=1 MOERIx=1 NAtoms=     5 NAtomX=     5.
 Discarding MO integrals.
 MO basis two electron integral derivatives will not be stored on disk.
 IAlg= 3 DoFC=T DoPWx=T Debug=F.
 Frozen-core window:  NFC=   4 NFV=   0.
 Reordered first order wavefunction length =     18678272
 In DefCFB: NBatch=  1 ICI= 16 ICA=191 LFMax= 96
            Large arrays: LIAPS=   619940160 LIARS=   288257200 words.
 In StABat: MaxSiz= 55 MinSiz= 25 NAtomB=  5
 DoIAMN: NPSUse= 28.
 Leave Link  811 at Mon Feb 21 20:40:36 2022, MaxMem= 16106127360 cpu:            2277.7 elap:              81.5
 (Enter /sw/contrib/gaussian/g16/B01/g16/l804.exe)
 Frozen-core window:  NFC=   4 NFV=   0.
 Closed-shell transformation, MDV= 16106127360 ITran=4 ISComp=1.
 Semi-Direct transformation.
 ModeAB=           2 MOrb=            16 LenV=   16104923023
 LASXX=     67341636 LTotXX=    67341636 LenRXX=    67341636
 LTotAB=    68301760 MaxLAS=    99807120 LenRXY=    99807120
 NonZer=   134683272 LenScr=   202817536 LnRSAI=           0
 LnScr1=           0 LExtra=           0 Total=    369966292
 MaxDsk=          -1 SrtSym=           F ITran=            4
 DoSDTr:  NPSUse= 28
 JobTyp=0 Pass  1:  I=   1 to  16.
 (rs|ai) integrals will be sorted in core.
 Complete sort for first half transformation.
 First half transformation complete.
 Begin second half transformation for I=  10.
 Begin second half transformation for I=  10.
 Complete sort for second half transformation.
 Second half transformation complete.
 Spin components of T(2) and E(2):
     alpha-alpha T2 =       0.3404672532D-01 E2=     -0.1224599125D+00
     alpha-beta  T2 =       0.1869403987D+00 E2=     -0.7004258595D+00
     beta-beta   T2 =       0.3404672532D-01 E2=     -0.1224599125D+00
 ANorm=    0.1584319317D+01
 E2 =    -0.9453456845D+00 EUMP2 =    -0.28044660118844D+03
 Leave Link  804 at Mon Feb 21 20:40:52 2022, MaxMem= 16106127360 cpu:             440.5 elap:              15.8
 (Enter /sw/contrib/gaussian/g16/B01/g16/l1002.exe)
 Minotr:  Closed shell wavefunction.
          Computing MP2/KS-MP2 derivatives.
          Using Z-Vector for PSCF gradient.
          Skipping F1 and S1 gradient terms here.
          IDoAtm=11111
          Frozen-core window.
          Using MO integrals in the linear equations.
          Forming densities via direct SCF.
          Differentiating once with respect to electric field.
                with respect to dipole field.
          Differentiating once with respect to nuclear coordinates.
          Using symmetry in CPHF.
          Requested convergence is 1.0D-10 RMS, and 1.0D-09 maximum.
          NewPWx=F KeepS1=T KeepF1=T KeepIn=T MapXYZ=F SortEE=F KeepMc=T.
          MDV=   16106127360 using IRadAn=       5.
          Solving linear equations separately, MaxMat=       0.
          There are     1 degrees of freedom in the 1st order CPHF.  IDoFFX=0 NUNeed=     1.
 FoFJK:  IHMeth= 1 ICntrl=       0 DoSepK=F KAlg= 0 I1Cent=           0 FoldK=F
 IRaf=         0 NMat=       1 IRICut=       1 DoRegI=T DoRafI=F ISym2E= 0 IDoP0=0 IntGTp=1.
 FoFCou: FMM=F IPFlag=           0 FMFlag=      100000 FMFlg1=           0
         NFxFlg=           0 DoJE=F BraDBF=F KetDBF=F FulRan=T
         wScrn=  0.000000 ICntrl=         0 IOpCl=  0 I1Cent=           0 NGrid=           0
         NMat0=    1 NMatS0=      1 NMatT0=    0 NMatD0=    1 NMtDS0=    0 NMtDT0=    0
 Symmetry not used in FoFCou.
 LinEq1:  Iter=  0 NonCon=     1 RMS=5.96D-03 Max=1.32D-01 NDo=     1
 LinEq1:  Iter=  1 NonCon=     1 RMS=1.90D-03 Max=3.82D-02 NDo=     1
 LinEq1:  Iter=  2 NonCon=     1 RMS=8.68D-04 Max=1.44D-02 NDo=     1
 LinEq1:  Iter=  3 NonCon=     1 RMS=3.86D-04 Max=7.76D-03 NDo=     1
 LinEq1:  Iter=  4 NonCon=     1 RMS=1.19D-04 Max=1.92D-03 NDo=     1
 LinEq1:  Iter=  5 NonCon=     1 RMS=4.48D-05 Max=7.17D-04 NDo=     1
 LinEq1:  Iter=  6 NonCon=     1 RMS=2.01D-05 Max=2.34D-04 NDo=     1
 LinEq1:  Iter=  7 NonCon=     1 RMS=8.11D-06 Max=1.59D-04 NDo=     1
 LinEq1:  Iter=  8 NonCon=     1 RMS=3.47D-06 Max=3.39D-05 NDo=     1
 LinEq1:  Iter=  9 NonCon=     1 RMS=9.46D-07 Max=1.31D-05 NDo=     1
 LinEq1:  Iter= 10 NonCon=     1 RMS=1.86D-07 Max=2.04D-06 NDo=     1
 LinEq1:  Iter= 11 NonCon=     1 RMS=3.47D-08 Max=3.53D-07 NDo=     1
 LinEq1:  Iter= 12 NonCon=     1 RMS=8.36D-09 Max=1.28D-07 NDo=     1
 LinEq1:  Iter= 13 NonCon=     1 RMS=1.50D-09 Max=2.53D-08 NDo=     1
 LinEq1:  Iter= 14 NonCon=     1 RMS=2.72D-10 Max=3.83D-09 NDo=     1
 LinEq1:  Iter= 15 NonCon=     0 RMS=4.94D-11 Max=5.54D-10 NDo=     1
 Linear equations converged to 1.000D-10 1.000D-09 after    15 iterations.
 End of Minotr F.D. properties file   721 does not exist.
 End of Minotr F.D. properties file   722 does not exist.
 End of Minotr F.D. properties file   788 does not exist.
 Leave Link 1002 at Mon Feb 21 20:40:54 2022, MaxMem= 16106127360 cpu:              62.9 elap:               2.3
 (Enter /sw/contrib/gaussian/g16/B01/g16/l1102.exe)
 Use density number 2.
 Symmetrizing basis deriv contribution to polar:
 IMax=3 JMax=2 DiffMx= 0.00D+00
 Leave Link 1102 at Mon Feb 21 20:40:54 2022, MaxMem= 16106127360 cpu:               0.6 elap:               0.0
 (Enter /sw/contrib/gaussian/g16/B01/g16/l1110.exe)
 Forming Gx(P) for generalized density number  2 NAtomX=     5.
 Integral derivatives from FoFJK, PRISM(SPDF).
 Do as many integral derivatives as possible in FoFJK.
 G2DrvN: MDV=   16106126844.
 G2DrvN: will do     6 centers at a time, making    1 passes.
 Calling FoFCou, ICntrl=  3107 FMM=F I1Cent=   0 AccDes= 0.00D+00.
 FoFJK:  IHMeth= 1 ICntrl=    3107 DoSepK=F KAlg= 0 I1Cent=           0 FoldK=F
 IRaf=         0 NMat=       1 IRICut=       1 DoRegI=T DoRafI=F ISym2E= 1 IDoP0=0 IntGTp=1.
 FoFCou: FMM=F IPFlag=           0 FMFlag=      100000 FMFlg1=           0
         NFxFlg=           0 DoJE=F BraDBF=F KetDBF=F FulRan=T
         wScrn=  0.000000 ICntrl=      3107 IOpCl=  0 I1Cent=           0 NGrid=           0
         NMat0=    1 NMatS0=      1 NMatT0=    0 NMatD0=    1 NMtDS0=    0 NMtDT0=    0
 Petite list used in FoFCou.
 End of G2Drv F.D. properties file   721 does not exist.
 End of G2Drv F.D. properties file   722 does not exist.
 End of G2Drv F.D. properties file   788 does not exist.
 Leave Link 1110 at Mon Feb 21 20:40:57 2022, MaxMem= 16106127360 cpu:              83.2 elap:               3.0
 (Enter /sw/contrib/gaussian/g16/B01/g16/l1112.exe)
 MP22nd: MDV=   16106127360
 This link is doing NAtomX=     5 total of    18 degrees of freedom.
 Using ON3 I/O method in MakUI.
 Frozen-core window:  NFC=   4 NFV=   0.
 Using Ix for Sx.
 Use MO integrals over full window.
 Using OV2 memory method for fx*t*t/D, MaxI=    16 DoOO2=F NP=  28.
 R2 and R3 integrals will be kept in memory, NReq=   915591705.
 FoFCou: FMM=F IPFlag=           0 FMFlag=           0 FMFlg1=           0
         NFxFlg=           0 DoJE=F BraDBF=F KetDBF=F FulRan=T
         wScrn=  0.000000 ICntrl=       600 IOpCl=  0 I1Cent=           0 NGrid=           0
         NMat0=    1 NMatS0=      1 NMatT0=    0 NMatD0=    1 NMtDS0=    0 NMtDT0=    0
 Symmetry not used in FoFCou.
 DD1Dir will call FoFMem   1 times, MxPair=       272
 NAB=   136 NAA=     0 NBB=     0.
 Symmetry is being used.
 FoFJK:  IHMeth= 1 ICntrl=       0 DoSepK=F KAlg= 0 I1Cent=           0 FoldK=F
 IRaf=         0 NMat=      18 IRICut=      45 DoRegI=T DoRafI=T ISym2E= 2 IDoP0=3 IntGTp=3.
 Discarding MO integrals.
 Leave Link 1112 at Mon Feb 21 20:41:33 2022, MaxMem= 16106127360 cpu:            1002.2 elap:              36.2
 (Enter /sw/contrib/gaussian/g16/B01/g16/l601.exe)
 Copying SCF densities to generalized density rwf, IOpCl= 0 IROHF=0.

 **********************************************************************

            Population analysis using the MP2 Density.

 **********************************************************************

 Orbital symmetries:
       Occupied  (A') (A') (A') (A') (A') (A') (A') (A') (A') (A')
                 (A") (A') (A") (A') (A") (A')
       Virtual   (A') (A") (A') (A') (A") (A') (A') (A') (A") (A')
                 (A") (A') (A') (A') (A") (A') (A') (A") (A') (A')
                 (A') (A') (A') (A') (A") (A') (A') (A") (A') (A')
                 (A") (A') (A") (A') (A') (A") (A') (A') (A") (A')
                 (A") (A') (A") (A') (A') (A") (A') (A') (A") (A')
                 (A") (A') (A') (A') (A") (A') (A") (A') (A") (A')
                 (A') (A') (A") (A') (A') (A") (A') (A") (A') (A')
                 (A") (A') (A') (A") (A") (A') (A') (A") (A') (A')
                 (A') (A") (A') (A") (A') (A") (A') (A") (A') (A')
                 (A") (A') (A') (A") (A') (A") (A') (A") (A') (A')
                 (A") (A') (A") (A') (A') (A") (A') (A') (A") (A')
                 (A") (A') (A') (A') (A") (A') (A') (A') (A") (A')
                 (A") (A') (A") (A') (A') (A") (A") (A') (A") (A')
                 (A') (A') (A') (A") (A") (A") (A') (A') (A') (A')
                 (A") (A') (A") (A') (A') (A") (A') (A') (A') (A')
                 (A") (A') (A') (A") (A') (A") (A') (A") (A") (A')
                 (A') (A") (A') (A') (A") (A") (A") (A') (A") (A')
                 (A") (A') (A") (A') (A") (A') (A") (A") (A') (A')
                 (A') (A') (A') (A') (A') (A') (A') (A') (A') (A')
                 (A')
 The electronic state is 1-A'.
 Alpha  occ. eigenvalues --  -20.69067 -20.68427 -20.66076 -15.81279  -1.62413
 Alpha  occ. eigenvalues --   -1.49703  -1.25410  -0.94819  -0.77383  -0.75787
 Alpha  occ. eigenvalues --   -0.71203  -0.67879  -0.62082  -0.59130  -0.48548
 Alpha  occ. eigenvalues --   -0.47253
 Alpha virt. eigenvalues --    0.02986   0.07158   0.08592   0.10164   0.13385
 Alpha virt. eigenvalues --    0.13408   0.14412   0.15464   0.17819   0.19396
 Alpha virt. eigenvalues --    0.19963   0.20641   0.22070   0.23533   0.23735
 Alpha virt. eigenvalues --    0.26517   0.29344   0.30371   0.31106   0.34325
 Alpha virt. eigenvalues --    0.35005   0.38730   0.42362   0.43105   0.52767
 Alpha virt. eigenvalues --    0.52940   0.55807   0.58111   0.62612   0.63810
 Alpha virt. eigenvalues --    0.67465   0.68484   0.70651   0.70987   0.72816
 Alpha virt. eigenvalues --    0.72841   0.74440   0.79347   0.79458   0.81179
 Alpha virt. eigenvalues --    0.81215   0.82932   0.86769   0.90863   0.92085
 Alpha virt. eigenvalues --    0.92751   0.95460   0.97639   0.98615   1.01750
 Alpha virt. eigenvalues --    1.05152   1.05443   1.08268   1.11737   1.14397
 Alpha virt. eigenvalues --    1.19023   1.22094   1.23558   1.33953   1.35183
 Alpha virt. eigenvalues --    1.38565   1.45708   1.48706   1.50590   1.53723
 Alpha virt. eigenvalues --    1.56651   1.57953   1.61035   1.66231   1.67080
 Alpha virt. eigenvalues --    1.70311   1.79776   1.83062   1.83612   1.87730
 Alpha virt. eigenvalues --    1.91123   1.95482   1.99414   2.00377   2.07917
 Alpha virt. eigenvalues --    2.12671   2.13208   2.14965   2.22670   2.26246
 Alpha virt. eigenvalues --    2.26411   2.29106   2.31374   2.34237   2.38664
 Alpha virt. eigenvalues --    2.42783   2.43402   2.45323   2.46242   2.47992
 Alpha virt. eigenvalues --    2.49932   2.59075   2.59916   2.61978   2.62614
 Alpha virt. eigenvalues --    2.63520   2.66533   2.75799   2.82733   2.84574
 Alpha virt. eigenvalues --    2.87904   2.89204   2.92824   2.95372   3.02414
 Alpha virt. eigenvalues --    3.06915   3.12013   3.20901   3.22355   3.31412
 Alpha virt. eigenvalues --    3.34288   3.51900   3.63787   3.83705   3.84073
 Alpha virt. eigenvalues --    4.14599   4.17207   4.18342   4.25866   4.34473
 Alpha virt. eigenvalues --    4.39640   4.46155   4.52798   4.65874   4.73256
 Alpha virt. eigenvalues --    4.80252   4.82391   4.82811   4.89557   5.02490
 Alpha virt. eigenvalues --    5.07695   5.10199   5.13641   5.17328   5.25108
 Alpha virt. eigenvalues --    5.27004   5.30645   5.32847   5.35811   5.60183
 Alpha virt. eigenvalues --    5.67350   5.76464   5.84277   5.95811   6.17496
 Alpha virt. eigenvalues --    6.31154   6.33204   6.39345   6.49382   6.50520
 Alpha virt. eigenvalues --    6.61514   6.66791   6.70293   6.76096   6.76163
 Alpha virt. eigenvalues --    6.83481   6.89917   7.02552   7.04887   7.05676
 Alpha virt. eigenvalues --    7.08906   7.12534   7.14176   7.18224   7.22700
 Alpha virt. eigenvalues --    7.24155   7.30246   7.32438   7.35034   7.39980
 Alpha virt. eigenvalues --    7.44991   7.48481   7.60706   7.62099   7.62637
 Alpha virt. eigenvalues --    7.66705   7.79701   7.88710   8.09420   8.31897
 Alpha virt. eigenvalues --    8.39378   8.54262  13.38921  14.38851  15.18616
 Alpha virt. eigenvalues --   16.15417
          Condensed to atoms (all electrons):
               1          2          3          4          5
     1  H    0.586235   0.129828   0.019240   0.012048  -0.000533
     2  O    0.129828   8.322669  -0.176804  -0.089211   0.015380
     3  O    0.019240  -0.176804   8.476311  -0.131459  -0.038477
     4  N    0.012048  -0.089211  -0.131459   6.973077  -0.055377
     5  O   -0.000533   0.015380  -0.038477  -0.055377   8.272440
 Mulliken charges:
               1
     1  H    0.253182
     2  O   -0.201862
     3  O   -0.148810
     4  N    0.290923
     5  O   -0.193432
 Sum of Mulliken charges =  -0.00000
 Mulliken charges with hydrogens summed into heavy atoms:
               1
     2  O    0.051320
     3  O   -0.148810
     4  N    0.290923
     5  O   -0.193432
 APT charges:
               1
     1  H    0.299869
     2  O   -0.286021
     3  O   -0.497060
     4  N    0.875255
     5  O   -0.392043
 Sum of APT charges =  -0.00000
 APT charges with hydrogens summed into heavy atoms:
               1
     2  O    0.013848
     3  O   -0.497060
     4  N    0.875255
     5  O   -0.392043
 Electronic spatial extent (au):  <R**2>=            252.6619
 Charge=             -0.0000 electrons
 Dipole moment (field-independent basis, Debye):
    X=              0.4609    Y=              1.3565    Z=             -0.0000  Tot=              1.4327
 Quadrupole moment (field-independent basis, Debye-Ang):
   XX=            -22.6379   YY=            -18.5965   ZZ=            -22.0069
   XY=              3.1339   XZ=              0.0000   YZ=              0.0000
 Traceless Quadrupole moment (field-independent basis, Debye-Ang):
   XX=             -1.5575   YY=              2.4839   ZZ=             -0.9264
   XY=              3.1339   XZ=              0.0000   YZ=              0.0000
 Octapole moment (field-independent basis, Debye-Ang**2):
  XXX=              2.4293  YYY=             11.3837  ZZZ=              0.0000  XYY=              7.7267
  XXY=              6.2178  XXZ=             -0.0000  XZZ=             -1.5748  YZZ=             -0.8553
  YYZ=             -0.0000  XYZ=             -0.0000
 Hexadecapole moment (field-independent basis, Debye-Ang**3):
 XXXX=           -158.7169 YYYY=            -89.8328 ZZZZ=            -18.2314 XXXY=            -37.5199
 XXXZ=              0.0000 YYYX=            -30.9876 YYYZ=              0.0000 ZZZX=              0.0000
 ZZZY=              0.0000 XXYY=            -34.5391 XXZZ=            -30.7562 YYZZ=            -20.7175
 XXYZ=              0.0000 YYXZ=              0.0000 ZZXY=            -15.0478
 N-N= 1.169196022117D+02 E-N=-8.959495793775D+02  KE= 2.802051855364D+02
 Symmetry A'   KE= 2.662325835630D+02
 Symmetry A"   KE= 1.397260197346D+01
  Exact polarizability:  33.889   9.406  30.251  -0.000  -0.000  17.909
 Approx polarizability:  28.995   5.053  23.541  -0.000  -0.000  15.512
 No NMR shielding tensors so no spin-rotation constants.
 Leave Link  601 at Mon Feb 21 20:41:34 2022, MaxMem= 16106127360 cpu:               4.2 elap:               0.2
 (Enter /sw/contrib/gaussian/g16/B01/g16/l701.exe)
 ... and contract with generalized density number  2.
 Compute integral second derivatives.
 Leave Link  701 at Mon Feb 21 20:41:34 2022, MaxMem= 16106127360 cpu:               5.5 elap:               0.2
 (Enter /sw/contrib/gaussian/g16/B01/g16/l702.exe)
 L702 exits ... SP integral derivatives will be done elsewhere.
 Leave Link  702 at Mon Feb 21 20:41:34 2022, MaxMem= 16106127360 cpu:               0.7 elap:               0.0
 (Enter /sw/contrib/gaussian/g16/B01/g16/l703.exe)
 Integral derivatives from FoFJK, PRISM(SPDF).
 Compute integral second derivatives, UseDBF=F ICtDFT=           0.
 Calling FoFJK, ICntrl=  10100127 FMM=F ISym2X=1 I1Cent= 0 IOpClX= 0 NMat=1 NMatS=1 NMatT=0.
 FoFJK:  IHMeth= 1 ICntrl=10100127 DoSepK=F KAlg= 0 I1Cent=           0 FoldK=F
 IRaf=         0 NMat=       1 IRICut=       1 DoRegI=T DoRafI=F ISym2E= 1 IDoP0=0 IntGTp=1.
 FoFCou: FMM=F IPFlag=           0 FMFlag=      100000 FMFlg1=         800
         NFxFlg=           0 DoJE=F BraDBF=F KetDBF=F FulRan=T
         wScrn=  0.000000 ICntrl=  10100127 IOpCl=  0 I1Cent=           0 NGrid=           0
         NMat0=    1 NMatS0=      1 NMatT0=    0 NMatD0=    1 NMtDS0=    0 NMtDT0=    0
 Petite list used in FoFCou.
 Leave Link  703 at Mon Feb 21 20:41:49 2022, MaxMem= 16106127360 cpu:             427.5 elap:              15.3
 (Enter /sw/contrib/gaussian/g16/B01/g16/l716.exe)
 Dipole        = 1.81327404D-01 5.33697782D-01-1.79060354D-32
 Polarizability= 3.38887200D+01 9.40592052D+00 3.02507280D+01
                -5.78829756D-31-6.28042481D-31 1.79091608D+01
 Full mass-weighted force constant matrix:
 Low frequencies --- -259.1283  -27.9591  -23.3117    0.0005    0.0006    0.0014
 Low frequencies ---   82.4824  225.7034  337.8881
 ******    1 imaginary frequencies (negative Signs) ****** 
 Diagonal vibrational polarizability:
       13.9406756      25.0749000      51.0042895
 Harmonic frequencies (cm**-1), IR intensities (KM/Mole), Raman scattering
 activities (A**4/AMU), depolarization ratios for plane and unpolarized
 incident light, reduced masses (AMU), force constants (mDyne/A),
 and normal coordinates:
                      1                      2                      3
                     A"                     A"                     A'
 Frequencies --   -255.3581               225.6215               337.8801
 Red. masses --      1.1156                13.1961                 8.7182
 Frc consts  --      0.0429                 0.3958                 0.5864
 IR Inten    --    123.5870                 0.0000                 5.4714
  Atom  AN      X      Y      Z        X      Y      Z        X      Y      Z
     1   1    -0.00   0.00   1.00    -0.00   0.00  -0.37     0.55  -0.42  -0.00
     2   8     0.00   0.00  -0.05     0.00   0.00  -0.36    -0.09  -0.38  -0.00
     3   8     0.00  -0.00  -0.05    -0.00  -0.00   0.35    -0.15   0.44   0.00
     4   7     0.00  -0.00   0.04     0.00  -0.00   0.60     0.04   0.25   0.00
     5   8    -0.00   0.00   0.00    -0.00   0.00  -0.49     0.16  -0.26  -0.00
                      4                      5                      6
                     A'                     A'                     A'
 Frequencies --    453.0090               787.1727               970.0148
 Red. masses --     12.5076                12.9160                15.7825
 Frc consts  --      1.5123                 4.7154                 8.7495
 IR Inten    --    197.8928               169.3957                24.0541
  Atom  AN      X      Y      Z        X      Y      Z        X      Y      Z
     1   1     0.39   0.21  -0.00    -0.35   0.16   0.00    -0.06  -0.03  -0.00
     2   8     0.33   0.21  -0.00     0.42   0.08  -0.00    -0.53   0.03  -0.00
     3   8     0.18   0.43   0.00    -0.06  -0.27  -0.00     0.76  -0.02   0.00
     4   7    -0.35  -0.41   0.00    -0.14   0.62   0.00    -0.12   0.24   0.00
     5   8    -0.22  -0.30  -0.00    -0.21  -0.37   0.00    -0.12  -0.22  -0.00
                      7                      8                      9
                     A'                     A'                     A'
 Frequencies --   1383.6844              1677.7984              3777.9917
 Red. masses --      1.1296                12.9543                 1.0670
 Frc consts  --      1.2742                21.4855                 8.9728
 IR Inten    --    161.2562               137.2970                80.1355
  Atom  AN      X      Y      Z        X      Y      Z        X      Y      Z
     1   1     1.00  -0.02   0.00    -0.37  -0.00  -0.00     0.07   1.00   0.00
     2   8    -0.03   0.05  -0.00    -0.00  -0.04   0.00    -0.01  -0.06  -0.00
     3   8    -0.02  -0.05  -0.00     0.00   0.15  -0.00     0.00   0.00  -0.00
     4   7     0.02   0.01   0.00     0.70  -0.05  -0.00    -0.00  -0.00   0.00
     5   8    -0.03  -0.01   0.00    -0.59  -0.07   0.00     0.00   0.00   0.00

 -------------------
 - Thermochemistry -
 -------------------
 Temperature   298.150 Kelvin.  Pressure   1.00000 Atm.
 Atom     1 has atomic number  1 and mass   1.00783
 Atom     2 has atomic number  8 and mass  15.99491
 Atom     3 has atomic number  8 and mass  15.99491
 Atom     4 has atomic number  7 and mass  14.00307
 Atom     5 has atomic number  8 and mass  15.99491
 Molecular mass:    62.99564 amu.
 Principal axes and moments of inertia in atomic units:
                           1         2         3
     Eigenvalues --    32.91702 359.71977 392.63678
           X            0.80897  -0.58785   0.00000
           Y            0.58785   0.80897   0.00000
           Z           -0.00000   0.00000   1.00000
 This molecule is an asymmetric top.
 Rotational symmetry number  1.
 Rotational temperatures (Kelvin)      2.63128     0.24078     0.22060
 Rotational constants (GHZ):          54.82700     5.01708     4.59646
    1 imaginary frequencies ignored.
 Zero-point vibrational energy      57499.5 (Joules/Mol)
                                   13.74272 (Kcal/Mol)
 Warning -- explicit consideration of   3 degrees of freedom as
           vibrations may cause significant error
 Vibrational temperatures:    324.62   486.13   651.78  1132.57  1395.64
          (Kelvin)           1990.81  2413.98  5435.69
 
 Zero-point correction=                           0.021900 (Hartree/Particle)
 Thermal correction to Energy=                    0.026025
 Thermal correction to Enthalpy=                  0.026969
 Thermal correction to Gibbs Free Energy=        -0.004232
 Sum of electronic and zero-point Energies=           -280.424701
 Sum of electronic and thermal Energies=              -280.420577
 Sum of electronic and thermal Enthalpies=            -280.419632
 Sum of electronic and thermal Free Energies=         -280.450833
 
                     E (Thermal)             CV                S
                      KCal/Mol        Cal/Mol-Kelvin    Cal/Mol-Kelvin
 Total                   16.331             11.953             65.668
 Electronic               0.000              0.000              0.000
 Translational            0.889              2.981             38.341
 Rotational               0.889              2.981             23.057
 Vibrational             14.553              5.991              4.271
 Vibration     1          0.650              1.802              1.914
 Vibration     2          0.718              1.600              1.222
 Vibration     3          0.812              1.354              0.787
                       Q            Log10(Q)             Ln(Q)
 Total Bot       0.884483D+02          1.946689          4.482418
 Total V=0       0.104755D+13         12.020174         27.677473
 Vib (Bot)       0.184390D-09         -9.734264        -22.413971
 Vib (Bot)    1  0.874617D+00         -0.058182         -0.133970
 Vib (Bot)    2  0.550293D+00         -0.259406         -0.597305
 Vib (Bot)    3  0.377625D+00         -0.422939         -0.973853
 Vib (V=0)       0.218384D+01          0.339221          0.781084
 Vib (V=0)    1  0.150745D+01          0.178243          0.410419
 Vib (V=0)    2  0.124352D+01          0.094653          0.217946
 Vib (V=0)    3  0.112658D+01          0.051761          0.119185
 Electronic      0.100000D+01          0.000000          0.000000
 Translational   0.196526D+08          7.293420         16.793719
 Rotational      0.244081D+05          4.387533         10.102669
 
                                                                title
                                                             IR Spectrum
 
     3                                                                      1         1                                              
     7                                                                      6         3             9     7          4   3   2       
     7                                                                      7         8             7     8          5   3   2       
     8                                                                      8         4             0     7          3   8   6       
 
     X                                                                      X         X             X     X          X   X           
     X                                                                      X         X             X     X          X               
     X                                                                      X         X                   X          X               
     X                                                                      X         X                   X          X               
     X                                                                      X         X                   X          X               
     X                                                                      X         X                   X          X               
     X                                                                      X         X                   X          X               
     X                                                                      X         X                   X          X               
                                                                            X         X                   X          X               
                                                                            X         X                   X          X               
                                                                            X         X                   X          X               
                                                                            X         X                   X          X               
                                                                            X         X                   X          X               
                                                                            X         X                   X          X               
                                                                                      X                   X          X               
                                                                                      X                   X          X               
                                                                                                          X          X               
                                                                                                                     X               
                                                                                                                     X               
                                                                                                                     X               
 
 ***** Axes restored to original set *****
 -------------------------------------------------------------------
 Center     Atomic                   Forces (Hartrees/Bohr)
 Number     Number              X              Y              Z
 -------------------------------------------------------------------
      1        1          -0.004194937   -0.000000000   -0.000378022
      2        8           0.002332149   -0.000000000   -0.003000539
      3        8           0.001221901    0.000000000    0.003440094
      4        7           0.000179170   -0.000000000   -0.000489455
      5        8           0.000461716    0.000000000    0.000427923
 -------------------------------------------------------------------
 Cartesian Forces:  Max     0.004194937 RMS     0.001754571
 -----------------------------------------------------------------------------------------------
                       Internal Coordinate Forces (Hartree/Bohr or radian)
  Cent   Atom   N1       Length/X         N2         Alpha/Y        N3         Beta/Z          J
 -----------------------------------------------------------------------------------------------
      1  H 
      2  O        1   0.000378(     1)
      3  O        2   0.002181(     2)      1   0.007681(     5)
      4  N        3   0.000014(     3)      2   0.001068(     6)      1  -0.000000(     8)     0
      5  O        4   0.000542(     4)      3   0.000707(     7)      2   0.000000(     9)     0
 -----------------------------------------------------------------------------------------------
 Internal  Forces:  Max     0.007681352 RMS     0.002704695
 Force constants in Cartesian coordinates: 
                1             2             3             4             5 
      1  0.662394D-01
      2  0.000000D+00 -0.216164D-02
      3  0.865240D-02  0.000000D+00  0.512281D+00
      4 -0.323046D-01  0.000000D+00 -0.186256D-01  0.272927D+00
      5  0.000000D+00  0.117801D-02  0.000000D+00  0.000000D+00  0.492352D-02
      6  0.454874D-01  0.000000D+00 -0.507133D+00  0.326444D-01  0.000000D+00
      7 -0.232399D-01  0.000000D+00  0.118031D-01 -0.221872D+00  0.000000D+00
      8  0.000000D+00  0.254749D-02  0.000000D+00  0.000000D+00 -0.746741D-02
      9 -0.534321D-01  0.000000D+00 -0.176120D-02 -0.175057D-01  0.000000D+00
     10 -0.954679D-02  0.000000D+00 -0.517248D-02 -0.180513D-01  0.000000D+00
     11  0.000000D+00 -0.249355D-02  0.000000D+00  0.000000D+00 -0.507594D-02
     12  0.491369D-02  0.000000D+00 -0.466544D-02  0.138387D-01  0.000000D+00
     13 -0.114809D-02  0.000000D+00  0.334255D-02 -0.698472D-03  0.000000D+00
     14  0.000000D+00  0.929688D-03  0.000000D+00  0.000000D+00  0.644182D-02
     15 -0.562147D-02  0.000000D+00  0.127807D-02 -0.103518D-01  0.000000D+00
                6             7             8             9            10 
      6  0.587925D+00
      7 -0.182422D-01  0.347964D+00
      8  0.000000D+00  0.000000D+00  0.374856D-02
      9 -0.745916D-01  0.346804D-01  0.000000D+00  0.178374D+00
     10 -0.513930D-01 -0.702041D-01  0.000000D+00  0.174293D+00  0.826766D+00
     11  0.000000D+00  0.000000D+00  0.814118D-02  0.000000D+00  0.000000D+00
     12  0.175436D-01  0.616102D-01  0.000000D+00 -0.898110D-01 -0.395032D-01
     13 -0.849663D-02 -0.326476D-01  0.000000D+00 -0.138035D+00 -0.728964D+00
     14  0.000000D+00  0.000000D+00 -0.696981D-02  0.000000D+00  0.000000D+00
     15 -0.237444D-01 -0.898514D-01  0.000000D+00 -0.122101D-01 -0.782239D-01
               11            12            13            14            15 
     11  0.900946D-02
     12  0.000000D+00  0.189423D+00
     13  0.000000D+00 -0.408594D-01  0.763458D+00
     14 -0.958115D-02  0.000000D+00  0.000000D+00  0.917946D-02
     15  0.000000D+00 -0.112490D+00  0.184049D+00  0.000000D+00  0.147166D+00
 Force constants in internal coordinates: 
                1             2             3             4             5 
      1  0.512281D+00
      2 -0.942742D-02  0.285932D+00
      3  0.357866D-02  0.231532D-02  0.117827D+00
      4 -0.353840D-02  0.614374D-02  0.152879D+00  0.812149D+00
      5  0.116485D-01  0.714509D-01  0.358472D-02  0.425219D-02  0.222789D+00
      6  0.509713D-02  0.592346D-01  0.421012D-01  0.212674D-01  0.319386D-01
      7 -0.118291D-02  0.379610D-01  0.321585D-01  0.852277D-01  0.212554D-01
      8  0.000000D+00  0.000000D+00  0.000000D+00  0.000000D+00  0.000000D+00
      9  0.000000D+00  0.000000D+00  0.000000D+00  0.000000D+00  0.000000D+00
                6             7             8             9 
      6  0.282990D+00
      7  0.959899D-01  0.483191D+00
      8  0.000000D+00  0.000000D+00 -0.723413D-02
      9  0.000000D+00  0.000000D+00 -0.354199D-02  0.409870D-01
 Leave Link  716 at Mon Feb 21 20:41:49 2022, MaxMem= 16106127360 cpu:               1.2 elap:               0.1
 (Enter /sw/contrib/gaussian/g16/B01/g16/l103.exe)

 GradGradGradGradGradGradGradGradGradGradGradGradGradGradGradGradGradGrad
 Berny optimization.
 Search for a local minimum.
 Step number   1 out of a maximum of    2
 All quantities printed in internal units (Hartrees-Bohrs-Radians)
 Second derivative matrix not updated -- analytic derivatives used.
 The second derivative matrix:
                          r1        r2        r3        r4        a1
           r1           0.51228
           r2          -0.00943   0.28593
           r3           0.00358   0.00232   0.11783
           r4          -0.00354   0.00614   0.15288   0.81215
           a1           0.01165   0.07145   0.00358   0.00425   0.22279
           a2           0.00510   0.05923   0.04210   0.02127   0.03194
           a3          -0.00118   0.03796   0.03216   0.08523   0.02126
           d1           0.00000  -0.00000  -0.00000  -0.00000  -0.00000
           d2          -0.00000   0.00000   0.00000   0.00000   0.00000
                          a2        a3        d1        d2
           a2           0.28299
           a3           0.09599   0.48319
           d1          -0.00000  -0.00000  -0.00723
           d2          -0.00000  -0.00000  -0.00354   0.04099
 ITU=  0
     Eigenvalues ---   -0.00749   0.04125   0.07847   0.17529   0.22772
     Eigenvalues ---    0.33255   0.51276   0.51911   0.87126
 Eigenvalue     1 is  -7.49D-03 should be greater than     0.000000 Eigenvector:
                          d1        d2        a3        a2        r3
   1                    0.99734   0.07287   0.00000   0.00000  -0.00000
                          r4        a1        r2        r1
   1                    0.00000  -0.00000   0.00000  -0.00000
 Angle between quadratic step and forces=  20.30 degrees.
 Linear search not attempted -- first point.
 Variable       Old X    -DE/DX   Delta X   Delta X   Delta X     New X
                                 (Linear)    (Quad)   (Total)
    r1        1.83110   0.00038   0.00000  -0.00006  -0.00006   1.83104
    r2        2.74940   0.00218   0.00000  -0.00114  -0.00114   2.74826
    r3        2.75670   0.00001   0.00000  -0.00220  -0.00220   2.75450
    r4        2.21236   0.00054   0.00000   0.00091   0.00091   2.21326
    a1        1.66784   0.00768   0.00000   0.03482   0.03482   1.70266
    a2        1.78543   0.00107   0.00000   0.00037   0.00037   1.78579
    a3        1.90362   0.00071   0.00000  -0.00007  -0.00007   1.90356
    d1        3.14159  -0.00000   0.00000  -0.00000   0.00000   3.14159
    d2        3.14159   0.00000   0.00000  -0.00000   0.00000   3.14159
         Item               Value     Threshold  Converged?
 Maximum Force            0.007681     0.000450     NO 
 RMS     Force            0.002705     0.000300     NO 
 Maximum Displacement     0.034820     0.001800     NO 
 RMS     Displacement     0.011641     0.001200     NO 
 Predicted change in Energy=-1.328762D-04
                       ----------------------------
                       ! Non-Optimized Parameters !
                       ! (Angstroms and Degrees)  !
 ----------------------                            ----------------------
 !      Name          Value   Derivative information (Atomic Units)     !
 ------------------------------------------------------------------------
 !       r1          0.9689   -DE/DX =    0.0004                        !
 !       r2          1.4543   -DE/DX =    0.0022                        !
 !       r3          1.4576   -DE/DX =    0.0                           !
 !       r4          1.1712   -DE/DX =    0.0005                        !
 !       a1         97.5552   -DE/DX =    0.0077                        !
 !       a2        102.3185   -DE/DX =    0.0011                        !
 !       a3        109.0658   -DE/DX =    0.0007                        !
 !       d1        180.0      -DE/DX =    0.0                           !
 !       d2        180.0      -DE/DX =    0.0                           !
 ------------------------------------------------------------------------
 GradGradGradGradGradGradGradGradGradGradGradGradGradGradGradGradGradGrad

 Leave Link  103 at Mon Feb 21 20:41:49 2022, MaxMem= 16106127360 cpu:               0.5 elap:               0.0
 (Enter /sw/contrib/gaussian/g16/B01/g16/l9999.exe)

 ----------------------------------------------------------------------

 Electric dipole moment (input orientation):
 (Debye = 10**-18 statcoulomb cm , SI units = C m)
                  (au)            (Debye)         (10**-30 SI)
   Tot        0.563660D+00      0.143268D+01      0.477891D+01
   x         -0.148377D+00     -0.377137D+00     -0.125799D+01
   y          0.000000D+00      0.000000D+00      0.000000D+00
   z         -0.543780D+00     -0.138215D+01     -0.461036D+01

 Dipole polarizability, Alpha (input orientation).
 (esu units = cm**3 , SI units = C**2 m**2 J**-1)
 Alpha(0;0):
               (au)            (10**-24 esu)      (10**-40 SI)
   iso        0.273495D+02      0.405278D+01      0.450933D+01
   aniso      0.218143D+02      0.323254D+01      0.359669D+01
   xx         0.327278D+02      0.484976D+01      0.539608D+01
   yx         0.000000D+00      0.000000D+00      0.000000D+00
   yy         0.179092D+02      0.265386D+01      0.295282D+01
   zx         0.955756D+01      0.141628D+01      0.157583D+01
   zy         0.000000D+00      0.000000D+00      0.000000D+00
   zz         0.314117D+02      0.465473D+01      0.517908D+01

 ----------------------------------------------------------------------

 Dipole orientation:
     1         -0.00000000          0.00000000          0.00000000
     8         -0.48201549          0.00000000         -1.76651706
     8          2.08781061          0.00000000         -2.74385468
     7          1.67915814          0.00000000         -5.47009953
     8          3.63985558          0.00000000         -6.49488662

 Electric dipole moment (dipole orientation):
 (Debye = 10**-18 statcoulomb cm , SI units = C m)
                  (au)            (Debye)         (10**-30 SI)
   Tot        0.563660D+00      0.143268D+01      0.477891D+01
   x          0.000000D+00      0.000000D+00      0.000000D+00
   y          0.000000D+00      0.000000D+00      0.000000D+00
   z          0.563660D+00      0.143268D+01      0.477891D+01

 Dipole polarizability, Alpha (dipole orientation).
 (esu units = cm**3 , SI units = C**2 m**2 J**-1)
 Alpha(0;0):
               (au)            (10**-24 esu)      (10**-40 SI)
   iso        0.273495D+02      0.405278D+01      0.450933D+01
   aniso      0.218143D+02      0.323254D+01      0.359669D+01
   xx         0.277822D+02      0.411690D+01      0.458067D+01
   yx         0.000000D+00      0.000000D+00      0.000000D+00
   yy         0.179092D+02      0.265386D+01      0.295282D+01
   zx        -0.856723D+01     -0.126953D+01     -0.141255D+01
   zy         0.000000D+00      0.000000D+00      0.000000D+00
   zz         0.363572D+02      0.538759D+01      0.599450D+01

 ----------------------------------------------------------------------
 1\1\GINC-N2125\Freq\RMP2-FC\Aug-CC-pVTZ\H1N1O3\CGAVINH\21-Feb-2022\1\\
 #p freq mp2/aug-cc-pvtz density=current\\title\\0,1\H\O,1,r1\O,2,r2,1,
 a1\N,3,r3,2,a2,1,d1,0\O,4,r4,3,a3,2,d2,0\\r1=0.96897556\r2=1.45491931\
 r3=1.45878406\r4=1.17072885\a1=95.56014057\a2=102.29752444\a3=109.0695
 5123\d1=180.\d2=180.\\Version=ES64L-G16RevB.01\State=1-A'\HF=-279.5012
 555\MP2=-280.4466012\RMSD=3.771e-09\RMSF=1.755e-03\ZeroPoint=0.0219004
 \Thermal=0.0260246\Dipole=-0.1483771,0.,-0.5437805\DipoleDeriv=0.27442
 88,0.,0.0556583,0.,0.3531333,0.,0.0782752,0.,0.2720444,-0.3423278,0.,-
 0.2086676,0.,-0.310002,0.,-0.0957058,0.,-0.205734,-0.0685019,0.,0.1027
 93,0.,-0.0884886,0.,-0.8023268,0.,-1.3341885,0.9597167,0.,0.9324543,0.
 ,0.0661867,0.,0.9442477,0.,1.5998614,-0.8233159,0.,-0.882238,0.,-0.020
 8294,0.,-0.1244904,0.,-0.3319833\Polar=32.7277903,0.,17.9091608,9.5575
 643,0.,31.4116576\Quadrupole=-1.4309438,-0.6887863,2.11973,0.,2.129324
 9,0.\PG=CS [SG(H1N1O3)]\NImag=1\\0.06623942,0.,-0.00216164,0.00865240,
 0.,0.51228120,-0.03230462,0.,-0.01862560,0.27292680,0.,0.00117801,0.,0
 .,0.00492352,0.04548744,0.,-0.50713263,0.03264439,0.,0.58792507,-0.023
 23992,0.,0.01180312,-0.22187246,0.,-0.01824225,0.34796410,0.,0.0025474
 9,0.,0.,-0.00746741,0.,0.,0.00374856,-0.05343206,0.,-0.00176120,-0.017
 50575,0.,-0.07459162,0.03468036,0.,0.17837391,-0.00954679,0.,-0.005172
 48,-0.01805125,0.,-0.05139296,-0.07020412,0.,0.17429256,0.82676591,0.,
 -0.00249355,0.,0.,-0.00507594,0.,0.,0.00814118,0.,0.,0.00900946,0.0049
 1369,0.,-0.00466544,0.01383875,0.,0.01754362,0.06161020,0.,-0.08981095
 ,-0.03950322,0.,0.18942277,-0.00114809,0.,0.00334255,-0.00069847,0.,-0
 .00849663,-0.03264761,0.,-0.13803512,-0.72896375,0.,-0.04085942,0.7634
 5791,0.,0.00092969,0.,0.,0.00644182,0.,0.,-0.00696981,0.,0.,-0.0095811
 5,0.,0.,0.00917946,-0.00562147,0.,0.00127807,-0.01035180,0.,-0.0237444
 5,-0.08985144,0.,-0.01221014,-0.07822390,0.,-0.11248999,0.18404861,0.,
 0.14716650\\0.00419494,0.,0.00037802,-0.00233215,0.,0.00300054,-0.0012
 2190,0.,-0.00344009,-0.00017917,0.,0.00048946,-0.00046172,0.,-0.000427
 92\\\@


 THE POLHOLDE ROLLS WITHOUT SLIPPING ON THE HERPOLHOLDE LYING IN
 THE INVARIABLE PLANE.
 H.GOLDSTEIN, "CLASSICAL MECHANICS", PG 161
 Job cpu time:       0 days  2 hours  1 minutes  0.8 seconds.
 Elapsed time:       0 days  0 hours  4 minutes 22.4 seconds.
 File lengths (MBytes):  RWF=   7239 Int=      0 D2E=      0 Chk=      8 Scr=      1
 Normal termination of Gaussian 16 at Mon Feb 21 20:41:50 2022.
