title                                                                   
Freq      RMP2-FC                                                     Aug-CC-pVTZ         
Number of atoms                            I                5
Info1-9                                    I   N=           9
          33          24           0           0           0         100
           6           2           1
Full Title                                 C   N=           1
title       
Route                                      C   N=           4
#p freq mp2/aug-cc-pvtz density=current         
Charge                                     I                0
Multiplicity                               I                1
Number of electrons                        I               32
Number of alpha electrons                  I               16
Number of beta electrons                   I               16
Number of basis functions                  I              207
Number of independent functions            I              207
Number of point charges in /Mol/           I                0
Number of translation vectors              I                0
Atomic numbers                             I   N=           5
           1           8           8           7           8
Nuclear charges                            R   N=           5
  1.00000000E+00  8.00000000E+00  8.00000000E+00  7.00000000E+00  8.00000000E+00
Current cartesian coordinates              R   N=          15
  4.24917671E+00  8.20400650E-01 -4.07616537E-02  3.02020090E+00 -5.36970092E-01
 -3.15651743E-02  7.56866373E-01  1.02251995E+00  3.55364996E-02 -1.25458685E+00
 -8.62445471E-01  5.47484082E-02 -3.21045086E+00  1.66539844E-01 -4.67809758E-02
Number of symbols in /Mol/                 I                0
Force Field                                I                0
Atom Types                                 C   N=           5
                                                            
Int Atom Types                             I   N=           5
           0           0           0           0           0
MM charges                                 R   N=           5
  0.00000000E+00  0.00000000E+00  0.00000000E+00  0.00000000E+00  0.00000000E+00
Integer atomic weights                     I   N=           5
           1          16          16          14          16
Real atomic weights                        R   N=           5
  1.00782504E+00  1.59949146E+01  1.59949146E+01  1.40030740E+01  1.59949146E+01
Atom fragment info                         I   N=           5
           0           0           0           0           0
Atom residue num                           I   N=           5
           0           0           0           0           0
Nuclear spins                              I   N=           5
           1           0           0           2           0
Nuclear ZEff                               R   N=           5
 -1.00000000E+00 -5.60000000E+00 -5.60000000E+00 -4.55000000E+00 -5.60000000E+00
Nuclear ZNuc                               R   N=           5
  1.00000000E+00  8.00000000E+00  8.00000000E+00  7.00000000E+00  8.00000000E+00
Nuclear QMom                               R   N=           5
  0.00000000E+00  0.00000000E+00  0.00000000E+00  2.04400000E+00  0.00000000E+00
Nuclear GFac                               R   N=           5
  2.79284600E+00  0.00000000E+00  0.00000000E+00  4.03761000E-01  0.00000000E+00
MicOpt                                     I   N=           5
          -1          -1          -1          -1          -1
Number of residues                         I                0
Number of secondary structures             I                0
SymInf integers                            I   N=          26
           1           1           1           1           1           0
           0           0           0           0           0           0
           0           0           0           0           0           0
           0           0           0           0           0           0
           0           0
RotTr to input orientation                 R   N=          12
 -7.41003626E-01 -2.11259109E-02 -6.71168624E-01  6.71073703E-01  1.23544055E-02
 -7.41287699E-01  2.39522673E-02 -9.99700487E-01  5.02238400E-03  2.59908238E+00
  3.88827213E-02  3.46027172E+00
Number of contracted shells                I               65
Number of primitive shells                 I              119
Pure/Cartesian d shells                    I                0
Pure/Cartesian f shells                    I                0
Highest angular momentum                   I                3
Largest degree of contraction              I                7
Shell types                                I   N=          65
           0           0           0           0           1           1
           1          -2          -2           0           0           0
           0           0           1           1           1           1
          -2          -2          -2          -3          -3           0
           0           0           0           0           1           1
           1           1          -2          -2          -2          -3
          -3           0           0           0           0           0
           1           1           1           1          -2          -2
          -2          -3          -3           0           0           0
           0           0           1           1           1           1
          -2          -2          -2          -3          -3
Number of primitives per shell             I   N=          65
           3           1           1           1           1           1
           1           1           1           7           6           1
           1           1           3           1           1           1
           1           1           1           1           1           7
           6           1           1           1           3           1
           1           1           1           1           1           1
           1           7           6           1           1           1
           3           1           1           1           1           1
           1           1           1           7           6           1
           1           1           3           1           1           1
           1           1           1           1           1
Shell to atom map                          I   N=          65
           1           1           1           1           1           1
           1           1           1           2           2           2
           2           2           2           2           2           2
           2           2           2           2           2           3
           3           3           3           3           3           3
           3           3           3           3           3           3
           3           4           4           4           4           4
           4           4           4           4           4           4
           4           4           4           5           5           5
           5           5           5           5           5           5
           5           5           5           5           5
Primitive exponents                        R   N=         119
  3.38700000E+01  5.09500000E+00  1.15900000E+00  3.25800000E-01  1.02700000E-01
  2.52600000E-02  1.40700000E+00  3.88000000E-01  1.02000000E-01  1.05700000E+00
  2.47000000E-01  1.53300000E+04  2.29900000E+03  5.22400000E+02  1.47300000E+02
  4.75500000E+01  1.67600000E+01  6.20700000E+00  5.22400000E+02  1.47300000E+02
  4.75500000E+01  1.67600000E+01  6.20700000E+00  6.88200000E-01  1.75200000E+00
  2.38400000E-01  7.37600000E-02  3.44600000E+01  7.74900000E+00  2.28000000E+00
  7.15600000E-01  2.14000000E-01  5.97400000E-02  2.31400000E+00  6.45000000E-01
  2.14000000E-01  1.42800000E+00  5.00000000E-01  1.53300000E+04  2.29900000E+03
  5.22400000E+02  1.47300000E+02  4.75500000E+01  1.67600000E+01  6.20700000E+00
  5.22400000E+02  1.47300000E+02  4.75500000E+01  1.67600000E+01  6.20700000E+00
  6.88200000E-01  1.75200000E+00  2.38400000E-01  7.37600000E-02  3.44600000E+01
  7.74900000E+00  2.28000000E+00  7.15600000E-01  2.14000000E-01  5.97400000E-02
  2.31400000E+00  6.45000000E-01  2.14000000E-01  1.42800000E+00  5.00000000E-01
  1.14200000E+04  1.71200000E+03  3.89300000E+02  1.10000000E+02  3.55700000E+01
  1.25400000E+01  4.64400000E+00  3.89300000E+02  1.10000000E+02  3.55700000E+01
  1.25400000E+01  4.64400000E+00  5.11800000E-01  1.29300000E+00  1.78700000E-01
  5.76000000E-02  2.66300000E+01  5.94800000E+00  1.74200000E+00  5.55000000E-01
  1.72500000E-01  4.91000000E-02  1.65400000E+00  4.69000000E-01  1.51000000E-01
  1.09300000E+00  3.64000000E-01  1.53300000E+04  2.29900000E+03  5.22400000E+02
  1.47300000E+02  4.75500000E+01  1.67600000E+01  6.20700000E+00  5.22400000E+02
  1.47300000E+02  4.75500000E+01  1.67600000E+01  6.20700000E+00  6.88200000E-01
  1.75200000E+00  2.38400000E-01  7.37600000E-02  3.44600000E+01  7.74900000E+00
  2.28000000E+00  7.15600000E-01  2.14000000E-01  5.97400000E-02  2.31400000E+00
  6.45000000E-01  2.14000000E-01  1.42800000E+00  5.00000000E-01
Contraction coefficients                   R   N=         119
  2.54948632E-02  1.90362766E-01  8.52162022E-01  1.00000000E+00  1.00000000E+00
  1.00000000E+00  1.00000000E+00  1.00000000E+00  1.00000000E+00  1.00000000E+00
  1.00000000E+00  5.19808943E-04  4.02025621E-03  2.07128267E-02  8.10105536E-02
  2.35962985E-01  4.42653446E-01  3.57064423E-01 -4.42115008E-05 -1.22591041E-03
 -1.05517725E-02 -6.74452633E-02 -1.71198607E-01  1.07329856E+00  1.00000000E+00
  1.00000000E+00  1.00000000E+00  4.11634896E-02  2.57762836E-01  8.02419274E-01
  1.00000000E+00  1.00000000E+00  1.00000000E+00  1.00000000E+00  1.00000000E+00
  1.00000000E+00  1.00000000E+00  1.00000000E+00  5.19808943E-04  4.02025621E-03
  2.07128267E-02  8.10105536E-02  2.35962985E-01  4.42653446E-01  3.57064423E-01
 -4.42115008E-05 -1.22591041E-03 -1.05517725E-02 -6.74452633E-02 -1.71198607E-01
  1.07329856E+00  1.00000000E+00  1.00000000E+00  1.00000000E+00  4.11634896E-02
  2.57762836E-01  8.02419274E-01  1.00000000E+00  1.00000000E+00  1.00000000E+00
  1.00000000E+00  1.00000000E+00  1.00000000E+00  1.00000000E+00  1.00000000E+00
  5.34563860E-04  4.13435660E-03  2.12335358E-02  8.25006224E-02  2.38138871E-01
  4.42551547E-01  3.53757422E-01 -4.89867350E-05 -1.19527323E-03 -1.03490714E-02
 -6.48680190E-02 -1.71552477E-01  1.07289568E+00  1.00000000E+00  1.00000000E+00
  1.00000000E+00  3.98072123E-02  2.49002660E-01  8.10479727E-01  1.00000000E+00
  1.00000000E+00  1.00000000E+00  1.00000000E+00  1.00000000E+00  1.00000000E+00
  1.00000000E+00  1.00000000E+00  5.19808943E-04  4.02025621E-03  2.07128267E-02
  8.10105536E-02  2.35962985E-01  4.42653446E-01  3.57064423E-01 -4.42115008E-05
 -1.22591041E-03 -1.05517725E-02 -6.74452633E-02 -1.71198607E-01  1.07329856E+00
  1.00000000E+00  1.00000000E+00  1.00000000E+00  4.11634896E-02  2.57762836E-01
  8.02419274E-01  1.00000000E+00  1.00000000E+00  1.00000000E+00  1.00000000E+00
  1.00000000E+00  1.00000000E+00  1.00000000E+00  1.00000000E+00
Coordinates of each shell                  R   N=         195
  4.24917671E+00  8.20400650E-01 -4.07616537E-02  4.24917671E+00  8.20400650E-01
 -4.07616537E-02  4.24917671E+00  8.20400650E-01 -4.07616537E-02  4.24917671E+00
  8.20400650E-01 -4.07616537E-02  4.24917671E+00  8.20400650E-01 -4.07616537E-02
  4.24917671E+00  8.20400650E-01 -4.07616537E-02  4.24917671E+00  8.20400650E-01
 -4.07616537E-02  4.24917671E+00  8.20400650E-01 -4.07616537E-02  4.24917671E+00
  8.20400650E-01 -4.07616537E-02  3.02020090E+00 -5.36970092E-01 -3.15651743E-02
  3.02020090E+00 -5.36970092E-01 -3.15651743E-02  3.02020090E+00 -5.36970092E-01
 -3.15651743E-02  3.02020090E+00 -5.36970092E-01 -3.15651743E-02  3.02020090E+00
 -5.36970092E-01 -3.15651743E-02  3.02020090E+00 -5.36970092E-01 -3.15651743E-02
  3.02020090E+00 -5.36970092E-01 -3.15651743E-02  3.02020090E+00 -5.36970092E-01
 -3.15651743E-02  3.02020090E+00 -5.36970092E-01 -3.15651743E-02  3.02020090E+00
 -5.36970092E-01 -3.15651743E-02  3.02020090E+00 -5.36970092E-01 -3.15651743E-02
  3.02020090E+00 -5.36970092E-01 -3.15651743E-02  3.02020090E+00 -5.36970092E-01
 -3.15651743E-02  3.02020090E+00 -5.36970092E-01 -3.15651743E-02  7.56866373E-01
  1.02251995E+00  3.55364996E-02  7.56866373E-01  1.02251995E+00  3.55364996E-02
  7.56866373E-01  1.02251995E+00  3.55364996E-02  7.56866373E-01  1.02251995E+00
  3.55364996E-02  7.56866373E-01  1.02251995E+00  3.55364996E-02  7.56866373E-01
  1.02251995E+00  3.55364996E-02  7.56866373E-01  1.02251995E+00  3.55364996E-02
  7.56866373E-01  1.02251995E+00  3.55364996E-02  7.56866373E-01  1.02251995E+00
  3.55364996E-02  7.56866373E-01  1.02251995E+00  3.55364996E-02  7.56866373E-01
  1.02251995E+00  3.55364996E-02  7.56866373E-01  1.02251995E+00  3.55364996E-02
  7.56866373E-01  1.02251995E+00  3.55364996E-02  7.56866373E-01  1.02251995E+00
  3.55364996E-02 -1.25458685E+00 -8.62445471E-01  5.47484082E-02 -1.25458685E+00
 -8.62445471E-01  5.47484082E-02 -1.25458685E+00 -8.62445471E-01  5.47484082E-02
 -1.25458685E+00 -8.62445471E-01  5.47484082E-02 -1.25458685E+00 -8.62445471E-01
  5.47484082E-02 -1.25458685E+00 -8.62445471E-01  5.47484082E-02 -1.25458685E+00
 -8.62445471E-01  5.47484082E-02 -1.25458685E+00 -8.62445471E-01  5.47484082E-02
 -1.25458685E+00 -8.62445471E-01  5.47484082E-02 -1.25458685E+00 -8.62445471E-01
  5.47484082E-02 -1.25458685E+00 -8.62445471E-01  5.47484082E-02 -1.25458685E+00
 -8.62445471E-01  5.47484082E-02 -1.25458685E+00 -8.62445471E-01  5.47484082E-02
 -1.25458685E+00 -8.62445471E-01  5.47484082E-02 -3.21045086E+00  1.66539844E-01
 -4.67809758E-02 -3.21045086E+00  1.66539844E-01 -4.67809758E-02 -3.21045086E+00
  1.66539844E-01 -4.67809758E-02 -3.21045086E+00  1.66539844E-01 -4.67809758E-02
 -3.21045086E+00  1.66539844E-01 -4.67809758E-02 -3.21045086E+00  1.66539844E-01
 -4.67809758E-02 -3.21045086E+00  1.66539844E-01 -4.67809758E-02 -3.21045086E+00
  1.66539844E-01 -4.67809758E-02 -3.21045086E+00  1.66539844E-01 -4.67809758E-02
 -3.21045086E+00  1.66539844E-01 -4.67809758E-02 -3.21045086E+00  1.66539844E-01
 -4.67809758E-02 -3.21045086E+00  1.66539844E-01 -4.67809758E-02 -3.21045086E+00
  1.66539844E-01 -4.67809758E-02 -3.21045086E+00  1.66539844E-01 -4.67809758E-02
Num ILSW                                   I              100
ILSW                                       I   N=         100
           0           0           0           0           2           0
           0           0           0           0           0          -1
           5           0           0           0           2           0
           0           0           0           0           1           0
           1           0           0           0           0           0
           0           0      100000           0          -1           0
           0           0           0           0           0           0
           0           0           0           1           1           0
           0 -2000000000           1           0           0           0
           0           0           4          52           0           0
           0           0           0           0           0           0
           0           0           0           5           4           1
           0           0           0           0           0           0
           0           0           0           0           0           0
           0           0           0           0           0           0
           0           0           0           0           0           0
           0           0           0           0
Num RLSW                                   I               52
RLSW                                       R   N=          52
  1.00000000E+00  1.00000000E+00  1.00000000E+00  1.00000000E+00  1.00000000E+00
  0.00000000E+00  0.00000000E+00  1.00000000E+00  0.00000000E+00  0.00000000E+00
  0.00000000E+00  0.00000000E+00  1.00000000E+00  0.00000000E+00  0.00000000E+00
  0.00000000E+00  0.00000000E+00  1.00000000E+00  0.00000000E+00  0.00000000E+00
  0.00000000E+00  0.00000000E+00  1.00000000E+00  0.00000000E+00  0.00000000E+00
  0.00000000E+00  0.00000000E+00  1.00000000E+00  0.00000000E+00  0.00000000E+00
  0.00000000E+00  0.00000000E+00  1.00000000E+00  0.00000000E+00  0.00000000E+00
  0.00000000E+00  0.00000000E+00  0.00000000E+00  1.00000000E+00  1.00000000E+00
  0.00000000E+00  1.00000000E+00  0.00000000E+00  0.00000000E+00  0.00000000E+00
  0.00000000E+00  0.00000000E+00  0.00000000E+00  0.00000000E+00  0.00000000E+00
  0.00000000E+00  0.00000000E+00
MxBond                                     I                2
NBond                                      I   N=           5
           1           2           2           2           1
IBond                                      I   N=          10
           2           0           1           3           2           4
           3           5           4           0
RBond                                      R   N=          10
  1.00000000E+00  0.00000000E+00  1.00000000E+00  1.00000000E+00  1.00000000E+00
  1.00000000E+00  1.00000000E+00  2.00000000E+00  2.00000000E+00  0.00000000E+00
Virial Ratio                               R      2.002352366642649E+00
SCF Energy                                 R     -2.795016126836326E+02
MP2 Energy                                 R     -2.804466210039902E+02
Total Energy                               R     -2.804466210039902E+02
Post-SCF wavefunction norm                 R      1.584219788932208E+00
RMS Force                                  R      6.842460952556929E-04
RMS Density                                R      9.720628840214428E-09
NImag                                      I                1
Job Status                                 I                1
Nuclear derivative order                   I                2
External E-field                           R   N=          35
  0.00000000E+00  0.00000000E+00  0.00000000E+00  0.00000000E+00  0.00000000E+00
  0.00000000E+00  0.00000000E+00  0.00000000E+00  0.00000000E+00  0.00000000E+00
  0.00000000E+00  0.00000000E+00  0.00000000E+00  0.00000000E+00  0.00000000E+00
  0.00000000E+00  0.00000000E+00  0.00000000E+00  0.00000000E+00  0.00000000E+00
  0.00000000E+00  0.00000000E+00  0.00000000E+00  0.00000000E+00  0.00000000E+00
  0.00000000E+00  0.00000000E+00  0.00000000E+00  0.00000000E+00  0.00000000E+00
  0.00000000E+00  0.00000000E+00  0.00000000E+00  0.00000000E+00  0.00000000E+00
IOpCl                                      I                0
IROHF                                      I                0
Alpha Orbital Energies                     R   N=         207
 -2.06907911E+01 -2.06843570E+01 -2.06599902E+01 -1.58127934E+01 -1.62404216E+00
 -1.49572344E+00 -1.25439755E+00 -9.48064167E-01 -7.72766940E-01 -7.59165134E-01
 -7.11980209E-01 -6.79170540E-01 -6.20518439E-01 -5.89383497E-01 -4.85222281E-01
 -4.72490991E-01  2.96284863E-02  7.15917853E-02  8.59898346E-02  1.01717026E-01
  1.32646946E-01  1.35190265E-01  1.44090614E-01  1.54540144E-01  1.78136039E-01
  1.94135947E-01  1.99627576E-01  2.06532899E-01  2.20876776E-01  2.34728385E-01
  2.38207720E-01  2.65711268E-01  2.93428032E-01  3.03428445E-01  3.11182707E-01
  3.43415114E-01  3.49831099E-01  3.87207034E-01  4.21559286E-01  4.31063025E-01
  5.25979521E-01  5.30687923E-01  5.58395204E-01  5.81410186E-01  6.25994675E-01
  6.38397371E-01  6.72850951E-01  6.86233204E-01  7.06441186E-01  7.11281744E-01
  7.24715690E-01  7.29643512E-01  7.44721911E-01  7.90196847E-01  7.93685191E-01
  8.08423015E-01  8.14714813E-01  8.30320219E-01  8.68136443E-01  9.08025847E-01
  9.21930021E-01  9.26332449E-01  9.56314933E-01  9.76610757E-01  9.85138184E-01
  1.01625403E+00  1.05044375E+00  1.05516781E+00  1.08414081E+00  1.11720371E+00
  1.14037297E+00  1.19012586E+00  1.22134134E+00  1.23234402E+00  1.33851995E+00
  1.35089429E+00  1.38727965E+00  1.45242086E+00  1.48761233E+00  1.50872396E+00
  1.53806639E+00  1.56588720E+00  1.58094754E+00  1.61323886E+00  1.66358171E+00
  1.66924029E+00  1.70369182E+00  1.79212244E+00  1.82939099E+00  1.83674256E+00
  1.87928374E+00  1.91059494E+00  1.95606693E+00  1.99139359E+00  2.00700431E+00
  2.07758784E+00  2.12033273E+00  2.13119275E+00  2.15077509E+00  2.22508026E+00
  2.26407793E+00  2.26540641E+00  2.28982602E+00  2.31413249E+00  2.34465244E+00
  2.38633990E+00  2.42045574E+00  2.43179049E+00  2.45402452E+00  2.46275078E+00
  2.47719214E+00  2.50207942E+00  2.59006220E+00  2.59653233E+00  2.61950119E+00
  2.62457034E+00  2.63514815E+00  2.66703764E+00  2.75603400E+00  2.82252465E+00
  2.85441452E+00  2.88509158E+00  2.89835412E+00  2.92305123E+00  2.96031479E+00
  3.02614441E+00  3.06868874E+00  3.12177992E+00  3.20492935E+00  3.22609879E+00
  3.31581401E+00  3.34194678E+00  3.51591390E+00  3.64158669E+00  3.83742978E+00
  3.84598478E+00  4.14883086E+00  4.16238533E+00  4.18395047E+00  4.25706126E+00
  4.35174395E+00  4.39340723E+00  4.46388879E+00  4.51919725E+00  4.65992248E+00
  4.71010011E+00  4.80551643E+00  4.82444388E+00  4.82790086E+00  4.89756806E+00
  5.02293542E+00  5.07601064E+00  5.10413516E+00  5.14553503E+00  5.17907893E+00
  5.24317921E+00  5.27256875E+00  5.30676124E+00  5.32939718E+00  5.35517036E+00
  5.60616089E+00  5.67395182E+00  5.76909887E+00  5.82890515E+00  5.95775235E+00
  6.16883291E+00  6.30930406E+00  6.33773324E+00  6.39425776E+00  6.49352206E+00
  6.50539613E+00  6.61418701E+00  6.66761950E+00  6.69907115E+00  6.75715821E+00
  6.76372860E+00  6.83250311E+00  6.89818910E+00  7.01406054E+00  7.05480532E+00
  7.05812187E+00  7.09019736E+00  7.12476817E+00  7.15112174E+00  7.18155822E+00
  7.22522471E+00  7.24185846E+00  7.30760923E+00  7.32574695E+00  7.34786645E+00
  7.39935033E+00  7.43177969E+00  7.48396259E+00  7.59674474E+00  7.62520337E+00
  7.62844006E+00  7.66753441E+00  7.78959339E+00  7.88657019E+00  8.09239219E+00
  8.31379840E+00  8.40891468E+00  8.54380291E+00  1.33922291E+01  1.43917060E+01
  1.51625301E+01  1.61508689E+01
Alpha MO coefficients                      R   N=       42849
  9.19761070E-05 -6.43927879E-04 -7.29266253E-04 -4.65912229E-06 -3.32373731E-05
 -8.87432851E-06  1.69066828E-07  1.28642872E-06  7.52371788E-05 -1.83914093E-06
  9.18140108E-05 -2.27305622E-05 -1.55089539E-06  3.18402765E-05  2.32501659E-06
 -1.76144007E-06  5.72593079E-06  5.36677116E-05 -5.40741839E-06 -1.02923084E-06
 -3.01622965E-06  7.22641060E-05  1.67126385E-04  4.59784305E-03 -2.81937507E-04
  1.51587064E-05  1.55870702E-03  1.82620404E-03  8.97929403E-05 -5.71432439E-05
 -3.05498375E-06 -5.17074937E-04  3.38290546E-04  1.69943908E-05 -4.09307241E-04
  1.29577683E-03  2.30262744E-05 -2.86233875E-04  2.91455570E-04  6.31547459E-06
  2.87652250E-05  2.21383535E-06 -1.94585178E-06 -1.02405358E-05  5.34171210E-05
 -3.77559820E-04 -2.78811720E-05  2.29758766E-05  1.85062650E-04 -7.16764827E-04
 -4.46588084E-04 -1.49439185E-05  1.54670655E-05  5.48413263E-05 -2.35115548E-04
 -4.41095249E-06  7.17673486E-05 -3.72679459E-05  2.35302543E-06 -6.13496771E-06
  3.35262470E-05  1.04247000E-04 -1.76392073E-05  1.87252536E-04 -1.73404812E-04
  2.46466736E-06 -2.01010495E-05  1.65521468E-04  3.16121496E-04  9.76910662E-01
 -9.21667172E-03  4.33188085E-02  2.04352879E-03 -9.19161505E-04  3.93693174E-04
 -1.97832896E-03 -2.23320375E-05 -3.29853187E-04  1.96686917E-03  2.69849989E-05
 -6.26739030E-04 -9.83700734E-04  1.06514435E-05 -1.15711205E-04  7.10715848E-05
  3.63845588E-06  4.63621234E-05  2.30973463E-06 -2.07163098E-06  1.01320498E-05
  3.98923187E-05  7.46459123E-04  3.76604656E-05 -1.60660751E-05 -4.39709802E-04
  1.08489379E-04 -3.59023212E-04 -3.75766747E-06  1.04606328E-06 -4.50563477E-04
  1.90393439E-04 -2.38639686E-06  8.93720598E-06 -6.74494288E-05  2.19819275E-06
 -4.16755469E-06 -1.88152363E-06  4.19553215E-05 -1.56809733E-06  3.14887624E-05
  3.70713058E-06 -1.59118671E-06 -6.65381745E-06 -2.89259208E-05  3.34181443E-04
  3.92237105E-05  4.68206462E-05 -2.64275095E-04 -7.06583333E-04 -1.46455385E-04
 -7.96427334E-05 -6.22354540E-05 -1.41869663E-06  6.38324916E-04  4.09503809E-04
  1.02323297E-05 -9.57830449E-04  1.07155646E-04  1.60637771E-05 -1.16789908E-04
  5.10947455E-05  9.73608398E-06 -1.80795081E-05 -2.04018581E-06 -1.05857337E-06
  5.68555726E-06  3.27143158E-05 -3.29207615E-04 -6.18214922E-06  5.09691120E-06
 -1.18606404E-04  8.29992241E-04 -3.62764811E-05  1.43041821E-05  8.41343729E-06
 -8.12748542E-05 -1.25880563E-04  4.08121522E-07 -8.80145985E-05 -8.41450400E-05
  1.51832706E-06 -4.00840039E-06 -1.08975556E-04  1.05156318E-04  9.30357163E-06
 -8.87188910E-05 -1.24810027E-04 -1.32089875E-05 -9.40680547E-06 -4.08441276E-04
  9.84627233E-05 -2.63518581E-03  1.21006887E-04 -1.25984671E-04 -2.41269419E-04
  1.38993204E-04 -2.30314850E-05 -1.75319593E-05 -1.61526777E-06  1.52714703E-04
  9.05294230E-05  1.19293983E-05  3.11005825E-04  2.59982488E-05 -1.14628435E-05
  1.16676302E-04 -5.54848796E-05 -7.06755082E-06 -3.41587793E-06 -1.01333785E-06
  2.19842989E-07 -4.13823952E-06  1.73619671E-05  1.09028614E-06  9.43995151E-06
  1.91514148E-06  1.07846698E-04 -5.06538526E-05 -1.00366305E-04 -3.54670062E-06
 -6.62842191E-06  2.04890557E-04 -1.10088045E-04  1.03533658E-06  1.05177288E-05
 -1.20239195E-05  9.05091670E-07  1.92140290E-06 -9.80271541E-06  7.91238333E-06
 -1.80169489E-06  2.55727668E-07  5.56149812E-05 -2.32455109E-06 -6.49495018E-06
  5.74332914E-05 -1.08284447E-04  3.85543780E-05 -9.76310218E-04 -4.82067117E-04
 -1.05886670E-05 -8.48262773E-06  2.57495902E-05  2.89622898E-07  1.60934601E-04
  2.18024015E-04 -2.45376005E-06  4.61954241E-05  1.31195743E-04  1.18824613E-06
  2.56843801E-05  2.87319127E-08  4.56353280E-07  1.40980517E-05 -8.35826663E-06
 -2.70776269E-05 -2.96841867E-07  9.25766886E-07  3.63682761E-05 -4.07016860E-07
  1.12348501E-04  8.38166704E-05 -2.77202212E-05  7.38696425E-04  6.43128614E-04
  9.61461918E-06 -3.95303843E-06  4.33683135E-08 -4.90835676E-05  5.49798598E-05
 -1.16478659E-06  7.99224891E-04  5.19304435E-04  1.86976990E-05  5.06169285E-05
  6.19130439E-05  9.30733942E-06 -2.28373756E-06  7.40838315E-07  5.15129940E-08
 -5.70615496E-06 -1.59166860E-06 -3.52309211E-05 -4.24142456E-06 -2.67025355E-07
  7.32776931E-05  4.24341620E-05 -2.13800942E-05 -1.42527929E-05  1.45713261E-06
 -2.31140220E-04  2.05524977E-04  3.76046230E-07  1.10497296E-05 -5.52709606E-07
 -3.64613998E-07 -4.91458197E-07 -1.82867845E-05  3.53972602E-06 -2.69924913E-06
 -5.54162039E-05 -6.77850314E-06  6.26456105E-06 -5.47898843E-07  4.45016358E-05
  6.59851575E-05  2.67375445E-03  3.82197795E-05  9.39526205E-05 -7.31531778E-05
 -4.62675945E-04  1.53112603E-05  8.13853017E-06 -5.19398042E-07 -8.32902783E-05
 -6.88507076E-06  1.67914149E-06  7.92085956E-05 -2.88555689E-04 -1.98310076E-05
 -1.86485121E-04  5.88219451E-05 -5.71223046E-06 -8.68814280E-06  1.59414346E-06
 -4.99610889E-08  2.54307700E-05 -1.55389937E-05  4.57379861E-06 -5.80756183E-06
  9.31222144E-08 -7.86398851E-05  9.84701699E-05 -4.85921624E-06 -8.99929058E-06
  1.55511283E-05 -2.60197321E-04  1.51005233E-04 -1.27231263E-06  2.26165039E-06
 -2.40833999E-06 -1.15513401E-06 -3.83282785E-07 -1.32656529E-05  2.94491527E-06
  3.18724496E-07 -3.49816957E-05  3.04640709E-05  8.82151116E-06  5.43618341E-06
  2.01889648E-04  9.11911330E-06  2.58613812E-04  1.46468975E-03 -7.80320841E-05
 -1.53819035E-03  3.98128897E-04 -1.15921016E-04  8.58937420E-05 -7.65716404E-06
 -1.91753179E-03  9.16923337E-04 -9.06633097E-05  1.29027825E-03 -4.40554789E-06
  2.75251514E-05 -1.03910142E-04  1.46185388E-04 -5.37403441E-06 -1.22516576E-04
  1.94114175E-05 -8.85130355E-06  1.60722026E-04 -2.04542194E-04 -4.38821306E-04
  7.24578599E-05 -4.51647189E-05  1.99364973E-04 -8.76111063E-04  1.07016947E-05
 -2.05504564E-05  3.28003124E-06 -2.14941481E-04  2.87977289E-04 -2.49028668E-06
  8.07903415E-06  1.30051359E-05  2.45640842E-06 -7.71122950E-07  6.18139366E-06
 -2.22273127E-05  2.94117916E-05  8.76809544E-05 -1.54054730E-04 -1.43620655E-05
  3.11509544E-05  1.19269161E-04  2.12432446E-04  9.76649024E-01 -9.84925425E-03
  4.35678060E-02  4.50265300E-03 -4.45309310E-04  2.01046083E-03 -8.89680444E-04
  1.03457430E-04 -2.27302603E-03  9.31727049E-04 -1.06236625E-04  9.13323698E-04
 -6.79534085E-04  6.96291683E-05 -2.14190239E-05 -3.64250710E-05 -3.46582711E-06
 -2.31503696E-04  1.58115917E-05 -1.71850300E-05  6.05503872E-05 -8.83872873E-05
  3.88209317E-04 -6.81053396E-05  1.66653465E-05 -6.43004398E-04  6.73792674E-04
 -1.51863683E-04  2.52558591E-05 -1.88922028E-05  9.08595138E-05 -2.39514461E-04
  5.99164674E-06  5.19396219E-05 -1.64417236E-05 -2.67932758E-06  5.52726559E-06
 -5.15265646E-06  2.50787065E-05  1.51772106E-05  1.15517746E-04 -7.46150868E-05
 -1.71919917E-05  1.39372255E-05 -6.90065153E-05  2.25051333E-04  4.74844228E-04
  2.05944472E-03  1.16463718E-04  1.49473580E-05 -1.79917138E-04 -1.73759521E-04
  2.02896359E-06 -6.69315160E-04 -1.09060991E-03 -2.38616428E-06  4.72561254E-05
 -4.56392839E-04 -9.70226779E-06 -2.58264900E-06 -1.80962200E-06  9.39954346E-07
  3.68642795E-05 -6.81875767E-05 -1.60257568E-04  3.77375508E-06 -3.14477974E-06
 -1.78872844E-04  5.06982148E-04  9.76830021E-01 -9.16324542E-03  4.34497108E-02
  1.66688856E-04 -1.13903009E-03 -3.96001142E-04  2.08857195E-03  3.73821726E-05
  4.99437951E-04 -1.96914605E-03 -3.67122572E-05 -9.73611384E-04 -3.55869142E-04
  1.57984883E-05  2.65374457E-05 -5.82605704E-05 -2.66504282E-06  2.94024020E-05
  4.09072239E-06 -2.67712989E-06 -3.71208953E-05  1.12045843E-04  7.56458087E-04
  3.62540238E-05 -1.68933866E-05 -2.83686599E-04  1.24453430E-04 -2.66490917E-04
 -7.78132469E-06  8.86393504E-06  1.71341011E-04 -1.24175560E-04  3.92082817E-06
 -5.06280353E-05  3.91048641E-05 -1.18606140E-06  2.55083735E-06  2.97319241E-06