title                                                                   
Freq      RMP2-FC                                                     Aug-CC-pVTZ         
Number of atoms                            I                5
Info1-9                                    I   N=           9
          33          24           0           0           0         100
           6           2           1
Full Title                                 C   N=           1
title       
Route                                      C   N=           4
#p freq mp2/aug-cc-pvtz density=current         
Charge                                     I                0
Multiplicity                               I                1
Number of electrons                        I               32
Number of alpha electrons                  I               16
Number of beta electrons                   I               16
Number of basis functions                  I              207
Number of independent functions            I              207
Number of point charges in /Mol/           I                0
Number of translation vectors              I                0
Atomic numbers                             I   N=           5
           1           8           8           7           8
Nuclear charges                            R   N=           5
  1.00000000E+00  8.00000000E+00  8.00000000E+00  7.00000000E+00  8.00000000E+00
Current cartesian coordinates              R   N=          15
  2.88685476E+00  3.20588945E+00  7.02739773E-32  2.71870059E+00  1.38252837E+00
  2.14243155E-32  2.29150371E-17  1.27210234E+00  2.06999708E-32 -4.77351002E-01
 -1.44295639E+00 -8.53705321E-33 -2.66187530E+00 -1.79278005E+00  5.10776501E-32
Number of symbols in /Mol/                 I                0
Force Field                                I                0
Atom Types                                 C   N=           5
                                                            
Int Atom Types                             I   N=           5
           0           0           0           0           0
MM charges                                 R   N=           5
  0.00000000E+00  0.00000000E+00  0.00000000E+00  0.00000000E+00  0.00000000E+00
Integer atomic weights                     I   N=           5
           1          16          16          14          16
Real atomic weights                        R   N=           5
  1.00782504E+00  1.59949146E+01  1.59949146E+01  1.40030740E+01  1.59949146E+01
Atom fragment info                         I   N=           5
           0           0           0           0           0
Atom residue num                           I   N=           5
           0           0           0           0           0
Nuclear spins                              I   N=           5
           1           0           0           2           0
Nuclear ZEff                               R   N=           5
 -1.00000000E+00 -5.60000000E+00 -5.60000000E+00 -4.55000000E+00 -5.60000000E+00
Nuclear ZNuc                               R   N=           5
  1.00000000E+00  8.00000000E+00  8.00000000E+00  7.00000000E+00  8.00000000E+00
Nuclear QMom                               R   N=           5
  0.00000000E+00  0.00000000E+00  0.00000000E+00  2.04400000E+00  0.00000000E+00
Nuclear GFac                               R   N=           5
  2.79284600E+00  0.00000000E+00  0.00000000E+00  4.03761000E-01  0.00000000E+00
MicOpt                                     I   N=           5
          -1          -1          -1          -1          -1
Number of residues                         I                0
Number of secondary structures             I                0
SymInf integers                            I   N=          26
           1           2           1           1           1           1
           1          -1           0           0           0           0
           0           0           0           0           0           0
           0           0           0           0           0           0
           0           0
RotTr to input orientation                 R   N=          12
 -9.95774477E-01 -9.77488696E-17 -9.18324043E-02  9.18324043E-02 -7.37750385E-17
 -9.95774477E-01  9.05608904E-17 -1.00000000E+00  8.24398142E-17  2.58025175E+00
  0.00000000E+00  3.45744971E+00
Number of contracted shells                I               65
Number of primitive shells                 I              119
Pure/Cartesian d shells                    I                0
Pure/Cartesian f shells                    I                0
Highest angular momentum                   I                3
Largest degree of contraction              I                7
Shell types                                I   N=          65
           0           0           0           0           1           1
           1          -2          -2           0           0           0
           0           0           1           1           1           1
          -2          -2          -2          -3          -3           0
           0           0           0           0           1           1
           1           1          -2          -2          -2          -3
          -3           0           0           0           0           0
           1           1           1           1          -2          -2
          -2          -3          -3           0           0           0
           0           0           1           1           1           1
          -2          -2          -2          -3          -3
Number of primitives per shell             I   N=          65
           3           1           1           1           1           1
           1           1           1           7           6           1
           1           1           3           1           1           1
           1           1           1           1           1           7
           6           1           1           1           3           1
           1           1           1           1           1           1
           1           7           6           1           1           1
           3           1           1           1           1           1
           1           1           1           7           6           1
           1           1           3           1           1           1
           1           1           1           1           1
Shell to atom map                          I   N=          65
           1           1           1           1           1           1
           1           1           1           2           2           2
           2           2           2           2           2           2
           2           2           2           2           2           3
           3           3           3           3           3           3
           3           3           3           3           3           3
           3           4           4           4           4           4
           4           4           4           4           4           4
           4           4           4           5           5           5
           5           5           5           5           5           5
           5           5           5           5           5
Primitive exponents                        R   N=         119
  3.38700000E+01  5.09500000E+00  1.15900000E+00  3.25800000E-01  1.02700000E-01
  2.52600000E-02  1.40700000E+00  3.88000000E-01  1.02000000E-01  1.05700000E+00
  2.47000000E-01  1.53300000E+04  2.29900000E+03  5.22400000E+02  1.47300000E+02
  4.75500000E+01  1.67600000E+01  6.20700000E+00  5.22400000E+02  1.47300000E+02
  4.75500000E+01  1.67600000E+01  6.20700000E+00  6.88200000E-01  1.75200000E+00
  2.38400000E-01  7.37600000E-02  3.44600000E+01  7.74900000E+00  2.28000000E+00
  7.15600000E-01  2.14000000E-01  5.97400000E-02  2.31400000E+00  6.45000000E-01
  2.14000000E-01  1.42800000E+00  5.00000000E-01  1.53300000E+04  2.29900000E+03
  5.22400000E+02  1.47300000E+02  4.75500000E+01  1.67600000E+01  6.20700000E+00
  5.22400000E+02  1.47300000E+02  4.75500000E+01  1.67600000E+01  6.20700000E+00
  6.88200000E-01  1.75200000E+00  2.38400000E-01  7.37600000E-02  3.44600000E+01
  7.74900000E+00  2.28000000E+00  7.15600000E-01  2.14000000E-01  5.97400000E-02
  2.31400000E+00  6.45000000E-01  2.14000000E-01  1.42800000E+00  5.00000000E-01
  1.14200000E+04  1.71200000E+03  3.89300000E+02  1.10000000E+02  3.55700000E+01
  1.25400000E+01  4.64400000E+00  3.89300000E+02  1.10000000E+02  3.55700000E+01
  1.25400000E+01  4.64400000E+00  5.11800000E-01  1.29300000E+00  1.78700000E-01
  5.76000000E-02  2.66300000E+01  5.94800000E+00  1.74200000E+00  5.55000000E-01
  1.72500000E-01  4.91000000E-02  1.65400000E+00  4.69000000E-01  1.51000000E-01
  1.09300000E+00  3.64000000E-01  1.53300000E+04  2.29900000E+03  5.22400000E+02
  1.47300000E+02  4.75500000E+01  1.67600000E+01  6.20700000E+00  5.22400000E+02
  1.47300000E+02  4.75500000E+01  1.67600000E+01  6.20700000E+00  6.88200000E-01
  1.75200000E+00  2.38400000E-01  7.37600000E-02  3.44600000E+01  7.74900000E+00
  2.28000000E+00  7.15600000E-01  2.14000000E-01  5.97400000E-02  2.31400000E+00
  6.45000000E-01  2.14000000E-01  1.42800000E+00  5.00000000E-01
Contraction coefficients                   R   N=         119
  2.54948632E-02  1.90362766E-01  8.52162022E-01  1.00000000E+00  1.00000000E+00
  1.00000000E+00  1.00000000E+00  1.00000000E+00  1.00000000E+00  1.00000000E+00
  1.00000000E+00  5.19808943E-04  4.02025621E-03  2.07128267E-02  8.10105536E-02
  2.35962985E-01  4.42653446E-01  3.57064423E-01 -4.42115008E-05 -1.22591041E-03
 -1.05517725E-02 -6.74452633E-02 -1.71198607E-01  1.07329856E+00  1.00000000E+00
  1.00000000E+00  1.00000000E+00  4.11634896E-02  2.57762836E-01  8.02419274E-01
  1.00000000E+00  1.00000000E+00  1.00000000E+00  1.00000000E+00  1.00000000E+00
  1.00000000E+00  1.00000000E+00  1.00000000E+00  5.19808943E-04  4.02025621E-03
  2.07128267E-02  8.10105536E-02  2.35962985E-01  4.42653446E-01  3.57064423E-01
 -4.42115008E-05 -1.22591041E-03 -1.05517725E-02 -6.74452633E-02 -1.71198607E-01
  1.07329856E+00  1.00000000E+00  1.00000000E+00  1.00000000E+00  4.11634896E-02
  2.57762836E-01  8.02419274E-01  1.00000000E+00  1.00000000E+00  1.00000000E+00
  1.00000000E+00  1.00000000E+00  1.00000000E+00  1.00000000E+00  1.00000000E+00
  5.34563860E-04  4.13435660E-03  2.12335358E-02  8.25006224E-02  2.38138871E-01
  4.42551547E-01  3.53757422E-01 -4.89867350E-05 -1.19527323E-03 -1.03490714E-02
 -6.48680190E-02 -1.71552477E-01  1.07289568E+00  1.00000000E+00  1.00000000E+00
  1.00000000E+00  3.98072123E-02  2.49002660E-01  8.10479727E-01  1.00000000E+00
  1.00000000E+00  1.00000000E+00  1.00000000E+00  1.00000000E+00  1.00000000E+00
  1.00000000E+00  1.00000000E+00  5.19808943E-04  4.02025621E-03  2.07128267E-02
  8.10105536E-02  2.35962985E-01  4.42653446E-01  3.57064423E-01 -4.42115008E-05
 -1.22591041E-03 -1.05517725E-02 -6.74452633E-02 -1.71198607E-01  1.07329856E+00
  1.00000000E+00  1.00000000E+00  1.00000000E+00  4.11634896E-02  2.57762836E-01
  8.02419274E-01  1.00000000E+00  1.00000000E+00  1.00000000E+00  1.00000000E+00
  1.00000000E+00  1.00000000E+00  1.00000000E+00  1.00000000E+00
Coordinates of each shell                  R   N=         195
  2.88685476E+00  3.20588945E+00 -3.36170290E-32  2.88685476E+00  3.20588945E+00
 -3.36170290E-32  2.88685476E+00  3.20588945E+00 -3.36170290E-32  2.88685476E+00
  3.20588945E+00 -3.36170290E-32  2.88685476E+00  3.20588945E+00 -3.36170290E-32
  2.88685476E+00  3.20588945E+00 -3.36170290E-32  2.88685476E+00  3.20588945E+00
 -3.36170290E-32  2.88685476E+00  3.20588945E+00 -3.36170290E-32  2.88685476E+00
  3.20588945E+00 -3.36170290E-32  2.71870059E+00  1.38252837E+00 -4.17453690E-32
  2.71870059E+00  1.38252837E+00 -4.17453690E-32  2.71870059E+00  1.38252837E+00
 -4.17453690E-32  2.71870059E+00  1.38252837E+00 -4.17453690E-32  2.71870059E+00
  1.38252837E+00 -4.17453690E-32  2.71870059E+00  1.38252837E+00 -4.17453690E-32
  2.71870059E+00  1.38252837E+00 -4.17453690E-32  2.71870059E+00  1.38252837E+00
 -4.17453690E-32  2.71870059E+00  1.38252837E+00 -4.17453690E-32  2.71870059E+00
  1.38252837E+00 -4.17453690E-32  2.71870059E+00  1.38252837E+00 -4.17453690E-32
  2.71870059E+00  1.38252837E+00 -4.17453690E-32  2.71870059E+00  1.38252837E+00
 -4.17453690E-32  2.71870059E+00  1.38252837E+00 -4.17453690E-32  1.41400469E-17
  1.27210234E+00  7.83993594E-33  1.41400469E-17  1.27210234E+00  7.83993594E-33
  1.41400469E-17  1.27210234E+00  7.83993594E-33  1.41400469E-17  1.27210234E+00
  7.83993594E-33  1.41400469E-17  1.27210234E+00  7.83993594E-33  1.41400469E-17
  1.27210234E+00  7.83993594E-33  1.41400469E-17  1.27210234E+00  7.83993594E-33
  1.41400469E-17  1.27210234E+00  7.83993594E-33  1.41400469E-17  1.27210234E+00
  7.83993594E-33  1.41400469E-17  1.27210234E+00  7.83993594E-33  1.41400469E-17
  1.27210234E+00  7.83993594E-33  1.41400469E-17  1.27210234E+00  7.83993594E-33
  1.41400469E-17  1.27210234E+00  7.83993594E-33  1.41400469E-17  1.27210234E+00
  7.83993594E-33 -4.77351002E-01 -1.44295639E+00 -6.71972627E-35 -4.77351002E-01
 -1.44295639E+00 -6.71972627E-35 -4.77351002E-01 -1.44295639E+00 -6.71972627E-35
 -4.77351002E-01 -1.44295639E+00 -6.71972627E-35 -4.77351002E-01 -1.44295639E+00
 -6.71972627E-35 -4.77351002E-01 -1.44295639E+00 -6.71972627E-35 -4.77351002E-01
 -1.44295639E+00 -6.71972627E-35 -4.77351002E-01 -1.44295639E+00 -6.71972627E-35
 -4.77351002E-01 -1.44295639E+00 -6.71972627E-35 -4.77351002E-01 -1.44295639E+00
 -6.71972627E-35 -4.77351002E-01 -1.44295639E+00 -6.71972627E-35 -4.77351002E-01
 -1.44295639E+00 -6.71972627E-35 -4.77351002E-01 -1.44295639E+00 -6.71972627E-35
 -4.77351002E-01 -1.44295639E+00 -6.71972627E-35 -2.66187530E+00 -1.79278005E+00
  3.81663593E-32 -2.66187530E+00 -1.79278005E+00  3.81663593E-32 -2.66187530E+00
 -1.79278005E+00  3.81663593E-32 -2.66187530E+00 -1.79278005E+00  3.81663593E-32
 -2.66187530E+00 -1.79278005E+00  3.81663593E-32 -2.66187530E+00 -1.79278005E+00
  3.81663593E-32 -2.66187530E+00 -1.79278005E+00  3.81663593E-32 -2.66187530E+00
 -1.79278005E+00  3.81663593E-32 -2.66187530E+00 -1.79278005E+00  3.81663593E-32
 -2.66187530E+00 -1.79278005E+00  3.81663593E-32 -2.66187530E+00 -1.79278005E+00
  3.81663593E-32 -2.66187530E+00 -1.79278005E+00  3.81663593E-32 -2.66187530E+00
 -1.79278005E+00  3.81663593E-32 -2.66187530E+00 -1.79278005E+00  3.81663593E-32
Num ILSW                                   I              100
ILSW                                       I   N=         100
           0           0           0           0           2           0
           0           0           0           0           0          -1
           5           0           0           0           2           0
           0           0           0           0           1           0
           1           0           0           0           0           0
           0           0      100000           0          -1           0
           0           0           0           0           0           0
           0           0           0           1           1           0
           0 -2000000000           1           0           0           0
           0           0           4          52           0           0
           0           0           0           0           0           0
           0           0           0           5           4           1
           0           0           0           0           0           0
           0           0           0           0           0           0
           0           0           0           0           0           0
           0           0           0           0           0           0
           0           0           0           0
Num RLSW                                   I               52
RLSW                                       R   N=          52
  1.00000000E+00  1.00000000E+00  1.00000000E+00  1.00000000E+00  1.00000000E+00
  0.00000000E+00  0.00000000E+00  1.00000000E+00  0.00000000E+00  0.00000000E+00
  0.00000000E+00  0.00000000E+00  1.00000000E+00  0.00000000E+00  0.00000000E+00
  0.00000000E+00  0.00000000E+00  1.00000000E+00  0.00000000E+00  0.00000000E+00
  0.00000000E+00  0.00000000E+00  1.00000000E+00  0.00000000E+00  0.00000000E+00
  0.00000000E+00  0.00000000E+00  1.00000000E+00  0.00000000E+00  0.00000000E+00
  0.00000000E+00  0.00000000E+00  1.00000000E+00  0.00000000E+00  0.00000000E+00
  0.00000000E+00  0.00000000E+00  0.00000000E+00  1.00000000E+00  1.00000000E+00
  0.00000000E+00  1.00000000E+00  0.00000000E+00  0.00000000E+00  0.00000000E+00
  0.00000000E+00  0.00000000E+00  0.00000000E+00  0.00000000E+00  0.00000000E+00
  0.00000000E+00  0.00000000E+00
MxBond                                     I                2
NBond                                      I   N=           5
           1           2           2           2           1
IBond                                      I   N=          10
           2           0           1           3           2           4
           3           5           4           0
RBond                                      R   N=          10
  1.00000000E+00  0.00000000E+00  1.00000000E+00  1.00000000E+00  1.00000000E+00
  1.00000000E+00  1.00000000E+00  2.00000000E+00  2.00000000E+00  0.00000000E+00
Virial Ratio                               R      2.002262073236919E+00
SCF Energy                                 R     -2.795027999304837E+02
MP2 Energy                                 R     -2.804466244716934E+02
Total Energy                               R     -2.804466244716934E+02
Post-SCF wavefunction norm                 R      1.583379172034912E+00
RMS Force                                  R      2.712757837987992E-03
RMS Density                                R      3.653380403148839E-09
NImag                                      I                1
Job Status                                 I                1
Nuclear derivative order                   I                2
External E-field                           R   N=          35
  0.00000000E+00  0.00000000E+00  0.00000000E+00  0.00000000E+00  0.00000000E+00
  0.00000000E+00  0.00000000E+00  0.00000000E+00  0.00000000E+00  0.00000000E+00
  0.00000000E+00  0.00000000E+00  0.00000000E+00  0.00000000E+00  0.00000000E+00
  0.00000000E+00  0.00000000E+00  0.00000000E+00  0.00000000E+00  0.00000000E+00
  0.00000000E+00  0.00000000E+00  0.00000000E+00  0.00000000E+00  0.00000000E+00
  0.00000000E+00  0.00000000E+00  0.00000000E+00  0.00000000E+00  0.00000000E+00
  0.00000000E+00  0.00000000E+00  0.00000000E+00  0.00000000E+00  0.00000000E+00
IOpCl                                      I                0
IROHF                                      I                0
Alpha Orbital Energies                     R   N=         207
 -2.06900222E+01 -2.06840250E+01 -2.06586812E+01 -1.58125209E+01 -1.62453420E+00
 -1.50183292E+00 -1.25170478E+00 -9.48280903E-01 -7.74431339E-01 -7.60421940E-01
 -7.13227407E-01 -6.79438733E-01 -6.21895996E-01 -5.91414939E-01 -4.82473019E-01
 -4.72136933E-01  2.96510157E-02  7.16949755E-02  8.62938370E-02  1.01775415E-01
  1.33942768E-01  1.34606097E-01  1.44158815E-01  1.54597069E-01  1.78218958E-01
  1.94034629E-01  1.99746909E-01  2.06491428E-01  2.22150031E-01  2.37503203E-01
  2.42409256E-01  2.66187499E-01  2.93557120E-01  3.04006738E-01  3.10838461E-01
  3.44436622E-01  3.50326465E-01  3.87520385E-01  4.22808985E-01  4.31896325E-01
  5.27584100E-01  5.29567050E-01  5.58751887E-01  5.82061407E-01  6.26243457E-01
  6.38188080E-01  6.74391279E-01  6.84267956E-01  7.07612131E-01  7.10705373E-01
  7.24928994E-01  7.29025507E-01  7.44537831E-01  7.92189720E-01  7.92616155E-01
  8.10314020E-01  8.12982626E-01  8.31679727E-01  8.68392186E-01  9.09806074E-01
  9.22228055E-01  9.27596544E-01  9.55983153E-01  9.78298843E-01  9.85603115E-01
  1.01653235E+00  1.05303237E+00  1.05448906E+00  1.08381715E+00  1.11929614E+00
  1.14345551E+00  1.19053734E+00  1.22076205E+00  1.23376606E+00  1.33922488E+00
  1.35134505E+00  1.38638198E+00  1.45396735E+00  1.48755545E+00  1.50788422E+00
  1.53890732E+00  1.56812726E+00  1.58068236E+00  1.61417644E+00  1.66581982E+00
  1.67147908E+00  1.70353957E+00  1.79492658E+00  1.83241634E+00  1.83503477E+00
  1.87983677E+00  1.91141523E+00  1.95632508E+00  1.99403557E+00  2.00423038E+00
  2.07853399E+00  2.12386227E+00  2.13227709E+00  2.15358577E+00  2.22518231E+00
  2.26581846E+00  2.26770906E+00  2.29048052E+00  2.31604178E+00  2.34844880E+00
  2.38436302E+00  2.42678295E+00  2.43112498E+00  2.45515741E+00  2.46264470E+00
  2.47860812E+00  2.50304133E+00  2.59138447E+00  2.59836877E+00  2.62331149E+00
  2.62845492E+00  2.63909446E+00  2.67363079E+00  2.75853755E+00  2.82565369E+00
  2.85983348E+00  2.89176754E+00  2.90100270E+00  2.92910129E+00  2.96166260E+00
  3.03434533E+00  3.06800835E+00  3.11847255E+00  3.22027689E+00  3.23631638E+00
  3.32150475E+00  3.33608302E+00  3.52295028E+00  3.64606107E+00  3.83859581E+00
  3.84809974E+00  4.15148212E+00  4.16838674E+00  4.18602294E+00  4.25950489E+00
  4.35545999E+00  4.39661097E+00  4.47847485E+00  4.51707276E+00  4.66417207E+00
  4.71858499E+00  4.80624726E+00  4.82307496E+00  4.83040093E+00  4.89708166E+00
  5.02449202E+00  5.07808193E+00  5.10629559E+00  5.14441727E+00  5.17973459E+00
  5.24461076E+00  5.27235740E+00  5.30871661E+00  5.33179507E+00  5.35897306E+00
  5.61472500E+00  5.67389969E+00  5.77380170E+00  5.85327931E+00  5.96430036E+00
  6.17222690E+00  6.28534530E+00  6.34062226E+00  6.39110044E+00  6.49256975E+00
  6.50519583E+00  6.60955206E+00  6.65829294E+00  6.69772940E+00  6.75660718E+00
  6.77057912E+00  6.83297571E+00  6.89978545E+00  7.02590906E+00  7.06646268E+00
  7.07421491E+00  7.10284774E+00  7.12684852E+00  7.16148286E+00  7.18756727E+00
  7.22902382E+00  7.24718265E+00  7.30912428E+00  7.32566310E+00  7.34785436E+00
  7.40310643E+00  7.45055065E+00  7.48612699E+00  7.61885920E+00  7.62341426E+00
  7.63379684E+00  7.67106232E+00  7.80499189E+00  7.89085866E+00  8.11736137E+00
  8.33379141E+00  8.42402178E+00  8.54629277E+00  1.34371417E+01  1.44135015E+01
  1.51825485E+01  1.61544927E+01
Alpha MO coefficients                      R   N=       42849
  8.73473857E-05 -6.25827377E-04 -6.97904218E-04 -1.04798792E-06 -1.69955265E-05
 -2.58339902E-05  0.00000000E+00 -3.85117127E-05  3.96069287E-05  0.00000000E+00
  8.38662480E-05  2.32405352E-05  0.00000000E+00  2.85067734E-05  0.00000000E+00
  0.00000000E+00 -5.20380808E-05  1.88669774E-05 -9.58187469E-06  0.00000000E+00
  0.00000000E+00 -1.44807819E-04  1.17220800E-04  4.71647826E-03 -2.61151846E-04
  4.08329547E-06  1.67863264E-03  1.90456526E-03  1.12709322E-04  8.54366681E-06
  0.00000000E+00 -6.90633373E-04 -4.66946796E-05  0.00000000E+00 -1.21205127E-03
  7.76167868E-04  0.00000000E+00 -4.23258519E-04  5.60499184E-05  0.00000000E+00
  2.48041446E-05  0.00000000E+00  0.00000000E+00 -4.64344210E-05  5.53358432E-06
 -3.95762264E-04  0.00000000E+00  0.00000000E+00  7.73635792E-04 -2.31052816E-05
 -4.59473416E-04  0.00000000E+00  0.00000000E+00  2.54608028E-04 -1.03635991E-05
  0.00000000E+00  8.40637660E-05  1.32195657E-05  0.00000000E+00  0.00000000E+00
 -1.15008564E-04 -5.59467391E-06  0.00000000E+00  2.55170993E-04 -2.52702057E-05
  0.00000000E+00  0.00000000E+00 -3.48463643E-04  3.58066827E-05  9.76898414E-01
 -9.22035581E-03  4.33451766E-02  1.87728017E-03 -1.00630647E-03  1.53796586E-03
 -1.34135799E-03  0.00000000E+00 -1.50045821E-03  1.36658211E-03  0.00000000E+00
 -5.23233002E-07 -1.16606492E-03  0.00000000E+00 -1.55472878E-04 -1.47703782E-05
  0.00000000E+00  4.26487064E-05  0.00000000E+00  0.00000000E+00 -2.89688032E-05
  2.15694209E-05  7.65680597E-04  0.00000000E+00  0.00000000E+00 -2.61320023E-04
 -3.97734864E-04 -3.46659603E-04  0.00000000E+00  0.00000000E+00 -3.31878462E-04
 -3.84238279E-04  0.00000000E+00  5.03611200E-05 -4.78062157E-05  0.00000000E+00
  0.00000000E+00 -4.16226522E-05 -1.72524311E-05  0.00000000E+00  3.22759857E-05
  2.08927649E-05  0.00000000E+00  0.00000000E+00 -3.17297579E-04 -1.42900982E-04
  3.89951954E-05  4.61077140E-05 -2.62841055E-04 -7.18662046E-04 -1.66206628E-04
 -2.57848993E-05 -9.74514177E-05  0.00000000E+00  2.63604567E-04  7.12505812E-04
  0.00000000E+00 -8.30538339E-04 -4.71354522E-04  0.00000000E+00 -1.24039863E-04
 -2.96546037E-05  0.00000000E+00 -1.78921660E-05  0.00000000E+00  0.00000000E+00
 -2.98838697E-05  1.55235475E-05 -3.27259409E-04  0.00000000E+00  0.00000000E+00
 -8.29499439E-04  1.04742751E-04 -3.27175958E-05  0.00000000E+00  0.00000000E+00
  9.25575720E-05 -1.27007202E-04  0.00000000E+00 -1.96932487E-05 -1.19805182E-04
  0.00000000E+00  0.00000000E+00 -5.87684512E-05 -1.37965557E-04  0.00000000E+00
  4.26791241E-06 -1.53319652E-04  0.00000000E+00  0.00000000E+00  5.60264779E-05
 -4.12789436E-04 -2.84309736E-03  1.26058897E-04 -1.34824384E-04 -2.29157630E-04
  1.51071381E-04 -8.43982884E-06 -2.73253140E-05  0.00000000E+00  7.09560784E-05
  1.60807891E-04  0.00000000E+00  2.37103577E-04  1.90412410E-04  0.00000000E+00
  1.30907789E-04  2.36655057E-05  0.00000000E+00 -3.39694043E-06  0.00000000E+00
  0.00000000E+00 -1.79864050E-05  1.29763848E-06  1.10320464E-06  0.00000000E+00
  0.00000000E+00  8.15220657E-05  8.51144018E-05 -9.96445043E-05  0.00000000E+00
  0.00000000E+00  1.65602189E-04  1.59690038E-04  0.00000000E+00  1.58968777E-05
 -3.17533849E-06  0.00000000E+00  0.00000000E+00 -3.62233415E-06 -1.23834356E-05
  0.00000000E+00 -3.36688947E-05  4.49456115E-05  0.00000000E+00  0.00000000E+00
  8.27435238E-05  9.07661341E-05  4.01598578E-05 -1.00323692E-03 -4.90783828E-04
 -1.16053847E-05 -2.23329440E-05  1.53344970E-05  0.00000000E+00 -1.64080952E-06
  2.76344269E-04  0.00000000E+00 -4.30612823E-05  1.34094373E-04  0.00000000E+00
  2.63510910E-05  0.00000000E+00  0.00000000E+00  1.13461855E-05  1.12018710E-05
 -2.89586655E-05  0.00000000E+00  0.00000000E+00  1.12111618E-05  3.63357117E-05
  1.12449575E-04  8.78244903E-05 -2.83694319E-05  7.52246285E-04  6.49782307E-04
  1.01931207E-05  2.87453925E-06  0.00000000E+00 -7.53284763E-05  1.11938562E-05
  0.00000000E+00  3.39838511E-04  9.35464220E-04  0.00000000E+00  5.71564097E-06
  8.48037914E-05  0.00000000E+00 -2.57859827E-06  0.00000000E+00  0.00000000E+00
  1.13040173E-07 -5.43144611E-06 -3.51163627E-05  0.00000000E+00  0.00000000E+00
 -1.93214305E-05  8.25646606E-05 -2.24374198E-05  0.00000000E+00  0.00000000E+00
 -2.68316654E-04 -1.78171428E-04  0.00000000E+00  9.00709324E-06  6.41297273E-06
  0.00000000E+00  0.00000000E+00  3.26941340E-06 -1.86660393E-05  0.00000000E+00
 -4.03229105E-05 -4.01214186E-05  0.00000000E+00  0.00000000E+00 -8.07396359E-05
  2.04146095E-05  2.88186414E-03  3.49007770E-05  1.03761482E-04 -6.34495899E-05
 -4.71230215E-04  8.34224513E-06  1.54770739E-05  0.00000000E+00 -6.58299974E-05
 -5.59562464E-05  0.00000000E+00  2.41125607E-04 -2.03416961E-04  0.00000000E+00
 -1.86364724E-04 -6.64861871E-05  0.00000000E+00 -8.63106416E-06  0.00000000E+00
  0.00000000E+00  2.24112175E-05  2.00824898E-05  4.96087073E-06  0.00000000E+00
  0.00000000E+00 -1.19306863E-04 -4.86905888E-05 -4.75350624E-06  0.00000000E+00
  0.00000000E+00 -2.21461938E-04 -2.20049547E-04  0.00000000E+00  3.78003243E-06
 -4.69977876E-07  0.00000000E+00  0.00000000E+00  2.03945767E-06 -1.35916991E-05
  0.00000000E+00 -4.77600771E-05  2.99140534E-06  0.00000000E+00  0.00000000E+00
 -8.24980730E-05  1.87011640E-04  2.58567186E-04  1.46473057E-03 -7.76315317E-05
 -1.53721658E-03  4.03846423E-04 -1.44135160E-04 -6.96697778E-07  0.00000000E+00
 -2.09171355E-03 -4.18801612E-04  0.00000000E+00  1.04316185E-03  7.79599140E-04
  0.00000000E+00 -1.69127237E-04  5.67590189E-05  0.00000000E+00 -1.23274692E-04
  0.00000000E+00  0.00000000E+00  2.42006245E-04  9.71693223E-05 -4.42890641E-04
  0.00000000E+00  0.00000000E+00  9.00074577E-04 -5.66325061E-05  1.05505671E-05
  0.00000000E+00  0.00000000E+00 -3.38714815E-04 -1.27186712E-04  0.00000000E+00
 -1.01282333E-06  1.54388931E-05  0.00000000E+00  0.00000000E+00  1.86501162E-05
  1.32147070E-05  0.00000000E+00  1.63361518E-04 -7.22663354E-05  0.00000000E+00
  0.00000000E+00 -2.40844874E-04  4.06841944E-05  9.76648317E-01 -9.84773478E-03
  4.35689788E-02  4.50663377E-03 -4.45572602E-04  2.14535301E-03  4.93448306E-04
  0.00000000E+00 -2.38067822E-03 -6.19658170E-04  0.00000000E+00  1.13814126E-03
  1.13907435E-06  0.00000000E+00  4.21922138E-06 -4.25648323E-05  0.00000000E+00
 -2.32443043E-04  0.00000000E+00  0.00000000E+00  1.02227771E-04  3.33572528E-05
  3.90828665E-04  0.00000000E+00  0.00000000E+00 -8.29647255E-04 -4.30540283E-04
 -1.52660939E-04  0.00000000E+00  0.00000000E+00  2.54077013E-04  1.84847682E-05
  0.00000000E+00  5.22176733E-05  1.80619658E-05  0.00000000E+00  0.00000000E+00
 -2.18420647E-05 -1.36320766E-05  0.00000000E+00  1.38543265E-04  1.01131264E-05
  0.00000000E+00  0.00000000E+00 -1.87749254E-04 -1.44748939E-04  4.71899118E-04
  2.02575131E-03  8.71409377E-05  1.35585961E-05 -3.86170212E-05 -2.41976466E-04
  0.00000000E+00  1.24226011E-04 -1.25901631E-03  0.00000000E+00  3.25060059E-04
 -3.28514698E-04  0.00000000E+00 -2.15758756E-06  0.00000000E+00  0.00000000E+00
  8.01055310E-05  1.54956638E-05 -1.58680109E-04  0.00000000E+00  0.00000000E+00
 -5.36002383E-04 -3.54337340E-05  9.76818283E-01 -9.16262716E-03  4.34766048E-02
  3.49947389E-05 -1.21943681E-03 -1.60528174E-03  1.42510612E-03  0.00000000E+00
  1.63672294E-03 -1.25755633E-03  0.00000000E+00 -4.55940927E-04 -8.55600952E-04
  0.00000000E+00  6.89901421E-05 -3.81288132E-05  0.00000000E+00  2.55315184E-05
  0.00000000E+00  0.00000000E+00 -1.11355764E-04 -4.80336645E-06  7.73412454E-04
  0.00000000E+00  0.00000000E+00 -2.36848200E-04 -2.37985197E-04 -2.52704454E-04
  0.00000000E+00  0.00000000E+00  1.30737847E-04  1.29871971E-04  0.00000000E+00
 -6.66508209E-05 -5.69635655E-07  0.00000000E+00  0.00000000E+00  2.15226157E-05