 Entering Gaussian System, Link 0=g16
 Input=hoono_a1_99p94454.gjf
 Output=hoono_a1_99p94454.log
 Initial command:
 /sw/contrib/gaussian/g16/B01/g16/l1.exe "/scr/Gau-17033.inp" -scrdir="/scr/"
 Entering Link 1 = /sw/contrib/gaussian/g16/B01/g16/l1.exe PID=     17034.
  
 Copyright (c) 1988-2017, Gaussian, Inc.  All Rights Reserved.
  
 This is part of the Gaussian(R) 16 program.  It is based on
 the Gaussian(R) 09 system (copyright 2009, Gaussian, Inc.),
 the Gaussian(R) 03 system (copyright 2003, Gaussian, Inc.),
 the Gaussian(R) 98 system (copyright 1998, Gaussian, Inc.),
 the Gaussian(R) 94 system (copyright 1995, Gaussian, Inc.),
 the Gaussian 92(TM) system (copyright 1992, Gaussian, Inc.),
 the Gaussian 90(TM) system (copyright 1990, Gaussian, Inc.),
 the Gaussian 88(TM) system (copyright 1988, Gaussian, Inc.),
 the Gaussian 86(TM) system (copyright 1986, Carnegie Mellon
 University), and the Gaussian 82(TM) system (copyright 1983,
 Carnegie Mellon University). Gaussian is a federally registered
 trademark of Gaussian, Inc.
  
 This software contains proprietary and confidential information,
 including trade secrets, belonging to Gaussian, Inc.
  
 This software is provided under written license and may be
 used, copied, transmitted, or stored only in accord with that
 written license.
  
 The following legend is applicable only to US Government
 contracts under FAR:
  
                    RESTRICTED RIGHTS LEGEND
  
 Use, reproduction and disclosure by the US Government is
 subject to restrictions as set forth in subparagraphs (a)
 and (c) of the Commercial Computer Software - Restricted
 Rights clause in FAR 52.227-19.
  
 Gaussian, Inc.
 340 Quinnipiac St., Bldg. 40, Wallingford CT 06492
  
  
 ---------------------------------------------------------------
 Warning -- This program may not be used in any manner that
 competes with the business of Gaussian, Inc. or will provide
 assistance to any competitor of Gaussian, Inc.  The licensee
 of this program is prohibited from giving any competitor of
 Gaussian, Inc. access to this program.  By using this program,
 the user acknowledges that Gaussian, Inc. is engaged in the
 business of creating and licensing software in the field of
 computational chemistry and represents and warrants to the
 licensee that it is not a competitor of Gaussian, Inc. and that
 it will not use this program in any manner prohibited above.
 ---------------------------------------------------------------
  

 Cite this work as:
 Gaussian 16, Revision B.01,
 M. J. Frisch, G. W. Trucks, H. B. Schlegel, G. E. Scuseria, 
 M. A. Robb, J. R. Cheeseman, G. Scalmani, V. Barone, 
 G. A. Petersson, H. Nakatsuji, X. Li, M. Caricato, A. V. Marenich, 
 J. Bloino, B. G. Janesko, R. Gomperts, B. Mennucci, H. P. Hratchian, 
 J. V. Ortiz, A. F. Izmaylov, J. L. Sonnenberg, D. Williams-Young, 
 F. Ding, F. Lipparini, F. Egidi, J. Goings, B. Peng, A. Petrone, 
 T. Henderson, D. Ranasinghe, V. G. Zakrzewski, J. Gao, N. Rega, 
 G. Zheng, W. Liang, M. Hada, M. Ehara, K. Toyota, R. Fukuda, 
 J. Hasegawa, M. Ishida, T. Nakajima, Y. Honda, O. Kitao, H. Nakai, 
 T. Vreven, K. Throssell, J. A. Montgomery, Jr., J. E. Peralta, 
 F. Ogliaro, M. J. Bearpark, J. J. Heyd, E. N. Brothers, K. N. Kudin, 
 V. N. Staroverov, T. A. Keith, R. Kobayashi, J. Normand, 
 K. Raghavachari, A. P. Rendell, J. C. Burant, S. S. Iyengar, 
 J. Tomasi, M. Cossi, J. M. Millam, M. Klene, C. Adamo, R. Cammi, 
 J. W. Ochterski, R. L. Martin, K. Morokuma, O. Farkas, 
 J. B. Foresman, and D. J. Fox, Gaussian, Inc., Wallingford CT, 2016.
 
 ******************************************
 Gaussian 16:  ES64L-G16RevB.01 20-Dec-2017
                21-Feb-2022 
 ******************************************
 %nproc=28
 Will use up to   28 processors via shared memory.
 %mem=120GB
 %chk=hoono_a1_99p94454.chk
 ---------------------------------------
 #p freq mp2/aug-cc-pvtz density=current
 ---------------------------------------
 1/10=4,30=1,38=1/1,3;
 2/12=2,17=6,18=5,40=1/2;
 3/5=16,6=1,7=10,11=9,25=1,30=1,71=2,140=1/1,2,3;
 4//1;
 5/5=2,38=5,98=1/2;
 8/6=3,8=1,10=1,19=11,30=-1/1;
 9/15=3,16=-3/6;
 11/6=1,8=1,15=11,17=12,24=-1,27=1,28=-2,29=300,32=6,42=3/1,2,10;
 10/6=2,21=1/2;
 8/6=4,8=1,10=1,19=11,30=-1/11,4;
 10/5=1,20=4/2;
 11/12=2,14=11,16=1,17=2,28=-2,42=3,76=2/2,10,12;
 6/7=2,8=2,9=2,10=2,22=-1/1;
 7/8=1,10=1,12=2,25=1,44=2/1,2,3,16;
 1/10=4,30=1/3;
 99//99;
 Leave Link    1 at Mon Feb 21 20:33:45 2022, MaxMem= 16106127360 cpu:               2.7 elap:               0.1
 (Enter /sw/contrib/gaussian/g16/B01/g16/l101.exe)
 -----
 title
 -----
 Symbolic Z-matrix:
 Charge =  0 Multiplicity = 1
 H
 O                    1    r1
 O                    2    r2       1    a1
 N                    3    r3       2    a2       1    d1       0
 O                    4    r4       3    a3       2    d2       0
       Variables:
  r1                    0.96898                  
  r2                    1.45492                  
  r3                    1.45878                  
  r4                    1.17073                  
  a1                   99.94454                  
  a2                  102.29752                  
  a3                  109.06955                  
  d1                  180.                       
  d2                  180.                       
 
 ITRead=  0  0  0  0  0
 MicOpt= -1 -1 -1 -1 -1
 NAtoms=      5 NQM=        5 NQMF=       0 NMMI=      0 NMMIF=      0
                NMic=       0 NMicF=      0.
                    Isotopes and Nuclear Properties:
 (Nuclear quadrupole moments (NQMom) in fm**2, nuclear magnetic moments (NMagM)
  in nuclear magnetons)

  Atom         1           2           3           4           5
 IAtWgt=           1          16          16          14          16
 AtmWgt=   1.0078250  15.9949146  15.9949146  14.0030740  15.9949146
 NucSpn=           1           0           0           2           0
 AtZEff=  -0.0000000  -0.0000000  -0.0000000  -0.0000000  -0.0000000
 NQMom=    0.0000000   0.0000000   0.0000000   2.0440000   0.0000000
 NMagM=    2.7928460   0.0000000   0.0000000   0.4037610   0.0000000
 AtZNuc=   1.0000000   8.0000000   8.0000000   7.0000000   8.0000000
 Leave Link  101 at Mon Feb 21 20:33:45 2022, MaxMem= 16106127360 cpu:               2.8 elap:               0.1
 (Enter /sw/contrib/gaussian/g16/B01/g16/l103.exe)

 GradGradGradGradGradGradGradGradGradGradGradGradGradGradGradGradGradGrad
 Berny optimization.
 Initialization pass.
                       ----------------------------
                       !    Initial Parameters    !
                       ! (Angstroms and Degrees)  !
 ----------------------                            ----------------------
 !      Name          Value   Derivative information (Atomic Units)     !
 ------------------------------------------------------------------------
 !       r1          0.969    calculate D2E/DX2 analytically            !
 !       r2          1.4549   calculate D2E/DX2 analytically            !
 !       r3          1.4588   calculate D2E/DX2 analytically            !
 !       r4          1.1707   calculate D2E/DX2 analytically            !
 !       a1         99.9445   calculate D2E/DX2 analytically            !
 !       a2        102.2975   calculate D2E/DX2 analytically            !
 !       a3        109.0696   calculate D2E/DX2 analytically            !
 !       d1        180.0      calculate D2E/DX2 analytically            !
 !       d2        180.0      calculate D2E/DX2 analytically            !
 ------------------------------------------------------------------------
 Trust Radius=3.00D-01 FncErr=1.00D-07 GrdErr=1.00D-07 EigMax=2.50D+02 EigMin=1.00D-04
 Number of steps in this run=      2 maximum allowed number of steps=      2.
 GradGradGradGradGradGradGradGradGradGradGradGradGradGradGradGradGradGrad

 Leave Link  103 at Mon Feb 21 20:33:45 2022, MaxMem= 16106127360 cpu:               1.2 elap:               0.1
 (Enter /sw/contrib/gaussian/g16/B01/g16/l202.exe)
                          Input orientation:                          
 ---------------------------------------------------------------------
 Center     Atomic      Atomic             Coordinates (Angstroms)
 Number     Number       Type             X           Y           Z
 ---------------------------------------------------------------------
      1          1           0        0.000000    0.000000    0.000000
      2          8           0        0.000000    0.000000    0.968976
      3          8           0        1.433060    0.000000    1.220233
      4          7           0        1.492951    0.000000    2.677787
      5          8           0        2.614204    0.000000    3.014532
 ---------------------------------------------------------------------
                    Distance matrix (angstroms):
                    1          2          3          4          5
     1  H    0.000000
     2  O    0.968976   0.000000
     3  O    1.882187   1.454919   0.000000
     4  N    3.065851   2.269127   1.458784   0.000000
     5  O    3.990172   3.319392   2.148165   1.170729   0.000000
 Stoichiometry    HNO3
 Framework group  CS[SG(HNO3)]
 Deg. of freedom     7
 Full point group                 CS      NOp   2
 Largest Abelian subgroup         CS      NOp   2
 Largest concise Abelian subgroup C1      NOp   1
                         Standard orientation:                         
 ---------------------------------------------------------------------
 Center     Atomic      Atomic             Coordinates (Angstroms)
 Number     Number       Type             X           Y           Z
 ---------------------------------------------------------------------
      1          1           0        1.590411    1.679745    0.000000
      2          8           0        1.454152    0.720398    0.000000
      3          8           0       -0.000000    0.673157    0.000000
      4          7           0       -0.264260   -0.761492   -0.000000
      5          8           0       -1.421726   -0.937218   -0.000000
 ---------------------------------------------------------------------
 Rotational constants (GHZ):          55.1025184           5.0044277           4.5877655
 Leave Link  202 at Mon Feb 21 20:33:45 2022, MaxMem= 16106127360 cpu:               0.3 elap:               0.0
 (Enter /sw/contrib/gaussian/g16/B01/g16/l301.exe)
 Standard basis: Aug-CC-pVTZ (5D, 7F)
 Ernie: Thresh=  0.10000D-02 Tol=  0.10000D-05 Strict=F.
 Ernie:  12 primitive shells out of 131 were deleted.
 There are   166 symmetry adapted cartesian basis functions of A'  symmetry.
 There are    79 symmetry adapted cartesian basis functions of A"  symmetry.
 There are   136 symmetry adapted basis functions of A'  symmetry.
 There are    71 symmetry adapted basis functions of A"  symmetry.
   207 basis functions,   315 primitive gaussians,   245 cartesian basis functions
    16 alpha electrons       16 beta electrons
       nuclear repulsion energy       116.8198557678 Hartrees.
 IExCor=    0 DFT=F Ex=HF Corr=None ExCW=0 ScaHFX=  1.000000
 ScaDFX=  1.000000  1.000000  1.000000  1.000000 ScalE2=  1.000000  1.000000
 IRadAn=      5 IRanWt=     -1 IRanGd=            0 ICorTp=0 IEmpDi=  4
 NAtoms=    5 NActive=    5 NUniq=    5 SFac= 1.00D+00 NAtFMM=   60 NAOKFM=F Big=F
 Integral buffers will be    131072 words long.
 Raffenetti 1 integral format.
 Two-electron integral symmetry is turned on.
 Leave Link  301 at Mon Feb 21 20:33:45 2022, MaxMem= 16106127360 cpu:               1.6 elap:               0.1
 (Enter /sw/contrib/gaussian/g16/B01/g16/l302.exe)
 NPDir=0 NMtPBC=     1 NCelOv=     1 NCel=       1 NClECP=     1 NCelD=      1
         NCelK=      1 NCelE2=     1 NClLst=     1 CellRange=     0.0.
 One-electron integrals computed using PRISM.
 One-electron integral symmetry used in STVInt
 NBasis=   207 RedAO= T EigKep=  1.82D-04  NBF=   136    71
 NBsUse=   207 1.00D-06 EigRej= -1.00D+00 NBFU=   136    71
 Leave Link  302 at Mon Feb 21 20:33:45 2022, MaxMem= 16106127360 cpu:               5.0 elap:               0.2
 (Enter /sw/contrib/gaussian/g16/B01/g16/l303.exe)
 DipDrv:  MaxL=1.
 Leave Link  303 at Mon Feb 21 20:33:45 2022, MaxMem= 16106127360 cpu:               1.7 elap:               0.1
 (Enter /sw/contrib/gaussian/g16/B01/g16/l401.exe)
 ExpMin= 2.53D-02 ExpMax= 1.53D+04 ExpMxC= 5.22D+02 IAcc=3 IRadAn=         5 AccDes= 0.00D+00
 Harris functional with IExCor=  205 and IRadAn=       5 diagonalized for initial guess.
 HarFok:  IExCor=  205 AccDes= 0.00D+00 IRadAn=         5 IDoV= 1 UseB2=F ITyADJ=14
 ICtDFT=  3500011 ScaDFX=  1.000000  1.000000  1.000000  1.000000
 FoFCou: FMM=F IPFlag=           0 FMFlag=      100000 FMFlg1=           0
         NFxFlg=           0 DoJE=T BraDBF=F KetDBF=T FulRan=T
         wScrn=  0.000000 ICntrl=       500 IOpCl=  0 I1Cent=   200000004 NGrid=           0
         NMat0=    1 NMatS0=      1 NMatT0=    0 NMatD0=    1 NMtDS0=    0 NMtDT0=    0
 Petite list used in FoFCou.
 Harris En= -279.629054437888    
 JPrj=0 DoOrth=F DoCkMO=F.
 Initial guess orbital symmetries:
       Occupied  (A') (A') (A') (A') (A') (A') (A') (A') (A') (A')
                 (A") (A') (A') (A") (A") (A')
       Virtual   (A") (A') (A') (A') (A') (A') (A") (A') (A') (A')
                 (A") (A') (A") (A') (A') (A") (A') (A') (A") (A')
                 (A') (A') (A') (A') (A') (A") (A') (A") (A') (A')
                 (A") (A') (A") (A') (A') (A") (A') (A") (A') (A')
                 (A") (A') (A") (A') (A") (A') (A') (A') (A") (A")
                 (A') (A') (A') (A') (A") (A') (A") (A') (A") (A')
                 (A') (A') (A") (A') (A') (A") (A') (A") (A') (A')
                 (A") (A') (A') (A") (A") (A') (A') (A") (A') (A')
                 (A') (A") (A') (A") (A') (A") (A') (A") (A') (A')
                 (A') (A") (A') (A") (A') (A") (A") (A') (A') (A")
                 (A') (A') (A") (A') (A') (A') (A') (A") (A") (A')
                 (A") (A') (A') (A') (A") (A') (A') (A') (A") (A')
                 (A") (A') (A') (A") (A") (A') (A') (A") (A") (A')
                 (A') (A') (A') (A") (A") (A') (A") (A') (A') (A')
                 (A') (A") (A") (A') (A') (A") (A') (A') (A') (A')
                 (A") (A') (A') (A") (A') (A") (A') (A") (A') (A")
                 (A') (A") (A') (A") (A') (A") (A") (A") (A') (A')
                 (A") (A') (A") (A') (A') (A") (A") (A") (A') (A')
                 (A') (A') (A') (A') (A') (A') (A') (A') (A') (A')
                 (A')
 The electronic state of the initial guess is 1-A'.
 Leave Link  401 at Mon Feb 21 20:33:46 2022, MaxMem= 16106127360 cpu:               7.4 elap:               0.3
 (Enter /sw/contrib/gaussian/g16/B01/g16/l502.exe)
 Keep R1 ints in memory in symmetry-blocked form, NReq=348887737.
 FoFCou: FMM=F IPFlag=           0 FMFlag=           0 FMFlg1=           0
         NFxFlg=           0 DoJE=F BraDBF=F KetDBF=F FulRan=T
         wScrn=  0.000000 ICntrl=       600 IOpCl=  0 I1Cent=           0 NGrid=           0
         NMat0=    1 NMatS0=  21528 NMatT0=    0 NMatD0=    1 NMtDS0=    0 NMtDT0=    0
 Petite list used in FoFCou.
 Closed shell SCF:
 Using DIIS extrapolation, IDIIS=  1040.
 NGot= 16106127360 LenX= 15988850015 LenY= 15988789549
 Requested convergence on RMS density matrix=1.00D-08 within 128 cycles.
 Requested convergence on MAX density matrix=1.00D-06.
 Requested convergence on             energy=1.00D-06.
 No special actions if energy rises.

 Cycle   1  Pass 1  IDiag  1:
 E= -279.370504741814    
 DIIS: error= 2.49D-02 at cycle   1 NSaved=   1.
 NSaved= 1 IEnMin= 1 EnMin= -279.370504741814     IErMin= 1 ErrMin= 2.49D-02
 ErrMax= 2.49D-02  0.00D+00 EMaxC= 1.00D-01 BMatC= 4.39D-01 BMatP= 4.39D-01
 IDIUse=3 WtCom= 7.51D-01 WtEn= 2.49D-01
 Coeff-Com:  0.100D+01
 Coeff-En:   0.100D+01
 Coeff:      0.100D+01
 Gap=     0.513 Goal=   None    Shift=    0.000
 GapD=    0.513 DampG=2.000 DampE=0.500 DampFc=1.0000 IDamp=-1.
 RMSDP=1.62D-03 MaxDP=9.89D-02              OVMax= 1.13D-01

 Cycle   2  Pass 1  IDiag  1:
 E= -279.452557983530     Delta-E=       -0.082053241716 Rises=F Damp=F
 DIIS: error= 1.79D-02 at cycle   2 NSaved=   2.
 NSaved= 2 IEnMin= 2 EnMin= -279.452557983530     IErMin= 2 ErrMin= 1.79D-02
 ErrMax= 1.79D-02  0.00D+00 EMaxC= 1.00D-01 BMatC= 7.18D-02 BMatP= 4.39D-01
 IDIUse=3 WtCom= 8.21D-01 WtEn= 1.79D-01
 Coeff-Com:  0.195D+00 0.805D+00
 Coeff-En:   0.000D+00 0.100D+01
 Coeff:      0.160D+00 0.840D+00
 Gap=     0.529 Goal=   None    Shift=    0.000
 RMSDP=9.00D-04 MaxDP=3.73D-02 DE=-8.21D-02 OVMax= 6.95D-02

 Cycle   3  Pass 1  IDiag  1:
 E= -279.481676141393     Delta-E=       -0.029118157863 Rises=F Damp=F
 DIIS: error= 1.04D-02 at cycle   3 NSaved=   3.
 NSaved= 3 IEnMin= 3 EnMin= -279.481676141393     IErMin= 3 ErrMin= 1.04D-02
 ErrMax= 1.04D-02  0.00D+00 EMaxC= 1.00D-01 BMatC= 2.87D-02 BMatP= 7.18D-02
 IDIUse=3 WtCom= 8.96D-01 WtEn= 1.04D-01
 Coeff-Com: -0.330D-01 0.378D+00 0.655D+00
 Coeff-En:   0.000D+00 0.240D+00 0.760D+00
 Coeff:     -0.295D-01 0.364D+00 0.666D+00
 Gap=     0.510 Goal=   None    Shift=    0.000
 RMSDP=3.76D-04 MaxDP=1.54D-02 DE=-2.91D-02 OVMax= 3.81D-02

 Cycle   4  Pass 1  IDiag  1:
 E= -279.500723440749     Delta-E=       -0.019047299355 Rises=F Damp=F
 DIIS: error= 1.30D-03 at cycle   4 NSaved=   4.
 NSaved= 4 IEnMin= 4 EnMin= -279.500723440749     IErMin= 4 ErrMin= 1.30D-03
 ErrMax= 1.30D-03  0.00D+00 EMaxC= 1.00D-01 BMatC= 4.94D-04 BMatP= 2.87D-02
 IDIUse=3 WtCom= 9.87D-01 WtEn= 1.30D-02
 Coeff-Com: -0.117D-01 0.577D-01 0.159D+00 0.795D+00
 Coeff-En:   0.000D+00 0.000D+00 0.000D+00 0.100D+01
 Coeff:     -0.115D-01 0.570D-01 0.157D+00 0.798D+00
 Gap=     0.502 Goal=   None    Shift=    0.000
 RMSDP=9.00D-05 MaxDP=2.76D-03 DE=-1.90D-02 OVMax= 1.11D-02

 Cycle   5  Pass 1  IDiag  1:
 E= -279.501398880867     Delta-E=       -0.000675440118 Rises=F Damp=F
 DIIS: error= 7.56D-04 at cycle   5 NSaved=   5.
 NSaved= 5 IEnMin= 5 EnMin= -279.501398880867     IErMin= 5 ErrMin= 7.56D-04
 ErrMax= 7.56D-04  0.00D+00 EMaxC= 1.00D-01 BMatC= 8.69D-05 BMatP= 4.94D-04
 IDIUse=3 WtCom= 9.92D-01 WtEn= 7.56D-03
 Coeff-Com:  0.611D-02-0.723D-01-0.118D+00 0.192D-01 0.116D+01
 Coeff-En:   0.000D+00 0.000D+00 0.000D+00 0.000D+00 0.100D+01
 Coeff:      0.607D-02-0.718D-01-0.117D+00 0.191D-01 0.116D+01
 Gap=     0.502 Goal=   None    Shift=    0.000
 RMSDP=7.62D-05 MaxDP=2.11D-03 DE=-6.75D-04 OVMax= 1.11D-02

 Cycle   6  Pass 1  IDiag  1:
 E= -279.501713926814     Delta-E=       -0.000315045947 Rises=F Damp=F
 DIIS: error= 2.74D-04 at cycle   6 NSaved=   6.
 NSaved= 6 IEnMin= 6 EnMin= -279.501713926814     IErMin= 6 ErrMin= 2.74D-04
 ErrMax= 2.74D-04  0.00D+00 EMaxC= 1.00D-01 BMatC= 1.66D-05 BMatP= 8.69D-05
 IDIUse=3 WtCom= 9.97D-01 WtEn= 2.74D-03
 Coeff-Com:  0.538D-03 0.237D-02 0.576D-02-0.131D+00-0.243D+00 0.136D+01
 Coeff-En:   0.000D+00 0.000D+00 0.000D+00 0.000D+00 0.000D+00 0.100D+01
 Coeff:      0.537D-03 0.236D-02 0.574D-02-0.130D+00-0.242D+00 0.136D+01
 Gap=     0.502 Goal=   None    Shift=    0.000
 RMSDP=4.55D-05 MaxDP=1.25D-03 DE=-3.15D-04 OVMax= 5.58D-03

 Cycle   7  Pass 1  IDiag  1:
 E= -279.501786939978     Delta-E=       -0.000073013163 Rises=F Damp=F
 DIIS: error= 1.19D-04 at cycle   7 NSaved=   7.
 NSaved= 7 IEnMin= 7 EnMin= -279.501786939978     IErMin= 7 ErrMin= 1.19D-04
 ErrMax= 1.19D-04  0.00D+00 EMaxC= 1.00D-01 BMatC= 4.29D-06 BMatP= 1.66D-05
 IDIUse=3 WtCom= 9.99D-01 WtEn= 1.19D-03
 Coeff-Com: -0.936D-03 0.134D-01 0.262D-01-0.218D-01-0.281D+00 0.366D+00
 Coeff-Com:  0.898D+00
 Coeff-En:   0.000D+00 0.000D+00 0.000D+00 0.000D+00 0.000D+00 0.000D+00
 Coeff-En:   0.100D+01
 Coeff:     -0.935D-03 0.134D-01 0.262D-01-0.218D-01-0.281D+00 0.366D+00
 Coeff:      0.898D+00
 Gap=     0.502 Goal=   None    Shift=    0.000
 RMSDP=1.32D-05 MaxDP=3.78D-04 DE=-7.30D-05 OVMax= 1.54D-03

 Cycle   8  Pass 1  IDiag  1:
 E= -279.501795608441     Delta-E=       -0.000008668464 Rises=F Damp=F
 DIIS: error= 5.81D-05 at cycle   8 NSaved=   8.
 NSaved= 8 IEnMin= 8 EnMin= -279.501795608441     IErMin= 8 ErrMin= 5.81D-05
 ErrMax= 5.81D-05  0.00D+00 EMaxC= 1.00D-01 BMatC= 6.07D-07 BMatP= 4.29D-06
 IDIUse=1 WtCom= 1.00D+00 WtEn= 0.00D+00
 Coeff-Com: -0.446D-03 0.342D-02 0.757D-02 0.274D-01-0.402D-01-0.200D+00
 Coeff-Com:  0.195D+00 0.101D+01
 Coeff:     -0.446D-03 0.342D-02 0.757D-02 0.274D-01-0.402D-01-0.200D+00
 Coeff:      0.195D+00 0.101D+01
 Gap=     0.502 Goal=   None    Shift=    0.000
 RMSDP=6.75D-06 MaxDP=2.00D-04 DE=-8.67D-06 OVMax= 7.33D-04

 Cycle   9  Pass 1  IDiag  1:
 E= -279.501797335248     Delta-E=       -0.000001726807 Rises=F Damp=F
 DIIS: error= 1.64D-05 at cycle   9 NSaved=   9.
 NSaved= 9 IEnMin= 9 EnMin= -279.501797335248     IErMin= 9 ErrMin= 1.64D-05
 ErrMax= 1.64D-05  0.00D+00 EMaxC= 1.00D-01 BMatC= 7.02D-08 BMatP= 6.07D-07
 IDIUse=1 WtCom= 1.00D+00 WtEn= 0.00D+00
 Coeff-Com:  0.123D-03-0.172D-02-0.308D-02-0.209D-02 0.341D-01 0.401D-03
 Coeff-Com: -0.174D+00-0.916D-01 0.124D+01
 Coeff:      0.123D-03-0.172D-02-0.308D-02-0.209D-02 0.341D-01 0.401D-03
 Coeff:     -0.174D+00-0.916D-01 0.124D+01
 Gap=     0.502 Goal=   None    Shift=    0.000
 RMSDP=1.94D-06 MaxDP=6.65D-05 DE=-1.73D-06 OVMax= 1.75D-04

 Cycle  10  Pass 1  IDiag  1:
 E= -279.501797495831     Delta-E=       -0.000000160583 Rises=F Damp=F
 DIIS: error= 4.21D-06 at cycle  10 NSaved=  10.
 NSaved=10 IEnMin=10 EnMin= -279.501797495831     IErMin=10 ErrMin= 4.21D-06
 ErrMax= 4.21D-06  0.00D+00 EMaxC= 1.00D-01 BMatC= 5.52D-09 BMatP= 7.02D-08
 IDIUse=1 WtCom= 1.00D+00 WtEn= 0.00D+00
 Coeff-Com:  0.312D-04-0.244D-03-0.328D-03-0.270D-02 0.163D-02 0.198D-01
 Coeff-Com: -0.148D-01-0.729D-01-0.792D-01 0.115D+01
 Coeff:      0.312D-04-0.244D-03-0.328D-03-0.270D-02 0.163D-02 0.198D-01
 Coeff:     -0.148D-01-0.729D-01-0.792D-01 0.115D+01
 Gap=     0.502 Goal=   None    Shift=    0.000
 RMSDP=5.04D-07 MaxDP=2.10D-05 DE=-1.61D-07 OVMax= 4.15D-05

 Cycle  11  Pass 1  IDiag  1:
 E= -279.501797508304     Delta-E=       -0.000000012474 Rises=F Damp=F
 DIIS: error= 2.01D-06 at cycle  11 NSaved=  11.
 NSaved=11 IEnMin=11 EnMin= -279.501797508304     IErMin=11 ErrMin= 2.01D-06
 ErrMax= 2.01D-06  0.00D+00 EMaxC= 1.00D-01 BMatC= 6.58D-10 BMatP= 5.52D-09
 IDIUse=1 WtCom= 1.00D+00 WtEn= 0.00D+00
 Coeff-Com: -0.212D-04 0.243D-03 0.486D-03 0.537D-03-0.426D-02-0.367D-02
 Coeff-Com:  0.223D-01 0.293D-01-0.138D+00-0.177D+00 0.127D+01
 Coeff:     -0.212D-04 0.243D-03 0.486D-03 0.537D-03-0.426D-02-0.367D-02
 Coeff:      0.223D-01 0.293D-01-0.138D+00-0.177D+00 0.127D+01
 Gap=     0.502 Goal=   None    Shift=    0.000
 RMSDP=1.77D-07 MaxDP=6.48D-06 DE=-1.25D-08 OVMax= 1.74D-05

 Cycle  12  Pass 1  IDiag  1:
 E= -279.501797510103     Delta-E=       -0.000000001798 Rises=F Damp=F
 DIIS: error= 5.85D-07 at cycle  12 NSaved=  12.
 NSaved=12 IEnMin=12 EnMin= -279.501797510103     IErMin=12 ErrMin= 5.85D-07
 ErrMax= 5.85D-07  0.00D+00 EMaxC= 1.00D-01 BMatC= 7.19D-11 BMatP= 6.58D-10
 IDIUse=1 WtCom= 1.00D+00 WtEn= 0.00D+00
 Coeff-Com:  0.122D-05-0.289D-04-0.626D-04 0.181D-03 0.108D-02-0.232D-02
 Coeff-Com: -0.412D-02 0.566D-02 0.415D-01-0.114D+00-0.281D+00 0.135D+01
 Coeff:      0.122D-05-0.289D-04-0.626D-04 0.181D-03 0.108D-02-0.232D-02
 Coeff:     -0.412D-02 0.566D-02 0.415D-01-0.114D+00-0.281D+00 0.135D+01
 Gap=     0.502 Goal=   None    Shift=    0.000
 RMSDP=7.18D-08 MaxDP=2.81D-06 DE=-1.80D-09 OVMax= 6.75D-06

 Cycle  13  Pass 1  IDiag  1:
 E= -279.501797510333     Delta-E=       -0.000000000230 Rises=F Damp=F
 DIIS: error= 1.72D-07 at cycle  13 NSaved=  13.
 NSaved=13 IEnMin=13 EnMin= -279.501797510333     IErMin=13 ErrMin= 1.72D-07
 ErrMax= 1.72D-07  0.00D+00 EMaxC= 1.00D-01 BMatC= 4.05D-12 BMatP= 7.19D-11
 IDIUse=1 WtCom= 1.00D+00 WtEn= 0.00D+00
 Coeff-Com:  0.129D-05-0.140D-04-0.227D-04-0.898D-04 0.123D-03 0.775D-03
 Coeff-Com: -0.949D-03-0.318D-02 0.635D-03 0.412D-01-0.361D-01-0.326D+00
 Coeff-Com:  0.132D+01
 Coeff:      0.129D-05-0.140D-04-0.227D-04-0.898D-04 0.123D-03 0.775D-03
 Coeff:     -0.949D-03-0.318D-02 0.635D-03 0.412D-01-0.361D-01-0.326D+00
 Coeff:      0.132D+01
 Gap=     0.502 Goal=   None    Shift=    0.000
 RMSDP=1.92D-08 MaxDP=5.63D-07 DE=-2.30D-10 OVMax= 1.57D-06

 Cycle  14  Pass 1  IDiag  1:
 E= -279.501797510346     Delta-E=       -0.000000000014 Rises=F Damp=F
 DIIS: error= 2.45D-08 at cycle  14 NSaved=  14.
 NSaved=14 IEnMin=14 EnMin= -279.501797510346     IErMin=14 ErrMin= 2.45D-08
 ErrMax= 2.45D-08  0.00D+00 EMaxC= 1.00D-01 BMatC= 1.98D-13 BMatP= 4.05D-12
 IDIUse=1 WtCom= 1.00D+00 WtEn= 0.00D+00
 Coeff-Com: -0.191D-06 0.313D-05 0.561D-05 0.460D-05-0.826D-04 0.446D-04
 Coeff-Com:  0.295D-03 0.212D-03-0.246D-02 0.145D-02 0.171D-01-0.255D-01
 Coeff-Com: -0.202D+00 0.121D+01
 Coeff:     -0.191D-06 0.313D-05 0.561D-05 0.460D-05-0.826D-04 0.446D-04
 Coeff:      0.295D-03 0.212D-03-0.246D-02 0.145D-02 0.171D-01-0.255D-01
 Coeff:     -0.202D+00 0.121D+01
 Gap=     0.502 Goal=   None    Shift=    0.000
 RMSDP=3.82D-09 MaxDP=9.13D-08 DE=-1.38D-11 OVMax= 3.45D-07

 SCF Done:  E(RHF) =  -279.501797510     A.U. after   14 cycles
            NFock= 14  Conv=0.38D-08     -V/T= 2.0024
 KE= 2.788370288512D+02 PE=-8.949662758368D+02 EE= 2.198075937075D+02
 Leave Link  502 at Mon Feb 21 20:33:49 2022, MaxMem= 16106127360 cpu:              54.8 elap:               3.6
 (Enter /sw/contrib/gaussian/g16/B01/g16/l801.exe)
 ExpMin= 2.53D-02 ExpMax= 1.53D+04 ExpMxC= 5.22D+02 IAcc=3 IRadAn=         5 AccDes= 0.00D+00
 HarFok:  IExCor=  205 AccDes= 0.00D+00 IRadAn=         5 IDoV=-2 UseB2=F ITyADJ=14
 ICtDFT= 12500011 ScaDFX=  1.000000  1.000000  1.000000  1.000000
 Largest valence mixing into a core orbital is  2.08D-04
 Largest core mixing into a valence orbital is  3.63D-05
 Range of M.O.s used for correlation:     5   207
 NBasis=   207 NAE=    16 NBE=    16 NFC=     4 NFV=     0
 NROrb=    203 NOA=    12 NOB=    12 NVA=   191 NVB=   191

 **** Warning!!: The largest alpha MO coefficient is  0.18133595D+02

 Leave Link  801 at Mon Feb 21 20:33:50 2022, MaxMem= 16106127360 cpu:               2.1 elap:               0.1
 (Enter /sw/contrib/gaussian/g16/B01/g16/l906.exe)
 Frozen-core derivative calculation, NFC=   4 NFV=   0.
 FulOut=F Deriv=T AODrv=T NAtomX=     5
   MMem=           0  MDisk=          12 MDiskD=          12
  W3Min=      811440 MinDsk=     2425030 NBas6D=         245
 NBas2D=       30762    NTT=       30135    LW2=     7400000
    MDV= 16105574283 MDiskM=      328644 NBas2p=       30702
 Disk-based method using ON**2 memory for 12 occupieds at a time.
 Permanent disk used for amplitudes=    11516536 words.
 Estimated scratch disk usage=   321251614 words.
 IMap=   1   2   3   4   5   6   7   8   9  10  11  12  13  14  15  16
 Actual    scratch disk usage=   310331678 words.
 JobTyp=1 Pass  1:  I=   5 to  16 NPSUse= 28 ParTrn=T ParDer=T DoDerP=T.
 (rs|ai) integrals will be sorted in core.
 Spin components of T(2) and E(2):
     alpha-alpha T2 =       0.3400493758D-01 E2=     -0.1223525922D+00
     alpha-beta  T2 =       0.1867620399D+00 E2=     -0.7000466938D+00
     beta-beta   T2 =       0.3400493758D-01 E2=     -0.1223525922D+00
 The integrals were generated   1 times.
 ANorm=    0.1120166021D+01
 E2 =    -0.9447518781D+00 EUMP2 =    -0.28044654938848D+03
 Leave Link  906 at Mon Feb 21 20:35:26 2022, MaxMem= 16106127360 cpu:            2696.6 elap:              96.4
 (Enter /sw/contrib/gaussian/g16/B01/g16/l1101.exe)
 Using compressed Sx but separate Hx and Fx, NAtomX=     5.
 Will process      6 centers per pass.
 Leave Link 1101 at Mon Feb 21 20:35:26 2022, MaxMem= 16106127360 cpu:               5.1 elap:               0.2
 (Enter /sw/contrib/gaussian/g16/B01/g16/l1102.exe)
 Leave Link 1102 at Mon Feb 21 20:35:26 2022, MaxMem= 16106127360 cpu:               0.5 elap:               0.0
 (Enter /sw/contrib/gaussian/g16/B01/g16/l1110.exe)
 Forming Gx(P) for the SCF density, NAtomX=     5.
 Integral derivatives from FoFJK, PRISM(SPDF).
 Do as many integral derivatives as possible in FoFJK.
 G2DrvN: MDV=   16106126844.
 G2DrvN: will do     6 centers at a time, making    1 passes.
 Calling FoFCou, ICntrl=  3107 FMM=F I1Cent=   0 AccDes= 0.00D+00.
 FoFJK:  IHMeth= 1 ICntrl=    3107 DoSepK=F KAlg= 0 I1Cent=           0 FoldK=F
 IRaf=         0 NMat=       1 IRICut=       1 DoRegI=T DoRafI=F ISym2E= 1 IDoP0=0 IntGTp=1.
 FoFCou: FMM=F IPFlag=           0 FMFlag=      100000 FMFlg1=           0
         NFxFlg=           0 DoJE=F BraDBF=F KetDBF=F FulRan=T
         wScrn=  0.000000 ICntrl=      3107 IOpCl=  0 I1Cent=           0 NGrid=           0
         NMat0=    1 NMatS0=      1 NMatT0=    0 NMatD0=    1 NMtDS0=    0 NMtDT0=    0
 Petite list used in FoFCou.
 End of G2Drv F.D. properties file   721 does not exist.
 End of G2Drv F.D. properties file   722 does not exist.
 End of G2Drv F.D. properties file   788 does not exist.
 Leave Link 1110 at Mon Feb 21 20:35:29 2022, MaxMem= 16106127360 cpu:              84.0 elap:               3.0
 (Enter /sw/contrib/gaussian/g16/B01/g16/l1002.exe)
 Minotr:  Closed shell wavefunction.
          IDoAtm=11111
          Frozen-core window.
          Direct CPHF calculation.
          Differentiating once with respect to electric field.
                with respect to dipole field.
          Differentiating once with respect to nuclear coordinates.
          Requested convergence is 1.0D-08 RMS, and 1.0D-07 maximum.
          Secondary convergence is 1.0D-12 RMS, and 1.0D-12 maximum.
          NewPWx=T KeepS1=T KeepF1=T KeepIn=T MapXYZ=F SortEE=F KeepMc=T.
 Keep R1 ints in memory in symmetry-blocked form, NReq=348888983.
 FoFCou: FMM=F IPFlag=           0 FMFlag=           0 FMFlg1=           0
         NFxFlg=           0 DoJE=F BraDBF=F KetDBF=F FulRan=T
         wScrn=  0.000000 ICntrl=       600 IOpCl=  0 I1Cent=           0 NGrid=           0
         NMat0=    1 NMatS0=  21528 NMatT0=    0 NMatD0=    1 NMtDS0=    0 NMtDT0=    0
 Petite list used in FoFCou.
          MDV=   16106127360 using IRadAn=       1.
          Solving linear equations simultaneously, MaxMat=       0.
          There are    18 degrees of freedom in the 1st order CPHF.  IDoFFX=6 NUNeed=    18.
     15 vectors produced by pass  0 Test12= 1.70D-14 5.56D-09 XBig12= 8.30D+00 1.05D+00.
 AX will form    15 AO Fock derivatives at one time.
     15 vectors produced by pass  1 Test12= 1.70D-14 5.56D-09 XBig12= 1.34D+00 2.57D-01.
     15 vectors produced by pass  2 Test12= 1.70D-14 5.56D-09 XBig12= 1.42D-01 9.87D-02.
     15 vectors produced by pass  3 Test12= 1.70D-14 5.56D-09 XBig12= 4.96D-03 1.08D-02.
     15 vectors produced by pass  4 Test12= 1.70D-14 5.56D-09 XBig12= 9.77D-05 1.89D-03.
     15 vectors produced by pass  5 Test12= 1.70D-14 5.56D-09 XBig12= 1.36D-06 1.65D-04.
     15 vectors produced by pass  6 Test12= 1.70D-14 5.56D-09 XBig12= 1.08D-08 1.51D-05.
     13 vectors produced by pass  7 Test12= 1.70D-14 5.56D-09 XBig12= 8.05D-11 1.24D-06.
      3 vectors produced by pass  8 Test12= 1.70D-14 5.56D-09 XBig12= 5.70D-13 1.19D-07.
      2 vectors produced by pass  9 Test12= 1.70D-14 5.56D-09 XBig12= 3.72D-15 9.51D-09.
 InvSVY:  IOpt=1 It=  1 EMax= 1.33D-15
 Solved reduced A of dimension   123 with    15 vectors.
 FullF1:  Do perturbations      1 to      18.
 Saving first derivative matrices.
 End of Minotr F.D. properties file   721 does not exist.
 End of Minotr F.D. properties file   722 does not exist.
 End of Minotr F.D. properties file   788 does not exist.
 Leave Link 1002 at Mon Feb 21 20:35:32 2022, MaxMem= 16106127360 cpu:              79.0 elap:               2.9
 (Enter /sw/contrib/gaussian/g16/B01/g16/l811.exe)
 MDV= 16106127360.
 Form MO integral derivatives with frozen-active canonical formalism.
 MOERI=1 MOERIx=1 NAtoms=     5 NAtomX=     5.
 Discarding MO integrals.
 MO basis two electron integral derivatives will not be stored on disk.
 IAlg= 3 DoFC=T DoPWx=T Debug=F.
 Frozen-core window:  NFC=   4 NFV=   0.
 Reordered first order wavefunction length =     18678272
 In DefCFB: NBatch=  1 ICI= 16 ICA=191 LFMax= 96
            Large arrays: LIAPS=   619940160 LIARS=   288257200 words.
 In StABat: MaxSiz= 55 MinSiz= 25 NAtomB=  5
 DoIAMN: NPSUse= 28.
 Leave Link  811 at Mon Feb 21 20:36:54 2022, MaxMem= 16106127360 cpu:            2300.0 elap:              82.3
 (Enter /sw/contrib/gaussian/g16/B01/g16/l804.exe)
 Frozen-core window:  NFC=   4 NFV=   0.
 Closed-shell transformation, MDV= 16106127360 ITran=4 ISComp=1.
 Semi-Direct transformation.
 ModeAB=           2 MOrb=            16 LenV=   16104923051
 LASXX=     67341636 LTotXX=    67341636 LenRXX=    67341636
 LTotAB=    68301760 MaxLAS=    99807120 LenRXY=    99807120
 NonZer=   134683272 LenScr=   202817536 LnRSAI=           0
 LnScr1=           0 LExtra=           0 Total=    369966292
 MaxDsk=          -1 SrtSym=           F ITran=            4
 DoSDTr:  NPSUse= 28
 JobTyp=0 Pass  1:  I=   1 to  16.
 (rs|ai) integrals will be sorted in core.
 Complete sort for first half transformation.
 First half transformation complete.
 Begin second half transformation for I=  10.
 Begin second half transformation for I=  10.
 Complete sort for second half transformation.
 Second half transformation complete.
 Spin components of T(2) and E(2):
     alpha-alpha T2 =       0.3400493758D-01 E2=     -0.1223525922D+00
     alpha-beta  T2 =       0.1867620399D+00 E2=     -0.7000466938D+00
     beta-beta   T2 =       0.3400493758D-01 E2=     -0.1223525922D+00
 ANorm=    0.1584153979D+01
 E2 =    -0.9447518781D+00 EUMP2 =    -0.28044654938848D+03
 Leave Link  804 at Mon Feb 21 20:37:10 2022, MaxMem= 16106127360 cpu:             434.7 elap:              15.6
 (Enter /sw/contrib/gaussian/g16/B01/g16/l1002.exe)
 Minotr:  Closed shell wavefunction.
          Computing MP2/KS-MP2 derivatives.
          Using Z-Vector for PSCF gradient.
          Skipping F1 and S1 gradient terms here.
          IDoAtm=11111
          Frozen-core window.
          Using MO integrals in the linear equations.
          Forming densities via direct SCF.
          Differentiating once with respect to electric field.
                with respect to dipole field.
          Differentiating once with respect to nuclear coordinates.
          Using symmetry in CPHF.
          Requested convergence is 1.0D-10 RMS, and 1.0D-09 maximum.
          NewPWx=F KeepS1=T KeepF1=T KeepIn=T MapXYZ=F SortEE=F KeepMc=T.
          MDV=   16106127360 using IRadAn=       5.
          Solving linear equations separately, MaxMat=       0.
          There are     1 degrees of freedom in the 1st order CPHF.  IDoFFX=0 NUNeed=     1.
 FoFJK:  IHMeth= 1 ICntrl=       0 DoSepK=F KAlg= 0 I1Cent=           0 FoldK=F
 IRaf=         0 NMat=       1 IRICut=       1 DoRegI=T DoRafI=F ISym2E= 0 IDoP0=0 IntGTp=1.
 FoFCou: FMM=F IPFlag=           0 FMFlag=      100000 FMFlg1=           0
         NFxFlg=           0 DoJE=F BraDBF=F KetDBF=F FulRan=T
         wScrn=  0.000000 ICntrl=         0 IOpCl=  0 I1Cent=           0 NGrid=           0
         NMat0=    1 NMatS0=      1 NMatT0=    0 NMatD0=    1 NMtDS0=    0 NMtDT0=    0
 Symmetry not used in FoFCou.
 LinEq1:  Iter=  0 NonCon=     1 RMS=5.96D-03 Max=1.33D-01 NDo=     1
 LinEq1:  Iter=  1 NonCon=     1 RMS=1.91D-03 Max=3.83D-02 NDo=     1
 LinEq1:  Iter=  2 NonCon=     1 RMS=8.68D-04 Max=1.37D-02 NDo=     1
 LinEq1:  Iter=  3 NonCon=     1 RMS=3.88D-04 Max=7.87D-03 NDo=     1
 LinEq1:  Iter=  4 NonCon=     1 RMS=1.20D-04 Max=1.89D-03 NDo=     1
 LinEq1:  Iter=  5 NonCon=     1 RMS=4.63D-05 Max=7.32D-04 NDo=     1
 LinEq1:  Iter=  6 NonCon=     1 RMS=2.06D-05 Max=2.35D-04 NDo=     1
 LinEq1:  Iter=  7 NonCon=     1 RMS=8.21D-06 Max=1.60D-04 NDo=     1
 LinEq1:  Iter=  8 NonCon=     1 RMS=3.48D-06 Max=3.48D-05 NDo=     1
 LinEq1:  Iter=  9 NonCon=     1 RMS=9.45D-07 Max=1.32D-05 NDo=     1
 LinEq1:  Iter= 10 NonCon=     1 RMS=1.86D-07 Max=1.98D-06 NDo=     1
 LinEq1:  Iter= 11 NonCon=     1 RMS=3.44D-08 Max=3.62D-07 NDo=     1
 LinEq1:  Iter= 12 NonCon=     1 RMS=8.30D-09 Max=1.31D-07 NDo=     1
 LinEq1:  Iter= 13 NonCon=     1 RMS=1.51D-09 Max=2.66D-08 NDo=     1
 LinEq1:  Iter= 14 NonCon=     1 RMS=2.73D-10 Max=3.82D-09 NDo=     1
 LinEq1:  Iter= 15 NonCon=     0 RMS=4.89D-11 Max=5.54D-10 NDo=     1
 Linear equations converged to 1.000D-10 1.000D-09 after    15 iterations.
 End of Minotr F.D. properties file   721 does not exist.
 End of Minotr F.D. properties file   722 does not exist.
 End of Minotr F.D. properties file   788 does not exist.
 Leave Link 1002 at Mon Feb 21 20:37:12 2022, MaxMem= 16106127360 cpu:              64.1 elap:               2.4
 (Enter /sw/contrib/gaussian/g16/B01/g16/l1102.exe)
 Use density number 2.
 Symmetrizing basis deriv contribution to polar:
 IMax=3 JMax=2 DiffMx= 0.00D+00
 Leave Link 1102 at Mon Feb 21 20:37:13 2022, MaxMem= 16106127360 cpu:               1.5 elap:               0.1
 (Enter /sw/contrib/gaussian/g16/B01/g16/l1110.exe)
 Forming Gx(P) for generalized density number  2 NAtomX=     5.
 Integral derivatives from FoFJK, PRISM(SPDF).
 Do as many integral derivatives as possible in FoFJK.
 G2DrvN: MDV=   16106126844.
 G2DrvN: will do     6 centers at a time, making    1 passes.
 Calling FoFCou, ICntrl=  3107 FMM=F I1Cent=   0 AccDes= 0.00D+00.
 FoFJK:  IHMeth= 1 ICntrl=    3107 DoSepK=F KAlg= 0 I1Cent=           0 FoldK=F
 IRaf=         0 NMat=       1 IRICut=       1 DoRegI=T DoRafI=F ISym2E= 1 IDoP0=0 IntGTp=1.
 FoFCou: FMM=F IPFlag=           0 FMFlag=      100000 FMFlg1=           0
         NFxFlg=           0 DoJE=F BraDBF=F KetDBF=F FulRan=T
         wScrn=  0.000000 ICntrl=      3107 IOpCl=  0 I1Cent=           0 NGrid=           0
         NMat0=    1 NMatS0=      1 NMatT0=    0 NMatD0=    1 NMtDS0=    0 NMtDT0=    0
 Petite list used in FoFCou.
 End of G2Drv F.D. properties file   721 does not exist.
 End of G2Drv F.D. properties file   722 does not exist.
 End of G2Drv F.D. properties file   788 does not exist.
 Leave Link 1110 at Mon Feb 21 20:37:16 2022, MaxMem= 16106127360 cpu:              84.6 elap:               3.1
 (Enter /sw/contrib/gaussian/g16/B01/g16/l1112.exe)
 MP22nd: MDV=   16106127360
 This link is doing NAtomX=     5 total of    18 degrees of freedom.
 Using ON3 I/O method in MakUI.
 Frozen-core window:  NFC=   4 NFV=   0.
 Using Ix for Sx.
 Use MO integrals over full window.
 Using OV2 memory method for fx*t*t/D, MaxI=    16 DoOO2=F NP=  28.
 R2 and R3 integrals will be kept in memory, NReq=   915591705.
 FoFCou: FMM=F IPFlag=           0 FMFlag=           0 FMFlg1=           0
         NFxFlg=           0 DoJE=F BraDBF=F KetDBF=F FulRan=T
         wScrn=  0.000000 ICntrl=       600 IOpCl=  0 I1Cent=           0 NGrid=           0
         NMat0=    1 NMatS0=      1 NMatT0=    0 NMatD0=    1 NMtDS0=    0 NMtDT0=    0
 Symmetry not used in FoFCou.
 DD1Dir will call FoFMem   1 times, MxPair=       272
 NAB=   136 NAA=     0 NBB=     0.
 Symmetry is being used.
 FoFJK:  IHMeth= 1 ICntrl=       0 DoSepK=F KAlg= 0 I1Cent=           0 FoldK=F
 IRaf=         0 NMat=      18 IRICut=      45 DoRegI=T DoRafI=T ISym2E= 2 IDoP0=3 IntGTp=3.
 Discarding MO integrals.
 Leave Link 1112 at Mon Feb 21 20:37:50 2022, MaxMem= 16106127360 cpu:             949.9 elap:              34.3
 (Enter /sw/contrib/gaussian/g16/B01/g16/l601.exe)
 Copying SCF densities to generalized density rwf, IOpCl= 0 IROHF=0.

 **********************************************************************

            Population analysis using the MP2 Density.

 **********************************************************************

 Orbital symmetries:
       Occupied  (A') (A') (A') (A') (A') (A') (A') (A') (A') (A')
                 (A") (A') (A") (A') (A") (A')
       Virtual   (A') (A") (A') (A') (A') (A") (A') (A') (A") (A')
                 (A") (A') (A') (A') (A") (A') (A') (A") (A') (A')
                 (A') (A') (A') (A') (A") (A') (A') (A") (A') (A')
                 (A") (A') (A") (A') (A') (A") (A') (A") (A') (A')
                 (A") (A') (A") (A') (A') (A") (A') (A') (A") (A')
                 (A") (A') (A') (A') (A") (A') (A") (A') (A") (A')
                 (A') (A') (A") (A') (A') (A") (A') (A") (A') (A')
                 (A") (A') (A') (A") (A") (A') (A') (A") (A') (A')
                 (A') (A") (A') (A") (A") (A') (A') (A") (A') (A')
                 (A") (A') (A') (A") (A') (A") (A') (A") (A') (A')
                 (A") (A') (A") (A') (A') (A") (A') (A') (A") (A')
                 (A") (A') (A') (A') (A") (A') (A') (A') (A") (A')
                 (A") (A') (A") (A') (A') (A") (A") (A') (A") (A')
                 (A') (A') (A') (A") (A") (A") (A') (A') (A') (A')
                 (A") (A') (A") (A') (A') (A") (A') (A') (A') (A')
                 (A") (A') (A') (A") (A') (A") (A') (A") (A') (A")
                 (A') (A") (A') (A") (A') (A") (A") (A') (A") (A')
                 (A") (A') (A") (A') (A") (A') (A") (A") (A') (A')
                 (A') (A') (A') (A') (A') (A') (A') (A') (A') (A')
                 (A')
 The electronic state is 1-A'.
 Alpha  occ. eigenvalues --  -20.69121 -20.68438 -20.65896 -15.81293  -1.62397
 Alpha  occ. eigenvalues --   -1.49433  -1.25473  -0.94801  -0.77170  -0.76068
 Alpha  occ. eigenvalues --   -0.71157  -0.67993  -0.62004  -0.58717  -0.48493
 Alpha  occ. eigenvalues --   -0.47250
 Alpha virt. eigenvalues --    0.02938   0.07174   0.08595   0.10180   0.13371
 Alpha virt. eigenvalues --    0.13407   0.14411   0.15441   0.17833   0.19440
 Alpha virt. eigenvalues --    0.20001   0.20624   0.22090   0.23539   0.23740
 Alpha virt. eigenvalues --    0.26711   0.29343   0.30423   0.30978   0.34363
 Alpha virt. eigenvalues --    0.34928   0.38713   0.42013   0.43248   0.52694
 Alpha virt. eigenvalues --    0.52912   0.55892   0.58226   0.62571   0.63851
 Alpha virt. eigenvalues --    0.67421   0.68400   0.70619   0.71218   0.71990
 Alpha virt. eigenvalues --    0.73059   0.74513   0.78916   0.78935   0.80904
 Alpha virt. eigenvalues --    0.81342   0.83200   0.86893   0.90711   0.92367
 Alpha virt. eigenvalues --    0.92519   0.95938   0.97834   0.98292   1.01523
 Alpha virt. eigenvalues --    1.05260   1.05534   1.08196   1.11737   1.13796
 Alpha virt. eigenvalues --    1.18883   1.22092   1.23077   1.33824   1.34725
 Alpha virt. eigenvalues --    1.38762   1.45098   1.48881   1.51325   1.53900
 Alpha virt. eigenvalues --    1.56727   1.58000   1.61646   1.66482   1.66931
 Alpha virt. eigenvalues --    1.70364   1.78736   1.83210   1.83310   1.87947
 Alpha virt. eigenvalues --    1.90885   1.95760   1.99013   2.00777   2.07578
 Alpha virt. eigenvalues --    2.11532   2.13195   2.15050   2.22178   2.26537
 Alpha virt. eigenvalues --    2.26708   2.28767   2.31493   2.34682   2.38457
 Alpha virt. eigenvalues --    2.42029   2.42326   2.45514   2.46342   2.47376
 Alpha virt. eigenvalues --    2.50392   2.58857   2.59368   2.61602   2.62934
 Alpha virt. eigenvalues --    2.63370   2.67037   2.75637   2.82042   2.86721
 Alpha virt. eigenvalues --    2.89079   2.89455   2.92067   2.96229   3.02762
 Alpha virt. eigenvalues --    3.06742   3.12349   3.19817   3.23104   3.31957
 Alpha virt. eigenvalues --    3.34036   3.51187   3.65524   3.83986   3.84951
 Alpha virt. eigenvalues --    4.15363   4.15482   4.18415   4.25603   4.36393
 Alpha virt. eigenvalues --    4.38974   4.46550   4.50801   4.66526   4.68529
 Alpha virt. eigenvalues --    4.80688   4.82392   4.83376   4.89597   5.02134
 Alpha virt. eigenvalues --    5.07801   5.10364   5.14995   5.19032   5.23324
 Alpha virt. eigenvalues --    5.27436   5.31183   5.33247   5.35286   5.61128
 Alpha virt. eigenvalues --    5.67377   5.77568   5.81165   5.95683   6.16278
 Alpha virt. eigenvalues --    6.30551   6.34253   6.39805   6.49338   6.50580
 Alpha virt. eigenvalues --    6.61177   6.66693   6.69622   6.75324   6.76606
 Alpha virt. eigenvalues --    6.83001   6.89771   6.99684   7.05771   7.06479
 Alpha virt. eigenvalues --    7.09171   7.12322   7.15850   7.18100   7.22352
 Alpha virt. eigenvalues --    7.24173   7.31155   7.32588   7.34688   7.39831
 Alpha virt. eigenvalues --    7.41154   7.48410   7.60906   7.61279   7.62794
 Alpha virt. eigenvalues --    7.66581   7.78341   7.88634   8.09074   8.30902
 Alpha virt. eigenvalues --    8.42587   8.54600  13.39769  14.39851  15.13174
 Alpha virt. eigenvalues --   16.15062
          Condensed to atoms (all electrons):
               1          2          3          4          5
     1  H    0.593265   0.126751   0.020542   0.012878  -0.000782
     2  O    0.126751   8.321220  -0.169779  -0.092095   0.015704
     3  O    0.020542  -0.169779   8.461867  -0.128277  -0.039090
     4  N    0.012878  -0.092095  -0.128277   6.971024  -0.056223
     5  O   -0.000782   0.015704  -0.039090  -0.056223   8.273368
 Mulliken charges:
               1
     1  H    0.247346
     2  O   -0.201801
     3  O   -0.145263
     4  N    0.292694
     5  O   -0.192976
 Sum of Mulliken charges =  -0.00000
 Mulliken charges with hydrogens summed into heavy atoms:
               1
     2  O    0.045545
     3  O   -0.145263
     4  N    0.292694
     5  O   -0.192976
 APT charges:
               1
     1  H    0.298901
     2  O   -0.291407
     3  O   -0.493922
     4  N    0.878631
     5  O   -0.392203
 Sum of APT charges =  -0.00000
 APT charges with hydrogens summed into heavy atoms:
               1
     2  O    0.007494
     3  O   -0.493922
     4  N    0.878631
     5  O   -0.392203
 Electronic spatial extent (au):  <R**2>=            253.1580
 Charge=             -0.0000 electrons
 Dipole moment (field-independent basis, Debye):
    X=              0.5614    Y=              1.3622    Z=              0.0000  Tot=              1.4733
 Quadrupole moment (field-independent basis, Debye-Ang):
   XX=            -22.2672   YY=            -18.6488   ZZ=            -22.0144
   XY=              3.3914   XZ=              0.0000   YZ=             -0.0000
 Traceless Quadrupole moment (field-independent basis, Debye-Ang):
   XX=             -1.2904   YY=              2.3280   ZZ=             -1.0376
   XY=              3.3914   XZ=              0.0000   YZ=             -0.0000
 Octapole moment (field-independent basis, Debye-Ang**2):
  XXX=              3.3895  YYY=             11.1665  ZZZ=             -0.0000  XYY=              8.0981
  XXY=              6.9974  XXZ=              0.0000  XZZ=             -1.5836  YZZ=             -0.8540
  YYZ=              0.0000  XYZ=              0.0000
 Hexadecapole moment (field-independent basis, Debye-Ang**3):
 XXXX=           -158.0512 YYYY=            -89.6837 ZZZZ=            -18.2529 XXXY=            -35.6718
 XXXZ=             -0.0000 YYYX=            -30.4976 YYYZ=             -0.0000 ZZZX=             -0.0000
 ZZZY=             -0.0000 XXYY=            -33.3157 XXZZ=            -31.0062 YYZZ=            -20.6136
 XXYZ=             -0.0000 YYXZ=             -0.0000 ZZXY=            -15.0704
 N-N= 1.168198557678D+02 E-N=-8.957499057887D+02  KE= 2.801890191165D+02
 Symmetry A'   KE= 2.662190526407D+02
 Symmetry A"   KE= 1.396996647574D+01
  Exact polarizability:  34.141   9.549  30.250   0.000   0.000  17.949
 Approx polarizability:  29.033   5.168  23.493   0.000   0.000  15.534
 No NMR shielding tensors so no spin-rotation constants.
 Leave Link  601 at Mon Feb 21 20:37:50 2022, MaxMem= 16106127360 cpu:               4.8 elap:               0.2
 (Enter /sw/contrib/gaussian/g16/B01/g16/l701.exe)
 ... and contract with generalized density number  2.
 Compute integral second derivatives.
 Leave Link  701 at Mon Feb 21 20:37:50 2022, MaxMem= 16106127360 cpu:               5.6 elap:               0.2
 (Enter /sw/contrib/gaussian/g16/B01/g16/l702.exe)
 L702 exits ... SP integral derivatives will be done elsewhere.
 Leave Link  702 at Mon Feb 21 20:37:50 2022, MaxMem= 16106127360 cpu:               0.5 elap:               0.0
 (Enter /sw/contrib/gaussian/g16/B01/g16/l703.exe)
 Integral derivatives from FoFJK, PRISM(SPDF).
 Compute integral second derivatives, UseDBF=F ICtDFT=           0.
 Calling FoFJK, ICntrl=  10100127 FMM=F ISym2X=1 I1Cent= 0 IOpClX= 0 NMat=1 NMatS=1 NMatT=0.
 FoFJK:  IHMeth= 1 ICntrl=10100127 DoSepK=F KAlg= 0 I1Cent=           0 FoldK=F
 IRaf=         0 NMat=       1 IRICut=       1 DoRegI=T DoRafI=F ISym2E= 1 IDoP0=0 IntGTp=1.
 FoFCou: FMM=F IPFlag=           0 FMFlag=      100000 FMFlg1=         800
         NFxFlg=           0 DoJE=F BraDBF=F KetDBF=F FulRan=T
         wScrn=  0.000000 ICntrl=  10100127 IOpCl=  0 I1Cent=           0 NGrid=           0
         NMat0=    1 NMatS0=      1 NMatT0=    0 NMatD0=    1 NMtDS0=    0 NMtDT0=    0
 Petite list used in FoFCou.
 Leave Link  703 at Mon Feb 21 20:38:06 2022, MaxMem= 16106127360 cpu:             419.8 elap:              15.1
 (Enter /sw/contrib/gaussian/g16/B01/g16/l716.exe)
 Dipole        = 2.20890544D-01 5.35911695D-01 1.58929841D-32
 Polarizability= 3.41406811D+01 9.54917234D+00 3.02499364D+01
                 1.90944011D-31 3.31050462D-31 1.79489079D+01
 Full mass-weighted force constant matrix:
 Low frequencies --- -302.9158  -64.5152   -0.0014   -0.0011   -0.0008   23.3523
 Low frequencies ---   38.5301  235.7250  344.7357
 ******    1 imaginary frequencies (negative Signs) ****** 
 Diagonal vibrational polarizability:
       14.1464163      25.3605120      39.0507079
 Harmonic frequencies (cm**-1), IR intensities (KM/Mole), Raman scattering
 activities (A**4/AMU), depolarization ratios for plane and unpolarized
 incident light, reduced masses (AMU), force constants (mDyne/A),
 and normal coordinates:
                      1                      2                      3
                     A"                     A"                     A'
 Frequencies --   -298.6907               235.4868               344.7201
 Red. masses --      1.1703                 8.3530                 8.4998
 Frc consts  --      0.0615                 0.2729                 0.5951
 IR Inten    --    125.0995                 2.7110                 3.7621
  Atom  AN      X      Y      Z        X      Y      Z        X      Y      Z
     1   1     0.00  -0.00   0.99     0.00  -0.00  -0.69     0.53  -0.46   0.00
     2   8    -0.00  -0.00  -0.07    -0.00  -0.00  -0.26    -0.10  -0.38   0.00
     3   8    -0.00   0.00  -0.03    -0.00   0.00   0.30    -0.15   0.42  -0.00
     4   7     0.00   0.00   0.07     0.00   0.00   0.46     0.05   0.27  -0.00
     5   8     0.00  -0.00  -0.02     0.00  -0.00  -0.39     0.17  -0.25   0.00
                      4                      5                      6
                     A'                     A'                     A'
 Frequencies --    450.0508               783.2966               963.1172
 Red. masses --     12.0973                12.9166                14.5655
 Frc consts  --      1.4437                 4.6693                 7.9604
 IR Inten    --    201.9291               172.1470                21.5776
  Atom  AN      X      Y      Z        X      Y      Z        X      Y      Z
     1   1     0.44   0.17   0.00    -0.33   0.22  -0.00    -0.29  -0.04  -0.00
     2   8     0.31   0.19   0.00     0.43   0.08  -0.00    -0.50   0.03  -0.00
     3   8     0.17   0.45  -0.00    -0.07  -0.27   0.00     0.73  -0.02   0.00
     4   7    -0.35  -0.40  -0.00    -0.14   0.62   0.00    -0.12   0.24   0.00
     5   8    -0.21  -0.30   0.00    -0.22  -0.37  -0.00    -0.11  -0.22  -0.00
                      7                      8                      9
                     A'                     A'                     A'
 Frequencies --   1356.1634              1676.8193              3779.4013
 Red. masses --      1.1407                13.4639                 1.0682
 Frc consts  --      1.2360                22.3045                 8.9895
 IR Inten    --    144.3256               143.7474                85.7029
  Atom  AN      X      Y      Z        X      Y      Z        X      Y      Z
     1   1     0.99  -0.09   0.00    -0.32   0.01  -0.00     0.14   0.99  -0.00
     2   8    -0.04   0.06   0.00    -0.00  -0.04  -0.00    -0.01  -0.06   0.00
     3   8    -0.01  -0.05  -0.00     0.00   0.15   0.00     0.00   0.00   0.00
     4   7     0.02   0.02  -0.00     0.71  -0.05   0.00    -0.00  -0.00  -0.00
     5   8    -0.03  -0.01   0.00    -0.60  -0.07  -0.00     0.00   0.00  -0.00

 -------------------
 - Thermochemistry -
 -------------------
 Temperature   298.150 Kelvin.  Pressure   1.00000 Atm.
 Atom     1 has atomic number  1 and mass   1.00783
 Atom     2 has atomic number  8 and mass  15.99491
 Atom     3 has atomic number  8 and mass  15.99491
 Atom     4 has atomic number  7 and mass  14.00307
 Atom     5 has atomic number  8 and mass  15.99491
 Molecular mass:    62.99564 amu.
 Principal axes and moments of inertia in atomic units:
                           1         2         3
     Eigenvalues --    32.75243 360.62889 393.38131
           X            0.81154  -0.58430   0.00000
           Y            0.58430   0.81154   0.00000
           Z            0.00000  -0.00000   1.00000
 This molecule is an asymmetric top.
 Rotational symmetry number  1.
 Rotational temperatures (Kelvin)      2.64450     0.24017     0.22018
 Rotational constants (GHZ):          55.10252     5.00443     4.58777
    1 imaginary frequencies ignored.
 Zero-point vibrational energy      57355.3 (Joules/Mol)
                                   13.70824 (Kcal/Mol)
 Warning -- explicit consideration of   3 degrees of freedom as
           vibrations may cause significant error
 Vibrational temperatures:    338.81   495.98   647.52  1126.99  1385.71
          (Kelvin)           1951.22  2412.57  5437.72
 
 Zero-point correction=                           0.021845 (Hartree/Particle)
 Thermal correction to Energy=                    0.025953
 Thermal correction to Enthalpy=                  0.026897
 Thermal correction to Gibbs Free Energy=        -0.004260
 Sum of electronic and zero-point Energies=           -280.424704
 Sum of electronic and thermal Energies=              -280.420596
 Sum of electronic and thermal Enthalpies=            -280.419652
 Sum of electronic and thermal Free Energies=         -280.450809
 
                     E (Thermal)             CV                S
                      KCal/Mol        Cal/Mol-Kelvin    Cal/Mol-Kelvin
 Total                   16.286             11.956             65.576
 Electronic               0.000              0.000              0.000
 Translational            0.889              2.981             38.341
 Rotational               0.889              2.981             23.056
 Vibrational             14.508              5.994              4.180
 Vibration     1          0.655              1.786              1.837
 Vibration     2          0.723              1.586              1.190
 Vibration     3          0.809              1.361              0.796
                       Q            Log10(Q)             Ln(Q)
 Total Bot       0.910919D+02          1.959480          4.511869
 Total V=0       0.101787D+13         12.007692         27.648733
 Vib (Bot)       0.189957D-09         -9.721344        -22.384222
 Vib (Bot)    1  0.834359D+00         -0.078647         -0.181091
 Vib (Bot)    2  0.537039D+00         -0.269994         -0.621684
 Vib (Bot)    3  0.381024D+00         -0.419048         -0.964894
 Vib (V=0)       0.212260D+01          0.326868          0.752642
 Vib (V=0)    1  0.147271D+01          0.168116          0.387101
 Vib (V=0)    2  0.123376D+01          0.091232          0.210070
 Vib (V=0)    3  0.112863D+01          0.052553          0.121007
 Electronic      0.100000D+01          0.000000          0.000000
 Translational   0.196526D+08          7.293420         16.793719
 Rotational      0.244008D+05          4.387404         10.102372
 
                                                                title
                                                             IR Spectrum
 
     3                                                                      1          1                                             
     7                                                                      6          3            9     7          4   3   2       
     7                                                                      7          5            6     8          5   4   3       
     9                                                                      7          6            3     3          0   5   5       
 
     X                                                                      X          X            X     X          X   X   X       
     X                                                                      X          X            X     X          X               
     X                                                                      X          X                  X          X               
     X                                                                      X          X                  X          X               
     X                                                                      X          X                  X          X               
     X                                                                      X          X                  X          X               
     X                                                                      X          X                  X          X               
     X                                                                      X          X                  X          X               
                                                                            X          X                  X          X               
                                                                            X          X                  X          X               
                                                                            X          X                  X          X               
                                                                            X          X                  X          X               
                                                                            X          X                  X          X               
                                                                            X          X                  X          X               
                                                                                                          X          X               
                                                                                                          X          X               
                                                                                                          X          X               
                                                                                                                     X               
                                                                                                                     X               
                                                                                                                     X               
 
 ***** Axes restored to original set *****
 -------------------------------------------------------------------
 Center     Atomic                   Forces (Hartrees/Bohr)
 Number     Number              X              Y              Z
 -------------------------------------------------------------------
      1        1           0.004843784    0.000000000    0.000362382
      2        8          -0.002740704    0.000000000    0.003770676
      3        8          -0.001281094   -0.000000000   -0.004012187
      4        7          -0.001107093   -0.000000000    0.000230380
      5        8           0.000285107   -0.000000000   -0.000351251
 -------------------------------------------------------------------
 Cartesian Forces:  Max     0.004843784 RMS     0.002074372
 -----------------------------------------------------------------------------------------------
                       Internal Coordinate Forces (Hartree/Bohr or radian)
  Cent   Atom   N1       Length/X         N2         Alpha/Y        N3         Beta/Z          J
 -----------------------------------------------------------------------------------------------
      1  H 
      2  O        1  -0.000362(     1)
      3  O        2  -0.002785(     2)      1  -0.008869(     5)
      4  N        3  -0.000155(     3)      2  -0.001325(     6)      1   0.000000(     8)     0
      5  O        4   0.000172(     4)      3  -0.000926(     7)      2   0.000000(     9)     0
 -----------------------------------------------------------------------------------------------
 Internal  Forces:  Max     0.008869438 RMS     0.003148562
 Force constants in Cartesian coordinates: 
                1             2             3             4             5 
      1  0.627675D-01
      2  0.000000D+00 -0.283791D-02
      3  0.162415D-02  0.000000D+00  0.512366D+00
      4 -0.395126D-01  0.000000D+00 -0.136214D-01  0.272301D+00
      5  0.000000D+00  0.544780D-02  0.000000D+00  0.000000D+00 -0.152944D-02
      6  0.509214D-01  0.000000D+00 -0.510047D+00  0.344040D-01  0.000000D+00
      7 -0.129493D-01  0.000000D+00  0.132105D-01 -0.218385D+00  0.000000D+00
      8  0.000000D+00 -0.776444D-03  0.000000D+00  0.000000D+00 -0.540915D-02
      9 -0.524749D-01  0.000000D+00  0.958752D-03 -0.217329D-01  0.000000D+00
     10 -0.901380D-02  0.000000D+00 -0.451815D-02 -0.159093D-01  0.000000D+00
     11  0.000000D+00 -0.298112D-02  0.000000D+00  0.000000D+00 -0.473114D-02
     12  0.583533D-02  0.000000D+00 -0.483032D-02  0.894865D-02  0.000000D+00
     13 -0.129173D-02  0.000000D+00  0.330488D-02  0.150596D-02  0.000000D+00
     14  0.000000D+00  0.114767D-02  0.000000D+00  0.000000D+00  0.622193D-02
     15 -0.590596D-02  0.000000D+00  0.155281D-02 -0.799839D-02  0.000000D+00
                6             7             8             9            10 
      6  0.602068D+00
      7 -0.240194D-01  0.334570D+00
      8  0.000000D+00  0.000000D+00  0.460525D-02
      9 -0.828556D-01  0.369732D-01  0.000000D+00  0.183866D+00
     10 -0.537996D-01 -0.873750D-01  0.000000D+00  0.175101D+00  0.828720D+00
     11  0.000000D+00  0.000000D+00  0.896603D-02  0.000000D+00  0.000000D+00
     12  0.165146D-01  0.640804D-01  0.000000D+00 -0.723239D-01  0.721305D-02
     13 -0.750635D-02 -0.158609D-01  0.000000D+00 -0.137867D+00 -0.716422D+00
     14  0.000000D+00  0.000000D+00 -0.738569D-02  0.000000D+00  0.000000D+00
     15 -0.256801D-01 -0.902446D-01  0.000000D+00 -0.296457D-01 -0.123997D+00
               11            12            13            14            15 
     11  0.801322D-02
     12  0.000000D+00  0.185149D+00
     13  0.000000D+00 -0.860775D-01  0.732069D+00
     14 -0.926701D-02  0.000000D+00  0.000000D+00  0.928309D-02
     15  0.000000D+00 -0.124509D+00  0.228146D+00  0.000000D+00  0.178282D+00
 Force constants in internal coordinates: 
                1             2             3             4             5 
      1  0.512366D+00
      2 -0.114165D-01  0.276167D+00
      3  0.332456D-02  0.272382D-02  0.116510D+00
      4 -0.361186D-02  0.563062D-02  0.153249D+00  0.811951D+00
      5  0.781779D-02  0.585581D-01  0.904076D-03  0.537594D-02  0.209792D+00
      6  0.415798D-02  0.591085D-01  0.396508D-01  0.225135D-01  0.305518D-01
      7 -0.118711D-02  0.375199D-01  0.321628D-01  0.841251D-01  0.214102D-01
      8  0.000000D+00  0.000000D+00  0.000000D+00  0.000000D+00  0.000000D+00
      9  0.000000D+00  0.000000D+00  0.000000D+00  0.000000D+00  0.000000D+00
                6             7             8             9 
      6  0.282460D+00
      7  0.957400D-01  0.482001D+00
      8  0.000000D+00  0.000000D+00 -0.836609D-02
      9  0.000000D+00  0.000000D+00 -0.432803D-02  0.412121D-01
 Leave Link  716 at Mon Feb 21 20:38:06 2022, MaxMem= 16106127360 cpu:               0.7 elap:               0.0
 (Enter /sw/contrib/gaussian/g16/B01/g16/l103.exe)

 GradGradGradGradGradGradGradGradGradGradGradGradGradGradGradGradGradGrad
 Berny optimization.
 Search for a local minimum.
 Step number   1 out of a maximum of    2
 All quantities printed in internal units (Hartrees-Bohrs-Radians)
 Second derivative matrix not updated -- analytic derivatives used.
 The second derivative matrix:
                          r1        r2        r3        r4        a1
           r1           0.51237
           r2          -0.01142   0.27617
           r3           0.00332   0.00272   0.11651
           r4          -0.00361   0.00563   0.15325   0.81195
           a1           0.00782   0.05856   0.00090   0.00538   0.20979
           a2           0.00416   0.05911   0.03965   0.02251   0.03055
           a3          -0.00119   0.03752   0.03216   0.08413   0.02141
           d1           0.00000  -0.00000  -0.00000  -0.00000  -0.00000
           d2          -0.00000   0.00000   0.00000   0.00000   0.00000
                          a2        a3        d1        d2
           a2           0.28246
           a3           0.09574   0.48200
           d1          -0.00000  -0.00000  -0.00837
           d2          -0.00000  -0.00000  -0.00433   0.04121
 ITU=  0
     Eigenvalues ---   -0.00874   0.04159   0.07801   0.17498   0.22207
     Eigenvalues ---    0.31698   0.51304   0.51555   0.87063
 Eigenvalue     1 is  -8.74D-03 should be greater than     0.000000 Eigenvector:
                          d1        d2        a3        a2        r3
   1                    0.99627   0.08632   0.00000   0.00000  -0.00000
                          r4        a1        r2        r1
   1                    0.00000  -0.00000   0.00000  -0.00000
 Angle between quadratic step and forces=  18.93 degrees.
 Linear search not attempted -- first point.
 Variable       Old X    -DE/DX   Delta X   Delta X   Delta X     New X
                                 (Linear)    (Quad)   (Total)
    r1        1.83110  -0.00036   0.00000  -0.00008  -0.00008   1.83102
    r2        2.74940  -0.00279   0.00000  -0.00126  -0.00126   2.74814
    r3        2.75670  -0.00015   0.00000  -0.00231  -0.00231   2.75440
    r4        2.21236   0.00017   0.00000   0.00093   0.00093   2.21328
    a1        1.74436  -0.00887   0.00000  -0.04199  -0.04199   1.70237
    a2        1.78543  -0.00132   0.00000   0.00038   0.00038   1.78581
    a3        1.90362  -0.00093   0.00000  -0.00004  -0.00004   1.90358
    d1        3.14159   0.00000   0.00000   0.00000   0.00000   3.14159
    d2        3.14159   0.00000   0.00000   0.00000   0.00000   3.14159
         Item               Value     Threshold  Converged?
 Maximum Force            0.008869     0.000450     NO 
 RMS     Force            0.003149     0.000300     NO 
 Maximum Displacement     0.041989     0.001800     NO 
 RMS     Displacement     0.014028     0.001200     NO 
 Predicted change in Energy=-1.879974D-04
                       ----------------------------
                       ! Non-Optimized Parameters !
                       ! (Angstroms and Degrees)  !
 ----------------------                            ----------------------
 !      Name          Value   Derivative information (Atomic Units)     !
 ------------------------------------------------------------------------
 !       r1          0.9689   -DE/DX =   -0.0004                        !
 !       r2          1.4543   -DE/DX =   -0.0028                        !
 !       r3          1.4576   -DE/DX =   -0.0002                        !
 !       r4          1.1712   -DE/DX =    0.0002                        !
 !       a1         97.5388   -DE/DX =   -0.0089                        !
 !       a2        102.3193   -DE/DX =   -0.0013                        !
 !       a3        109.0672   -DE/DX =   -0.0009                        !
 !       d1        180.0      -DE/DX =    0.0                           !
 !       d2        180.0      -DE/DX =    0.0                           !
 ------------------------------------------------------------------------
 GradGradGradGradGradGradGradGradGradGradGradGradGradGradGradGradGradGrad

 Leave Link  103 at Mon Feb 21 20:38:06 2022, MaxMem= 16106127360 cpu:               0.5 elap:               0.0
 (Enter /sw/contrib/gaussian/g16/B01/g16/l9999.exe)

 ----------------------------------------------------------------------

 Electric dipole moment (input orientation):
 (Debye = 10**-18 statcoulomb cm , SI units = C m)
                  (au)            (Debye)         (10**-30 SI)
   Tot        0.579650D+00      0.147332D+01      0.491448D+01
   x         -0.143335D+00     -0.364320D+00     -0.121524D+01
   y          0.000000D+00      0.000000D+00      0.000000D+00
   z         -0.561649D+00     -0.142757D+01     -0.476186D+01

 Dipole polarizability, Alpha (input orientation).
 (esu units = cm**3 , SI units = C**2 m**2 J**-1)
 Alpha(0;0):
               (au)            (10**-24 esu)      (10**-40 SI)
   iso        0.274465D+02      0.406715D+01      0.452532D+01
   aniso      0.220879D+02      0.327308D+01      0.364180D+01
   xx         0.314048D+02      0.465371D+01      0.517795D+01
   yx         0.000000D+00      0.000000D+00      0.000000D+00
   yy         0.179489D+02      0.265975D+01      0.295938D+01
   zx         0.971320D+01      0.143935D+01      0.160149D+01
   zy         0.000000D+00      0.000000D+00      0.000000D+00
   zz         0.329858D+02      0.488800D+01      0.543863D+01

 ----------------------------------------------------------------------

 Dipole orientation:
     1          0.00000000          0.00000000          0.00000000
     8         -0.45279051          0.00000000         -1.77423285
     8          2.05378943          0.00000000         -2.90394608
     7          1.48235570          0.00000000         -5.60077224
     8          3.37805767          0.00000000         -6.74131469

 Electric dipole moment (dipole orientation):
 (Debye = 10**-18 statcoulomb cm , SI units = C m)
                  (au)            (Debye)         (10**-30 SI)
   Tot        0.579650D+00      0.147332D+01      0.491448D+01
   x          0.000000D+00      0.000000D+00      0.000000D+00
   y          0.000000D+00      0.000000D+00      0.000000D+00
   z          0.579650D+00      0.147332D+01      0.491448D+01

 Dipole polarizability, Alpha (dipole orientation).
 (esu units = cm**3 , SI units = C**2 m**2 J**-1)
 Alpha(0;0):
               (au)            (10**-24 esu)      (10**-40 SI)
   iso        0.274465D+02      0.406715D+01      0.452532D+01
   aniso      0.220879D+02      0.327308D+01      0.364180D+01
   xx         0.268469D+02      0.397830D+01      0.442646D+01
   yx         0.000000D+00      0.000000D+00      0.000000D+00
   yy         0.179489D+02      0.265975D+01      0.295938D+01
   zx        -0.814653D+01     -0.120719D+01     -0.134318D+01
   zy         0.000000D+00      0.000000D+00      0.000000D+00
   zz         0.375437D+02      0.556340D+01      0.619012D+01

 ----------------------------------------------------------------------
 1\1\GINC-N2126\Freq\RMP2-FC\Aug-CC-pVTZ\H1N1O3\CGAVINH\21-Feb-2022\1\\
 #p freq mp2/aug-cc-pvtz density=current\\title\\0,1\H\O,1,r1\O,2,r2,1,
 a1\N,3,r3,2,a2,1,d1,0\O,4,r4,3,a3,2,d2,0\\r1=0.96897556\r2=1.45491931\
 r3=1.45878406\r4=1.17072885\a1=99.94454346\a2=102.29752444\a3=109.0695
 5123\d1=180.\d2=180.\\Version=ES64L-G16RevB.01\State=1-A'\HF=-279.5017
 975\MP2=-280.4465494\RMSD=3.816e-09\RMSF=2.074e-03\ZeroPoint=0.0218455
 \Thermal=0.0259532\Dipole=-0.1433347,0.,-0.5616486\DipoleDeriv=0.25831
 1,0.,0.0396783,0.,0.3584195,0.,0.0866766,0.,0.279973,-0.3120001,0.,-0.
 2036967,0.,-0.3194229,0.,-0.1273244,0.,-0.2427988,-0.0251466,0.,0.2020
 065,0.,-0.0847619,0.,-0.6938089,0.,-1.371857,0.8221608,0.,0.8766334,0.
 ,0.0660158,0.,0.8925278,0.,1.747715,-0.743325,0.,-0.9146215,0.,-0.0202
 504,0.,-0.158071,0.,-0.4130322\Polar=31.4047841,0.,17.9489079,9.713199
 1,0.,32.9858335\Quadrupole=-1.6082482,-0.7714389,2.3796871,0.,2.047146
 3,0.\PG=CS [SG(H1N1O3)]\NImag=1\\0.06276748,0.,-0.00283791,0.00162415,
 0.,0.51236596,-0.03951265,0.,-0.01362136,0.27230082,0.,0.00544780,0.,0
 .,-0.00152944,0.05092140,0.,-0.51004720,0.03440403,0.,0.60206821,-0.01
 294930,0.,0.01321048,-0.21838478,0.,-0.02401944,0.33456992,0.,-0.00077
 644,0.,0.,-0.00540915,0.,0.,0.00460525,-0.05247491,0.,0.00095875,-0.02
 173292,0.,-0.08285557,0.03697316,0.,0.18386641,-0.00901380,0.,-0.00451
 815,-0.01590935,0.,-0.05379963,-0.08737498,0.,0.17510126,0.82872007,0.
 ,-0.00298112,0.,0.,-0.00473114,0.,0.,0.00896603,0.,0.,0.00801322,0.005
 83533,0.,-0.00483032,0.00894865,0.,0.01651462,0.06408044,0.,-0.0723239
 2,0.00721305,0.,0.18514860,-0.00129173,0.,0.00330488,0.00150596,0.,-0.
 00750635,-0.01586085,0.,-0.13786658,-0.71642194,0.,-0.08607747,0.73206
 856,0.,0.00114767,0.,0.,0.00622193,0.,0.,-0.00738569,0.,0.,-0.00926701
 ,0.,0.,0.00928309,-0.00590596,0.,0.00155281,-0.00799839,0.,-0.02568006
 ,-0.09024464,0.,-0.02964568,-0.12399653,0.,-0.12450898,0.22814552,0.,0
 .17828190\\-0.00484378,0.,-0.00036238,0.00274070,0.,-0.00377068,0.0012
 8109,0.,0.00401219,0.00110709,0.,-0.00023038,-0.00028511,0.,0.00035125
 \\\@


 "MATHEMATICS IS THE ART OF GIVING THE SAME NAME
 TO DIFFERENT THINGS."
                    - H. POINCARE
 Job cpu time:       0 days  2 hours  0 minutes 13.5 seconds.
 Elapsed time:       0 days  0 hours  4 minutes 20.7 seconds.
 File lengths (MBytes):  RWF=   7239 Int=      0 D2E=      0 Chk=      8 Scr=      1
 Normal termination of Gaussian 16 at Mon Feb 21 20:38:07 2022.
