 Entering Gaussian System, Link 0=g16
 Input=hoono_r4_1p174692.gjf
 Output=hoono_r4_1p174692.log
 Initial command:
 /sw/contrib/gaussian/g16/B01/g16/l1.exe "/scr/Gau-20145.inp" -scrdir="/scr/"
 Entering Link 1 = /sw/contrib/gaussian/g16/B01/g16/l1.exe PID=     20146.
  
 Copyright (c) 1988-2017, Gaussian, Inc.  All Rights Reserved.
  
 This is part of the Gaussian(R) 16 program.  It is based on
 the Gaussian(R) 09 system (copyright 2009, Gaussian, Inc.),
 the Gaussian(R) 03 system (copyright 2003, Gaussian, Inc.),
 the Gaussian(R) 98 system (copyright 1998, Gaussian, Inc.),
 the Gaussian(R) 94 system (copyright 1995, Gaussian, Inc.),
 the Gaussian 92(TM) system (copyright 1992, Gaussian, Inc.),
 the Gaussian 90(TM) system (copyright 1990, Gaussian, Inc.),
 the Gaussian 88(TM) system (copyright 1988, Gaussian, Inc.),
 the Gaussian 86(TM) system (copyright 1986, Carnegie Mellon
 University), and the Gaussian 82(TM) system (copyright 1983,
 Carnegie Mellon University). Gaussian is a federally registered
 trademark of Gaussian, Inc.
  
 This software contains proprietary and confidential information,
 including trade secrets, belonging to Gaussian, Inc.
  
 This software is provided under written license and may be
 used, copied, transmitted, or stored only in accord with that
 written license.
  
 The following legend is applicable only to US Government
 contracts under FAR:
  
                    RESTRICTED RIGHTS LEGEND
  
 Use, reproduction and disclosure by the US Government is
 subject to restrictions as set forth in subparagraphs (a)
 and (c) of the Commercial Computer Software - Restricted
 Rights clause in FAR 52.227-19.
  
 Gaussian, Inc.
 340 Quinnipiac St., Bldg. 40, Wallingford CT 06492
  
  
 ---------------------------------------------------------------
 Warning -- This program may not be used in any manner that
 competes with the business of Gaussian, Inc. or will provide
 assistance to any competitor of Gaussian, Inc.  The licensee
 of this program is prohibited from giving any competitor of
 Gaussian, Inc. access to this program.  By using this program,
 the user acknowledges that Gaussian, Inc. is engaged in the
 business of creating and licensing software in the field of
 computational chemistry and represents and warrants to the
 licensee that it is not a competitor of Gaussian, Inc. and that
 it will not use this program in any manner prohibited above.
 ---------------------------------------------------------------
  

 Cite this work as:
 Gaussian 16, Revision B.01,
 M. J. Frisch, G. W. Trucks, H. B. Schlegel, G. E. Scuseria, 
 M. A. Robb, J. R. Cheeseman, G. Scalmani, V. Barone, 
 G. A. Petersson, H. Nakatsuji, X. Li, M. Caricato, A. V. Marenich, 
 J. Bloino, B. G. Janesko, R. Gomperts, B. Mennucci, H. P. Hratchian, 
 J. V. Ortiz, A. F. Izmaylov, J. L. Sonnenberg, D. Williams-Young, 
 F. Ding, F. Lipparini, F. Egidi, J. Goings, B. Peng, A. Petrone, 
 T. Henderson, D. Ranasinghe, V. G. Zakrzewski, J. Gao, N. Rega, 
 G. Zheng, W. Liang, M. Hada, M. Ehara, K. Toyota, R. Fukuda, 
 J. Hasegawa, M. Ishida, T. Nakajima, Y. Honda, O. Kitao, H. Nakai, 
 T. Vreven, K. Throssell, J. A. Montgomery, Jr., J. E. Peralta, 
 F. Ogliaro, M. J. Bearpark, J. J. Heyd, E. N. Brothers, K. N. Kudin, 
 V. N. Staroverov, T. A. Keith, R. Kobayashi, J. Normand, 
 K. Raghavachari, A. P. Rendell, J. C. Burant, S. S. Iyengar, 
 J. Tomasi, M. Cossi, J. M. Millam, M. Klene, C. Adamo, R. Cammi, 
 J. W. Ochterski, R. L. Martin, K. Morokuma, O. Farkas, 
 J. B. Foresman, and D. J. Fox, Gaussian, Inc., Wallingford CT, 2016.
 
 ******************************************
 Gaussian 16:  ES64L-G16RevB.01 20-Dec-2017
                21-Feb-2022 
 ******************************************
 %nproc=28
 Will use up to   28 processors via shared memory.
 %mem=120GB
 %chk=hoono_r4_1p174692.chk
 ---------------------------------------
 #p freq mp2/aug-cc-pvtz density=current
 ---------------------------------------
 1/10=4,30=1,38=1/1,3;
 2/12=2,17=6,18=5,40=1/2;
 3/5=16,6=1,7=10,11=9,25=1,30=1,71=2,140=1/1,2,3;
 4//1;
 5/5=2,38=5,98=1/2;
 8/6=3,8=1,10=1,19=11,30=-1/1;
 9/15=3,16=-3/6;
 11/6=1,8=1,15=11,17=12,24=-1,27=1,28=-2,29=300,32=6,42=3/1,2,10;
 10/6=2,21=1/2;
 8/6=4,8=1,10=1,19=11,30=-1/11,4;
 10/5=1,20=4/2;
 11/12=2,14=11,16=1,17=2,28=-2,42=3,76=2/2,10,12;
 6/7=2,8=2,9=2,10=2,22=-1/1;
 7/8=1,10=1,12=2,25=1,44=2/1,2,3,16;
 1/10=4,30=1/3;
 99//99;
 Leave Link    1 at Mon Feb 21 20:23:54 2022, MaxMem= 16106127360 cpu:               2.3 elap:               0.1
 (Enter /sw/contrib/gaussian/g16/B01/g16/l101.exe)
 -----
 title
 -----
 Symbolic Z-matrix:
 Charge =  0 Multiplicity = 1
 H
 O                    1    r1
 O                    2    r2       1    a1
 N                    3    r3       2    a2       1    d1       0
 O                    4    r4       3    a3       2    d2       0
       Variables:
  r1                    0.96898                  
  r2                    1.45492                  
  r3                    1.45878                  
  r4                    1.17469                  
  a1                   97.59495                  
  a2                  102.29752                  
  a3                  109.06955                  
  d1                  180.                       
  d2                  180.                       
 
 ITRead=  0  0  0  0  0
 MicOpt= -1 -1 -1 -1 -1
 NAtoms=      5 NQM=        5 NQMF=       0 NMMI=      0 NMMIF=      0
                NMic=       0 NMicF=      0.
                    Isotopes and Nuclear Properties:
 (Nuclear quadrupole moments (NQMom) in fm**2, nuclear magnetic moments (NMagM)
  in nuclear magnetons)

  Atom         1           2           3           4           5
 IAtWgt=           1          16          16          14          16
 AtmWgt=   1.0078250  15.9949146  15.9949146  14.0030740  15.9949146
 NucSpn=           1           0           0           2           0
 AtZEff=  -0.0000000  -0.0000000  -0.0000000  -0.0000000  -0.0000000
 NQMom=    0.0000000   0.0000000   0.0000000   2.0440000   0.0000000
 NMagM=    2.7928460   0.0000000   0.0000000   0.4037610   0.0000000
 AtZNuc=   1.0000000   8.0000000   8.0000000   7.0000000   8.0000000
 Leave Link  101 at Mon Feb 21 20:23:54 2022, MaxMem= 16106127360 cpu:               4.8 elap:               0.2
 (Enter /sw/contrib/gaussian/g16/B01/g16/l103.exe)

 GradGradGradGradGradGradGradGradGradGradGradGradGradGradGradGradGradGrad
 Berny optimization.
 Initialization pass.
                       ----------------------------
                       !    Initial Parameters    !
                       ! (Angstroms and Degrees)  !
 ----------------------                            ----------------------
 !      Name          Value   Derivative information (Atomic Units)     !
 ------------------------------------------------------------------------
 !       r1          0.969    calculate D2E/DX2 analytically            !
 !       r2          1.4549   calculate D2E/DX2 analytically            !
 !       r3          1.4588   calculate D2E/DX2 analytically            !
 !       r4          1.1747   calculate D2E/DX2 analytically            !
 !       a1         97.5949   calculate D2E/DX2 analytically            !
 !       a2        102.2975   calculate D2E/DX2 analytically            !
 !       a3        109.0696   calculate D2E/DX2 analytically            !
 !       d1        180.0      calculate D2E/DX2 analytically            !
 !       d2        180.0      calculate D2E/DX2 analytically            !
 ------------------------------------------------------------------------
 Trust Radius=3.00D-01 FncErr=1.00D-07 GrdErr=1.00D-07 EigMax=2.50D+02 EigMin=1.00D-04
 Number of steps in this run=      2 maximum allowed number of steps=      2.
 GradGradGradGradGradGradGradGradGradGradGradGradGradGradGradGradGradGrad

 Leave Link  103 at Mon Feb 21 20:23:55 2022, MaxMem= 16106127360 cpu:               1.1 elap:               0.1
 (Enter /sw/contrib/gaussian/g16/B01/g16/l202.exe)
                          Input orientation:                          
 ---------------------------------------------------------------------
 Center     Atomic      Atomic             Coordinates (Angstroms)
 Number     Number       Type             X           Y           Z
 ---------------------------------------------------------------------
      1          1           0        0.000000    0.000000    0.000000
      2          8           0        0.000000    0.000000    0.968976
      3          8           0        1.442156    0.000000    1.161271
      4          7           0        1.561752    0.000000    2.615144
      5          8           0        2.699707    0.000000    2.906622
 ---------------------------------------------------------------------
                    Distance matrix (angstroms):
                    1          2          3          4          5
     1  H    0.000000
     2  O    0.968976   0.000000
     3  O    1.851584   1.454919   0.000000
     4  N    3.045989   2.269127   1.458784   0.000000
     5  O    3.966973   3.323085   2.151206   1.174693   0.000000
 Stoichiometry    HNO3
 Framework group  CS[SG(HNO3)]
 Deg. of freedom     7
 Full point group                 CS      NOp   2
 Largest Abelian subgroup         CS      NOp   2
 Largest concise Abelian subgroup C1      NOp   1
                         Standard orientation:                         
 ---------------------------------------------------------------------
 Center     Atomic      Atomic             Coordinates (Angstroms)
 Number     Number       Type             X           Y           Z
 ---------------------------------------------------------------------
      1          1           0        1.547634    1.689620    0.000000
      2          8           0        1.453989    0.725180    0.000000
      3          8           0       -0.000000    0.673160   -0.000000
      4          7           0       -0.259544   -0.762349   -0.000000
      5          8           0       -1.420342   -0.942487   -0.000000
 ---------------------------------------------------------------------
 Rotational constants (GHZ):          54.9281945           5.0018032           4.5843489
 Leave Link  202 at Mon Feb 21 20:23:55 2022, MaxMem= 16106127360 cpu:               0.3 elap:               0.0
 (Enter /sw/contrib/gaussian/g16/B01/g16/l301.exe)
 Standard basis: Aug-CC-pVTZ (5D, 7F)
 Ernie: Thresh=  0.10000D-02 Tol=  0.10000D-05 Strict=F.
 Ernie:  12 primitive shells out of 131 were deleted.
 There are   166 symmetry adapted cartesian basis functions of A'  symmetry.
 There are    79 symmetry adapted cartesian basis functions of A"  symmetry.
 There are   136 symmetry adapted basis functions of A'  symmetry.
 There are    71 symmetry adapted basis functions of A"  symmetry.
   207 basis functions,   315 primitive gaussians,   245 cartesian basis functions
    16 alpha electrons       16 beta electrons
       nuclear repulsion energy       116.7520765526 Hartrees.
 IExCor=    0 DFT=F Ex=HF Corr=None ExCW=0 ScaHFX=  1.000000
 ScaDFX=  1.000000  1.000000  1.000000  1.000000 ScalE2=  1.000000  1.000000
 IRadAn=      5 IRanWt=     -1 IRanGd=            0 ICorTp=0 IEmpDi=  4
 NAtoms=    5 NActive=    5 NUniq=    5 SFac= 1.00D+00 NAtFMM=   60 NAOKFM=F Big=F
 Integral buffers will be    131072 words long.
 Raffenetti 1 integral format.
 Two-electron integral symmetry is turned on.
 Leave Link  301 at Mon Feb 21 20:23:55 2022, MaxMem= 16106127360 cpu:               2.3 elap:               0.1
 (Enter /sw/contrib/gaussian/g16/B01/g16/l302.exe)
 NPDir=0 NMtPBC=     1 NCelOv=     1 NCel=       1 NClECP=     1 NCelD=      1
         NCelK=      1 NCelE2=     1 NClLst=     1 CellRange=     0.0.
 One-electron integrals computed using PRISM.
 One-electron integral symmetry used in STVInt
 NBasis=   207 RedAO= T EigKep=  1.82D-04  NBF=   136    71
 NBsUse=   207 1.00D-06 EigRej= -1.00D+00 NBFU=   136    71
 Leave Link  302 at Mon Feb 21 20:23:55 2022, MaxMem= 16106127360 cpu:               4.6 elap:               0.2
 (Enter /sw/contrib/gaussian/g16/B01/g16/l303.exe)
 DipDrv:  MaxL=1.
 Leave Link  303 at Mon Feb 21 20:23:55 2022, MaxMem= 16106127360 cpu:               0.8 elap:               0.1
 (Enter /sw/contrib/gaussian/g16/B01/g16/l401.exe)
 ExpMin= 2.53D-02 ExpMax= 1.53D+04 ExpMxC= 5.22D+02 IAcc=3 IRadAn=         5 AccDes= 0.00D+00
 Harris functional with IExCor=  205 and IRadAn=       5 diagonalized for initial guess.
 HarFok:  IExCor=  205 AccDes= 0.00D+00 IRadAn=         5 IDoV= 1 UseB2=F ITyADJ=14
 ICtDFT=  3500011 ScaDFX=  1.000000  1.000000  1.000000  1.000000
 FoFCou: FMM=F IPFlag=           0 FMFlag=      100000 FMFlg1=           0
         NFxFlg=           0 DoJE=T BraDBF=F KetDBF=T FulRan=T
         wScrn=  0.000000 ICntrl=       500 IOpCl=  0 I1Cent=   200000004 NGrid=           0
         NMat0=    1 NMatS0=      1 NMatT0=    0 NMatD0=    1 NMtDS0=    0 NMtDT0=    0
 Petite list used in FoFCou.
 Harris En= -279.628741677641    
 JPrj=0 DoOrth=F DoCkMO=F.
 Initial guess orbital symmetries:
       Occupied  (A') (A') (A') (A') (A') (A') (A') (A') (A') (A')
                 (A") (A') (A') (A") (A") (A')
       Virtual   (A") (A') (A') (A') (A') (A') (A") (A') (A') (A')
                 (A") (A') (A") (A') (A') (A") (A') (A") (A') (A')
                 (A') (A') (A') (A') (A') (A") (A') (A") (A') (A')
                 (A") (A') (A") (A') (A') (A") (A') (A") (A') (A')
                 (A") (A') (A") (A') (A") (A') (A') (A') (A") (A")
                 (A') (A') (A') (A') (A") (A') (A") (A') (A") (A')
                 (A') (A') (A") (A') (A') (A") (A') (A") (A') (A')
                 (A") (A') (A') (A") (A") (A') (A') (A") (A') (A')
                 (A') (A") (A') (A") (A') (A") (A') (A") (A') (A')
                 (A') (A") (A') (A") (A') (A") (A") (A') (A') (A")
                 (A') (A') (A") (A') (A') (A') (A') (A") (A") (A')
                 (A") (A') (A') (A') (A") (A') (A') (A') (A") (A')
                 (A") (A') (A') (A") (A") (A') (A') (A") (A") (A')
                 (A') (A') (A') (A") (A") (A') (A") (A') (A') (A')
                 (A') (A") (A") (A') (A') (A") (A') (A') (A') (A')
                 (A") (A') (A') (A") (A') (A") (A') (A") (A') (A")
                 (A') (A") (A') (A") (A') (A") (A") (A") (A') (A')
                 (A") (A') (A") (A') (A") (A') (A") (A") (A') (A')
                 (A') (A') (A') (A') (A') (A') (A') (A') (A') (A')
                 (A')
 The electronic state of the initial guess is 1-A'.
 Leave Link  401 at Mon Feb 21 20:23:55 2022, MaxMem= 16106127360 cpu:               6.8 elap:               0.3
 (Enter /sw/contrib/gaussian/g16/B01/g16/l502.exe)
 Keep R1 ints in memory in symmetry-blocked form, NReq=348887737.
 FoFCou: FMM=F IPFlag=           0 FMFlag=           0 FMFlg1=           0
         NFxFlg=           0 DoJE=F BraDBF=F KetDBF=F FulRan=T
         wScrn=  0.000000 ICntrl=       600 IOpCl=  0 I1Cent=           0 NGrid=           0
         NMat0=    1 NMatS0=  21528 NMatT0=    0 NMatD0=    1 NMtDS0=    0 NMtDT0=    0
 Petite list used in FoFCou.
 Closed shell SCF:
 Using DIIS extrapolation, IDIIS=  1040.
 NGot= 16106127360 LenX= 15988850015 LenY= 15988789549
 Requested convergence on RMS density matrix=1.00D-08 within 128 cycles.
 Requested convergence on MAX density matrix=1.00D-06.
 Requested convergence on             energy=1.00D-06.
 No special actions if energy rises.

 Cycle   1  Pass 1  IDiag  1:
 E= -279.368954500386    
 DIIS: error= 2.68D-02 at cycle   1 NSaved=   1.
 NSaved= 1 IEnMin= 1 EnMin= -279.368954500386     IErMin= 1 ErrMin= 2.68D-02
 ErrMax= 2.68D-02  0.00D+00 EMaxC= 1.00D-01 BMatC= 4.39D-01 BMatP= 4.39D-01
 IDIUse=3 WtCom= 7.32D-01 WtEn= 2.68D-01
 Coeff-Com:  0.100D+01
 Coeff-En:   0.100D+01
 Coeff:      0.100D+01
 Gap=     0.512 Goal=   None    Shift=    0.000
 GapD=    0.512 DampG=2.000 DampE=0.500 DampFc=1.0000 IDamp=-1.
 RMSDP=1.63D-03 MaxDP=9.94D-02              OVMax= 1.15D-01

 Cycle   2  Pass 1  IDiag  1:
 E= -279.450523089689     Delta-E=       -0.081568589303 Rises=F Damp=F
 DIIS: error= 1.80D-02 at cycle   2 NSaved=   2.
 NSaved= 2 IEnMin= 2 EnMin= -279.450523089689     IErMin= 2 ErrMin= 1.80D-02
 ErrMax= 1.80D-02  0.00D+00 EMaxC= 1.00D-01 BMatC= 7.35D-02 BMatP= 4.39D-01
 IDIUse=3 WtCom= 8.20D-01 WtEn= 1.80D-01
 Coeff-Com:  0.198D+00 0.802D+00
 Coeff-En:   0.518D-02 0.995D+00
 Coeff:      0.163D+00 0.837D+00
 Gap=     0.532 Goal=   None    Shift=    0.000
 RMSDP=9.08D-04 MaxDP=3.76D-02 DE=-8.16D-02 OVMax= 6.99D-02

 Cycle   3  Pass 1  IDiag  1:
 E= -279.480462216791     Delta-E=       -0.029939127102 Rises=F Damp=F
 DIIS: error= 1.05D-02 at cycle   3 NSaved=   3.
 NSaved= 3 IEnMin= 3 EnMin= -279.480462216791     IErMin= 3 ErrMin= 1.05D-02
 ErrMax= 1.05D-02  0.00D+00 EMaxC= 1.00D-01 BMatC= 2.92D-02 BMatP= 7.35D-02
 IDIUse=3 WtCom= 8.95D-01 WtEn= 1.05D-01
 Coeff-Com: -0.331D-01 0.377D+00 0.656D+00
 Coeff-En:   0.000D+00 0.240D+00 0.760D+00
 Coeff:     -0.297D-01 0.363D+00 0.667D+00
 Gap=     0.511 Goal=   None    Shift=    0.000
 RMSDP=3.80D-04 MaxDP=1.56D-02 DE=-2.99D-02 OVMax= 3.88D-02

 Cycle   4  Pass 1  IDiag  1:
 E= -279.499894657352     Delta-E=       -0.019432440561 Rises=F Damp=F
 DIIS: error= 1.30D-03 at cycle   4 NSaved=   4.
 NSaved= 4 IEnMin= 4 EnMin= -279.499894657352     IErMin= 4 ErrMin= 1.30D-03
 ErrMax= 1.30D-03  0.00D+00 EMaxC= 1.00D-01 BMatC= 4.99D-04 BMatP= 2.92D-02
 IDIUse=3 WtCom= 9.87D-01 WtEn= 1.30D-02
 Coeff-Com: -0.117D-01 0.566D-01 0.158D+00 0.798D+00
 Coeff-En:   0.000D+00 0.000D+00 0.000D+00 0.100D+01
 Coeff:     -0.115D-01 0.558D-01 0.156D+00 0.800D+00
 Gap=     0.503 Goal=   None    Shift=    0.000
 RMSDP=9.09D-05 MaxDP=2.78D-03 DE=-1.94D-02 OVMax= 1.13D-02

 Cycle   5  Pass 1  IDiag  1:
 E= -279.500582401789     Delta-E=       -0.000687744437 Rises=F Damp=F
 DIIS: error= 7.41D-04 at cycle   5 NSaved=   5.
 NSaved= 5 IEnMin= 5 EnMin= -279.500582401789     IErMin= 5 ErrMin= 7.41D-04
 ErrMax= 7.41D-04  0.00D+00 EMaxC= 1.00D-01 BMatC= 8.83D-05 BMatP= 4.99D-04
 IDIUse=3 WtCom= 9.93D-01 WtEn= 7.41D-03
 Coeff-Com:  0.618D-02-0.724D-01-0.118D+00 0.193D-01 0.117D+01
 Coeff-En:   0.000D+00 0.000D+00 0.000D+00 0.000D+00 0.100D+01
 Coeff:      0.613D-02-0.719D-01-0.117D+00 0.192D-01 0.116D+01
 Gap=     0.503 Goal=   None    Shift=    0.000
 RMSDP=7.70D-05 MaxDP=2.13D-03 DE=-6.88D-04 OVMax= 1.12D-02

 Cycle   6  Pass 1  IDiag  1:
 E= -279.500903321969     Delta-E=       -0.000320920180 Rises=F Damp=F
 DIIS: error= 2.89D-04 at cycle   6 NSaved=   6.
 NSaved= 6 IEnMin= 6 EnMin= -279.500903321969     IErMin= 6 ErrMin= 2.89D-04
 ErrMax= 2.89D-04  0.00D+00 EMaxC= 1.00D-01 BMatC= 1.70D-05 BMatP= 8.83D-05
 IDIUse=3 WtCom= 9.97D-01 WtEn= 2.89D-03
 Coeff-Com:  0.523D-03 0.253D-02 0.618D-02-0.131D+00-0.243D+00 0.137D+01
 Coeff-En:   0.000D+00 0.000D+00 0.000D+00 0.000D+00 0.000D+00 0.100D+01
 Coeff:      0.521D-03 0.252D-02 0.616D-02-0.130D+00-0.243D+00 0.136D+01
 Gap=     0.503 Goal=   None    Shift=    0.000
 RMSDP=4.59D-05 MaxDP=1.27D-03 DE=-3.21D-04 OVMax= 5.65D-03

 Cycle   7  Pass 1  IDiag  1:
 E= -279.500977645998     Delta-E=       -0.000074324028 Rises=F Damp=F
 DIIS: error= 1.23D-04 at cycle   7 NSaved=   7.
 NSaved= 7 IEnMin= 7 EnMin= -279.500977645998     IErMin= 7 ErrMin= 1.23D-04
 ErrMax= 1.23D-04  0.00D+00 EMaxC= 1.00D-01 BMatC= 4.42D-06 BMatP= 1.70D-05
 IDIUse=3 WtCom= 9.99D-01 WtEn= 1.23D-03
 Coeff-Com: -0.950D-03 0.135D-01 0.265D-01-0.227D-01-0.283D+00 0.375D+00
 Coeff-Com:  0.892D+00
 Coeff-En:   0.000D+00 0.000D+00 0.000D+00 0.000D+00 0.000D+00 0.000D+00
 Coeff-En:   0.100D+01
 Coeff:     -0.949D-03 0.135D-01 0.264D-01-0.227D-01-0.282D+00 0.374D+00
 Coeff:      0.892D+00
 Gap=     0.503 Goal=   None    Shift=    0.000
 RMSDP=1.33D-05 MaxDP=3.79D-04 DE=-7.43D-05 OVMax= 1.56D-03

 Cycle   8  Pass 1  IDiag  1:
 E= -279.500986500229     Delta-E=       -0.000008854232 Rises=F Damp=F
 DIIS: error= 5.88D-05 at cycle   8 NSaved=   8.
 NSaved= 8 IEnMin= 8 EnMin= -279.500986500229     IErMin= 8 ErrMin= 5.88D-05
 ErrMax= 5.88D-05  0.00D+00 EMaxC= 1.00D-01 BMatC= 6.25D-07 BMatP= 4.42D-06
 IDIUse=1 WtCom= 1.00D+00 WtEn= 0.00D+00
 Coeff-Com: -0.448D-03 0.337D-02 0.750D-02 0.276D-01-0.395D-01-0.202D+00
 Coeff-Com:  0.190D+00 0.101D+01
 Coeff:     -0.448D-03 0.337D-02 0.750D-02 0.276D-01-0.395D-01-0.202D+00
 Coeff:      0.190D+00 0.101D+01
 Gap=     0.503 Goal=   None    Shift=    0.000
 RMSDP=6.88D-06 MaxDP=2.04D-04 DE=-8.85D-06 OVMax= 7.42D-04

 Cycle   9  Pass 1  IDiag  1:
 E= -279.500988296503     Delta-E=       -0.000001796274 Rises=F Damp=F
 DIIS: error= 1.64D-05 at cycle   9 NSaved=   9.
 NSaved= 9 IEnMin= 9 EnMin= -279.500988296503     IErMin= 9 ErrMin= 1.64D-05
 ErrMax= 1.64D-05  0.00D+00 EMaxC= 1.00D-01 BMatC= 7.31D-08 BMatP= 6.25D-07
 IDIUse=1 WtCom= 1.00D+00 WtEn= 0.00D+00
 Coeff-Com:  0.128D-03-0.176D-02-0.314D-02-0.231D-02 0.348D-01 0.132D-02
 Coeff-Com: -0.175D+00-0.101D+00 0.125D+01
 Coeff:      0.128D-03-0.176D-02-0.314D-02-0.231D-02 0.348D-01 0.132D-02
 Coeff:     -0.175D+00-0.101D+00 0.125D+01
 Gap=     0.503 Goal=   None    Shift=    0.000
 RMSDP=1.99D-06 MaxDP=6.89D-05 DE=-1.80D-06 OVMax= 1.83D-04

 Cycle  10  Pass 1  IDiag  1:
 E= -279.500988466432     Delta-E=       -0.000000169929 Rises=F Damp=F
 DIIS: error= 4.22D-06 at cycle  10 NSaved=  10.
 NSaved=10 IEnMin=10 EnMin= -279.500988466432     IErMin=10 ErrMin= 4.22D-06
 ErrMax= 4.22D-06  0.00D+00 EMaxC= 1.00D-01 BMatC= 5.87D-09 BMatP= 7.31D-08
 IDIUse=1 WtCom= 1.00D+00 WtEn= 0.00D+00
 Coeff-Com:  0.296D-04-0.221D-03-0.280D-03-0.272D-02 0.119D-02 0.200D-01
 Coeff-Com: -0.126D-01-0.717D-01-0.930D-01 0.116D+01
 Coeff:      0.296D-04-0.221D-03-0.280D-03-0.272D-02 0.119D-02 0.200D-01
 Coeff:     -0.126D-01-0.717D-01-0.930D-01 0.116D+01
 Gap=     0.503 Goal=   None    Shift=    0.000
 RMSDP=5.21D-07 MaxDP=2.18D-05 DE=-1.70D-07 OVMax= 4.43D-05

 Cycle  11  Pass 1  IDiag  1:
 E= -279.500988479915     Delta-E=       -0.000000013484 Rises=F Damp=F
 DIIS: error= 2.12D-06 at cycle  11 NSaved=  11.
 NSaved=11 IEnMin=11 EnMin= -279.500988479915     IErMin=11 ErrMin= 2.12D-06
 ErrMax= 2.12D-06  0.00D+00 EMaxC= 1.00D-01 BMatC= 7.09D-10 BMatP= 5.87D-09
 IDIUse=1 WtCom= 1.00D+00 WtEn= 0.00D+00
 Coeff-Com: -0.220D-04 0.249D-03 0.498D-03 0.561D-03-0.436D-02-0.381D-02
 Coeff-Com:  0.226D-01 0.306D-01-0.141D+00-0.178D+00 0.127D+01
 Coeff:     -0.220D-04 0.249D-03 0.498D-03 0.561D-03-0.436D-02-0.381D-02
 Coeff:      0.226D-01 0.306D-01-0.141D+00-0.178D+00 0.127D+01
 Gap=     0.503 Goal=   None    Shift=    0.000
 RMSDP=1.86D-07 MaxDP=6.81D-06 DE=-1.35D-08 OVMax= 1.80D-05

 Cycle  12  Pass 1  IDiag  1:
 E= -279.500988481884     Delta-E=       -0.000000001969 Rises=F Damp=F
 DIIS: error= 6.04D-07 at cycle  12 NSaved=  12.
 NSaved=12 IEnMin=12 EnMin= -279.500988481884     IErMin=12 ErrMin= 6.04D-07
 ErrMax= 6.04D-07  0.00D+00 EMaxC= 1.00D-01 BMatC= 7.71D-11 BMatP= 7.09D-10
 IDIUse=1 WtCom= 1.00D+00 WtEn= 0.00D+00
 Coeff-Com:  0.136D-05-0.307D-04-0.661D-04 0.191D-03 0.112D-02-0.240D-02
 Coeff-Com: -0.425D-02 0.569D-02 0.426D-01-0.119D+00-0.267D+00 0.134D+01
 Coeff:      0.136D-05-0.307D-04-0.661D-04 0.191D-03 0.112D-02-0.240D-02
 Coeff:     -0.425D-02 0.569D-02 0.426D-01-0.119D+00-0.267D+00 0.134D+01
 Gap=     0.503 Goal=   None    Shift=    0.000
 RMSDP=7.48D-08 MaxDP=2.94D-06 DE=-1.97D-09 OVMax= 6.92D-06

 Cycle  13  Pass 1  IDiag  1:
 E= -279.500988482132     Delta-E=       -0.000000000247 Rises=F Damp=F
 DIIS: error= 1.76D-07 at cycle  13 NSaved=  13.
 NSaved=13 IEnMin=13 EnMin= -279.500988482132     IErMin=13 ErrMin= 1.76D-07
 ErrMax= 1.76D-07  0.00D+00 EMaxC= 1.00D-01 BMatC= 4.31D-12 BMatP= 7.71D-11
 IDIUse=1 WtCom= 1.00D+00 WtEn= 0.00D+00
 Coeff-Com:  0.131D-05-0.142D-04-0.228D-04-0.931D-04 0.123D-03 0.792D-03
 Coeff-Com: -0.945D-03-0.325D-02 0.656D-03 0.420D-01-0.400D-01-0.319D+00
 Coeff-Com:  0.132D+01
 Coeff:      0.131D-05-0.142D-04-0.228D-04-0.931D-04 0.123D-03 0.792D-03
 Coeff:     -0.945D-03-0.325D-02 0.656D-03 0.420D-01-0.400D-01-0.319D+00
 Coeff:      0.132D+01
 Gap=     0.503 Goal=   None    Shift=    0.000
 RMSDP=1.98D-08 MaxDP=5.82D-07 DE=-2.47D-10 OVMax= 1.60D-06

 Cycle  14  Pass 1  IDiag  1:
 E= -279.500988482144     Delta-E=       -0.000000000013 Rises=F Damp=F
 DIIS: error= 2.52D-08 at cycle  14 NSaved=  14.
 NSaved=14 IEnMin=14 EnMin= -279.500988482144     IErMin=14 ErrMin= 2.52D-08
 ErrMax= 2.52D-08  0.00D+00 EMaxC= 1.00D-01 BMatC= 2.10D-13 BMatP= 4.31D-12
 IDIUse=1 WtCom= 1.00D+00 WtEn= 0.00D+00
 Coeff-Com: -0.193D-06 0.315D-05 0.562D-05 0.449D-05-0.837D-04 0.479D-04
 Coeff-Com:  0.293D-03 0.214D-03-0.247D-02 0.162D-02 0.167D-01-0.258D-01
 Coeff-Com: -0.198D+00 0.121D+01
 Coeff:     -0.193D-06 0.315D-05 0.562D-05 0.449D-05-0.837D-04 0.479D-04
 Coeff:      0.293D-03 0.214D-03-0.247D-02 0.162D-02 0.167D-01-0.258D-01
 Coeff:     -0.198D+00 0.121D+01
 Gap=     0.503 Goal=   None    Shift=    0.000
 RMSDP=3.90D-09 MaxDP=9.41D-08 DE=-1.25D-11 OVMax= 3.52D-07

 SCF Done:  E(RHF) =  -279.500988482     A.U. after   14 cycles
            NFock= 14  Conv=0.39D-08     -V/T= 2.0024
 KE= 2.788261331609D+02 PE=-8.948156606433D+02 EE= 2.197364624477D+02
 Leave Link  502 at Mon Feb 21 20:23:59 2022, MaxMem= 16106127360 cpu:              55.9 elap:               3.7
 (Enter /sw/contrib/gaussian/g16/B01/g16/l801.exe)
 ExpMin= 2.53D-02 ExpMax= 1.53D+04 ExpMxC= 5.22D+02 IAcc=3 IRadAn=         5 AccDes= 0.00D+00
 HarFok:  IExCor=  205 AccDes= 0.00D+00 IRadAn=         5 IDoV=-2 UseB2=F ITyADJ=14
 ICtDFT= 12500011 ScaDFX=  1.000000  1.000000  1.000000  1.000000
 Largest valence mixing into a core orbital is  2.09D-04
 Largest core mixing into a valence orbital is  3.64D-05
 Range of M.O.s used for correlation:     5   207
 NBasis=   207 NAE=    16 NBE=    16 NFC=     4 NFV=     0
 NROrb=    203 NOA=    12 NOB=    12 NVA=   191 NVB=   191

 **** Warning!!: The largest alpha MO coefficient is  0.17665994D+02

 Leave Link  801 at Mon Feb 21 20:23:59 2022, MaxMem= 16106127360 cpu:               2.3 elap:               0.1
 (Enter /sw/contrib/gaussian/g16/B01/g16/l906.exe)
 Frozen-core derivative calculation, NFC=   4 NFV=   0.
 FulOut=F Deriv=T AODrv=T NAtomX=     5
   MMem=           0  MDisk=          12 MDiskD=          12
  W3Min=      811440 MinDsk=     2425030 NBas6D=         245
 NBas2D=       30762    NTT=       30135    LW2=     7400000
    MDV= 16105574283 MDiskM=      328644 NBas2p=       30702
 Disk-based method using ON**2 memory for 12 occupieds at a time.
 Permanent disk used for amplitudes=    11516536 words.
 Estimated scratch disk usage=   321251614 words.
 IMap=   1   2   3   4   5   6   7   8   9  10  11  12  13  14  15  16
 Actual    scratch disk usage=   310331678 words.
 JobTyp=1 Pass  1:  I=   5 to  16 NPSUse= 28 ParTrn=T ParDer=T DoDerP=T.
 (rs|ai) integrals will be sorted in core.
 Spin components of T(2) and E(2):
     alpha-alpha T2 =       0.3410756219D-01 E2=     -0.1224914533D+00
     alpha-beta  T2 =       0.1873092100D+00 E2=     -0.7007436829D+00
     beta-beta   T2 =       0.3410756219D-01 E2=     -0.1224914533D+00
 The integrals were generated   1 times.
 ANorm=    0.1120501823D+01
 E2 =    -0.9457265895D+00 EUMP2 =    -0.28044671507165D+03
 Leave Link  906 at Mon Feb 21 20:25:36 2022, MaxMem= 16106127360 cpu:            2702.1 elap:              96.6
 (Enter /sw/contrib/gaussian/g16/B01/g16/l1101.exe)
 Using compressed Sx but separate Hx and Fx, NAtomX=     5.
 Will process      6 centers per pass.
 Leave Link 1101 at Mon Feb 21 20:25:36 2022, MaxMem= 16106127360 cpu:               5.1 elap:               0.2
 (Enter /sw/contrib/gaussian/g16/B01/g16/l1102.exe)
 Leave Link 1102 at Mon Feb 21 20:25:36 2022, MaxMem= 16106127360 cpu:               1.6 elap:               0.1
 (Enter /sw/contrib/gaussian/g16/B01/g16/l1110.exe)
 Forming Gx(P) for the SCF density, NAtomX=     5.
 Integral derivatives from FoFJK, PRISM(SPDF).
 Do as many integral derivatives as possible in FoFJK.
 G2DrvN: MDV=   16106126844.
 G2DrvN: will do     6 centers at a time, making    1 passes.
 Calling FoFCou, ICntrl=  3107 FMM=F I1Cent=   0 AccDes= 0.00D+00.
 FoFJK:  IHMeth= 1 ICntrl=    3107 DoSepK=F KAlg= 0 I1Cent=           0 FoldK=F
 IRaf=         0 NMat=       1 IRICut=       1 DoRegI=T DoRafI=F ISym2E= 1 IDoP0=0 IntGTp=1.
 FoFCou: FMM=F IPFlag=           0 FMFlag=      100000 FMFlg1=           0
         NFxFlg=           0 DoJE=F BraDBF=F KetDBF=F FulRan=T
         wScrn=  0.000000 ICntrl=      3107 IOpCl=  0 I1Cent=           0 NGrid=           0
         NMat0=    1 NMatS0=      1 NMatT0=    0 NMatD0=    1 NMtDS0=    0 NMtDT0=    0
 Petite list used in FoFCou.
 End of G2Drv F.D. properties file   721 does not exist.
 End of G2Drv F.D. properties file   722 does not exist.
 End of G2Drv F.D. properties file   788 does not exist.
 Leave Link 1110 at Mon Feb 21 20:25:39 2022, MaxMem= 16106127360 cpu:              82.6 elap:               3.0
 (Enter /sw/contrib/gaussian/g16/B01/g16/l1002.exe)
 Minotr:  Closed shell wavefunction.
          IDoAtm=11111
          Frozen-core window.
          Direct CPHF calculation.
          Differentiating once with respect to electric field.
                with respect to dipole field.
          Differentiating once with respect to nuclear coordinates.
          Requested convergence is 1.0D-08 RMS, and 1.0D-07 maximum.
          Secondary convergence is 1.0D-12 RMS, and 1.0D-12 maximum.
          NewPWx=T KeepS1=T KeepF1=T KeepIn=T MapXYZ=F SortEE=F KeepMc=T.
 Keep R1 ints in memory in symmetry-blocked form, NReq=348888983.
 FoFCou: FMM=F IPFlag=           0 FMFlag=           0 FMFlg1=           0
         NFxFlg=           0 DoJE=F BraDBF=F KetDBF=F FulRan=T
         wScrn=  0.000000 ICntrl=       600 IOpCl=  0 I1Cent=           0 NGrid=           0
         NMat0=    1 NMatS0=  21528 NMatT0=    0 NMatD0=    1 NMtDS0=    0 NMtDT0=    0
 Petite list used in FoFCou.
          MDV=   16106127360 using IRadAn=       1.
          Solving linear equations simultaneously, MaxMat=       0.
          There are    18 degrees of freedom in the 1st order CPHF.  IDoFFX=6 NUNeed=    18.
     15 vectors produced by pass  0 Test12= 1.70D-14 5.56D-09 XBig12= 8.33D+00 1.05D+00.
 AX will form    15 AO Fock derivatives at one time.
     15 vectors produced by pass  1 Test12= 1.70D-14 5.56D-09 XBig12= 1.36D+00 2.65D-01.
     15 vectors produced by pass  2 Test12= 1.70D-14 5.56D-09 XBig12= 1.43D-01 9.94D-02.
     15 vectors produced by pass  3 Test12= 1.70D-14 5.56D-09 XBig12= 5.03D-03 1.12D-02.
     15 vectors produced by pass  4 Test12= 1.70D-14 5.56D-09 XBig12= 1.02D-04 1.98D-03.
     15 vectors produced by pass  5 Test12= 1.70D-14 5.56D-09 XBig12= 1.43D-06 1.78D-04.
     15 vectors produced by pass  6 Test12= 1.70D-14 5.56D-09 XBig12= 1.13D-08 1.50D-05.
     12 vectors produced by pass  7 Test12= 1.70D-14 5.56D-09 XBig12= 8.37D-11 1.35D-06.
      3 vectors produced by pass  8 Test12= 1.70D-14 5.56D-09 XBig12= 5.88D-13 1.20D-07.
      2 vectors produced by pass  9 Test12= 1.70D-14 5.56D-09 XBig12= 3.89D-15 9.92D-09.
 InvSVY:  IOpt=1 It=  1 EMax= 1.22D-15
 Solved reduced A of dimension   122 with    15 vectors.
 FullF1:  Do perturbations      1 to      18.
 Saving first derivative matrices.
 End of Minotr F.D. properties file   721 does not exist.
 End of Minotr F.D. properties file   722 does not exist.
 End of Minotr F.D. properties file   788 does not exist.
 Leave Link 1002 at Mon Feb 21 20:25:42 2022, MaxMem= 16106127360 cpu:              81.8 elap:               3.0
 (Enter /sw/contrib/gaussian/g16/B01/g16/l811.exe)
 MDV= 16106127360.
 Form MO integral derivatives with frozen-active canonical formalism.
 MOERI=1 MOERIx=1 NAtoms=     5 NAtomX=     5.
 Discarding MO integrals.
 MO basis two electron integral derivatives will not be stored on disk.
 IAlg= 3 DoFC=T DoPWx=T Debug=F.
 Frozen-core window:  NFC=   4 NFV=   0.
 Reordered first order wavefunction length =     18678272
 In DefCFB: NBatch=  1 ICI= 16 ICA=191 LFMax= 96
            Large arrays: LIAPS=   619940160 LIARS=   288257200 words.
 In StABat: MaxSiz= 55 MinSiz= 25 NAtomB=  5
 DoIAMN: NPSUse= 28.
 Leave Link  811 at Mon Feb 21 20:27:04 2022, MaxMem= 16106127360 cpu:            2279.8 elap:              81.6
 (Enter /sw/contrib/gaussian/g16/B01/g16/l804.exe)
 Frozen-core window:  NFC=   4 NFV=   0.
 Closed-shell transformation, MDV= 16106127360 ITran=4 ISComp=1.
 Semi-Direct transformation.
 ModeAB=           2 MOrb=            16 LenV=   16104923065
 LASXX=     67341636 LTotXX=    67341636 LenRXX=    67341636
 LTotAB=    68301760 MaxLAS=    99807120 LenRXY=    99807120
 NonZer=   134683272 LenScr=   202817536 LnRSAI=           0
 LnScr1=           0 LExtra=           0 Total=    369966292
 MaxDsk=          -1 SrtSym=           F ITran=            4
 DoSDTr:  NPSUse= 28
 JobTyp=0 Pass  1:  I=   1 to  16.
 (rs|ai) integrals will be sorted in core.
 Complete sort for first half transformation.
 First half transformation complete.
 Begin second half transformation for I=  10.
 Begin second half transformation for I=  10.
 Complete sort for second half transformation.
 Second half transformation complete.
 Spin components of T(2) and E(2):
     alpha-alpha T2 =       0.3410756219D-01 E2=     -0.1224914533D+00
     alpha-beta  T2 =       0.1873092100D+00 E2=     -0.7007436829D+00
     beta-beta   T2 =       0.3410756219D-01 E2=     -0.1224914533D+00
 ANorm=    0.1584628874D+01
 E2 =    -0.9457265895D+00 EUMP2 =    -0.28044671507165D+03
 Leave Link  804 at Mon Feb 21 20:27:19 2022, MaxMem= 16106127360 cpu:             440.4 elap:              15.8
 (Enter /sw/contrib/gaussian/g16/B01/g16/l1002.exe)
 Minotr:  Closed shell wavefunction.
          Computing MP2/KS-MP2 derivatives.
          Using Z-Vector for PSCF gradient.
          Skipping F1 and S1 gradient terms here.
          IDoAtm=11111
          Frozen-core window.
          Using MO integrals in the linear equations.
          Forming densities via direct SCF.
          Differentiating once with respect to electric field.
                with respect to dipole field.
          Differentiating once with respect to nuclear coordinates.
          Using symmetry in CPHF.
          Requested convergence is 1.0D-10 RMS, and 1.0D-09 maximum.
          NewPWx=F KeepS1=T KeepF1=T KeepIn=T MapXYZ=F SortEE=F KeepMc=T.
          MDV=   16106127360 using IRadAn=       5.
          Solving linear equations separately, MaxMat=       0.
          There are     1 degrees of freedom in the 1st order CPHF.  IDoFFX=0 NUNeed=     1.
 FoFJK:  IHMeth= 1 ICntrl=       0 DoSepK=F KAlg= 0 I1Cent=           0 FoldK=F
 IRaf=         0 NMat=       1 IRICut=       1 DoRegI=T DoRafI=F ISym2E= 0 IDoP0=0 IntGTp=1.
 FoFCou: FMM=F IPFlag=           0 FMFlag=      100000 FMFlg1=           0
         NFxFlg=           0 DoJE=F BraDBF=F KetDBF=F FulRan=T
         wScrn=  0.000000 ICntrl=         0 IOpCl=  0 I1Cent=           0 NGrid=           0
         NMat0=    1 NMatS0=      1 NMatT0=    0 NMatD0=    1 NMtDS0=    0 NMtDT0=    0
 Symmetry not used in FoFCou.
 LinEq1:  Iter=  0 NonCon=     1 RMS=5.98D-03 Max=1.34D-01 NDo=     1
 LinEq1:  Iter=  1 NonCon=     1 RMS=1.92D-03 Max=3.88D-02 NDo=     1
 LinEq1:  Iter=  2 NonCon=     1 RMS=8.76D-04 Max=1.42D-02 NDo=     1
 LinEq1:  Iter=  3 NonCon=     1 RMS=3.91D-04 Max=8.00D-03 NDo=     1
 LinEq1:  Iter=  4 NonCon=     1 RMS=1.21D-04 Max=1.93D-03 NDo=     1
 LinEq1:  Iter=  5 NonCon=     1 RMS=4.68D-05 Max=7.46D-04 NDo=     1
 LinEq1:  Iter=  6 NonCon=     1 RMS=2.09D-05 Max=2.39D-04 NDo=     1
 LinEq1:  Iter=  7 NonCon=     1 RMS=8.38D-06 Max=1.62D-04 NDo=     1
 LinEq1:  Iter=  8 NonCon=     1 RMS=3.57D-06 Max=3.49D-05 NDo=     1
 LinEq1:  Iter=  9 NonCon=     1 RMS=9.69D-07 Max=1.33D-05 NDo=     1
 LinEq1:  Iter= 10 NonCon=     1 RMS=1.90D-07 Max=2.06D-06 NDo=     1
 LinEq1:  Iter= 11 NonCon=     1 RMS=3.53D-08 Max=3.65D-07 NDo=     1
 LinEq1:  Iter= 12 NonCon=     1 RMS=8.52D-09 Max=1.32D-07 NDo=     1
 LinEq1:  Iter= 13 NonCon=     1 RMS=1.54D-09 Max=2.64D-08 NDo=     1
 LinEq1:  Iter= 14 NonCon=     1 RMS=2.79D-10 Max=3.91D-09 NDo=     1
 LinEq1:  Iter= 15 NonCon=     0 RMS=4.98D-11 Max=5.56D-10 NDo=     1
 Linear equations converged to 1.000D-10 1.000D-09 after    15 iterations.
 End of Minotr F.D. properties file   721 does not exist.
 End of Minotr F.D. properties file   722 does not exist.
 End of Minotr F.D. properties file   788 does not exist.
 Leave Link 1002 at Mon Feb 21 20:27:22 2022, MaxMem= 16106127360 cpu:              64.0 elap:               2.3
 (Enter /sw/contrib/gaussian/g16/B01/g16/l1102.exe)
 Use density number 2.
 Symmetrizing basis deriv contribution to polar:
 IMax=3 JMax=2 DiffMx= 0.00D+00
 Leave Link 1102 at Mon Feb 21 20:27:22 2022, MaxMem= 16106127360 cpu:               0.6 elap:               0.0
 (Enter /sw/contrib/gaussian/g16/B01/g16/l1110.exe)
 Forming Gx(P) for generalized density number  2 NAtomX=     5.
 Integral derivatives from FoFJK, PRISM(SPDF).
 Do as many integral derivatives as possible in FoFJK.
 G2DrvN: MDV=   16106126844.
 G2DrvN: will do     6 centers at a time, making    1 passes.
 Calling FoFCou, ICntrl=  3107 FMM=F I1Cent=   0 AccDes= 0.00D+00.
 FoFJK:  IHMeth= 1 ICntrl=    3107 DoSepK=F KAlg= 0 I1Cent=           0 FoldK=F
 IRaf=         0 NMat=       1 IRICut=       1 DoRegI=T DoRafI=F ISym2E= 1 IDoP0=0 IntGTp=1.
 FoFCou: FMM=F IPFlag=           0 FMFlag=      100000 FMFlg1=           0
         NFxFlg=           0 DoJE=F BraDBF=F KetDBF=F FulRan=T
         wScrn=  0.000000 ICntrl=      3107 IOpCl=  0 I1Cent=           0 NGrid=           0
         NMat0=    1 NMatS0=      1 NMatT0=    0 NMatD0=    1 NMtDS0=    0 NMtDT0=    0
 Petite list used in FoFCou.
 End of G2Drv F.D. properties file   721 does not exist.
 End of G2Drv F.D. properties file   722 does not exist.
 End of G2Drv F.D. properties file   788 does not exist.
 Leave Link 1110 at Mon Feb 21 20:27:25 2022, MaxMem= 16106127360 cpu:              83.6 elap:               3.0
 (Enter /sw/contrib/gaussian/g16/B01/g16/l1112.exe)
 MP22nd: MDV=   16106127360
 This link is doing NAtomX=     5 total of    18 degrees of freedom.
 Using ON3 I/O method in MakUI.
 Frozen-core window:  NFC=   4 NFV=   0.
 Using Ix for Sx.
 Use MO integrals over full window.
 Using OV2 memory method for fx*t*t/D, MaxI=    16 DoOO2=F NP=  28.
 R2 and R3 integrals will be kept in memory, NReq=   915591705.
 FoFCou: FMM=F IPFlag=           0 FMFlag=           0 FMFlg1=           0
         NFxFlg=           0 DoJE=F BraDBF=F KetDBF=F FulRan=T
         wScrn=  0.000000 ICntrl=       600 IOpCl=  0 I1Cent=           0 NGrid=           0
         NMat0=    1 NMatS0=      1 NMatT0=    0 NMatD0=    1 NMtDS0=    0 NMtDT0=    0
 Symmetry not used in FoFCou.
 DD1Dir will call FoFMem   1 times, MxPair=       272
 NAB=   136 NAA=     0 NBB=     0.
 Symmetry is being used.
 FoFJK:  IHMeth= 1 ICntrl=       0 DoSepK=F KAlg= 0 I1Cent=           0 FoldK=F
 IRaf=         0 NMat=      18 IRICut=      45 DoRegI=T DoRafI=T ISym2E= 2 IDoP0=3 IntGTp=3.
 Discarding MO integrals.
 Leave Link 1112 at Mon Feb 21 20:28:04 2022, MaxMem= 16106127360 cpu:            1087.4 elap:              39.3
 (Enter /sw/contrib/gaussian/g16/B01/g16/l601.exe)
 Copying SCF densities to generalized density rwf, IOpCl= 0 IROHF=0.

 **********************************************************************

            Population analysis using the MP2 Density.

 **********************************************************************

 Orbital symmetries:
       Occupied  (A') (A') (A') (A') (A') (A') (A') (A') (A') (A')
                 (A") (A') (A") (A') (A") (A')
       Virtual   (A') (A") (A') (A') (A') (A") (A') (A') (A") (A')
                 (A") (A') (A') (A') (A") (A') (A') (A") (A') (A')
                 (A') (A') (A') (A') (A") (A') (A') (A") (A') (A')
                 (A") (A') (A") (A') (A') (A") (A') (A') (A") (A')
                 (A") (A') (A") (A') (A') (A") (A') (A') (A") (A')
                 (A") (A') (A') (A') (A") (A') (A") (A') (A") (A')
                 (A') (A') (A") (A') (A') (A") (A') (A") (A') (A')
                 (A") (A') (A') (A") (A") (A') (A') (A") (A') (A')
                 (A') (A") (A') (A") (A') (A") (A') (A") (A') (A')
                 (A") (A') (A') (A") (A') (A") (A') (A") (A') (A')
                 (A") (A') (A") (A') (A') (A") (A') (A') (A") (A')
                 (A") (A') (A') (A') (A") (A') (A') (A') (A") (A')
                 (A") (A') (A") (A') (A') (A") (A") (A') (A") (A')
                 (A') (A') (A') (A") (A") (A") (A') (A') (A') (A')
                 (A") (A') (A") (A') (A') (A") (A') (A') (A') (A')
                 (A") (A') (A') (A") (A') (A") (A') (A") (A') (A")
                 (A') (A") (A') (A') (A") (A") (A") (A') (A") (A')
                 (A") (A') (A") (A') (A") (A') (A") (A") (A') (A')
                 (A') (A') (A') (A') (A') (A') (A') (A') (A') (A')
                 (A')
 The electronic state is 1-A'.
 Alpha  occ. eigenvalues --  -20.69181 -20.68413 -20.66049 -15.81341  -1.62086
 Alpha  occ. eigenvalues --   -1.49567  -1.25481  -0.94861  -0.77234  -0.75814
 Alpha  occ. eigenvalues --   -0.71102  -0.67889  -0.61964  -0.58968  -0.48555
 Alpha  occ. eigenvalues --   -0.47327
 Alpha virt. eigenvalues --    0.02952   0.07045   0.08601   0.10172   0.13390
 Alpha virt. eigenvalues --    0.13403   0.14399   0.15444   0.17819   0.19422
 Alpha virt. eigenvalues --    0.19966   0.20636   0.22068   0.23509   0.23735
 Alpha virt. eigenvalues --    0.26600   0.29303   0.30373   0.31028   0.34348
 Alpha virt. eigenvalues --    0.34960   0.38707   0.42181   0.43159   0.52741
 Alpha virt. eigenvalues --    0.52865   0.55825   0.58156   0.62378   0.63847
 Alpha virt. eigenvalues --    0.67569   0.68419   0.70635   0.71104   0.72397
 Alpha virt. eigenvalues --    0.72917   0.74468   0.79134   0.79180   0.81045
 Alpha virt. eigenvalues --    0.81235   0.82956   0.86790   0.90792   0.92158
 Alpha virt. eigenvalues --    0.92595   0.95639   0.97667   0.98429   1.01627
 Alpha virt. eigenvalues --    1.05174   1.05452   1.08159   1.11711   1.14081
 Alpha virt. eigenvalues --    1.18925   1.22021   1.23208   1.33855   1.35020
 Alpha virt. eigenvalues --    1.38560   1.45326   1.48759   1.50848   1.53792
 Alpha virt. eigenvalues --    1.56694   1.57981   1.61295   1.66324   1.66946
 Alpha virt. eigenvalues --    1.70341   1.79296   1.83162   1.83456   1.87723
 Alpha virt. eigenvalues --    1.91014   1.95726   1.99113   2.00585   2.07752
 Alpha virt. eigenvalues --    2.12086   2.13162   2.14947   2.22424   2.26415
 Alpha virt. eigenvalues --    2.26443   2.28920   2.31386   2.34280   2.38578
 Alpha virt. eigenvalues --    2.42354   2.42788   2.45406   2.46230   2.47608
 Alpha virt. eigenvalues --    2.50051   2.58892   2.59580   2.62019   2.62309
 Alpha virt. eigenvalues --    2.63405   2.66634   2.75596   2.82311   2.85382
 Alpha virt. eigenvalues --    2.88237   2.89301   2.92265   2.95705   3.02423
 Alpha virt. eigenvalues --    3.06874   3.12034   3.20430   3.22555   3.31589
 Alpha virt. eigenvalues --    3.34105   3.51532   3.64308   3.83783   3.84323
 Alpha virt. eigenvalues --    4.14819   4.16243   4.18313   4.24815   4.35115
 Alpha virt. eigenvalues --    4.39261   4.46220   4.51836   4.65694   4.70986
 Alpha virt. eigenvalues --    4.80304   4.82397   4.82793   4.89599   5.02385
 Alpha virt. eigenvalues --    5.07714   5.10186   5.14616   5.17773   5.24094
 Alpha virt. eigenvalues --    5.27179   5.30853   5.32893   5.35172   5.60550
 Alpha virt. eigenvalues --    5.66709   5.76571   5.82726   5.95886   6.16753
 Alpha virt. eigenvalues --    6.30796   6.33787   6.39381   6.49361   6.50534
 Alpha virt. eigenvalues --    6.61315   6.66744   6.69789   6.75710   6.76266
 Alpha virt. eigenvalues --    6.83023   6.89679   7.01215   7.05516   7.05623
 Alpha virt. eigenvalues --    7.08948   7.12242   7.14863   7.18095   7.22213
 Alpha virt. eigenvalues --    7.24084   7.30508   7.31689   7.34475   7.39620
 Alpha virt. eigenvalues --    7.43076   7.48398   7.60708   7.61093   7.62258
 Alpha virt. eigenvalues --    7.66464   7.78580   7.88028   8.09116   8.31306
 Alpha virt. eigenvalues --    8.40869   8.54335  13.38311  14.36103  15.15996
 Alpha virt. eigenvalues --   16.03345
          Condensed to atoms (all electrons):
               1          2          3          4          5
     1  H    0.589431   0.128389   0.020061   0.012371  -0.000649
     2  O    0.128389   8.321341  -0.173526  -0.090423   0.015490
     3  O    0.020061  -0.173526   8.466118  -0.128397  -0.037964
     4  N    0.012371  -0.090423  -0.128397   6.970435  -0.055295
     5  O   -0.000649   0.015490  -0.037964  -0.055295   8.272560
 Mulliken charges:
               1
     1  H    0.250397
     2  O   -0.201271
     3  O   -0.146292
     4  N    0.291308
     5  O   -0.194142
 Sum of Mulliken charges =  -0.00000
 Mulliken charges with hydrogens summed into heavy atoms:
               1
     2  O    0.049126
     3  O   -0.146292
     4  N    0.291308
     5  O   -0.194142
 APT charges:
               1
     1  H    0.299370
     2  O   -0.288305
     3  O   -0.493188
     4  N    0.871252
     5  O   -0.389128
 Sum of APT charges =  -0.00000
 APT charges with hydrogens summed into heavy atoms:
               1
     2  O    0.011065
     3  O   -0.493188
     4  N    0.871252
     5  O   -0.389128
 Electronic spatial extent (au):  <R**2>=            253.2657
 Charge=             -0.0000 electrons
 Dipole moment (field-independent basis, Debye):
    X=              0.5231    Y=              1.3782    Z=              0.0000  Tot=              1.4741
 Quadrupole moment (field-independent basis, Debye-Ang):
   XX=            -22.4896   YY=            -18.6158   ZZ=            -22.0169
   XY=              3.2428   XZ=             -0.0000   YZ=              0.0000
 Traceless Quadrupole moment (field-independent basis, Debye-Ang):
   XX=             -1.4488   YY=              2.4250   ZZ=             -0.9762
   XY=              3.2428   XZ=             -0.0000   YZ=              0.0000
 Octapole moment (field-independent basis, Debye-Ang**2):
  XXX=              2.8915  YYY=             11.3963  ZZZ=             -0.0000  XYY=              7.9463
  XXY=              6.5929  XXZ=              0.0000  XZZ=             -1.5654  YZZ=             -0.8412
  YYZ=              0.0000  XYZ=              0.0000
 Hexadecapole moment (field-independent basis, Debye-Ang**3):
 XXXX=           -158.6154 YYYY=            -90.0030 ZZZZ=            -18.2475 XXXY=            -36.8299
 XXXZ=             -0.0000 YYYX=            -30.8543 YYYZ=             -0.0000 ZZZX=             -0.0000
 ZZZY=             -0.0000 XXYY=            -34.0449 XXZZ=            -30.8948 YYZZ=            -20.7288
 XXYZ=             -0.0000 YYXZ=             -0.0000 ZZXY=            -15.1072
 N-N= 1.167520765526D+02 E-N=-8.956043902895D+02  KE= 2.801807936618D+02
 Symmetry A'   KE= 2.662110570949D+02
 Symmetry A"   KE= 1.396973656683D+01
  Exact polarizability:  34.043   9.515  30.306   0.000   0.000  17.935
 Approx polarizability:  29.095   5.137  23.555   0.000   0.000  15.539
 No NMR shielding tensors so no spin-rotation constants.
 Leave Link  601 at Mon Feb 21 20:28:04 2022, MaxMem= 16106127360 cpu:               4.4 elap:               0.2
 (Enter /sw/contrib/gaussian/g16/B01/g16/l701.exe)
 ... and contract with generalized density number  2.
 Compute integral second derivatives.
 Leave Link  701 at Mon Feb 21 20:28:05 2022, MaxMem= 16106127360 cpu:               5.9 elap:               0.2
 (Enter /sw/contrib/gaussian/g16/B01/g16/l702.exe)
 L702 exits ... SP integral derivatives will be done elsewhere.
 Leave Link  702 at Mon Feb 21 20:28:05 2022, MaxMem= 16106127360 cpu:               0.5 elap:               0.0
 (Enter /sw/contrib/gaussian/g16/B01/g16/l703.exe)
 Integral derivatives from FoFJK, PRISM(SPDF).
 Compute integral second derivatives, UseDBF=F ICtDFT=           0.
 Calling FoFJK, ICntrl=  10100127 FMM=F ISym2X=1 I1Cent= 0 IOpClX= 0 NMat=1 NMatS=1 NMatT=0.
 FoFJK:  IHMeth= 1 ICntrl=10100127 DoSepK=F KAlg= 0 I1Cent=           0 FoldK=F
 IRaf=         0 NMat=       1 IRICut=       1 DoRegI=T DoRafI=F ISym2E= 1 IDoP0=0 IntGTp=1.
 FoFCou: FMM=F IPFlag=           0 FMFlag=      100000 FMFlg1=         800
         NFxFlg=           0 DoJE=F BraDBF=F KetDBF=F FulRan=T
         wScrn=  0.000000 ICntrl=  10100127 IOpCl=  0 I1Cent=           0 NGrid=           0
         NMat0=    1 NMatS0=      1 NMatT0=    0 NMatD0=    1 NMtDS0=    0 NMtDT0=    0
 Petite list used in FoFCou.
 Leave Link  703 at Mon Feb 21 20:28:20 2022, MaxMem= 16106127360 cpu:             420.6 elap:              15.1
 (Enter /sw/contrib/gaussian/g16/B01/g16/l716.exe)
 Dipole        = 2.05790245D-01 5.42219716D-01 5.74099923D-33
 Polarizability= 3.40429061D+01 9.51456868D+00 3.03055540D+01
                 6.84984969D-31 5.65898368D-31 1.79349671D+01
 Full mass-weighted force constant matrix:
 Low frequencies --- -269.9215   -0.0009    0.0003    0.0004   24.9340   33.0421
 Low frequencies ---   53.6786  242.2213  344.3151
 ******    1 imaginary frequencies (negative Signs) ****** 
 Diagonal vibrational polarizability:
       14.0772806      25.4825305      46.4275321
 Harmonic frequencies (cm**-1), IR intensities (KM/Mole), Raman scattering
 activities (A**4/AMU), depolarization ratios for plane and unpolarized
 incident light, reduced masses (AMU), force constants (mDyne/A),
 and normal coordinates:
                      1                      2                      3
                     A"                     A"                     A'
 Frequencies --   -269.8833               241.6923               344.2921
 Red. masses --      1.1353                10.8395                 8.5672
 Frc consts  --      0.0487                 0.3731                 0.5983
 IR Inten    --    124.9292                 0.5855                 5.6840
  Atom  AN      X      Y      Z        X      Y      Z        X      Y      Z
     1   1    -0.00  -0.00   1.00    -0.00  -0.00  -0.55     0.54  -0.44  -0.00
     2   8     0.00  -0.00  -0.06    -0.00  -0.00  -0.32    -0.09  -0.37   0.00
     3   8    -0.00   0.00  -0.04    -0.00  -0.00   0.33    -0.14   0.44   0.00
     4   7     0.00   0.00   0.06     0.00   0.00   0.53     0.04   0.25  -0.00
     5   8     0.00  -0.00  -0.01     0.00   0.00  -0.45     0.16  -0.25   0.00
                      4                      5                      6
                     A'                     A'                     A'
 Frequencies --    449.5471               785.5030               966.8062
 Red. masses --     12.3730                13.0054                15.3937
 Frc consts  --      1.4732                 4.7279                 8.4776
 IR Inten    --    198.9390               170.6856                23.1332
  Atom  AN      X      Y      Z        X      Y      Z        X      Y      Z
     1   1     0.40   0.20   0.00    -0.33   0.18   0.00    -0.17  -0.04  -0.00
     2   8     0.32   0.21  -0.00     0.42   0.08   0.00    -0.52   0.03  -0.00
     3   8     0.18   0.43   0.00    -0.06  -0.26  -0.00     0.75  -0.02   0.00
     4   7    -0.35  -0.41   0.00    -0.14   0.62  -0.00    -0.12   0.24   0.00
     5   8    -0.22  -0.30  -0.00    -0.22  -0.38   0.00    -0.12  -0.22  -0.00
                      7                      8                      9
                     A'                     A'                     A'
 Frequencies --   1370.8362              1652.1766              3778.7386
 Red. masses --      1.1358                12.8424                 1.0675
 Frc consts  --      1.2575                20.6543                 8.9811
 IR Inten    --    155.3524               130.5190                82.8413
  Atom  AN      X      Y      Z        X      Y      Z        X      Y      Z
     1   1     0.99  -0.05  -0.00    -0.38   0.01   0.00     0.10   0.99   0.00
     2   8    -0.03   0.05  -0.00    -0.00  -0.04   0.00    -0.01  -0.06  -0.00
     3   8    -0.02  -0.05   0.00     0.00   0.15  -0.00     0.00   0.00  -0.00
     4   7     0.02   0.01   0.00     0.69  -0.06  -0.00    -0.00  -0.00   0.00
     5   8    -0.03  -0.01  -0.00    -0.58  -0.06   0.00     0.00   0.00   0.00

 -------------------
 - Thermochemistry -
 -------------------
 Temperature   298.150 Kelvin.  Pressure   1.00000 Atm.
 Atom     1 has atomic number  1 and mass   1.00783
 Atom     2 has atomic number  8 and mass  15.99491
 Atom     3 has atomic number  8 and mass  15.99491
 Atom     4 has atomic number  7 and mass  14.00307
 Atom     5 has atomic number  8 and mass  15.99491
 Molecular mass:    62.99564 amu.
 Principal axes and moments of inertia in atomic units:
                           1         2         3
     Eigenvalues --    32.85637 360.81812 393.67449
           X            0.80964  -0.58693   0.00000
           Y            0.58693   0.80964   0.00000
           Z           -0.00000   0.00000   1.00000
 This molecule is an asymmetric top.
 Rotational symmetry number  1.
 Rotational temperatures (Kelvin)      2.63614     0.24005     0.22001
 Rotational constants (GHZ):          54.92819     5.00180     4.58435
    1 imaginary frequencies ignored.
 Zero-point vibrational energy      57358.5 (Joules/Mol)
                                   13.70901 (Kcal/Mol)
 Warning -- explicit consideration of   3 degrees of freedom as
           vibrations may cause significant error
 Vibrational temperatures:    347.74   495.36   646.80  1130.16  1391.02
          (Kelvin)           1972.33  2377.11  5436.76
 
 Zero-point correction=                           0.021847 (Hartree/Particle)
 Thermal correction to Energy=                    0.025945
 Thermal correction to Enthalpy=                  0.026889
 Thermal correction to Gibbs Free Energy=        -0.004248
 Sum of electronic and zero-point Energies=           -280.424868
 Sum of electronic and thermal Energies=              -280.420770
 Sum of electronic and thermal Enthalpies=            -280.419826
 Sum of electronic and thermal Free Energies=         -280.450963
 
                     E (Thermal)             CV                S
                      KCal/Mol        Cal/Mol-Kelvin    Cal/Mol-Kelvin
 Total                   16.281             11.937             65.534
 Electronic               0.000              0.000              0.000
 Translational            0.889              2.981             38.341
 Rotational               0.889              2.981             23.061
 Vibrational             14.503              5.976              4.133
 Vibration     1          0.658              1.776              1.790
 Vibration     2          0.723              1.587              1.192
 Vibration     3          0.808              1.362              0.797
                       Q            Log10(Q)             Ln(Q)
 Total Bot       0.899508D+02          1.954005          4.499263
 Total V=0       0.100642D+13         12.002780         27.637422
 Vib (Bot)       0.187162D-09         -9.727783        -22.399048
 Vib (Bot)    1  0.810654D+00         -0.091164         -0.209914
 Vib (Bot)    2  0.537854D+00         -0.269336         -0.620168
 Vib (Bot)    3  0.381606D+00         -0.418384         -0.963366
 Vib (V=0)       0.209407D+01          0.320992          0.739111
 Vib (V=0)    1  0.145245D+01          0.162101          0.373252
 Vib (V=0)    2  0.123436D+01          0.091442          0.210554
 Vib (V=0)    3  0.112899D+01          0.052689          0.121320
 Electronic      0.100000D+01          0.000000          0.000000
 Translational   0.196526D+08          7.293420         16.793719
 Rotational      0.244550D+05          4.388368         10.104591
 
                                                                title
                                                             IR Spectrum
 
     3                                                                       1        1                                              
     7                                                                       6        3             9     7          4   3  2        
     7                                                                       5        7             6     8          5   4  4        
     9                                                                       2        1             7     6          0   4  2        
 
     X                                                                       X        X             X     X          X   X  X        
     X                                                                       X        X             X     X          X               
     X                                                                       X        X                   X          X               
     X                                                                       X        X                   X          X               
     X                                                                       X        X                   X          X               
     X                                                                       X        X                   X          X               
     X                                                                       X        X                   X          X               
     X                                                                       X        X                   X          X               
                                                                             X        X                   X          X               
                                                                             X        X                   X          X               
                                                                             X        X                   X          X               
                                                                             X        X                   X          X               
                                                                             X        X                   X          X               
                                                                                      X                   X          X               
                                                                                      X                   X          X               
                                                                                      X                   X          X               
                                                                                                          X          X               
                                                                                                                     X               
                                                                                                                     X               
                                                                                                                     X               
 
 ***** Axes restored to original set *****
 -------------------------------------------------------------------
 Center     Atomic                   Forces (Hartrees/Bohr)
 Number     Number              X              Y              Z
 -------------------------------------------------------------------
      1        1           0.000087132    0.000000000   -0.000024633
      2        8           0.000182785    0.000000000    0.000199529
      3        8           0.000156755    0.000000000    0.001023764
      4        7           0.004927517    0.000000000    0.000490071
      5        8          -0.005354190   -0.000000000   -0.001688731
 -------------------------------------------------------------------
 Cartesian Forces:  Max     0.005354190 RMS     0.001952671
 -----------------------------------------------------------------------------------------------
                       Internal Coordinate Forces (Hartree/Bohr or radian)
  Cent   Atom   N1       Length/X         N2         Alpha/Y        N3         Beta/Z          J
 -----------------------------------------------------------------------------------------------
      1  H 
      2  O        1   0.000025(     1)
      3  O        2  -0.000291(     2)      1  -0.000160(     5)
      4  N        3  -0.001230(     3)      2  -0.000219(     6)      1   0.000000(     8)     0
      5  O        4  -0.005606(     4)      3  -0.000682(     7)      2  -0.000000(     9)     0
 -----------------------------------------------------------------------------------------------
 Internal  Forces:  Max     0.005605772 RMS     0.001931053
 Force constants in Cartesian coordinates: 
                1             2             3             4             5 
      1  0.646652D-01
      2  0.000000D+00 -0.238573D-02
      3  0.529203D-02  0.000000D+00  0.512371D+00
      4 -0.358527D-01  0.000000D+00 -0.162788D-01  0.272705D+00
      5  0.000000D+00  0.308873D-02  0.000000D+00  0.000000D+00  0.208591D-02
      6  0.483081D-01  0.000000D+00 -0.508545D+00  0.333906D-01  0.000000D+00
      7 -0.183111D-01  0.000000D+00  0.125172D-01 -0.220130D+00  0.000000D+00
      8  0.000000D+00  0.991283D-03  0.000000D+00  0.000000D+00 -0.657692D-02
      9 -0.531953D-01  0.000000D+00 -0.478891D-03 -0.193355D-01  0.000000D+00
     10 -0.926006D-02  0.000000D+00 -0.484674D-02 -0.170838D-01  0.000000D+00
     11  0.000000D+00 -0.272289D-02  0.000000D+00  0.000000D+00 -0.492331D-02
     12  0.530196D-02  0.000000D+00 -0.475290D-02  0.114470D-01  0.000000D+00
     13 -0.124146D-02  0.000000D+00  0.331629D-02  0.360909D-03  0.000000D+00
     14  0.000000D+00  0.102861D-02  0.000000D+00  0.000000D+00  0.632559D-02
     15 -0.570682D-02  0.000000D+00  0.140525D-02 -0.922322D-02  0.000000D+00
                6             7             8             9            10 
      6  0.594738D+00
      7 -0.211182D-01  0.341363D+00
      8  0.000000D+00  0.000000D+00  0.458161D-02
      9 -0.786537D-01  0.354433D-01  0.000000D+00  0.180433D+00
     10 -0.524919D-01 -0.781929D-01  0.000000D+00  0.173749D+00  0.805073D+00
     11  0.000000D+00  0.000000D+00  0.826130D-02  0.000000D+00  0.000000D+00
     12  0.169288D-01  0.627057D-01  0.000000D+00 -0.815187D-01 -0.226648D-01
     13 -0.808867D-02 -0.247291D-01  0.000000D+00 -0.136662D+00 -0.700537D+00
     14  0.000000D+00  0.000000D+00 -0.725727D-02  0.000000D+00  0.000000D+00
     15 -0.244687D-01 -0.895479D-01  0.000000D+00 -0.197815D-01 -0.937460D-01
               11            12            13            14            15 
     11  0.113017D-01
     12  0.000000D+00  0.186895D+00
     13  0.000000D+00 -0.567898D-01  0.726146D+00
     14 -0.119168D-01  0.000000D+00  0.000000D+00  0.118198D-01
     15  0.000000D+00 -0.117552D+00  0.198224D+00  0.000000D+00  0.160397D+00
 Force constants in internal coordinates: 
                1             2             3             4             5 
      1  0.512371D+00
      2 -0.103846D-01  0.281125D+00
      3  0.346186D-02  0.252268D-02  0.116398D+00
      4 -0.356126D-02  0.588505D-02  0.151305D+00  0.786608D+00
      5  0.977740D-02  0.652679D-01  0.231543D-02  0.479503D-02  0.216863D+00
      6  0.464343D-02  0.592260D-01  0.409811D-01  0.217443D-01  0.314433D-01
      7 -0.119522D-02  0.375511D-01  0.314457D-01  0.842731D-01  0.212205D-01
      8  0.000000D+00  0.000000D+00  0.000000D+00  0.000000D+00  0.000000D+00
      9  0.000000D+00  0.000000D+00  0.000000D+00  0.000000D+00  0.000000D+00
                6             7             8             9 
      6  0.283068D+00
      7  0.952883D-01  0.480009D+00
      8  0.000000D+00  0.000000D+00 -0.779355D-02
      9  0.000000D+00  0.000000D+00 -0.391630D-02  0.411227D-01
 Leave Link  716 at Mon Feb 21 20:28:20 2022, MaxMem= 16106127360 cpu:               1.0 elap:               0.1
 (Enter /sw/contrib/gaussian/g16/B01/g16/l103.exe)

 GradGradGradGradGradGradGradGradGradGradGradGradGradGradGradGradGradGrad
 Berny optimization.
 Search for a local minimum.
 Step number   1 out of a maximum of    2
 All quantities printed in internal units (Hartrees-Bohrs-Radians)
 Second derivative matrix not updated -- analytic derivatives used.
 The second derivative matrix:
                          r1        r2        r3        r4        a1
           r1           0.51237
           r2          -0.01038   0.28112
           r3           0.00346   0.00252   0.11640
           r4          -0.00356   0.00589   0.15130   0.78661
           a1           0.00978   0.06527   0.00232   0.00480   0.21686
           a2           0.00464   0.05923   0.04098   0.02174   0.03144
           a3          -0.00120   0.03755   0.03145   0.08427   0.02122
           d1           0.00000  -0.00000  -0.00000  -0.00000  -0.00000
           d2          -0.00000   0.00000   0.00000   0.00000   0.00000
                          a2        a3        d1        d2
           a2           0.28307
           a3           0.09529   0.48001
           d1          -0.00000  -0.00000  -0.00779
           d2          -0.00000  -0.00000  -0.00392   0.04112
 ITU=  0
     Eigenvalues ---   -0.00811   0.04143   0.07718   0.17540   0.22536
     Eigenvalues ---    0.32481   0.51253   0.51378   0.84739
 Eigenvalue     1 is  -8.11D-03 should be greater than     0.000000 Eigenvector:
                          d1        d2        a3        a2        r3
   1                    0.99685   0.07930   0.00000   0.00000  -0.00000
                          r4        a1        r2        r1
   1                    0.00000  -0.00000   0.00000  -0.00000
 Angle between quadratic step and forces=   8.82 degrees.
 Linear search not attempted -- first point.
 Variable       Old X    -DE/DX   Delta X   Delta X   Delta X     New X
                                 (Linear)    (Quad)   (Total)
    r1        1.83110   0.00002   0.00000   0.00000   0.00000   1.83110
    r2        2.74940  -0.00029   0.00000  -0.00084  -0.00084   2.74856
    r3        2.75670  -0.00123   0.00000  -0.00181  -0.00181   2.75490
    r4        2.21985  -0.00561   0.00000  -0.00677  -0.00677   2.21308
    a1        1.70335  -0.00016   0.00000  -0.00034  -0.00034   1.70301
    a2        1.78543  -0.00022   0.00000   0.00025   0.00025   1.78568
    a3        1.90362  -0.00068   0.00000  -0.00008  -0.00008   1.90354
    d1        3.14159   0.00000   0.00000   0.00000   0.00000   3.14159
    d2        3.14159  -0.00000   0.00000  -0.00000   0.00000   3.14159
         Item               Value     Threshold  Converged?
 Maximum Force            0.005606     0.000450     NO 
 RMS     Force            0.001931     0.000300     NO 
 Maximum Displacement     0.006769     0.001800     NO 
 RMS     Displacement     0.002356     0.001200     NO 
 Predicted change in Energy=-2.023249D-05
                       ----------------------------
                       ! Non-Optimized Parameters !
                       ! (Angstroms and Degrees)  !
 ----------------------                            ----------------------
 !      Name          Value   Derivative information (Atomic Units)     !
 ------------------------------------------------------------------------
 !       r1          0.969    -DE/DX =    0.0                           !
 !       r2          1.4545   -DE/DX =   -0.0003                        !
 !       r3          1.4578   -DE/DX =   -0.0012                        !
 !       r4          1.1711   -DE/DX =   -0.0056                        !
 !       a1         97.5753   -DE/DX =   -0.0002                        !
 !       a2        102.3118   -DE/DX =   -0.0002                        !
 !       a3        109.0648   -DE/DX =   -0.0007                        !
 !       d1        180.0      -DE/DX =    0.0                           !
 !       d2        180.0      -DE/DX =    0.0                           !
 ------------------------------------------------------------------------
 GradGradGradGradGradGradGradGradGradGradGradGradGradGradGradGradGradGrad

 Leave Link  103 at Mon Feb 21 20:28:20 2022, MaxMem= 16106127360 cpu:               0.6 elap:               0.1
 (Enter /sw/contrib/gaussian/g16/B01/g16/l9999.exe)

 ----------------------------------------------------------------------

 Electric dipole moment (input orientation):
 (Debye = 10**-18 statcoulomb cm , SI units = C m)
                  (au)            (Debye)         (10**-30 SI)
   Tot        0.579958D+00      0.147411D+01      0.491709D+01
   x         -0.152425D+00     -0.387425D+00     -0.129231D+01
   y          0.000000D+00      0.000000D+00      0.000000D+00
   z         -0.559570D+00     -0.142228D+01     -0.474423D+01

 Dipole polarizability, Alpha (input orientation).
 (esu units = cm**3 , SI units = C**2 m**2 J**-1)
 Alpha(0;0):
               (au)            (10**-24 esu)      (10**-40 SI)
   iso        0.274278D+02      0.406438D+01      0.452223D+01
   aniso      0.220185D+02      0.326280D+01      0.363036D+01
   xx         0.321776D+02      0.476822D+01      0.530536D+01
   yx         0.000000D+00      0.000000D+00      0.000000D+00
   yy         0.179350D+02      0.265769D+01      0.295708D+01
   zx         0.969634D+01      0.143685D+01      0.159871D+01
   zy         0.000000D+00      0.000000D+00      0.000000D+00
   zz         0.321709D+02      0.476724D+01      0.530426D+01

 ----------------------------------------------------------------------

 Dipole orientation:
     1          0.00000000          0.00000000          0.00000000
     8         -0.48124962          0.00000000         -1.76672586
     8          2.05271682          0.00000000         -2.83359468
     7          1.54869713          0.00000000         -5.54382935
     8          3.47875810          0.00000000         -6.64045459

 Electric dipole moment (dipole orientation):
 (Debye = 10**-18 statcoulomb cm , SI units = C m)
                  (au)            (Debye)         (10**-30 SI)
   Tot        0.579958D+00      0.147411D+01      0.491709D+01
   x          0.000000D+00      0.000000D+00      0.000000D+00
   y          0.000000D+00      0.000000D+00      0.000000D+00
   z          0.579958D+00      0.147411D+01      0.491709D+01

 Dipole polarizability, Alpha (dipole orientation).
 (esu units = cm**3 , SI units = C**2 m**2 J**-1)
 Alpha(0;0):
               (au)            (10**-24 esu)      (10**-40 SI)
   iso        0.274278D+02      0.406438D+01      0.452223D+01
   aniso      0.220185D+02      0.326280D+01      0.363036D+01
   xx         0.272595D+02      0.403944D+01      0.449448D+01
   yx         0.000000D+00      0.000000D+00      0.000000D+00
   yy         0.179350D+02      0.265769D+01      0.295708D+01
   zx        -0.835849D+01     -0.123860D+01     -0.137813D+01
   zy         0.000000D+00      0.000000D+00      0.000000D+00
   zz         0.370890D+02      0.549602D+01      0.611514D+01

 ----------------------------------------------------------------------
 1\1\GINC-N2108\Freq\RMP2-FC\Aug-CC-pVTZ\H1N1O3\CGAVINH\21-Feb-2022\1\\
 #p freq mp2/aug-cc-pvtz density=current\\title\\0,1\H\O,1,r1\O,2,r2,1,
 a1\N,3,r3,2,a2,1,d1,0\O,4,r4,3,a3,2,d2,0\\r1=0.96897556\r2=1.45491931\
 r3=1.45878406\r4=1.17469263\a1=97.59494903\a2=102.29752444\a3=109.0695
 5123\d1=180.\d2=180.\\Version=ES64L-G16RevB.01\State=1-A'\HF=-279.5009
 885\MP2=-280.4467151\RMSD=3.898e-09\RMSF=1.953e-03\ZeroPoint=0.0218467
 \Thermal=0.0259449\Dipole=-0.1524248,0.,-0.5595699\DipoleDeriv=0.26638
 13,0.,0.0483535,0.,0.3556843,0.,0.0824015,0.,0.2760439,-0.3288386,0.,-
 0.2077293,0.,-0.3138425,0.,-0.1115216,0.,-0.2222342,-0.0437151,0.,0.14
 87852,0.,-0.0852552,0.,-0.7514741,0.,-1.3505949,0.8837384,0.,0.8996119
 ,0.,0.0658302,0.,0.9191133,0.,1.6641875,-0.777566,0.,-0.8890213,0.,-0.
 0224168,0.,-0.1385191,0.,-0.3674022\Polar=32.1775602,0.,17.9349671,9.6
 963373,0.,32.1708998\Quadrupole=-1.5140892,-0.7257636,2.2398528,0.,2.0
 888343,0.\PG=CS [SG(H1N1O3)]\NImag=1\\0.06466524,0.,-0.00238573,0.0052
 9203,0.,0.51237142,-0.03585265,0.,-0.01627876,0.27270544,0.,0.00308873
 ,0.,0.,0.00208591,0.04830815,0.,-0.50854488,0.03339057,0.,0.59473842,-
 0.01831107,0.,0.01251717,-0.22012986,0.,-0.02111818,0.34136294,0.,0.00
 099128,0.,0.,-0.00657692,0.,0.,0.00458161,-0.05319532,0.,-0.00047889,-
 0.01933554,0.,-0.07865372,0.03544327,0.,0.18043280,-0.00926006,0.,-0.0
 0484674,-0.01708384,0.,-0.05249187,-0.07819289,0.,0.17374947,0.8050733
 9,0.,-0.00272289,0.,0.,-0.00492331,0.,0.,0.00826130,0.,0.,0.01130168,0
 .00530196,0.,-0.00475290,0.01144695,0.,0.01692885,0.06270567,0.,-0.081
 51871,-0.02266482,0.,0.18689512,-0.00124146,0.,0.00331629,0.00036091,0
 .,-0.00808867,-0.02472911,0.,-0.13666187,-0.70053660,0.,-0.05678976,0.
 72614625,0.,0.00102861,0.,0.,0.00632559,0.,0.,-0.00725727,0.,0.,-0.011
 91678,0.,0.,0.01181985,-0.00570682,0.,0.00140525,-0.00922322,0.,-0.024
 46867,-0.08954794,0.,-0.01978149,-0.09374604,0.,-0.11755235,0.19822402
 ,0.,0.16039726\\-0.00008713,0.,0.00002463,-0.00018279,0.,-0.00019953,-
 0.00015676,0.,-0.00102376,-0.00492752,0.,-0.00049007,0.00535419,0.,0.0
 0168873\\\@


 ... SUBJECTS WHICH DISCLOSE THEIR FULL POWER, MEANING AND BEAUTY AS SOON
 AS THEY ARE PRESENTED TO THE MIND HAVE VERY LITTLE OF THOSE QUALITIES
 TO DISCLOSE.
                           -- CHARLES DUTTON (1882)
 Job cpu time:       0 days  2 hours  2 minutes 24.7 seconds.
 Elapsed time:       0 days  0 hours  4 minutes 25.6 seconds.
 File lengths (MBytes):  RWF=   7239 Int=      0 D2E=      0 Chk=      8 Scr=      1
 Normal termination of Gaussian 16 at Mon Feb 21 20:28:21 2022.
