 Entering Gaussian System, Link 0=g16
 Input=hoono_d2_176p1845.gjf
 Output=hoono_d2_176p1845.log
 Initial command:
 /sw/contrib/gaussian/g16/B01/g16/l1.exe "/scr/Gau-24695.inp" -scrdir="/scr/"
 Entering Link 1 = /sw/contrib/gaussian/g16/B01/g16/l1.exe PID=     24696.
  
 Copyright (c) 1988-2017, Gaussian, Inc.  All Rights Reserved.
  
 This is part of the Gaussian(R) 16 program.  It is based on
 the Gaussian(R) 09 system (copyright 2009, Gaussian, Inc.),
 the Gaussian(R) 03 system (copyright 2003, Gaussian, Inc.),
 the Gaussian(R) 98 system (copyright 1998, Gaussian, Inc.),
 the Gaussian(R) 94 system (copyright 1995, Gaussian, Inc.),
 the Gaussian 92(TM) system (copyright 1992, Gaussian, Inc.),
 the Gaussian 90(TM) system (copyright 1990, Gaussian, Inc.),
 the Gaussian 88(TM) system (copyright 1988, Gaussian, Inc.),
 the Gaussian 86(TM) system (copyright 1986, Carnegie Mellon
 University), and the Gaussian 82(TM) system (copyright 1983,
 Carnegie Mellon University). Gaussian is a federally registered
 trademark of Gaussian, Inc.
  
 This software contains proprietary and confidential information,
 including trade secrets, belonging to Gaussian, Inc.
  
 This software is provided under written license and may be
 used, copied, transmitted, or stored only in accord with that
 written license.
  
 The following legend is applicable only to US Government
 contracts under FAR:
  
                    RESTRICTED RIGHTS LEGEND
  
 Use, reproduction and disclosure by the US Government is
 subject to restrictions as set forth in subparagraphs (a)
 and (c) of the Commercial Computer Software - Restricted
 Rights clause in FAR 52.227-19.
  
 Gaussian, Inc.
 340 Quinnipiac St., Bldg. 40, Wallingford CT 06492
  
  
 ---------------------------------------------------------------
 Warning -- This program may not be used in any manner that
 competes with the business of Gaussian, Inc. or will provide
 assistance to any competitor of Gaussian, Inc.  The licensee
 of this program is prohibited from giving any competitor of
 Gaussian, Inc. access to this program.  By using this program,
 the user acknowledges that Gaussian, Inc. is engaged in the
 business of creating and licensing software in the field of
 computational chemistry and represents and warrants to the
 licensee that it is not a competitor of Gaussian, Inc. and that
 it will not use this program in any manner prohibited above.
 ---------------------------------------------------------------
  

 Cite this work as:
 Gaussian 16, Revision B.01,
 M. J. Frisch, G. W. Trucks, H. B. Schlegel, G. E. Scuseria, 
 M. A. Robb, J. R. Cheeseman, G. Scalmani, V. Barone, 
 G. A. Petersson, H. Nakatsuji, X. Li, M. Caricato, A. V. Marenich, 
 J. Bloino, B. G. Janesko, R. Gomperts, B. Mennucci, H. P. Hratchian, 
 J. V. Ortiz, A. F. Izmaylov, J. L. Sonnenberg, D. Williams-Young, 
 F. Ding, F. Lipparini, F. Egidi, J. Goings, B. Peng, A. Petrone, 
 T. Henderson, D. Ranasinghe, V. G. Zakrzewski, J. Gao, N. Rega, 
 G. Zheng, W. Liang, M. Hada, M. Ehara, K. Toyota, R. Fukuda, 
 J. Hasegawa, M. Ishida, T. Nakajima, Y. Honda, O. Kitao, H. Nakai, 
 T. Vreven, K. Throssell, J. A. Montgomery, Jr., J. E. Peralta, 
 F. Ogliaro, M. J. Bearpark, J. J. Heyd, E. N. Brothers, K. N. Kudin, 
 V. N. Staroverov, T. A. Keith, R. Kobayashi, J. Normand, 
 K. Raghavachari, A. P. Rendell, J. C. Burant, S. S. Iyengar, 
 J. Tomasi, M. Cossi, J. M. Millam, M. Klene, C. Adamo, R. Cammi, 
 J. W. Ochterski, R. L. Martin, K. Morokuma, O. Farkas, 
 J. B. Foresman, and D. J. Fox, Gaussian, Inc., Wallingford CT, 2016.
 
 ******************************************
 Gaussian 16:  ES64L-G16RevB.01 20-Dec-2017
                21-Feb-2022 
 ******************************************
 %nproc=28
 Will use up to   28 processors via shared memory.
 %mem=120GB
 %chk=hoono_d2_176p1845.chk
 ---------------------------------------
 #p freq mp2/aug-cc-pvtz density=current
 ---------------------------------------
 1/10=4,30=1,38=1/1,3;
 2/12=2,17=6,18=5,40=1/2;
 3/5=16,6=1,7=10,11=9,25=1,30=1,71=2,140=1/1,2,3;
 4//1;
 5/5=2,38=5,98=1/2;
 8/6=3,8=1,10=1,19=11,30=-1/1;
 9/15=3,16=-3/6;
 11/6=1,8=1,15=11,17=12,24=-1,27=1,28=-2,29=300,32=6,42=3/1,2,10;
 10/6=2,21=1/2;
 8/6=4,8=1,10=1,19=11,30=-1/11,4;
 10/5=1,20=4/2;
 11/12=2,14=11,16=1,17=2,28=-2,42=3,76=2/2,10,12;
 6/7=2,8=2,9=2,10=2,22=-1/1;
 7/8=1,10=1,12=2,25=1,44=2/1,2,3,16;
 1/10=4,30=1/3;
 99//99;
 Leave Link    1 at Mon Feb 21 21:13:15 2022, MaxMem= 16106127360 cpu:               2.2 elap:               0.1
 (Enter /sw/contrib/gaussian/g16/B01/g16/l101.exe)
 -----
 title
 -----
 Symbolic Z-matrix:
 Charge =  0 Multiplicity = 1
 H
 O                    1    r1
 O                    2    r2       1    a1
 N                    3    r3       2    a2       1    d1       0
 O                    4    r4       3    a3       2    d2       0
       Variables:
  r1                    0.96898                  
  r2                    1.45492                  
  r3                    1.45878                  
  r4                    1.17073                  
  a1                   97.59495                  
  a2                  102.29752                  
  a3                  109.06955                  
  d1                  180.                       
  d2                  176.18458                  
 
 ITRead=  0  0  0  0  0
 MicOpt= -1 -1 -1 -1 -1
 NAtoms=      5 NQM=        5 NQMF=       0 NMMI=      0 NMMIF=      0
                NMic=       0 NMicF=      0.
                    Isotopes and Nuclear Properties:
 (Nuclear quadrupole moments (NQMom) in fm**2, nuclear magnetic moments (NMagM)
  in nuclear magnetons)

  Atom         1           2           3           4           5
 IAtWgt=           1          16          16          14          16
 AtmWgt=   1.0078250  15.9949146  15.9949146  14.0030740  15.9949146
 NucSpn=           1           0           0           2           0
 AtZEff=  -0.0000000  -0.0000000  -0.0000000  -0.0000000  -0.0000000
 NQMom=    0.0000000   0.0000000   0.0000000   2.0440000   0.0000000
 NMagM=    2.7928460   0.0000000   0.0000000   0.4037610   0.0000000
 AtZNuc=   1.0000000   8.0000000   8.0000000   7.0000000   8.0000000
 Leave Link  101 at Mon Feb 21 21:13:16 2022, MaxMem= 16106127360 cpu:               2.8 elap:               0.1
 (Enter /sw/contrib/gaussian/g16/B01/g16/l103.exe)

 GradGradGradGradGradGradGradGradGradGradGradGradGradGradGradGradGradGrad
 Berny optimization.
 Initialization pass.
                       ----------------------------
                       !    Initial Parameters    !
                       ! (Angstroms and Degrees)  !
 ----------------------                            ----------------------
 !      Name          Value   Derivative information (Atomic Units)     !
 ------------------------------------------------------------------------
 !       r1          0.969    calculate D2E/DX2 analytically            !
 !       r2          1.4549   calculate D2E/DX2 analytically            !
 !       r3          1.4588   calculate D2E/DX2 analytically            !
 !       r4          1.1707   calculate D2E/DX2 analytically            !
 !       a1         97.5949   calculate D2E/DX2 analytically            !
 !       a2        102.2975   calculate D2E/DX2 analytically            !
 !       a3        109.0696   calculate D2E/DX2 analytically            !
 !       d1        180.0      calculate D2E/DX2 analytically            !
 !       d2        176.1846   calculate D2E/DX2 analytically            !
 ------------------------------------------------------------------------
 Trust Radius=3.00D-01 FncErr=1.00D-07 GrdErr=1.00D-07 EigMax=2.50D+02 EigMin=1.00D-04
 Number of steps in this run=      2 maximum allowed number of steps=      2.
 GradGradGradGradGradGradGradGradGradGradGradGradGradGradGradGradGradGrad

 Leave Link  103 at Mon Feb 21 21:13:16 2022, MaxMem= 16106127360 cpu:               1.9 elap:               0.1
 (Enter /sw/contrib/gaussian/g16/B01/g16/l202.exe)
                          Input orientation:                          
 ---------------------------------------------------------------------
 Center     Atomic      Atomic             Coordinates (Angstroms)
 Number     Number       Type             X           Y           Z
 ---------------------------------------------------------------------
      1          1           0        0.000000    0.000000    0.000000
      2          8           0        0.000000    0.000000    0.968976
      3          8           0        1.442156    0.000000    1.161271
      4          7           0        1.561752    0.000000    2.615144
      5          8           0        2.693423   -0.073628    2.905840
 ---------------------------------------------------------------------
                    Distance matrix (angstroms):
                    1          2          3          4          5
     1  H    0.000000
     2  O    0.968976   0.000000
     3  O    1.851584   1.454919   0.000000
     4  N    3.045989   2.269127   1.458784   0.000000
     5  O    3.962809   3.318342   2.148165   1.170729   0.000000
 Stoichiometry    HNO3
 Framework group  C1[X(HNO3)]
 Deg. of freedom     9
 Full point group                 C1      NOp   1
 Largest Abelian subgroup         C1      NOp   1
 Largest concise Abelian subgroup C1      NOp   1
                         Standard orientation:                         
 ---------------------------------------------------------------------
 Center     Atomic      Atomic             Coordinates (Angstroms)
 Number     Number       Type             X           Y           Z
 ---------------------------------------------------------------------
      1          1           0       -2.248631    0.434251   -0.019291
      2          8           0       -1.598347   -0.284098   -0.014944
      3          8           0       -0.400483    0.541071    0.016826
      4          7           0        0.663853   -0.456504    0.025911
      5          8           0        1.699038    0.088186   -0.022142
 ---------------------------------------------------------------------
 Rotational constants (GHZ):          54.8226415           5.0124475           4.5946945
 Leave Link  202 at Mon Feb 21 21:13:16 2022, MaxMem= 16106127360 cpu:               0.3 elap:               0.0
 (Enter /sw/contrib/gaussian/g16/B01/g16/l301.exe)
 Standard basis: Aug-CC-pVTZ (5D, 7F)
 Ernie: Thresh=  0.10000D-02 Tol=  0.10000D-05 Strict=F.
 Ernie:  12 primitive shells out of 131 were deleted.
 There are   245 symmetry adapted cartesian basis functions of A   symmetry.
 There are   207 symmetry adapted basis functions of A   symmetry.
   207 basis functions,   315 primitive gaussians,   245 cartesian basis functions
    16 alpha electrons       16 beta electrons
       nuclear repulsion energy       116.8754650686 Hartrees.
 IExCor=    0 DFT=F Ex=HF Corr=None ExCW=0 ScaHFX=  1.000000
 ScaDFX=  1.000000  1.000000  1.000000  1.000000 ScalE2=  1.000000  1.000000
 IRadAn=      5 IRanWt=     -1 IRanGd=            0 ICorTp=0 IEmpDi=  4
 NAtoms=    5 NActive=    5 NUniq=    5 SFac= 1.00D+00 NAtFMM=   60 NAOKFM=F Big=F
 Integral buffers will be    131072 words long.
 Raffenetti 1 integral format.
 Two-electron integral symmetry is turned on.
 Leave Link  301 at Mon Feb 21 21:13:16 2022, MaxMem= 16106127360 cpu:               2.2 elap:               0.1
 (Enter /sw/contrib/gaussian/g16/B01/g16/l302.exe)
 NPDir=0 NMtPBC=     1 NCelOv=     1 NCel=       1 NClECP=     1 NCelD=      1
         NCelK=      1 NCelE2=     1 NClLst=     1 CellRange=     0.0.
 One-electron integrals computed using PRISM.
 One-electron integral symmetry used in STVInt
 NBasis=   207 RedAO= T EigKep=  1.82D-04  NBF=   207
 NBsUse=   207 1.00D-06 EigRej= -1.00D+00 NBFU=   207
 Leave Link  302 at Mon Feb 21 21:13:16 2022, MaxMem= 16106127360 cpu:               6.7 elap:               0.3
 (Enter /sw/contrib/gaussian/g16/B01/g16/l303.exe)
 DipDrv:  MaxL=1.
 Leave Link  303 at Mon Feb 21 21:13:16 2022, MaxMem= 16106127360 cpu:               1.6 elap:               0.1
 (Enter /sw/contrib/gaussian/g16/B01/g16/l401.exe)
 ExpMin= 2.53D-02 ExpMax= 1.53D+04 ExpMxC= 5.22D+02 IAcc=3 IRadAn=         5 AccDes= 0.00D+00
 Harris functional with IExCor=  205 and IRadAn=       5 diagonalized for initial guess.
 HarFok:  IExCor=  205 AccDes= 0.00D+00 IRadAn=         5 IDoV= 1 UseB2=F ITyADJ=14
 ICtDFT=  3500011 ScaDFX=  1.000000  1.000000  1.000000  1.000000
 FoFCou: FMM=F IPFlag=           0 FMFlag=      100000 FMFlg1=           0
         NFxFlg=           0 DoJE=T BraDBF=F KetDBF=T FulRan=T
         wScrn=  0.000000 ICntrl=       500 IOpCl=  0 I1Cent=   200000004 NGrid=           0
         NMat0=    1 NMatS0=      1 NMatT0=    0 NMatD0=    1 NMtDS0=    0 NMtDT0=    0
 Petite list used in FoFCou.
 Harris En= -279.628611365768    
 JPrj=0 DoOrth=F DoCkMO=F.
 Leave Link  401 at Mon Feb 21 21:13:16 2022, MaxMem= 16106127360 cpu:               7.2 elap:               0.3
 (Enter /sw/contrib/gaussian/g16/B01/g16/l502.exe)
 Keep R1 ints in memory in canonical form, NReq=245616893.
 FoFCou: FMM=F IPFlag=           0 FMFlag=           0 FMFlg1=           0
         NFxFlg=           0 DoJE=F BraDBF=F KetDBF=F FulRan=T
         wScrn=  0.000000 ICntrl=       600 IOpCl=  0 I1Cent=           0 NGrid=           0
         NMat0=    1 NMatS0=  21528 NMatT0=    0 NMatD0=    1 NMtDS0=    0 NMtDT0=    0
 Symmetry not used in FoFCou.
 Two-electron integral symmetry not used.
 Closed shell SCF:
 Using DIIS extrapolation, IDIIS=  1040.
 NGot= 16106127360 LenX= 15874260251 LenY= 15874199785
 Requested convergence on RMS density matrix=1.00D-08 within 128 cycles.
 Requested convergence on MAX density matrix=1.00D-06.
 Requested convergence on             energy=1.00D-06.
 No special actions if energy rises.

 Cycle   1  Pass 1  IDiag  1:
 E= -279.370469311839    
 DIIS: error= 2.54D-02 at cycle   1 NSaved=   1.
 NSaved= 1 IEnMin= 1 EnMin= -279.370469311839     IErMin= 1 ErrMin= 2.54D-02
 ErrMax= 2.54D-02  0.00D+00 EMaxC= 1.00D-01 BMatC= 4.38D-01 BMatP= 4.38D-01
 IDIUse=3 WtCom= 7.46D-01 WtEn= 2.54D-01
 Coeff-Com:  0.100D+01
 Coeff-En:   0.100D+01
 Coeff:      0.100D+01
 Gap=     0.519 Goal=   None    Shift=    0.000
 GapD=    0.519 DampG=2.000 DampE=0.500 DampFc=1.0000 IDamp=-1.
 RMSDP=1.62D-03 MaxDP=9.92D-02              OVMax= 1.13D-01

 Cycle   2  Pass 1  IDiag  1:
 E= -279.452421739168     Delta-E=       -0.081952427328 Rises=F Damp=F
 DIIS: error= 1.78D-02 at cycle   2 NSaved=   2.
 NSaved= 2 IEnMin= 2 EnMin= -279.452421739168     IErMin= 2 ErrMin= 1.78D-02
 ErrMax= 1.78D-02  0.00D+00 EMaxC= 1.00D-01 BMatC= 7.17D-02 BMatP= 4.38D-01
 IDIUse=3 WtCom= 8.22D-01 WtEn= 1.78D-01
 Coeff-Com:  0.195D+00 0.805D+00
 Coeff-En:   0.000D+00 0.100D+01
 Coeff:      0.160D+00 0.840D+00
 Gap=     0.534 Goal=   None    Shift=    0.000
 RMSDP=9.00D-04 MaxDP=3.73D-02 DE=-8.20D-02 OVMax= 6.91D-02

 Cycle   3  Pass 1  IDiag  1:
 E= -279.481511450395     Delta-E=       -0.029089711227 Rises=F Damp=F
 DIIS: error= 1.03D-02 at cycle   3 NSaved=   3.
 NSaved= 3 IEnMin= 3 EnMin= -279.481511450395     IErMin= 3 ErrMin= 1.03D-02
 ErrMax= 1.03D-02  0.00D+00 EMaxC= 1.00D-01 BMatC= 2.87D-02 BMatP= 7.17D-02
 IDIUse=3 WtCom= 8.97D-01 WtEn= 1.03D-01
 Coeff-Com: -0.330D-01 0.378D+00 0.655D+00
 Coeff-En:   0.000D+00 0.241D+00 0.759D+00
 Coeff:     -0.296D-01 0.364D+00 0.666D+00
 Gap=     0.510 Goal=   None    Shift=    0.000
 RMSDP=3.76D-04 MaxDP=1.54D-02 DE=-2.91D-02 OVMax= 3.81D-02

 Cycle   4  Pass 1  IDiag  1:
 E= -279.500553354135     Delta-E=       -0.019041903740 Rises=F Damp=F
 DIIS: error= 1.29D-03 at cycle   4 NSaved=   4.
 NSaved= 4 IEnMin= 4 EnMin= -279.500553354135     IErMin= 4 ErrMin= 1.29D-03
 ErrMax= 1.29D-03  0.00D+00 EMaxC= 1.00D-01 BMatC= 4.92D-04 BMatP= 2.87D-02
 IDIUse=3 WtCom= 9.87D-01 WtEn= 1.29D-02
 Coeff-Com: -0.117D-01 0.575D-01 0.158D+00 0.796D+00
 Coeff-En:   0.000D+00 0.000D+00 0.000D+00 0.100D+01
 Coeff:     -0.115D-01 0.567D-01 0.156D+00 0.798D+00
 Gap=     0.502 Goal=   None    Shift=    0.000
 RMSDP=9.02D-05 MaxDP=2.17D-03 DE=-1.90D-02 OVMax= 1.12D-02

 Cycle   5  Pass 1  IDiag  1:
 E= -279.501228873237     Delta-E=       -0.000675519101 Rises=F Damp=F
 DIIS: error= 7.36D-04 at cycle   5 NSaved=   5.
 NSaved= 5 IEnMin= 5 EnMin= -279.501228873237     IErMin= 5 ErrMin= 7.36D-04
 ErrMax= 7.36D-04  0.00D+00 EMaxC= 1.00D-01 BMatC= 8.71D-05 BMatP= 4.92D-04
 IDIUse=3 WtCom= 9.93D-01 WtEn= 7.36D-03
 Coeff-Com:  0.613D-02-0.724D-01-0.118D+00 0.201D-01 0.116D+01
 Coeff-En:   0.000D+00 0.000D+00 0.000D+00 0.000D+00 0.100D+01
 Coeff:      0.609D-02-0.719D-01-0.117D+00 0.200D-01 0.116D+01
 Gap=     0.502 Goal=   None    Shift=    0.000
 RMSDP=7.63D-05 MaxDP=2.10D-03 DE=-6.76D-04 OVMax= 1.11D-02

 Cycle   6  Pass 1  IDiag  1:
 E= -279.501544109571     Delta-E=       -0.000315236334 Rises=F Damp=F
 DIIS: error= 2.85D-04 at cycle   6 NSaved=   6.
 NSaved= 6 IEnMin= 6 EnMin= -279.501544109571     IErMin= 6 ErrMin= 2.85D-04
 ErrMax= 2.85D-04  0.00D+00 EMaxC= 1.00D-01 BMatC= 1.67D-05 BMatP= 8.71D-05
 IDIUse=3 WtCom= 9.97D-01 WtEn= 2.85D-03
 Coeff-Com:  0.592D-03 0.165D-02 0.458D-02-0.130D+00-0.231D+00 0.135D+01
 Coeff-En:   0.000D+00 0.000D+00 0.000D+00 0.000D+00 0.000D+00 0.100D+01
 Coeff:      0.590D-03 0.164D-02 0.457D-02-0.129D+00-0.231D+00 0.135D+01
 Gap=     0.502 Goal=   None    Shift=    0.000
 RMSDP=4.53D-05 MaxDP=1.06D-03 DE=-3.15D-04 OVMax= 5.55D-03

 Cycle   7  Pass 1  IDiag  1:
 E= -279.501616857764     Delta-E=       -0.000072748193 Rises=F Damp=F
 DIIS: error= 1.22D-04 at cycle   7 NSaved=   7.
 NSaved= 7 IEnMin= 7 EnMin= -279.501616857764     IErMin= 7 ErrMin= 1.22D-04
 ErrMax= 1.22D-04  0.00D+00 EMaxC= 1.00D-01 BMatC= 4.51D-06 BMatP= 1.67D-05
 IDIUse=3 WtCom= 9.99D-01 WtEn= 1.22D-03
 Coeff-Com: -0.938D-03 0.135D-01 0.265D-01-0.242D-01-0.287D+00 0.390D+00
 Coeff-Com:  0.882D+00
 Coeff-En:   0.000D+00 0.000D+00 0.000D+00 0.000D+00 0.000D+00 0.000D+00
 Coeff-En:   0.100D+01
 Coeff:     -0.937D-03 0.135D-01 0.264D-01-0.241D-01-0.287D+00 0.389D+00
 Coeff:      0.882D+00
 Gap=     0.502 Goal=   None    Shift=    0.000
 RMSDP=1.33D-05 MaxDP=3.78D-04 DE=-7.27D-05 OVMax= 1.55D-03

 Cycle   8  Pass 1  IDiag  1:
 E= -279.501625748384     Delta-E=       -0.000008890620 Rises=F Damp=F
 DIIS: error= 5.66D-05 at cycle   8 NSaved=   8.
 NSaved= 8 IEnMin= 8 EnMin= -279.501625748384     IErMin= 8 ErrMin= 5.66D-05
 ErrMax= 5.66D-05  0.00D+00 EMaxC= 1.00D-01 BMatC= 6.07D-07 BMatP= 4.51D-06
 IDIUse=1 WtCom= 1.00D+00 WtEn= 0.00D+00
 Coeff-Com: -0.449D-03 0.345D-02 0.761D-02 0.274D-01-0.409D-01-0.198D+00
 Coeff-Com:  0.172D+00 0.103D+01
 Coeff:     -0.449D-03 0.345D-02 0.761D-02 0.274D-01-0.409D-01-0.198D+00
 Coeff:      0.172D+00 0.103D+01
 Gap=     0.502 Goal=   None    Shift=    0.000
 RMSDP=6.90D-06 MaxDP=2.02D-04 DE=-8.89D-06 OVMax= 7.46D-04

 Cycle   9  Pass 1  IDiag  1:
 E= -279.501627525257     Delta-E=       -0.000001776873 Rises=F Damp=F
 DIIS: error= 1.58D-05 at cycle   9 NSaved=   9.
 NSaved= 9 IEnMin= 9 EnMin= -279.501627525257     IErMin= 9 ErrMin= 1.58D-05
 ErrMax= 1.58D-05  0.00D+00 EMaxC= 1.00D-01 BMatC= 6.94D-08 BMatP= 6.07D-07
 IDIUse=1 WtCom= 1.00D+00 WtEn= 0.00D+00
 Coeff-Com:  0.123D-03-0.173D-02-0.308D-02-0.208D-02 0.343D-01 0.816D-04
 Coeff-Com: -0.167D+00-0.103D+00 0.124D+01
 Coeff:      0.123D-03-0.173D-02-0.308D-02-0.208D-02 0.343D-01 0.816D-04
 Coeff:     -0.167D+00-0.103D+00 0.124D+01
 Gap=     0.502 Goal=   None    Shift=    0.000
 RMSDP=1.95D-06 MaxDP=5.17D-05 DE=-1.78D-06 OVMax= 1.75D-04

 Cycle  10  Pass 1  IDiag  1:
 E= -279.501627686620     Delta-E=       -0.000000161363 Rises=F Damp=F
 DIIS: error= 4.05D-06 at cycle  10 NSaved=  10.
 NSaved=10 IEnMin=10 EnMin= -279.501627686620     IErMin=10 ErrMin= 4.05D-06
 ErrMax= 4.05D-06  0.00D+00 EMaxC= 1.00D-01 BMatC= 5.60D-09 BMatP= 6.94D-08
 IDIUse=1 WtCom= 1.00D+00 WtEn= 0.00D+00
 Coeff-Com:  0.310D-04-0.242D-03-0.322D-03-0.270D-02 0.160D-02 0.197D-01
 Coeff-Com: -0.129D-01-0.744D-01-0.816D-01 0.115D+01
 Coeff:      0.310D-04-0.242D-03-0.322D-03-0.270D-02 0.160D-02 0.197D-01
 Coeff:     -0.129D-01-0.744D-01-0.816D-01 0.115D+01
 Gap=     0.502 Goal=   None    Shift=    0.000
 RMSDP=5.10D-07 MaxDP=2.11D-05 DE=-1.61D-07 OVMax= 4.18D-05

 Cycle  11  Pass 1  IDiag  1:
 E= -279.501627699442     Delta-E=       -0.000000012822 Rises=F Damp=F
 DIIS: error= 2.01D-06 at cycle  11 NSaved=  11.
 NSaved=11 IEnMin=11 EnMin= -279.501627699442     IErMin=11 ErrMin= 2.01D-06
 ErrMax= 2.01D-06  0.00D+00 EMaxC= 1.00D-01 BMatC= 6.79D-10 BMatP= 5.60D-09
 IDIUse=1 WtCom= 1.00D+00 WtEn= 0.00D+00
 Coeff-Com: -0.216D-04 0.247D-03 0.492D-03 0.545D-03-0.433D-02-0.365D-02
 Coeff-Com:  0.214D-01 0.314D-01-0.140D+00-0.183D+00 0.128D+01
 Coeff:     -0.216D-04 0.247D-03 0.492D-03 0.545D-03-0.433D-02-0.365D-02
 Coeff:      0.214D-01 0.314D-01-0.140D+00-0.183D+00 0.128D+01
 Gap=     0.502 Goal=   None    Shift=    0.000
 RMSDP=1.85D-07 MaxDP=6.52D-06 DE=-1.28D-08 OVMax= 1.76D-05

 Cycle  12  Pass 1  IDiag  1:
 E= -279.501627701356     Delta-E=       -0.000000001914 Rises=F Damp=F
 DIIS: error= 5.71D-07 at cycle  12 NSaved=  12.
 NSaved=12 IEnMin=12 EnMin= -279.501627701356     IErMin=12 ErrMin= 5.71D-07
 ErrMax= 5.71D-07  0.00D+00 EMaxC= 1.00D-01 BMatC= 7.67D-11 BMatP= 6.79D-10
 IDIUse=1 WtCom= 1.00D+00 WtEn= 0.00D+00
 Coeff-Com:  0.140D-05-0.312D-04-0.677D-04 0.184D-03 0.113D-02-0.233D-02
 Coeff-Com: -0.431D-02 0.537D-02 0.435D-01-0.115D+00-0.289D+00 0.136D+01
 Coeff:      0.140D-05-0.312D-04-0.677D-04 0.184D-03 0.113D-02-0.233D-02
 Coeff:     -0.431D-02 0.537D-02 0.435D-01-0.115D+00-0.289D+00 0.136D+01
 Gap=     0.502 Goal=   None    Shift=    0.000
 RMSDP=7.81D-08 MaxDP=2.82D-06 DE=-1.91D-09 OVMax= 6.79D-06

 Cycle  13  Pass 1  IDiag  1:
 E= -279.501627701618     Delta-E=       -0.000000000262 Rises=F Damp=F
 DIIS: error= 1.63D-07 at cycle  13 NSaved=  13.
 NSaved=13 IEnMin=13 EnMin= -279.501627701618     IErMin=13 ErrMin= 1.63D-07
 ErrMax= 1.63D-07  0.00D+00 EMaxC= 1.00D-01 BMatC= 5.35D-12 BMatP= 7.67D-11
 IDIUse=1 WtCom= 1.00D+00 WtEn= 0.00D+00
 Coeff-Com:  0.137D-05-0.146D-04-0.237D-04-0.980D-04 0.116D-03 0.855D-03
 Coeff-Com: -0.850D-03-0.363D-02 0.158D-03 0.456D-01-0.350D-01-0.359D+00
 Coeff-Com:  0.135D+01
 Coeff:      0.137D-05-0.146D-04-0.237D-04-0.980D-04 0.116D-03 0.855D-03
 Coeff:     -0.850D-03-0.363D-02 0.158D-03 0.456D-01-0.350D-01-0.359D+00
 Coeff:      0.135D+01
 Gap=     0.502 Goal=   None    Shift=    0.000
 RMSDP=2.42D-08 MaxDP=5.71D-07 DE=-2.62D-10 OVMax= 2.42D-06

 Cycle  14  Pass 1  IDiag  1:
 E= -279.501627701641     Delta-E=       -0.000000000023 Rises=F Damp=F
 DIIS: error= 7.59D-08 at cycle  14 NSaved=  14.
 NSaved=14 IEnMin=14 EnMin= -279.501627701641     IErMin=14 ErrMin= 7.59D-08
 ErrMax= 7.59D-08  0.00D+00 EMaxC= 1.00D-01 BMatC= 6.64D-13 BMatP= 5.35D-12
 IDIUse=1 WtCom= 1.00D+00 WtEn= 0.00D+00
 Coeff-Com: -0.374D-06 0.549D-05 0.942D-05 0.143D-04-0.119D-03-0.138D-04
 Coeff-Com:  0.463D-03 0.567D-03-0.319D-02-0.217D-02 0.260D-01-0.274D-02
 Coeff-Com: -0.370D+00 0.135D+01
 Coeff:     -0.374D-06 0.549D-05 0.942D-05 0.143D-04-0.119D-03-0.138D-04
 Coeff:      0.463D-03 0.567D-03-0.319D-02-0.217D-02 0.260D-01-0.274D-02
 Coeff:     -0.370D+00 0.135D+01
 Gap=     0.502 Goal=   None    Shift=    0.000
 RMSDP=8.75D-09 MaxDP=1.87D-07 DE=-2.25D-11 OVMax= 1.19D-06

 SCF Done:  E(RHF) =  -279.501627702     A.U. after   14 cycles
            NFock= 14  Conv=0.88D-08     -V/T= 2.0024
 KE= 2.788455993548D+02 PE=-8.950780145710D+02 EE= 2.198553224460D+02
 Leave Link  502 at Mon Feb 21 21:13:23 2022, MaxMem= 16106127360 cpu:              41.5 elap:               6.7
 (Enter /sw/contrib/gaussian/g16/B01/g16/l801.exe)
 ExpMin= 2.53D-02 ExpMax= 1.53D+04 ExpMxC= 5.22D+02 IAcc=3 IRadAn=         5 AccDes= 0.00D+00
 HarFok:  IExCor=  205 AccDes= 0.00D+00 IRadAn=         5 IDoV=-2 UseB2=F ITyADJ=14
 ICtDFT= 12500011 ScaDFX=  1.000000  1.000000  1.000000  1.000000
 Largest valence mixing into a core orbital is  2.08D-04
 Largest core mixing into a valence orbital is  3.63D-05
 Range of M.O.s used for correlation:     5   207
 NBasis=   207 NAE=    16 NBE=    16 NFC=     4 NFV=     0
 NROrb=    203 NOA=    12 NOB=    12 NVA=   191 NVB=   191

 **** Warning!!: The largest alpha MO coefficient is  0.17663337D+02

 Leave Link  801 at Mon Feb 21 21:13:23 2022, MaxMem= 16106127360 cpu:               2.0 elap:               0.1
 (Enter /sw/contrib/gaussian/g16/B01/g16/l906.exe)
 Frozen-core derivative calculation, NFC=   4 NFV=   0.
 FulOut=F Deriv=T AODrv=T NAtomX=     5
   MMem=           0  MDisk=          12 MDiskD=          12
  W3Min=      811440 MinDsk=     2425030 NBas6D=         245
 NBas2D=       30762    NTT=       30135    LW2=     7400000
    MDV= 16105638402 MDiskM=      328645 NBas2p=       30702
 Disk-based method using ON**2 memory for 12 occupieds at a time.
 Permanent disk used for amplitudes=    11516536 words.
 Estimated scratch disk usage=   321251614 words.
 IMap=   1   2   3   4   5   6   7   8   9  10  11  12  13  14  15  16
 Actual    scratch disk usage=   310331678 words.
 JobTyp=1 Pass  1:  I=   5 to  16 NPSUse= 28 ParTrn=T ParDer=T DoDerP=T.
 (rs|ai) integrals will be sorted in core.
 Spin components of T(2) and E(2):
     alpha-alpha T2 =       0.3402133064D-01 E2=     -0.1223988779D+00
     alpha-beta  T2 =       0.1868381795D+00 E2=     -0.7002182726D+00
     beta-beta   T2 =       0.3402133064D-01 E2=     -0.1223988779D+00
 The integrals were generated   1 times.
 ANorm=    0.1120214640D+01
 E2 =    -0.9450160284D+00 EUMP2 =    -0.28044664373001D+03
 Leave Link  906 at Mon Feb 21 21:15:01 2022, MaxMem= 16106127360 cpu:            2738.0 elap:              97.9
 (Enter /sw/contrib/gaussian/g16/B01/g16/l1101.exe)
 Using compressed Sx but separate Hx and Fx, NAtomX=     5.
 Will process      6 centers per pass.
 Leave Link 1101 at Mon Feb 21 21:15:02 2022, MaxMem= 16106127360 cpu:               6.2 elap:               0.3
 (Enter /sw/contrib/gaussian/g16/B01/g16/l1102.exe)
 Leave Link 1102 at Mon Feb 21 21:15:02 2022, MaxMem= 16106127360 cpu:               1.0 elap:               0.1
 (Enter /sw/contrib/gaussian/g16/B01/g16/l1110.exe)
 Forming Gx(P) for the SCF density, NAtomX=     5.
 Integral derivatives from FoFJK, PRISM(SPDF).
 Do as many integral derivatives as possible in FoFJK.
 G2DrvN: MDV=   16106126844.
 G2DrvN: will do     6 centers at a time, making    1 passes.
 Calling FoFCou, ICntrl=  3107 FMM=F I1Cent=   0 AccDes= 0.00D+00.
 FoFJK:  IHMeth= 1 ICntrl=    3107 DoSepK=F KAlg= 0 I1Cent=           0 FoldK=F
 IRaf=         0 NMat=       1 IRICut=       1 DoRegI=T DoRafI=F ISym2E= 0 IDoP0=0 IntGTp=1.
 FoFCou: FMM=F IPFlag=           0 FMFlag=      100000 FMFlg1=           0
         NFxFlg=           0 DoJE=F BraDBF=F KetDBF=F FulRan=T
         wScrn=  0.000000 ICntrl=      3107 IOpCl=  0 I1Cent=           0 NGrid=           0
         NMat0=    1 NMatS0=      1 NMatT0=    0 NMatD0=    1 NMtDS0=    0 NMtDT0=    0
 Symmetry not used in FoFCou.
 End of G2Drv F.D. properties file   721 does not exist.
 End of G2Drv F.D. properties file   722 does not exist.
 End of G2Drv F.D. properties file   788 does not exist.
 Leave Link 1110 at Mon Feb 21 21:15:05 2022, MaxMem= 16106127360 cpu:              83.5 elap:               3.0
 (Enter /sw/contrib/gaussian/g16/B01/g16/l1002.exe)
 Minotr:  Closed shell wavefunction.
          IDoAtm=11111
          Frozen-core window.
          Direct CPHF calculation.
          Differentiating once with respect to electric field.
                with respect to dipole field.
          Differentiating once with respect to nuclear coordinates.
          Requested convergence is 1.0D-08 RMS, and 1.0D-07 maximum.
          Secondary convergence is 1.0D-12 RMS, and 1.0D-12 maximum.
          NewPWx=T KeepS1=T KeepF1=T KeepIn=T MapXYZ=F SortEE=F KeepMc=T.
 Keep R1 ints in memory in canonical form, NReq=245618134.
 FoFCou: FMM=F IPFlag=           0 FMFlag=           0 FMFlg1=           0
         NFxFlg=           0 DoJE=F BraDBF=F KetDBF=F FulRan=T
         wScrn=  0.000000 ICntrl=       600 IOpCl=  0 I1Cent=           0 NGrid=           0
         NMat0=    1 NMatS0=  21528 NMatT0=    0 NMatD0=    1 NMtDS0=    0 NMtDT0=    0
 Symmetry not used in FoFCou.
 Two-electron integral symmetry not used.
          MDV=   16106127360 using IRadAn=       1.
          Solving linear equations simultaneously, MaxMat=       0.
          There are    18 degrees of freedom in the 1st order CPHF.  IDoFFX=6 NUNeed=    18.
     15 vectors produced by pass  0 Test12= 1.70D-14 5.56D-09 XBig12= 9.51D+00 1.10D+00.
 AX will form    15 AO Fock derivatives at one time.
     15 vectors produced by pass  1 Test12= 1.70D-14 5.56D-09 XBig12= 1.16D+00 2.28D-01.
     15 vectors produced by pass  2 Test12= 1.70D-14 5.56D-09 XBig12= 1.24D-01 9.42D-02.
     15 vectors produced by pass  3 Test12= 1.70D-14 5.56D-09 XBig12= 4.08D-03 1.03D-02.
     15 vectors produced by pass  4 Test12= 1.70D-14 5.56D-09 XBig12= 7.51D-05 1.58D-03.
     15 vectors produced by pass  5 Test12= 1.70D-14 5.56D-09 XBig12= 9.79D-07 1.28D-04.
     15 vectors produced by pass  6 Test12= 1.70D-14 5.56D-09 XBig12= 7.84D-09 1.09D-05.
     12 vectors produced by pass  7 Test12= 1.70D-14 5.56D-09 XBig12= 5.83D-11 9.29D-07.
      3 vectors produced by pass  8 Test12= 1.70D-14 5.56D-09 XBig12= 4.44D-13 9.79D-08.
      2 vectors produced by pass  9 Test12= 1.70D-14 5.56D-09 XBig12= 3.18D-15 9.10D-09.
 InvSVY:  IOpt=1 It=  1 EMax= 1.33D-15
 Solved reduced A of dimension   122 with    15 vectors.
 FullF1:  Do perturbations      1 to      18.
 Saving first derivative matrices.
 End of Minotr F.D. properties file   721 does not exist.
 End of Minotr F.D. properties file   722 does not exist.
 End of Minotr F.D. properties file   788 does not exist.
 Leave Link 1002 at Mon Feb 21 21:15:08 2022, MaxMem= 16106127360 cpu:              99.7 elap:               3.6
 (Enter /sw/contrib/gaussian/g16/B01/g16/l811.exe)
 MDV= 16106127360.
 Form MO integral derivatives with frozen-active canonical formalism.
 MOERI=1 MOERIx=1 NAtoms=     5 NAtomX=     5.
 Discarding MO integrals.
 MO basis two electron integral derivatives will not be stored on disk.
 IAlg= 3 DoFC=T DoPWx=T Debug=F.
 Frozen-core window:  NFC=   4 NFV=   0.
 Reordered first order wavefunction length =     18678272
 In DefCFB: NBatch=  1 ICI= 16 ICA=191 LFMax= 96
            Large arrays: LIAPS=   619940160 LIARS=   288257200 words.
 In StABat: MaxSiz= 55 MinSiz= 25 NAtomB=  5
 DoIAMN: NPSUse= 28.
 Leave Link  811 at Mon Feb 21 21:16:41 2022, MaxMem= 16106127360 cpu:            2595.3 elap:              92.8
 (Enter /sw/contrib/gaussian/g16/B01/g16/l804.exe)
 Frozen-core window:  NFC=   4 NFV=   0.
 Closed-shell transformation, MDV= 16106127360 ITran=4 ISComp=1.
 Semi-Direct transformation.
 ModeAB=           2 MOrb=            16 LenV=   16104925835
 LASXX=     67341636 LTotXX=    67341636 LenRXX=    67341636
 LTotAB=    68301760 MaxLAS=    99807120 LenRXY=    99807120
 NonZer=   134683272 LenScr=   202817536 LnRSAI=           0
 LnScr1=           0 LExtra=           0 Total=    369966292
 MaxDsk=          -1 SrtSym=           F ITran=            4
 DoSDTr:  NPSUse= 28
 JobTyp=0 Pass  1:  I=   1 to  16.
 (rs|ai) integrals will be sorted in core.
 Complete sort for first half transformation.
 First half transformation complete.
 Begin second half transformation for I=  10.
 Begin second half transformation for I=  10.
 Complete sort for second half transformation.
 Second half transformation complete.
 SymMOI:  orbitals are not symmetric.
 Spin components of T(2) and E(2):
     alpha-alpha T2 =       0.3402133064D-01 E2=     -0.1223988779D+00
     alpha-beta  T2 =       0.1868381795D+00 E2=     -0.7002182726D+00
     beta-beta   T2 =       0.3402133064D-01 E2=     -0.1223988779D+00
 ANorm=    0.1584222737D+01
 E2 =    -0.9450160284D+00 EUMP2 =    -0.28044664373001D+03
 Leave Link  804 at Mon Feb 21 21:16:55 2022, MaxMem= 16106127360 cpu:             378.1 elap:              13.6
 (Enter /sw/contrib/gaussian/g16/B01/g16/l1002.exe)
 Minotr:  Closed shell wavefunction.
          Computing MP2/KS-MP2 derivatives.
          Using Z-Vector for PSCF gradient.
          Skipping F1 and S1 gradient terms here.
          IDoAtm=11111
          Frozen-core window.
          Using MO integrals in the linear equations.
          Forming densities via direct SCF.
          Differentiating once with respect to electric field.
                with respect to dipole field.
          Differentiating once with respect to nuclear coordinates.
          Requested convergence is 1.0D-10 RMS, and 1.0D-09 maximum.
          NewPWx=F KeepS1=T KeepF1=T KeepIn=T MapXYZ=F SortEE=F KeepMc=T.
          MDV=   16106127360 using IRadAn=       5.
          Solving linear equations separately, MaxMat=       0.
          There are     1 degrees of freedom in the 1st order CPHF.  IDoFFX=0 NUNeed=     1.
 FoFJK:  IHMeth= 1 ICntrl=       0 DoSepK=F KAlg= 0 I1Cent=           0 FoldK=F
 IRaf=         0 NMat=       1 IRICut=       1 DoRegI=T DoRafI=F ISym2E= 0 IDoP0=0 IntGTp=1.
 FoFCou: FMM=F IPFlag=           0 FMFlag=      100000 FMFlg1=           0
         NFxFlg=           0 DoJE=F BraDBF=F KetDBF=F FulRan=T
         wScrn=  0.000000 ICntrl=         0 IOpCl=  0 I1Cent=           0 NGrid=           0
         NMat0=    1 NMatS0=      1 NMatT0=    0 NMatD0=    1 NMtDS0=    0 NMtDT0=    0
 Symmetry not used in FoFCou.
 LinEq1:  Iter=  0 NonCon=     1 RMS=5.95D-03 Max=1.32D-01 NDo=     1
 LinEq1:  Iter=  1 NonCon=     1 RMS=1.90D-03 Max=3.82D-02 NDo=     1
 LinEq1:  Iter=  2 NonCon=     1 RMS=8.68D-04 Max=1.39D-02 NDo=     1
 LinEq1:  Iter=  3 NonCon=     1 RMS=3.86D-04 Max=7.80D-03 NDo=     1
 LinEq1:  Iter=  4 NonCon=     1 RMS=1.19D-04 Max=1.88D-03 NDo=     1
 LinEq1:  Iter=  5 NonCon=     1 RMS=4.55D-05 Max=7.21D-04 NDo=     1
 LinEq1:  Iter=  6 NonCon=     1 RMS=2.03D-05 Max=2.15D-04 NDo=     1
 LinEq1:  Iter=  7 NonCon=     1 RMS=8.17D-06 Max=1.43D-04 NDo=     1
 LinEq1:  Iter=  8 NonCon=     1 RMS=3.50D-06 Max=3.38D-05 NDo=     1
 LinEq1:  Iter=  9 NonCon=     1 RMS=9.60D-07 Max=1.28D-05 NDo=     1
 LinEq1:  Iter= 10 NonCon=     1 RMS=1.98D-07 Max=2.63D-06 NDo=     1
 LinEq1:  Iter= 11 NonCon=     1 RMS=4.58D-08 Max=1.15D-06 NDo=     1
 LinEq1:  Iter= 12 NonCon=     1 RMS=1.53D-08 Max=4.09D-07 NDo=     1
 LinEq1:  Iter= 13 NonCon=     1 RMS=3.55D-09 Max=6.91D-08 NDo=     1
 LinEq1:  Iter= 14 NonCon=     1 RMS=6.81D-10 Max=1.02D-08 NDo=     1
 LinEq1:  Iter= 15 NonCon=     1 RMS=1.58D-10 Max=2.69D-09 NDo=     1
 LinEq1:  Iter= 16 NonCon=     0 RMS=4.16D-11 Max=6.86D-10 NDo=     1
 Linear equations converged to 1.000D-10 1.000D-09 after    16 iterations.
 End of Minotr F.D. properties file   721 does not exist.
 End of Minotr F.D. properties file   722 does not exist.
 End of Minotr F.D. properties file   788 does not exist.
 Leave Link 1002 at Mon Feb 21 21:16:57 2022, MaxMem= 16106127360 cpu:              66.8 elap:               2.4
 (Enter /sw/contrib/gaussian/g16/B01/g16/l1102.exe)
 Use density number 2.
 Symmetrizing basis deriv contribution to polar:
 IMax=3 JMax=2 DiffMx= 0.00D+00
 Leave Link 1102 at Mon Feb 21 21:16:57 2022, MaxMem= 16106127360 cpu:               0.7 elap:               0.1
 (Enter /sw/contrib/gaussian/g16/B01/g16/l1110.exe)
 Forming Gx(P) for generalized density number  2 NAtomX=     5.
 Integral derivatives from FoFJK, PRISM(SPDF).
 Do as many integral derivatives as possible in FoFJK.
 G2DrvN: MDV=   16106126844.
 G2DrvN: will do     6 centers at a time, making    1 passes.
 Calling FoFCou, ICntrl=  3107 FMM=F I1Cent=   0 AccDes= 0.00D+00.
 FoFJK:  IHMeth= 1 ICntrl=    3107 DoSepK=F KAlg= 0 I1Cent=           0 FoldK=F
 IRaf=         0 NMat=       1 IRICut=       1 DoRegI=T DoRafI=F ISym2E= 0 IDoP0=0 IntGTp=1.
 FoFCou: FMM=F IPFlag=           0 FMFlag=      100000 FMFlg1=           0
         NFxFlg=           0 DoJE=F BraDBF=F KetDBF=F FulRan=T
         wScrn=  0.000000 ICntrl=      3107 IOpCl=  0 I1Cent=           0 NGrid=           0
         NMat0=    1 NMatS0=      1 NMatT0=    0 NMatD0=    1 NMtDS0=    0 NMtDT0=    0
 Symmetry not used in FoFCou.
 End of G2Drv F.D. properties file   721 does not exist.
 End of G2Drv F.D. properties file   722 does not exist.
 End of G2Drv F.D. properties file   788 does not exist.
 Leave Link 1110 at Mon Feb 21 21:17:00 2022, MaxMem= 16106127360 cpu:              83.7 elap:               3.0
 (Enter /sw/contrib/gaussian/g16/B01/g16/l1112.exe)
 MP22nd: MDV=   16106127360
 This link is doing NAtomX=     5 total of    18 degrees of freedom.
 Using ON3 I/O method in MakUI.
 Frozen-core window:  NFC=   4 NFV=   0.
 Using Ix for Sx.
 Use MO integrals over full window.
 Using OV2 memory method for fx*t*t/D, MaxI=    16 DoOO2=F NP=  28.
 R2 and R3 integrals will be kept in memory, NReq=   915591705.
 FoFCou: FMM=F IPFlag=           0 FMFlag=           0 FMFlg1=           0
         NFxFlg=           0 DoJE=F BraDBF=F KetDBF=F FulRan=T
         wScrn=  0.000000 ICntrl=       600 IOpCl=  0 I1Cent=           0 NGrid=           0
         NMat0=    1 NMatS0=      1 NMatT0=    0 NMatD0=    1 NMtDS0=    0 NMtDT0=    0
 Symmetry not used in FoFCou.
 DD1Dir will call FoFMem   1 times, MxPair=       272
 NAB=   136 NAA=     0 NBB=     0.
 Symmetry is being used.
 FoFJK:  IHMeth= 1 ICntrl=       0 DoSepK=F KAlg= 0 I1Cent=           0 FoldK=F
 IRaf=         0 NMat=      18 IRICut=      45 DoRegI=T DoRafI=T ISym2E= 2 IDoP0=3 IntGTp=3.
 Discarding MO integrals.
 Leave Link 1112 at Mon Feb 21 21:17:35 2022, MaxMem= 16106127360 cpu:             959.2 elap:              34.7
 (Enter /sw/contrib/gaussian/g16/B01/g16/l601.exe)
 Copying SCF densities to generalized density rwf, IOpCl= 0 IROHF=0.

 **********************************************************************

            Population analysis using the MP2 Density.

 **********************************************************************

 Orbital symmetries:
       Occupied  (A) (A) (A) (A) (A) (A) (A) (A) (A) (A) (A) (A)
                 (A) (A) (A) (A)
       Virtual   (A) (A) (A) (A) (A) (A) (A) (A) (A) (A) (A) (A)
                 (A) (A) (A) (A) (A) (A) (A) (A) (A) (A) (A) (A)
                 (A) (A) (A) (A) (A) (A) (A) (A) (A) (A) (A) (A)
                 (A) (A) (A) (A) (A) (A) (A) (A) (A) (A) (A) (A)
                 (A) (A) (A) (A) (A) (A) (A) (A) (A) (A) (A) (A)
                 (A) (A) (A) (A) (A) (A) (A) (A) (A) (A) (A) (A)
                 (A) (A) (A) (A) (A) (A) (A) (A) (A) (A) (A) (A)
                 (A) (A) (A) (A) (A) (A) (A) (A) (A) (A) (A) (A)
                 (A) (A) (A) (A) (A) (A) (A) (A) (A) (A) (A) (A)
                 (A) (A) (A) (A) (A) (A) (A) (A) (A) (A) (A) (A)
                 (A) (A) (A) (A) (A) (A) (A) (A) (A) (A) (A) (A)
                 (A) (A) (A) (A) (A) (A) (A) (A) (A) (A) (A) (A)
                 (A) (A) (A) (A) (A) (A) (A) (A) (A) (A) (A) (A)
                 (A) (A) (A) (A) (A) (A) (A) (A) (A) (A) (A) (A)
                 (A) (A) (A) (A) (A) (A) (A) (A) (A) (A) (A) (A)
                 (A) (A) (A) (A) (A) (A) (A) (A) (A) (A) (A)
 The electronic state is 1-A.
 Alpha  occ. eigenvalues --  -20.69081 -20.68435 -20.65999 -15.81280  -1.62404
 Alpha  occ. eigenvalues --   -1.49573  -1.25440  -0.94806  -0.77277  -0.75917
 Alpha  occ. eigenvalues --   -0.71194  -0.67921  -0.62051  -0.58939  -0.48522
 Alpha  occ. eigenvalues --   -0.47249
 Alpha virt. eigenvalues --    0.02963   0.07161   0.08598   0.10172   0.13279
 Alpha virt. eigenvalues --    0.13506   0.14409   0.15454   0.17816   0.19414
 Alpha virt. eigenvalues --    0.19966   0.20650   0.22086   0.23484   0.23807
 Alpha virt. eigenvalues --    0.26578   0.29343   0.30351   0.31105   0.34342
 Alpha virt. eigenvalues --    0.34981   0.38721   0.42165   0.43117   0.52618
 Alpha virt. eigenvalues --    0.53048   0.55842   0.58146   0.62599   0.63838
 Alpha virt. eigenvalues --    0.67314   0.68592   0.70643   0.71125   0.72460
 Alpha virt. eigenvalues --    0.72959   0.74471   0.79035   0.79348   0.80869
 Alpha virt. eigenvalues --    0.81443   0.83037   0.86816   0.90808   0.92193
 Alpha virt. eigenvalues --    0.92633   0.95637   0.97678   0.98505   1.01630
 Alpha virt. eigenvalues --    1.05072   1.05512   1.08380   1.11729   1.14053
 Alpha virt. eigenvalues --    1.19000   1.22123   1.23240   1.33858   1.35081
 Alpha virt. eigenvalues --    1.38707   1.45263   1.48765   1.50877   1.53806
 Alpha virt. eigenvalues --    1.56608   1.58072   1.61324   1.66372   1.66930
 Alpha virt. eigenvalues --    1.70361   1.79232   1.82968   1.83642   1.87910
 Alpha virt. eigenvalues --    1.91051   1.95610   1.99153   2.00676   2.07761
 Alpha virt. eigenvalues --    2.12046   2.13135   2.15061   2.22496   2.26414
 Alpha virt. eigenvalues --    2.26531   2.28978   2.31417   2.34454   2.38630
 Alpha virt. eigenvalues --    2.42106   2.43140   2.45405   2.46277   2.47709
 Alpha virt. eigenvalues --    2.50193   2.58995   2.59655   2.61977   2.62460
 Alpha virt. eigenvalues --    2.63505   2.66714   2.75633   2.82300   2.85454
 Alpha virt. eigenvalues --    2.88499   2.89759   2.92317   2.95989   3.02594
 Alpha virt. eigenvalues --    3.06858   3.12176   3.20488   3.22621   3.31598
 Alpha virt. eigenvalues --    3.34189   3.51614   3.64196   3.83760   3.84572
 Alpha virt. eigenvalues --    4.14881   4.16252   4.18392   4.25717   4.35172
 Alpha virt. eigenvalues --    4.39338   4.46378   4.51920   4.66029   4.71021
 Alpha virt. eigenvalues --    4.80545   4.82452   4.82809   4.89721   5.02300
 Alpha virt. eigenvalues --    5.07629   5.10401   5.14530   5.17907   5.24304
 Alpha virt. eigenvalues --    5.27249   5.30706   5.32945   5.35517   5.60622
 Alpha virt. eigenvalues --    5.67389   5.76917   5.82892   5.95768   6.16878
 Alpha virt. eigenvalues --    6.30919   6.33784   6.39429   6.49354   6.50540
 Alpha virt. eigenvalues --    6.61410   6.66769   6.69916   6.75728   6.76367
 Alpha virt. eigenvalues --    6.83254   6.89821   7.01395   7.05502   7.05799
 Alpha virt. eigenvalues --    7.09017   7.12470   7.15084   7.18155   7.22519
 Alpha virt. eigenvalues --    7.24184   7.30754   7.32563   7.34777   7.39936
 Alpha virt. eigenvalues --    7.43172   7.48407   7.59833   7.62476   7.62780
 Alpha virt. eigenvalues --    7.66717   7.78953   7.88662   8.09249   8.31397
 Alpha virt. eigenvalues --    8.40897   8.54390  13.39201  14.39203  15.16240
 Alpha virt. eigenvalues --   16.15118
          Condensed to atoms (all electrons):
               1          2          3          4          5
     1  H    0.589533   0.128401   0.019980   0.012419  -0.000645
     2  O    0.128401   8.321572  -0.173407  -0.090453   0.015456
     3  O    0.019980  -0.173407   8.469845  -0.130256  -0.038792
     4  N    0.012419  -0.090453  -0.130256   6.972338  -0.055735
     5  O   -0.000645   0.015456  -0.038792  -0.055735   8.272777
 Mulliken charges:
               1
     1  H    0.250312
     2  O   -0.201568
     3  O   -0.147370
     4  N    0.291687
     5  O   -0.193061
 Sum of Mulliken charges =  -0.00000
 Mulliken charges with hydrogens summed into heavy atoms:
               1
     2  O    0.048743
     3  O   -0.147370
     4  N    0.291687
     5  O   -0.193061
 APT charges:
               1
     1  H    0.299190
     2  O   -0.288162
     3  O   -0.495755
     4  N    0.876368
     5  O   -0.391642
 Sum of APT charges =  -0.00000
 APT charges with hydrogens summed into heavy atoms:
               1
     2  O    0.011029
     3  O   -0.495755
     4  N    0.876368
     5  O   -0.391642
 Electronic spatial extent (au):  <R**2>=            252.8388
 Charge=             -0.0000 electrons
 Dipole moment (field-independent basis, Debye):
    X=             -1.2168    Y=              0.7910    Z=             -0.0070  Tot=              1.4513
 Quadrupole moment (field-independent basis, Debye-Ang):
   XX=            -17.9880   YY=            -23.0931   ZZ=            -22.0129
   XY=             -2.7903   XZ=              0.1039   YZ=              0.0405
 Traceless Quadrupole moment (field-independent basis, Debye-Ang):
   XX=              3.0434   YY=             -2.0618   ZZ=             -0.9816
   XY=             -2.7903   XZ=              0.1039   YZ=              0.0405
 Octapole moment (field-independent basis, Debye-Ang**2):
  XXX=            -18.1943  YYY=              1.7560  ZZZ=             -0.0572  XYY=             -1.0880
  XXY=              6.2022  XXZ=             -0.1282  XZZ=              1.7734  YZZ=              0.2538
  YYZ=             -0.0760  XYZ=              0.0916
 Hexadecapole moment (field-independent basis, Debye-Ang**3):
 XXXX=           -190.0157 YYYY=            -41.0744 ZZZZ=            -18.3009 XXXY=            -12.1334
 XXXZ=              0.5659 YYYX=             -1.0048 YYYZ=              0.1304 ZZZX=             -0.0875
 ZZZY=              0.0278 XXYY=            -42.4403 XXZZ=            -41.6475 YYZZ=             -9.8901
 XXYZ=              0.0009 YYXZ=              0.0320 ZZXY=             -0.4759
 N-N= 1.168754650686D+02 E-N=-8.958616965071D+02  KE= 2.801975989020D+02
  Exact polarizability:  41.714  -0.975  22.518  -0.062  -0.043  17.939
 Approx polarizability:  31.936   1.130  20.577  -0.125  -0.009  15.535
 No NMR shielding tensors so no spin-rotation constants.
 Leave Link  601 at Mon Feb 21 21:17:35 2022, MaxMem= 16106127360 cpu:               5.1 elap:               0.2
 (Enter /sw/contrib/gaussian/g16/B01/g16/l701.exe)
 ... and contract with generalized density number  2.
 Compute integral second derivatives.
 Leave Link  701 at Mon Feb 21 21:17:35 2022, MaxMem= 16106127360 cpu:               6.0 elap:               0.2
 (Enter /sw/contrib/gaussian/g16/B01/g16/l702.exe)
 L702 exits ... SP integral derivatives will be done elsewhere.
 Leave Link  702 at Mon Feb 21 21:17:35 2022, MaxMem= 16106127360 cpu:               0.5 elap:               0.0
 (Enter /sw/contrib/gaussian/g16/B01/g16/l703.exe)
 Integral derivatives from FoFJK, PRISM(SPDF).
 Compute integral second derivatives, UseDBF=F ICtDFT=           0.
 Calling FoFJK, ICntrl=  10100127 FMM=F ISym2X=0 I1Cent= 0 IOpClX= 0 NMat=1 NMatS=1 NMatT=0.
 FoFJK:  IHMeth= 1 ICntrl=10100127 DoSepK=F KAlg= 0 I1Cent=           0 FoldK=F
 IRaf=         0 NMat=       1 IRICut=       1 DoRegI=T DoRafI=F ISym2E= 0 IDoP0=0 IntGTp=1.
 FoFCou: FMM=F IPFlag=           0 FMFlag=      100000 FMFlg1=         800
         NFxFlg=           0 DoJE=F BraDBF=F KetDBF=F FulRan=T
         wScrn=  0.000000 ICntrl=  10100127 IOpCl=  0 I1Cent=           0 NGrid=           0
         NMat0=    1 NMatS0=      1 NMatT0=    0 NMatD0=    1 NMtDS0=    0 NMtDT0=    0
 Symmetry not used in FoFCou.
 Leave Link  703 at Mon Feb 21 21:17:51 2022, MaxMem= 16106127360 cpu:             423.3 elap:              15.2
 (Enter /sw/contrib/gaussian/g16/B01/g16/l716.exe)
 Dipole        =-4.78717809D-01 3.11190000D-01-2.76072145D-03
 Polarizability= 4.17137474D+01-9.74703545D-01 2.25183320D+01
                -6.19313277D-02-4.27271531D-02 1.79388174D+01
 Full mass-weighted force constant matrix:
 Low frequencies --- -269.5042  -13.3221   -5.1741    0.0005    0.0017    0.0019
 Low frequencies ---    3.8907  227.6670  341.6845
 ******    1 imaginary frequencies (negative Signs) ****** 
 Diagonal vibrational polarizability:
       34.8089981       4.5278736      46.5896823
 Harmonic frequencies (cm**-1), IR intensities (KM/Mole), Raman scattering
 activities (A**4/AMU), depolarization ratios for plane and unpolarized
 incident light, reduced masses (AMU), force constants (mDyne/A),
 and normal coordinates:
                      1                      2                      3
                      A                      A                      A
 Frequencies --   -269.5037               227.6627               341.6225
 Red. masses --      1.1387                10.5225                 8.6280
 Frc consts  --      0.0487                 0.3213                 0.5933
 IR Inten    --    124.7252                 1.2012                 4.3983
  Atom  AN      X      Y      Z        X      Y      Z        X      Y      Z
     1   1    -0.02  -0.01   1.00    -0.00  -0.04  -0.57    -0.17  -0.67   0.03
     2   8     0.00   0.00  -0.06     0.03  -0.02  -0.31     0.30  -0.25   0.01
     3   8    -0.00   0.00  -0.04    -0.02   0.03   0.33    -0.14   0.43   0.00
     4   7     0.00   0.00   0.06     0.01   0.02   0.52    -0.19   0.18  -0.05
     5   8    -0.00  -0.00  -0.01    -0.02  -0.03  -0.44     0.02  -0.30   0.03
                      4                      5                      6
                      A                      A                      A
 Frequencies --    451.7722               785.5648               967.2457
 Red. masses --     12.3098                12.9147                15.3947
 Frc consts  --      1.4803                 4.6957                 8.4858
 IR Inten    --    199.4848               170.5697                22.5408
  Atom  AN      X      Y      Z        X      Y      Z        X      Y      Z
     1   1    -0.45  -0.09   0.00     0.16   0.35   0.02    -0.16  -0.07   0.00
     2   8    -0.38  -0.03   0.00    -0.39  -0.18  -0.01    -0.40  -0.33  -0.01
     3   8    -0.40   0.25   0.00     0.21  -0.18   0.02     0.59   0.46   0.00
     4   7     0.52  -0.12  -0.01    -0.26   0.58  -0.00     0.05  -0.27   0.00
     5   8     0.35  -0.11   0.01     0.39  -0.17  -0.01    -0.22   0.11   0.00
                      7                      8                      9
                      A                      A                      A
 Frequencies --   1371.1853              1677.1795              3778.6956
 Red. masses --      1.1334                13.2089                 1.0675
 Frc consts  --      1.2555                21.8915                 8.9809
 IR Inten    --    152.8752               140.3796                82.5743
  Atom  AN      X      Y      Z        X      Y      Z        X      Y      Z
     1   1     0.77   0.63   0.02     0.27   0.21   0.01    -0.67   0.74  -0.00
     2   8     0.01  -0.06  -0.00     0.03  -0.03   0.00     0.04  -0.05   0.00
     3   8    -0.05   0.03  -0.00    -0.09   0.12  -0.00    -0.00  -0.00  -0.00
     4   7     0.02   0.00  -0.00    -0.54  -0.46   0.03     0.00  -0.00  -0.00
     5   8    -0.03  -0.01   0.00     0.52   0.30  -0.02    -0.00  -0.00   0.00

 -------------------
 - Thermochemistry -
 -------------------
 Temperature   298.150 Kelvin.  Pressure   1.00000 Atm.
 Atom     1 has atomic number  1 and mass   1.00783
 Atom     2 has atomic number  8 and mass  15.99491
 Atom     3 has atomic number  8 and mass  15.99491
 Atom     4 has atomic number  7 and mass  14.00307
 Atom     5 has atomic number  8 and mass  15.99491
 Molecular mass:    62.99564 amu.
 Principal axes and moments of inertia in atomic units:
                           1         2         3
     Eigenvalues --    32.91963 360.05190 392.78808
           X            0.99994  -0.01071   0.00044
           Y            0.01071   0.99994  -0.00096
           Z           -0.00043   0.00096   1.00000
 This molecule is an asymmetric top.
 Rotational symmetry number  1.
 Rotational temperatures (Kelvin)      2.63107     0.24056     0.22051
 Rotational constants (GHZ):          54.82264     5.01245     4.59469
    1 imaginary frequencies ignored.
 Zero-point vibrational energy      57426.3 (Joules/Mol)
                                   13.72522 (Kcal/Mol)
 Warning -- explicit consideration of   3 degrees of freedom as
           vibrations may cause significant error
 Vibrational temperatures:    327.56   491.52   650.00  1130.25  1391.65
          (Kelvin)           1972.83  2413.09  5436.70
 
 Zero-point correction=                           0.021873 (Hartree/Particle)
 Thermal correction to Energy=                    0.025992
 Thermal correction to Enthalpy=                  0.026936
 Thermal correction to Gibbs Free Energy=        -0.004253
 Sum of electronic and zero-point Energies=           -280.424771
 Sum of electronic and thermal Energies=              -280.420652
 Sum of electronic and thermal Enthalpies=            -280.419708
 Sum of electronic and thermal Free Energies=         -280.450897
 
                     E (Thermal)             CV                S
                      KCal/Mol        Cal/Mol-Kelvin    Cal/Mol-Kelvin
 Total                   16.310             11.956             65.643
 Electronic               0.000              0.000              0.000
 Translational            0.889              2.981             38.341
 Rotational               0.889              2.981             23.058
 Vibrational             14.533              5.994              4.244
 Vibration     1          0.651              1.799              1.897
 Vibration     2          0.721              1.592              1.205
 Vibration     3          0.810              1.357              0.790
                       Q            Log10(Q)             Ln(Q)
 Total Bot       0.904219D+02          1.956274          4.504486
 Total V=0       0.103975D+13         12.016927         27.669998
 Vib (Bot)       0.188373D-09         -9.724981        -22.392596
 Vib (Bot)    1  0.866012D+00         -0.062476         -0.143856
 Vib (Bot)    2  0.542980D+00         -0.265217         -0.610684
 Vib (Bot)    3  0.379041D+00         -0.421314         -0.970111
 Vib (V=0)       0.216607D+01          0.335673          0.772915
 Vib (V=0)    1  0.149999D+01          0.176088          0.405457
 Vib (V=0)    2  0.123812D+01          0.092764          0.213597
 Vib (V=0)    3  0.112743D+01          0.052091          0.119943
 Electronic      0.100000D+01          0.000000          0.000000
 Translational   0.196526D+08          7.293420         16.793719
 Rotational      0.244250D+05          4.387835         10.103363
 
                                                                title
                                                             IR Spectrum
 
     3                                                                      1         1                                              
     7                                                                      6         3             9     7          4   3   2       
     7                                                                      7         7             6     8          5   4   2       
     9                                                                      7         1             7     6          2   2   8       
 
     X                                                                      X         X             X     X          X   X   X       
     X                                                                      X         X             X     X          X               
     X                                                                      X         X                   X          X               
     X                                                                      X         X                   X          X               
     X                                                                      X         X                   X          X               
     X                                                                      X         X                   X          X               
     X                                                                      X         X                   X          X               
     X                                                                      X         X                   X          X               
                                                                            X         X                   X          X               
                                                                            X         X                   X          X               
                                                                            X         X                   X          X               
                                                                            X         X                   X          X               
                                                                            X         X                   X          X               
                                                                            X         X                   X          X               
                                                                                      X                   X          X               
                                                                                                          X          X               
                                                                                                          X          X               
                                                                                                                     X               
                                                                                                                     X               
                                                                                                                     X               
 
 ***** Axes restored to original set *****
 -------------------------------------------------------------------
 Center     Atomic                   Forces (Hartrees/Bohr)
 Number     Number              X              Y              Z
 -------------------------------------------------------------------
      1        1           0.000071084    0.000143274    0.000003509
      2        8           0.000146512    0.000881319    0.000111386
      3        8          -0.000146434   -0.000995994   -0.000131600
      4        7          -0.000522990   -0.001308137   -0.000054759
      5        8           0.000451828    0.001279538    0.000071464
 -------------------------------------------------------------------
 Cartesian Forces:  Max     0.001308137 RMS     0.000616504
 -----------------------------------------------------------------------------------------------
                       Internal Coordinate Forces (Hartree/Bohr or radian)
  Cent   Atom   N1       Length/X         N2         Alpha/Y        N3         Beta/Z          J
 -----------------------------------------------------------------------------------------------
      1  H 
      2  O        1  -0.000004(     1)
      3  O        2  -0.000231(     2)      1  -0.000130(     5)
      4  N        3   0.000011(     3)      2  -0.000104(     6)      1  -0.000260(     8)     0
      5  O        4   0.000374(     4)      3  -0.000033(     7)      2   0.002731(     9)     0
 -----------------------------------------------------------------------------------------------
 Internal  Forces:  Max     0.002731357 RMS     0.000927950
 Force constants in Cartesian coordinates: 
                1             2             3             4             5 
      1  0.646404D-01
      2  0.216194D-03 -0.236676D-02
      3  0.530197D-02 -0.492079D-04  0.512360D+00
      4 -0.357906D-01 -0.457333D-03 -0.163021D-01  0.272828D+00
      5 -0.217051D-03  0.305826D-02  0.665324D-04 -0.137887D-03  0.206898D-02
      6  0.482467D-01  0.165490D-03 -0.508534D+00  0.334996D-01  0.524473D-04
      7 -0.183691D-01  0.231105D-03  0.125399D-01 -0.220337D+00  0.641539D-03
      8 -0.413756D-03  0.100191D-02 -0.664229D-05  0.432199D-03 -0.654505D-02
      9 -0.531641D-01 -0.113248D-03 -0.480775D-03 -0.194410D-01 -0.127201D-02
     10 -0.924750D-02 -0.333658D-04 -0.486897D-02 -0.170467D-01 -0.628266D-03
     11  0.312331D-03 -0.271766D-02  0.182755D-03  0.549050D-03 -0.487559D-02
     12  0.536377D-02 -0.314609D-04 -0.474682D-02  0.115112D-01  0.115745D-02
     13 -0.123314D-02  0.433991D-04  0.332920D-02  0.346517D-03  0.341665D-03
     14  0.102282D-03  0.102425D-02 -0.193437D-03 -0.386029D-03  0.629340D-02
     15 -0.574834D-02  0.284269D-04  0.140196D-02 -0.926772D-02 -0.442052D-05
                6             7             8             9            10 
      6  0.594559D+00
      7 -0.212516D-01  0.341383D+00
      8 -0.179857D-02 -0.535653D-02  0.438966D-02
      9 -0.785116D-01  0.360137D-01  0.243885D-02  0.181172D+00
     10 -0.524372D-01 -0.779594D-01  0.490910D-02  0.174694D+00  0.825172D+00
     11  0.945708D-03  0.270338D-02  0.829896D-02 -0.838472D-02 -0.501454D-01
     12  0.171236D-01  0.629469D-01 -0.571910D-02 -0.817746D-01 -0.178774D-01
     13 -0.805755D-02 -0.247180D-01  0.428989D-03 -0.138103D+00 -0.720919D+00
     14  0.634926D-03  0.178051D-02 -0.714548D-02  0.733114D-02  0.458980D-01
     15 -0.246370D-01 -0.902489D-01  0.508547D-02 -0.204051D-01 -0.995108D-01
               11            12            13            14            15 
     11  0.116819D-01
     12 -0.386993D-03  0.186635D+00
     13  0.465807D-01 -0.619445D-01  0.746523D+00
     14 -0.123876D-01  0.498010D-02 -0.473947D-01  0.122154D-01
     15  0.764325D-02 -0.117237D+00  0.204776D+00 -0.127527D-01  0.160878D+00
 Force constants in internal coordinates: 
                1             2             3             4             5 
      1  0.512360D+00
      2 -0.103980D-01  0.281349D+00
      3  0.345984D-02  0.247490D-02  0.117309D+00
      4 -0.357841D-02  0.589796D-02  0.153068D+00  0.811972D+00
      5  0.977944D-02  0.653229D-01  0.227546D-02  0.480791D-02  0.216729D+00
      6  0.464378D-02  0.590682D-01  0.409403D-01  0.217871D-01  0.312959D-01
      7 -0.117289D-02  0.376664D-01  0.322577D-01  0.847021D-01  0.213142D-01
      8  0.527043D-04 -0.405975D-03  0.426496D-05  0.275926D-04  0.682856D-03
      9 -0.420931D-04  0.468767D-03  0.301847D-02 -0.218300D-03 -0.198023D-03
                6             7             8             9 
      6  0.282364D+00
      7  0.957536D-01  0.482821D+00
      8  0.163268D-04 -0.157406D-03 -0.778549D-02
      9 -0.144516D-02  0.503021D-03 -0.388874D-02  0.408311D-01
 Leave Link  716 at Mon Feb 21 21:17:51 2022, MaxMem= 16106127360 cpu:               0.8 elap:               0.1
 (Enter /sw/contrib/gaussian/g16/B01/g16/l103.exe)

 GradGradGradGradGradGradGradGradGradGradGradGradGradGradGradGradGradGrad
 Berny optimization.
 Search for a local minimum.
 Step number   1 out of a maximum of    2
 All quantities printed in internal units (Hartrees-Bohrs-Radians)
 Second derivative matrix not updated -- analytic derivatives used.
 The second derivative matrix:
                          r1        r2        r3        r4        a1
           r1           0.51236
           r2          -0.01040   0.28135
           r3           0.00346   0.00247   0.11731
           r4          -0.00358   0.00590   0.15307   0.81197
           a1           0.00978   0.06532   0.00228   0.00481   0.21673
           a2           0.00464   0.05907   0.04094   0.02179   0.03130
           a3          -0.00117   0.03767   0.03226   0.08470   0.02131
           d1           0.00005  -0.00041   0.00000   0.00003   0.00068
           d2          -0.00004   0.00047   0.00302  -0.00022  -0.00020
                          a2        a3        d1        d2
           a2           0.28236
           a3           0.09575   0.48282
           d1           0.00002  -0.00016  -0.00779
           d2          -0.00145   0.00050  -0.00389   0.04083
 ITU=  0
     Eigenvalues ---   -0.00810   0.04086   0.07863   0.17532   0.22506
     Eigenvalues ---    0.32508   0.51299   0.51723   0.87089
 Eigenvalue     1 is  -8.10D-03 should be greater than     0.000000 Eigenvector:
                          d1        d2        a1        r3        r2
   1                    0.99683   0.07938  -0.00361  -0.00275   0.00195
                          a2        r4        a3        r1
   1                    0.00061   0.00047   0.00023   0.00003
 Angle between quadratic step and forces=   9.82 degrees.
 Linear search not attempted -- first point.
 Variable       Old X    -DE/DX   Delta X   Delta X   Delta X     New X
                                 (Linear)    (Quad)   (Total)
    r1        1.83110  -0.00000   0.00000   0.00001   0.00001   1.83111
    r2        2.74940  -0.00023   0.00000  -0.00099  -0.00099   2.74841
    r3        2.75670   0.00001   0.00000  -0.00319  -0.00319   2.75351
    r4        2.21236   0.00037   0.00000   0.00109   0.00109   2.21345
    a1        1.70335  -0.00013   0.00000  -0.00028  -0.00028   1.70307
    a2        1.78543  -0.00010   0.00000   0.00064   0.00064   1.78607
    a3        1.90362  -0.00003   0.00000  -0.00016  -0.00016   1.90347
    d1        3.14159  -0.00026   0.00000  -0.01048  -0.01048   3.13112
    d2        3.07500   0.00273   0.00000   0.06634   0.06634   3.14134
         Item               Value     Threshold  Converged?
 Maximum Force            0.002731     0.000450     NO 
 RMS     Force            0.000928     0.000300     NO 
 Maximum Displacement     0.066335     0.001800     NO 
 RMS     Displacement     0.022418     0.001200     NO 
 Predicted change in Energy=-9.245660D-05
                       ----------------------------
                       ! Non-Optimized Parameters !
                       ! (Angstroms and Degrees)  !
 ----------------------                            ----------------------
 !      Name          Value   Derivative information (Atomic Units)     !
 ------------------------------------------------------------------------
 !       r1          0.969    -DE/DX =    0.0                           !
 !       r2          1.4544   -DE/DX =   -0.0002                        !
 !       r3          1.4571   -DE/DX =    0.0                           !
 !       r4          1.1713   -DE/DX =    0.0004                        !
 !       a1         97.579    -DE/DX =   -0.0001                        !
 !       a2        102.3343   -DE/DX =   -0.0001                        !
 !       a3        109.0606   -DE/DX =    0.0                           !
 !       d1        179.3998   -DE/DX =   -0.0003                        !
 !       d2        179.9853   -DE/DX =    0.0027                        !
 ------------------------------------------------------------------------
 GradGradGradGradGradGradGradGradGradGradGradGradGradGradGradGradGradGrad

 Leave Link  103 at Mon Feb 21 21:17:51 2022, MaxMem= 16106127360 cpu:               0.5 elap:               0.0
 (Enter /sw/contrib/gaussian/g16/B01/g16/l9999.exe)

 ----------------------------------------------------------------------

 Electric dipole moment (input orientation):
 (Debye = 10**-18 statcoulomb cm , SI units = C m)
                  (au)            (Debye)         (10**-30 SI)
   Tot        0.570979D+00      0.145129D+01      0.484097D+01
   x         -0.146030D+00     -0.371172D+00     -0.123810D+01
   y          0.284567D-02      0.723298D-02      0.241266D-01
   z         -0.551982D+00     -0.140300D+01     -0.467990D+01

 Dipole polarizability, Alpha (input orientation).
 (esu units = cm**3 , SI units = C**2 m**2 J**-1)
 Alpha(0;0):
               (au)            (10**-24 esu)      (10**-40 SI)
   iso        0.273903D+02      0.405882D+01      0.451605D+01
   aniso      0.219137D+02      0.324727D+01      0.361308D+01
   xx         0.320869D+02      0.475478D+01      0.529041D+01
   yx        -0.421140D+00     -0.624064D-01     -0.694365D-01
   yy         0.179507D+02      0.266003D+01      0.295968D+01
   zx         0.964283D+01      0.142892D+01      0.158989D+01
   zy        -0.280287D+00     -0.415342D-01     -0.462131D-01
   zz         0.321333D+02      0.476166D+01      0.529806D+01

 ----------------------------------------------------------------------

 Dipole orientation:
     1         -0.00000000          0.00000000          0.00000000
     8         -0.46831026         -0.00912591         -1.77017617
     8          2.07339365         -0.01270322         -2.81847167
     7          1.58921718         -0.02654243         -5.53228623
     8          3.51605758          0.10846878         -6.61098037

 Electric dipole moment (dipole orientation):
 (Debye = 10**-18 statcoulomb cm , SI units = C m)
                  (au)            (Debye)         (10**-30 SI)
   Tot        0.570979D+00      0.145129D+01      0.484097D+01
   x          0.000000D+00      0.000000D+00      0.000000D+00
   y          0.000000D+00      0.000000D+00      0.000000D+00
   z          0.570979D+00      0.145129D+01      0.484097D+01

 Dipole polarizability, Alpha (dipole orientation).
 (esu units = cm**3 , SI units = C**2 m**2 J**-1)
 Alpha(0;0):
               (au)            (10**-24 esu)      (10**-40 SI)
   iso        0.273903D+02      0.405882D+01      0.451605D+01
   aniso      0.219137D+02      0.324727D+01      0.361308D+01
   xx         0.273211D+02      0.404857D+01      0.450465D+01
   yx         0.299804D+00      0.444264D-01      0.494311D-01
   yy         0.179478D+02      0.265959D+01      0.295920D+01
   zx        -0.837124D+01     -0.124049D+01     -0.138023D+01
   zy        -0.289649D+00     -0.429215D-01     -0.477566D-01
   zz         0.369019D+02      0.546830D+01      0.608431D+01

 ----------------------------------------------------------------------
 1\1\GINC-N2110\Freq\RMP2-FC\Aug-CC-pVTZ\H1N1O3\CGAVINH\21-Feb-2022\1\\
 #p freq mp2/aug-cc-pvtz density=current\\title\\0,1\H\O,1,r1\O,2,r2,1,
 a1\N,3,r3,2,a2,1,d1,0\O,4,r4,3,a3,2,d2,0\\r1=0.96897556\r2=1.45491931\
 r3=1.45878406\r4=1.17072885\a1=97.59494903\a2=102.29752444\a3=109.0695
 5123\d1=180.\d2=176.18458138\\Version=ES64L-G16RevB.01\State=1-A\HF=-2
 79.5016277\MP2=-280.4466437\RMSD=8.751e-09\RMSF=6.165e-04\ZeroPoint=0.
 0218725\Thermal=0.0259919\Dipole=-0.1460301,0.0028457,-0.5519825\Dipol
 eDeriv=0.26637,0.0005696,0.0482317,-0.0013295,0.355564,-0.0016772,0.08
 21266,-0.0006731,0.2756364,-0.3277604,0.0031876,-0.2067134,-0.0028054,
 -0.3140299,-0.0031596,-0.1109639,0.0036345,-0.2226943,-0.046618,0.0056
 886,0.1472686,0.0073564,-0.0874453,-0.0007184,-0.751263,0.028706,-1.35
 32026,0.8918832,-0.0441324,0.9081287,-0.0479612,0.0683753,-0.046048,0.
 9214195,-0.0344368,1.6688467,-0.7838748,0.0346866,-0.8969157,0.0447397
 ,-0.022464,0.0516032,-0.1413192,0.0027694,-0.3685862\Polar=32.0868721,
 -0.4211395,17.9507461,9.6428343,-0.2802869,32.1332786\Quadrupole=-1.50
 78635,-0.7332461,2.2411096,0.08478,2.0944436,-0.0287118\PG=C01 [X(H1N1
 O3)]\NImag=1\\0.06464038,0.00021619,-0.00236676,0.00530197,-0.00004921
 ,0.51235985,-0.03579061,-0.00045733,-0.01630212,0.27282772,-0.00021705
 ,0.00305826,0.00006653,-0.00013789,0.00206898,0.04824673,0.00016549,-0
 .50853422,0.03349961,0.00005245,0.59455917,-0.01836912,0.00023110,0.01
 253993,-0.22033692,0.00064154,-0.02125161,0.34138340,-0.00041376,0.001
 00191,-0.00000664,0.00043220,-0.00654505,-0.00179857,-0.00535653,0.004
 38966,-0.05316413,-0.00011325,-0.00048077,-0.01944097,-0.00127201,-0.0
 7851158,0.03601368,0.00243885,0.18117209,-0.00924750,-0.00003337,-0.00
 486897,-0.01704670,-0.00062827,-0.05243719,-0.07795941,0.00490910,0.17
 469440,0.82517229,0.00031233,-0.00271766,0.00018275,0.00054905,-0.0048
 7559,0.00094571,0.00270338,0.00829896,-0.00838472,-0.05014545,0.011681
 86,0.00536377,-0.00003146,-0.00474682,0.01151120,0.00115745,0.01712362
 ,0.06294690,-0.00571910,-0.08177460,-0.01787742,-0.00038699,0.18663516
 ,-0.00123314,0.00004340,0.00332920,0.00034652,0.00034166,-0.00805755,-
 0.02471795,0.00042899,-0.13810298,-0.72091868,0.04658069,-0.06194446,0
 .74652325,0.00010228,0.00102425,-0.00019344,-0.00038603,0.00629340,0.0
 0063493,0.00178051,-0.00714548,0.00733114,0.04589798,-0.01238758,0.004
 98010,-0.04739474,0.01221541,-0.00574834,0.00002843,0.00140196,-0.0092
 6772,-0.00000442,-0.02463699,-0.09024890,0.00508547,-0.02040514,-0.099
 51083,0.00764325,-0.11723736,0.20477579,-0.01275273,0.16087753\\-0.000
 07108,-0.00014327,-0.00000351,-0.00014651,-0.00088132,-0.00011139,0.00
 014643,0.00099599,0.00013160,0.00052299,0.00130814,0.00005476,-0.00045
 183,-0.00127954,-0.00007146\\\@


 UNLESS WE CHANGE DIRECTIONS, WE WILL WIND UP WHERE WE ARE HEADED.
     -- CONFUCIUS
 Job cpu time:       0 days  2 hours  5 minutes 19.1 seconds.
 Elapsed time:       0 days  0 hours  4 minutes 35.3 seconds.
 File lengths (MBytes):  RWF=   7239 Int=      0 D2E=      0 Chk=      8 Scr=      1
 Normal termination of Gaussian 16 at Mon Feb 21 21:17:52 2022.
