 Entering Gaussian System, Link 0=g16
 Input=hoono_r1_0p954004.gjf
 Output=hoono_r1_0p954004.log
 Initial command:
 /sw/contrib/gaussian/g16/B01/g16/l1.exe "/scr/Gau-26179.inp" -scrdir="/scr/"
 Entering Link 1 = /sw/contrib/gaussian/g16/B01/g16/l1.exe PID=     26180.
  
 Copyright (c) 1988-2017, Gaussian, Inc.  All Rights Reserved.
  
 This is part of the Gaussian(R) 16 program.  It is based on
 the Gaussian(R) 09 system (copyright 2009, Gaussian, Inc.),
 the Gaussian(R) 03 system (copyright 2003, Gaussian, Inc.),
 the Gaussian(R) 98 system (copyright 1998, Gaussian, Inc.),
 the Gaussian(R) 94 system (copyright 1995, Gaussian, Inc.),
 the Gaussian 92(TM) system (copyright 1992, Gaussian, Inc.),
 the Gaussian 90(TM) system (copyright 1990, Gaussian, Inc.),
 the Gaussian 88(TM) system (copyright 1988, Gaussian, Inc.),
 the Gaussian 86(TM) system (copyright 1986, Carnegie Mellon
 University), and the Gaussian 82(TM) system (copyright 1983,
 Carnegie Mellon University). Gaussian is a federally registered
 trademark of Gaussian, Inc.
  
 This software contains proprietary and confidential information,
 including trade secrets, belonging to Gaussian, Inc.
  
 This software is provided under written license and may be
 used, copied, transmitted, or stored only in accord with that
 written license.
  
 The following legend is applicable only to US Government
 contracts under FAR:
  
                    RESTRICTED RIGHTS LEGEND
  
 Use, reproduction and disclosure by the US Government is
 subject to restrictions as set forth in subparagraphs (a)
 and (c) of the Commercial Computer Software - Restricted
 Rights clause in FAR 52.227-19.
  
 Gaussian, Inc.
 340 Quinnipiac St., Bldg. 40, Wallingford CT 06492
  
  
 ---------------------------------------------------------------
 Warning -- This program may not be used in any manner that
 competes with the business of Gaussian, Inc. or will provide
 assistance to any competitor of Gaussian, Inc.  The licensee
 of this program is prohibited from giving any competitor of
 Gaussian, Inc. access to this program.  By using this program,
 the user acknowledges that Gaussian, Inc. is engaged in the
 business of creating and licensing software in the field of
 computational chemistry and represents and warrants to the
 licensee that it is not a competitor of Gaussian, Inc. and that
 it will not use this program in any manner prohibited above.
 ---------------------------------------------------------------
  

 Cite this work as:
 Gaussian 16, Revision B.01,
 M. J. Frisch, G. W. Trucks, H. B. Schlegel, G. E. Scuseria, 
 M. A. Robb, J. R. Cheeseman, G. Scalmani, V. Barone, 
 G. A. Petersson, H. Nakatsuji, X. Li, M. Caricato, A. V. Marenich, 
 J. Bloino, B. G. Janesko, R. Gomperts, B. Mennucci, H. P. Hratchian, 
 J. V. Ortiz, A. F. Izmaylov, J. L. Sonnenberg, D. Williams-Young, 
 F. Ding, F. Lipparini, F. Egidi, J. Goings, B. Peng, A. Petrone, 
 T. Henderson, D. Ranasinghe, V. G. Zakrzewski, J. Gao, N. Rega, 
 G. Zheng, W. Liang, M. Hada, M. Ehara, K. Toyota, R. Fukuda, 
 J. Hasegawa, M. Ishida, T. Nakajima, Y. Honda, O. Kitao, H. Nakai, 
 T. Vreven, K. Throssell, J. A. Montgomery, Jr., J. E. Peralta, 
 F. Ogliaro, M. J. Bearpark, J. J. Heyd, E. N. Brothers, K. N. Kudin, 
 V. N. Staroverov, T. A. Keith, R. Kobayashi, J. Normand, 
 K. Raghavachari, A. P. Rendell, J. C. Burant, S. S. Iyengar, 
 J. Tomasi, M. Cossi, J. M. Millam, M. Klene, C. Adamo, R. Cammi, 
 J. W. Ochterski, R. L. Martin, K. Morokuma, O. Farkas, 
 J. B. Foresman, and D. J. Fox, Gaussian, Inc., Wallingford CT, 2016.
 
 ******************************************
 Gaussian 16:  ES64L-G16RevB.01 20-Dec-2017
                21-Feb-2022 
 ******************************************
 %nproc=28
 Will use up to   28 processors via shared memory.
 %mem=120GB
 %chk=hoono_r1_0p954004.chk
 ---------------------------------------
 #p freq mp2/aug-cc-pvtz density=current
 ---------------------------------------
 1/10=4,30=1,38=1/1,3;
 2/12=2,17=6,18=5,40=1/2;
 3/5=16,6=1,7=10,11=9,25=1,30=1,71=2,140=1/1,2,3;
 4//1;
 5/5=2,38=5,98=1/2;
 8/6=3,8=1,10=1,19=11,30=-1/1;
 9/15=3,16=-3/6;
 11/6=1,8=1,15=11,17=12,24=-1,27=1,28=-2,29=300,32=6,42=3/1,2,10;
 10/6=2,21=1/2;
 8/6=4,8=1,10=1,19=11,30=-1/11,4;
 10/5=1,20=4/2;
 11/12=2,14=11,16=1,17=2,28=-2,42=3,76=2/2,10,12;
 6/7=2,8=2,9=2,10=2,22=-1/1;
 7/8=1,10=1,12=2,25=1,44=2/1,2,3,16;
 1/10=4,30=1/3;
 99//99;
 Leave Link    1 at Mon Feb 21 20:03:04 2022, MaxMem= 16106127360 cpu:               2.3 elap:               0.1
 (Enter /sw/contrib/gaussian/g16/B01/g16/l101.exe)
 -----
 title
 -----
 Symbolic Z-matrix:
 Charge =  0 Multiplicity = 1
 H
 O                    1    r1
 O                    2    r2       1    a1
 N                    3    r3       2    a2       1    d1       0
 O                    4    r4       3    a3       2    d2       0
       Variables:
  r1                    0.954                    
  r2                    1.45492                  
  r3                    1.45878                  
  r4                    1.17073                  
  a1                   97.59495                  
  a2                  102.29752                  
  a3                  109.06955                  
  d1                  180.                       
  d2                  180.                       
 
 ITRead=  0  0  0  0  0
 MicOpt= -1 -1 -1 -1 -1
 NAtoms=      5 NQM=        5 NQMF=       0 NMMI=      0 NMMIF=      0
                NMic=       0 NMicF=      0.
                    Isotopes and Nuclear Properties:
 (Nuclear quadrupole moments (NQMom) in fm**2, nuclear magnetic moments (NMagM)
  in nuclear magnetons)

  Atom         1           2           3           4           5
 IAtWgt=           1          16          16          14          16
 AtmWgt=   1.0078250  15.9949146  15.9949146  14.0030740  15.9949146
 NucSpn=           1           0           0           2           0
 AtZEff=  -0.0000000  -0.0000000  -0.0000000  -0.0000000  -0.0000000
 NQMom=    0.0000000   0.0000000   0.0000000   2.0440000   0.0000000
 NMagM=    2.7928460   0.0000000   0.0000000   0.4037610   0.0000000
 AtZNuc=   1.0000000   8.0000000   8.0000000   7.0000000   8.0000000
 Leave Link  101 at Mon Feb 21 20:03:04 2022, MaxMem= 16106127360 cpu:               2.4 elap:               0.1
 (Enter /sw/contrib/gaussian/g16/B01/g16/l103.exe)

 GradGradGradGradGradGradGradGradGradGradGradGradGradGradGradGradGradGrad
 Berny optimization.
 Initialization pass.
                       ----------------------------
                       !    Initial Parameters    !
                       ! (Angstroms and Degrees)  !
 ----------------------                            ----------------------
 !      Name          Value   Derivative information (Atomic Units)     !
 ------------------------------------------------------------------------
 !       r1          0.954    calculate D2E/DX2 analytically            !
 !       r2          1.4549   calculate D2E/DX2 analytically            !
 !       r3          1.4588   calculate D2E/DX2 analytically            !
 !       r4          1.1707   calculate D2E/DX2 analytically            !
 !       a1         97.5949   calculate D2E/DX2 analytically            !
 !       a2        102.2975   calculate D2E/DX2 analytically            !
 !       a3        109.0696   calculate D2E/DX2 analytically            !
 !       d1        180.0      calculate D2E/DX2 analytically            !
 !       d2        180.0      calculate D2E/DX2 analytically            !
 ------------------------------------------------------------------------
 Trust Radius=3.00D-01 FncErr=1.00D-07 GrdErr=1.00D-07 EigMax=2.50D+02 EigMin=1.00D-04
 Number of steps in this run=      2 maximum allowed number of steps=      2.
 GradGradGradGradGradGradGradGradGradGradGradGradGradGradGradGradGradGrad

 Leave Link  103 at Mon Feb 21 20:03:04 2022, MaxMem= 16106127360 cpu:               0.5 elap:               0.0
 (Enter /sw/contrib/gaussian/g16/B01/g16/l202.exe)
                          Input orientation:                          
 ---------------------------------------------------------------------
 Center     Atomic      Atomic             Coordinates (Angstroms)
 Number     Number       Type             X           Y           Z
 ---------------------------------------------------------------------
      1          1           0        0.000000    0.000000    0.000000
      2          8           0        0.000000    0.000000    0.954005
      3          8           0        1.442156    0.000000    1.146300
      4          7           0        1.561752    0.000000    2.600173
      5          8           0        2.695867    0.000000    2.890668
 ---------------------------------------------------------------------
                    Distance matrix (angstroms):
                    1          2          3          4          5
     1  H    0.000000
     2  O    0.954005   0.000000
     3  O    1.842231   1.454919   0.000000
     4  N    3.033145   2.269127   1.458784   0.000000
     5  O    3.952678   3.319392   2.148165   1.170729   0.000000
 Stoichiometry    HNO3
 Framework group  CS[SG(HNO3)]
 Deg. of freedom     7
 Full point group                 CS      NOp   2
 Largest Abelian subgroup         CS      NOp   2
 Largest concise Abelian subgroup C1      NOp   1
                         Standard orientation:                         
 ---------------------------------------------------------------------
 Center     Atomic      Atomic             Coordinates (Angstroms)
 Number     Number       Type             X           Y           Z
 ---------------------------------------------------------------------
      1          1           0        1.547575    1.672888    0.000000
      2          8           0        1.454060    0.723478    0.000000
      3          8           0       -0.000000    0.673475    0.000000
      4          7           0       -0.261535   -0.761674   -0.000000
      5          8           0       -1.418664   -0.939599   -0.000000
 ---------------------------------------------------------------------
 Rotational constants (GHZ):          55.0173343           5.0133905           4.5947035
 Leave Link  202 at Mon Feb 21 20:03:04 2022, MaxMem= 16106127360 cpu:               0.3 elap:               0.0
 (Enter /sw/contrib/gaussian/g16/B01/g16/l301.exe)
 Standard basis: Aug-CC-pVTZ (5D, 7F)
 Ernie: Thresh=  0.10000D-02 Tol=  0.10000D-05 Strict=F.
 Ernie:  12 primitive shells out of 131 were deleted.
 There are   166 symmetry adapted cartesian basis functions of A'  symmetry.
 There are    79 symmetry adapted cartesian basis functions of A"  symmetry.
 There are   136 symmetry adapted basis functions of A'  symmetry.
 There are    71 symmetry adapted basis functions of A"  symmetry.
   207 basis functions,   315 primitive gaussians,   245 cartesian basis functions
    16 alpha electrons       16 beta electrons
       nuclear repulsion energy       116.9602898203 Hartrees.
 IExCor=    0 DFT=F Ex=HF Corr=None ExCW=0 ScaHFX=  1.000000
 ScaDFX=  1.000000  1.000000  1.000000  1.000000 ScalE2=  1.000000  1.000000
 IRadAn=      5 IRanWt=     -1 IRanGd=            0 ICorTp=0 IEmpDi=  4
 NAtoms=    5 NActive=    5 NUniq=    5 SFac= 1.00D+00 NAtFMM=   60 NAOKFM=F Big=F
 Integral buffers will be    131072 words long.
 Raffenetti 1 integral format.
 Two-electron integral symmetry is turned on.
 Leave Link  301 at Mon Feb 21 20:03:05 2022, MaxMem= 16106127360 cpu:               2.0 elap:               0.1
 (Enter /sw/contrib/gaussian/g16/B01/g16/l302.exe)
 NPDir=0 NMtPBC=     1 NCelOv=     1 NCel=       1 NClECP=     1 NCelD=      1
         NCelK=      1 NCelE2=     1 NClLst=     1 CellRange=     0.0.
 One-electron integrals computed using PRISM.
 One-electron integral symmetry used in STVInt
 NBasis=   207 RedAO= T EigKep=  1.80D-04  NBF=   136    71
 NBsUse=   207 1.00D-06 EigRej= -1.00D+00 NBFU=   136    71
 Leave Link  302 at Mon Feb 21 20:03:05 2022, MaxMem= 16106127360 cpu:               4.6 elap:               0.2
 (Enter /sw/contrib/gaussian/g16/B01/g16/l303.exe)
 DipDrv:  MaxL=1.
 Leave Link  303 at Mon Feb 21 20:03:05 2022, MaxMem= 16106127360 cpu:               1.4 elap:               0.1
 (Enter /sw/contrib/gaussian/g16/B01/g16/l401.exe)
 ExpMin= 2.53D-02 ExpMax= 1.53D+04 ExpMxC= 5.22D+02 IAcc=3 IRadAn=         5 AccDes= 0.00D+00
 Harris functional with IExCor=  205 and IRadAn=       5 diagonalized for initial guess.
 HarFok:  IExCor=  205 AccDes= 0.00D+00 IRadAn=         5 IDoV= 1 UseB2=F ITyADJ=14
 ICtDFT=  3500011 ScaDFX=  1.000000  1.000000  1.000000  1.000000
 FoFCou: FMM=F IPFlag=           0 FMFlag=      100000 FMFlg1=           0
         NFxFlg=           0 DoJE=T BraDBF=F KetDBF=T FulRan=T
         wScrn=  0.000000 ICntrl=       500 IOpCl=  0 I1Cent=   200000004 NGrid=           0
         NMat0=    1 NMatS0=      1 NMatT0=    0 NMatD0=    1 NMtDS0=    0 NMtDT0=    0
 Petite list used in FoFCou.
 Harris En= -279.628703032741    
 JPrj=0 DoOrth=F DoCkMO=F.
 Initial guess orbital symmetries:
       Occupied  (A') (A') (A') (A') (A') (A') (A') (A') (A') (A')
                 (A") (A') (A') (A") (A") (A')
       Virtual   (A") (A') (A') (A') (A') (A') (A") (A') (A') (A')
                 (A") (A') (A") (A') (A') (A") (A') (A") (A') (A')
                 (A') (A') (A') (A') (A') (A") (A') (A") (A') (A')
                 (A") (A') (A") (A') (A') (A") (A') (A") (A') (A')
                 (A") (A') (A") (A') (A") (A') (A') (A') (A") (A")
                 (A') (A') (A') (A') (A") (A') (A") (A') (A") (A')
                 (A') (A') (A") (A') (A') (A") (A') (A") (A') (A')
                 (A") (A') (A') (A") (A") (A') (A') (A") (A') (A')
                 (A') (A") (A') (A") (A') (A") (A') (A") (A') (A')
                 (A') (A") (A') (A") (A') (A") (A") (A') (A') (A")
                 (A') (A') (A") (A') (A') (A') (A') (A") (A") (A')
                 (A") (A') (A') (A') (A") (A') (A') (A') (A") (A')
                 (A") (A') (A') (A") (A") (A') (A") (A') (A") (A')
                 (A') (A') (A') (A") (A") (A') (A") (A') (A') (A')
                 (A') (A") (A") (A') (A') (A") (A') (A') (A') (A')
                 (A") (A') (A') (A") (A') (A") (A') (A") (A') (A")
                 (A') (A") (A') (A") (A') (A") (A") (A") (A') (A')
                 (A") (A') (A") (A') (A") (A') (A") (A") (A') (A')
                 (A') (A') (A') (A') (A') (A') (A') (A') (A') (A')
                 (A')
 The electronic state of the initial guess is 1-A'.
 Leave Link  401 at Mon Feb 21 20:03:05 2022, MaxMem= 16106127360 cpu:               7.1 elap:               0.3
 (Enter /sw/contrib/gaussian/g16/B01/g16/l502.exe)
 Keep R1 ints in memory in symmetry-blocked form, NReq=348887737.
 FoFCou: FMM=F IPFlag=           0 FMFlag=           0 FMFlg1=           0
         NFxFlg=           0 DoJE=F BraDBF=F KetDBF=F FulRan=T
         wScrn=  0.000000 ICntrl=       600 IOpCl=  0 I1Cent=           0 NGrid=           0
         NMat0=    1 NMatS0=  21528 NMatT0=    0 NMatD0=    1 NMtDS0=    0 NMtDT0=    0
 Petite list used in FoFCou.
 Closed shell SCF:
 Using DIIS extrapolation, IDIIS=  1040.
 NGot= 16106127360 LenX= 15988850015 LenY= 15988789549
 Requested convergence on RMS density matrix=1.00D-08 within 128 cycles.
 Requested convergence on MAX density matrix=1.00D-06.
 Requested convergence on             energy=1.00D-06.
 No special actions if energy rises.

 Cycle   1  Pass 1  IDiag  1:
 E= -279.369975937888    
 DIIS: error= 2.53D-02 at cycle   1 NSaved=   1.
 NSaved= 1 IEnMin= 1 EnMin= -279.369975937888     IErMin= 1 ErrMin= 2.53D-02
 ErrMax= 2.53D-02  0.00D+00 EMaxC= 1.00D-01 BMatC= 4.40D-01 BMatP= 4.40D-01
 IDIUse=3 WtCom= 7.47D-01 WtEn= 2.53D-01
 Coeff-Com:  0.100D+01
 Coeff-En:   0.100D+01
 Coeff:      0.100D+01
 Gap=     0.514 Goal=   None    Shift=    0.000
 GapD=    0.514 DampG=2.000 DampE=0.500 DampFc=1.0000 IDamp=-1.
 RMSDP=1.63D-03 MaxDP=9.91D-02              OVMax= 1.14D-01

 Cycle   2  Pass 1  IDiag  1:
 E= -279.452167431106     Delta-E=       -0.082191493218 Rises=F Damp=F
 DIIS: error= 1.82D-02 at cycle   2 NSaved=   2.
 NSaved= 2 IEnMin= 2 EnMin= -279.452167431106     IErMin= 2 ErrMin= 1.82D-02
 ErrMax= 1.82D-02  0.00D+00 EMaxC= 1.00D-01 BMatC= 7.31D-02 BMatP= 4.40D-01
 IDIUse=3 WtCom= 8.18D-01 WtEn= 1.82D-01
 Coeff-Com:  0.197D+00 0.803D+00
 Coeff-En:   0.000D+00 0.100D+01
 Coeff:      0.161D+00 0.839D+00
 Gap=     0.530 Goal=   None    Shift=    0.000
 RMSDP=9.07D-04 MaxDP=3.73D-02 DE=-8.22D-02 OVMax= 6.92D-02

 Cycle   3  Pass 1  IDiag  1:
 E= -279.481874228863     Delta-E=       -0.029706797757 Rises=F Damp=F
 DIIS: error= 1.05D-02 at cycle   3 NSaved=   3.
 NSaved= 3 IEnMin= 3 EnMin= -279.481874228863     IErMin= 3 ErrMin= 1.05D-02
 ErrMax= 1.05D-02  0.00D+00 EMaxC= 1.00D-01 BMatC= 2.90D-02 BMatP= 7.31D-02
 IDIUse=3 WtCom= 8.95D-01 WtEn= 1.05D-01
 Coeff-Com: -0.328D-01 0.377D+00 0.656D+00
 Coeff-En:   0.000D+00 0.239D+00 0.761D+00
 Coeff:     -0.294D-01 0.363D+00 0.667D+00
 Gap=     0.511 Goal=   None    Shift=    0.000
 RMSDP=3.79D-04 MaxDP=1.54D-02 DE=-2.97D-02 OVMax= 3.84D-02

 Cycle   4  Pass 1  IDiag  1:
 E= -279.501107430118     Delta-E=       -0.019233201255 Rises=F Damp=F
 DIIS: error= 1.33D-03 at cycle   4 NSaved=   4.
 NSaved= 4 IEnMin= 4 EnMin= -279.501107430118     IErMin= 4 ErrMin= 1.33D-03
 ErrMax= 1.33D-03  0.00D+00 EMaxC= 1.00D-01 BMatC= 5.06D-04 BMatP= 2.90D-02
 IDIUse=3 WtCom= 9.87D-01 WtEn= 1.33D-02
 Coeff-Com: -0.119D-01 0.587D-01 0.162D+00 0.791D+00
 Coeff-En:   0.000D+00 0.000D+00 0.000D+00 0.100D+01
 Coeff:     -0.117D-01 0.579D-01 0.160D+00 0.794D+00
 Gap=     0.503 Goal=   None    Shift=    0.000
 RMSDP=9.03D-05 MaxDP=2.78D-03 DE=-1.92D-02 OVMax= 1.12D-02

 Cycle   5  Pass 1  IDiag  1:
 E= -279.501789078755     Delta-E=       -0.000681648637 Rises=F Damp=F
 DIIS: error= 7.33D-04 at cycle   5 NSaved=   5.
 NSaved= 5 IEnMin= 5 EnMin= -279.501789078755     IErMin= 5 ErrMin= 7.33D-04
 ErrMax= 7.33D-04  0.00D+00 EMaxC= 1.00D-01 BMatC= 8.69D-05 BMatP= 5.06D-04
 IDIUse=3 WtCom= 9.93D-01 WtEn= 7.33D-03
 Coeff-Com:  0.613D-02-0.719D-01-0.118D+00 0.125D-01 0.117D+01
 Coeff-En:   0.000D+00 0.000D+00 0.000D+00 0.000D+00 0.100D+01
 Coeff:      0.609D-02-0.714D-01-0.117D+00 0.124D-01 0.117D+01
 Gap=     0.503 Goal=   None    Shift=    0.000
 RMSDP=7.67D-05 MaxDP=2.11D-03 DE=-6.82D-04 OVMax= 1.11D-02

 Cycle   6  Pass 1  IDiag  1:
 E= -279.502105781588     Delta-E=       -0.000316702833 Rises=F Damp=F
 DIIS: error= 2.88D-04 at cycle   6 NSaved=   6.
 NSaved= 6 IEnMin= 6 EnMin= -279.502105781588     IErMin= 6 ErrMin= 2.88D-04
 ErrMax= 2.88D-04  0.00D+00 EMaxC= 1.00D-01 BMatC= 1.66D-05 BMatP= 8.69D-05
 IDIUse=3 WtCom= 9.97D-01 WtEn= 2.88D-03
 Coeff-Com:  0.558D-03 0.202D-02 0.525D-02-0.127D+00-0.243D+00 0.136D+01
 Coeff-En:   0.000D+00 0.000D+00 0.000D+00 0.000D+00 0.000D+00 0.100D+01
 Coeff:      0.557D-03 0.202D-02 0.523D-02-0.126D+00-0.242D+00 0.136D+01
 Gap=     0.503 Goal=   None    Shift=    0.000
 RMSDP=4.54D-05 MaxDP=1.25D-03 DE=-3.17D-04 OVMax= 5.55D-03

 Cycle   7  Pass 1  IDiag  1:
 E= -279.502178525662     Delta-E=       -0.000072744074 Rises=F Damp=F
 DIIS: error= 1.20D-04 at cycle   7 NSaved=   7.
 NSaved= 7 IEnMin= 7 EnMin= -279.502178525662     IErMin= 7 ErrMin= 1.20D-04
 ErrMax= 1.20D-04  0.00D+00 EMaxC= 1.00D-01 BMatC= 4.41D-06 BMatP= 1.66D-05
 IDIUse=3 WtCom= 9.99D-01 WtEn= 1.20D-03
 Coeff-Com: -0.944D-03 0.135D-01 0.265D-01-0.214D-01-0.288D+00 0.384D+00
 Coeff-Com:  0.886D+00
 Coeff-En:   0.000D+00 0.000D+00 0.000D+00 0.000D+00 0.000D+00 0.000D+00
 Coeff-En:   0.100D+01
 Coeff:     -0.943D-03 0.135D-01 0.265D-01-0.214D-01-0.288D+00 0.384D+00
 Coeff:      0.886D+00
 Gap=     0.503 Goal=   None    Shift=    0.000
 RMSDP=1.32D-05 MaxDP=3.79D-04 DE=-7.27D-05 OVMax= 1.54D-03

 Cycle   8  Pass 1  IDiag  1:
 E= -279.502187279739     Delta-E=       -0.000008754077 Rises=F Damp=F
 DIIS: error= 5.83D-05 at cycle   8 NSaved=   8.
 NSaved= 8 IEnMin= 8 EnMin= -279.502187279739     IErMin= 8 ErrMin= 5.83D-05
 ErrMax= 5.83D-05  0.00D+00 EMaxC= 1.00D-01 BMatC= 6.00D-07 BMatP= 4.41D-06
 IDIUse=1 WtCom= 1.00D+00 WtEn= 0.00D+00
 Coeff-Com: -0.445D-03 0.340D-02 0.753D-02 0.269D-01-0.397D-01-0.198D+00
 Coeff-Com:  0.179D+00 0.102D+01
 Coeff:     -0.445D-03 0.340D-02 0.753D-02 0.269D-01-0.397D-01-0.198D+00
 Coeff:      0.179D+00 0.102D+01
 Gap=     0.503 Goal=   None    Shift=    0.000
 RMSDP=6.82D-06 MaxDP=2.01D-04 DE=-8.75D-06 OVMax= 7.39D-04

 Cycle   9  Pass 1  IDiag  1:
 E= -279.502189022806     Delta-E=       -0.000001743066 Rises=F Damp=F
 DIIS: error= 1.59D-05 at cycle   9 NSaved=   9.
 NSaved= 9 IEnMin= 9 EnMin= -279.502189022806     IErMin= 9 ErrMin= 1.59D-05
 ErrMax= 1.59D-05  0.00D+00 EMaxC= 1.00D-01 BMatC= 6.96D-08 BMatP= 6.00D-07
 IDIUse=1 WtCom= 1.00D+00 WtEn= 0.00D+00
 Coeff-Com:  0.124D-03-0.172D-02-0.310D-02-0.223D-02 0.345D-01 0.174D-03
 Coeff-Com: -0.170D+00-0.992D-01 0.124D+01
 Coeff:      0.124D-03-0.172D-02-0.310D-02-0.223D-02 0.345D-01 0.174D-03
 Coeff:     -0.170D+00-0.992D-01 0.124D+01
 Gap=     0.503 Goal=   None    Shift=    0.000
 RMSDP=1.94D-06 MaxDP=6.65D-05 DE=-1.74D-06 OVMax= 1.74D-04

 Cycle  10  Pass 1  IDiag  1:
 E= -279.502189182349     Delta-E=       -0.000000159544 Rises=F Damp=F
 DIIS: error= 4.11D-06 at cycle  10 NSaved=  10.
 NSaved=10 IEnMin=10 EnMin= -279.502189182349     IErMin=10 ErrMin= 4.11D-06
 ErrMax= 4.11D-06  0.00D+00 EMaxC= 1.00D-01 BMatC= 5.47D-09 BMatP= 6.96D-08
 IDIUse=1 WtCom= 1.00D+00 WtEn= 0.00D+00
 Coeff-Com:  0.299D-04-0.229D-03-0.302D-03-0.263D-02 0.132D-02 0.196D-01
 Coeff-Com: -0.128D-01-0.722D-01-0.861D-01 0.115D+01
 Coeff:      0.299D-04-0.229D-03-0.302D-03-0.263D-02 0.132D-02 0.196D-01
 Coeff:     -0.128D-01-0.722D-01-0.861D-01 0.115D+01
 Gap=     0.503 Goal=   None    Shift=    0.000
 RMSDP=5.03D-07 MaxDP=2.10D-05 DE=-1.60D-07 OVMax= 4.18D-05

 Cycle  11  Pass 1  IDiag  1:
 E= -279.502189194768     Delta-E=       -0.000000012419 Rises=F Damp=F
 DIIS: error= 2.03D-06 at cycle  11 NSaved=  11.
 NSaved=11 IEnMin=11 EnMin= -279.502189194768     IErMin=11 ErrMin= 2.03D-06
 ErrMax= 2.03D-06  0.00D+00 EMaxC= 1.00D-01 BMatC= 6.54D-10 BMatP= 5.47D-09
 IDIUse=1 WtCom= 1.00D+00 WtEn= 0.00D+00
 Coeff-Com: -0.212D-04 0.242D-03 0.485D-03 0.535D-03-0.426D-02-0.354D-02
 Coeff-Com:  0.214D-01 0.302D-01-0.138D+00-0.176D+00 0.127D+01
 Coeff:     -0.212D-04 0.242D-03 0.485D-03 0.535D-03-0.426D-02-0.354D-02
 Coeff:      0.214D-01 0.302D-01-0.138D+00-0.176D+00 0.127D+01
 Gap=     0.503 Goal=   None    Shift=    0.000
 RMSDP=1.77D-07 MaxDP=6.50D-06 DE=-1.24D-08 OVMax= 1.72D-05

 Cycle  12  Pass 1  IDiag  1:
 E= -279.502189196560     Delta-E=       -0.000000001792 Rises=F Damp=F
 DIIS: error= 5.85D-07 at cycle  12 NSaved=  12.
 NSaved=12 IEnMin=12 EnMin= -279.502189196560     IErMin=12 ErrMin= 5.85D-07
 ErrMax= 5.85D-07  0.00D+00 EMaxC= 1.00D-01 BMatC= 7.15D-11 BMatP= 6.54D-10
 IDIUse=1 WtCom= 1.00D+00 WtEn= 0.00D+00
 Coeff-Com:  0.128D-05-0.293D-04-0.640D-04 0.174D-03 0.111D-02-0.232D-02
 Coeff-Com: -0.416D-02 0.556D-02 0.420D-01-0.116D+00-0.277D+00 0.135D+01
 Coeff:      0.128D-05-0.293D-04-0.640D-04 0.174D-03 0.111D-02-0.232D-02
 Coeff:     -0.416D-02 0.556D-02 0.420D-01-0.116D+00-0.277D+00 0.135D+01
 Gap=     0.503 Goal=   None    Shift=    0.000
 RMSDP=7.19D-08 MaxDP=2.84D-06 DE=-1.79D-09 OVMax= 6.65D-06

 Cycle  13  Pass 1  IDiag  1:
 E= -279.502189196791     Delta-E=       -0.000000000230 Rises=F Damp=F
 DIIS: error= 1.69D-07 at cycle  13 NSaved=  13.
 NSaved=13 IEnMin=13 EnMin= -279.502189196791     IErMin=13 ErrMin= 1.69D-07
 ErrMax= 1.69D-07  0.00D+00 EMaxC= 1.00D-01 BMatC= 4.00D-12 BMatP= 7.15D-11
 IDIUse=1 WtCom= 1.00D+00 WtEn= 0.00D+00
 Coeff-Com:  0.127D-05-0.138D-04-0.223D-04-0.880D-04 0.116D-03 0.764D-03
 Coeff-Com: -0.870D-03-0.322D-02 0.520D-03 0.415D-01-0.369D-01-0.325D+00
 Coeff-Com:  0.132D+01
 Coeff:      0.127D-05-0.138D-04-0.223D-04-0.880D-04 0.116D-03 0.764D-03
 Coeff:     -0.870D-03-0.322D-02 0.520D-03 0.415D-01-0.369D-01-0.325D+00
 Coeff:      0.132D+01
 Gap=     0.503 Goal=   None    Shift=    0.000
 RMSDP=1.92D-08 MaxDP=5.58D-07 DE=-2.30D-10 OVMax= 1.57D-06

 Cycle  14  Pass 1  IDiag  1:
 E= -279.502189196802     Delta-E=       -0.000000000012 Rises=F Damp=F
 DIIS: error= 2.43D-08 at cycle  14 NSaved=  14.
 NSaved=14 IEnMin=14 EnMin= -279.502189196802     IErMin=14 ErrMin= 2.43D-08
 ErrMax= 2.43D-08  0.00D+00 EMaxC= 1.00D-01 BMatC= 1.95D-13 BMatP= 4.00D-12
 IDIUse=1 WtCom= 1.00D+00 WtEn= 0.00D+00
 Coeff-Com: -0.189D-06 0.309D-05 0.556D-05 0.472D-05-0.825D-04 0.459D-04
 Coeff-Com:  0.285D-03 0.217D-03-0.244D-02 0.150D-02 0.169D-01-0.254D-01
 Coeff-Com: -0.200D+00 0.121D+01
 Coeff:     -0.189D-06 0.309D-05 0.556D-05 0.472D-05-0.825D-04 0.459D-04
 Coeff:      0.285D-03 0.217D-03-0.244D-02 0.150D-02 0.169D-01-0.254D-01
 Coeff:     -0.200D+00 0.121D+01
 Gap=     0.503 Goal=   None    Shift=    0.000
 RMSDP=3.79D-09 MaxDP=9.15D-08 DE=-1.17D-11 OVMax= 3.40D-07

 SCF Done:  E(RHF) =  -279.502189197     A.U. after   14 cycles
            NFock= 14  Conv=0.38D-08     -V/T= 2.0023
 KE= 2.788741974263D+02 PE=-8.952519856623D+02 EE= 2.199153092189D+02
 Leave Link  502 at Mon Feb 21 20:03:09 2022, MaxMem= 16106127360 cpu:              55.1 elap:               3.6
 (Enter /sw/contrib/gaussian/g16/B01/g16/l801.exe)
 ExpMin= 2.53D-02 ExpMax= 1.53D+04 ExpMxC= 5.22D+02 IAcc=3 IRadAn=         5 AccDes= 0.00D+00
 HarFok:  IExCor=  205 AccDes= 0.00D+00 IRadAn=         5 IDoV=-2 UseB2=F ITyADJ=14
 ICtDFT= 12500011 ScaDFX=  1.000000  1.000000  1.000000  1.000000
 Largest valence mixing into a core orbital is  2.08D-04
 Largest core mixing into a valence orbital is  3.63D-05
 Range of M.O.s used for correlation:     5   207
 NBasis=   207 NAE=    16 NBE=    16 NFC=     4 NFV=     0
 NROrb=    203 NOA=    12 NOB=    12 NVA=   191 NVB=   191

 **** Warning!!: The largest alpha MO coefficient is  0.17951928D+02

 Leave Link  801 at Mon Feb 21 20:03:09 2022, MaxMem= 16106127360 cpu:               2.3 elap:               0.1
 (Enter /sw/contrib/gaussian/g16/B01/g16/l906.exe)
 Frozen-core derivative calculation, NFC=   4 NFV=   0.
 FulOut=F Deriv=T AODrv=T NAtomX=     5
   MMem=           0  MDisk=          12 MDiskD=          12
  W3Min=      811440 MinDsk=     2425030 NBas6D=         245
 NBas2D=       30762    NTT=       30135    LW2=     7400000
    MDV= 16105574283 MDiskM=      328644 NBas2p=       30702
 Disk-based method using ON**2 memory for 12 occupieds at a time.
 Permanent disk used for amplitudes=    11516536 words.
 Estimated scratch disk usage=   321251614 words.
 IMap=   1   2   3   4   5   6   7   8   9  10  11  12  13  14  15  16
 Actual    scratch disk usage=   310331678 words.
 JobTyp=1 Pass  1:  I=   5 to  16 NPSUse= 28 ParTrn=T ParDer=T DoDerP=T.
 (rs|ai) integrals will be sorted in core.
 Spin components of T(2) and E(2):
     alpha-alpha T2 =       0.3395284056D-01 E2=     -0.1223107282D+00
     alpha-beta  T2 =       0.1864169958D+00 E2=     -0.6997119479D+00
     beta-beta   T2 =       0.3395284056D-01 E2=     -0.1223107282D+00
 The integrals were generated   1 times.
 ANorm=    0.1119965480D+01
 E2 =    -0.9443334044D+00 EUMP2 =    -0.28044652260119D+03
 Leave Link  906 at Mon Feb 21 20:04:46 2022, MaxMem= 16106127360 cpu:            2712.2 elap:              97.0
 (Enter /sw/contrib/gaussian/g16/B01/g16/l1101.exe)
 Using compressed Sx but separate Hx and Fx, NAtomX=     5.
 Will process      6 centers per pass.
 Leave Link 1101 at Mon Feb 21 20:04:46 2022, MaxMem= 16106127360 cpu:               5.9 elap:               0.2
 (Enter /sw/contrib/gaussian/g16/B01/g16/l1102.exe)
 Leave Link 1102 at Mon Feb 21 20:04:46 2022, MaxMem= 16106127360 cpu:               1.0 elap:               0.1
 (Enter /sw/contrib/gaussian/g16/B01/g16/l1110.exe)
 Forming Gx(P) for the SCF density, NAtomX=     5.
 Integral derivatives from FoFJK, PRISM(SPDF).
 Do as many integral derivatives as possible in FoFJK.
 G2DrvN: MDV=   16106126844.
 G2DrvN: will do     6 centers at a time, making    1 passes.
 Calling FoFCou, ICntrl=  3107 FMM=F I1Cent=   0 AccDes= 0.00D+00.
 FoFJK:  IHMeth= 1 ICntrl=    3107 DoSepK=F KAlg= 0 I1Cent=           0 FoldK=F
 IRaf=         0 NMat=       1 IRICut=       1 DoRegI=T DoRafI=F ISym2E= 1 IDoP0=0 IntGTp=1.
 FoFCou: FMM=F IPFlag=           0 FMFlag=      100000 FMFlg1=           0
         NFxFlg=           0 DoJE=F BraDBF=F KetDBF=F FulRan=T
         wScrn=  0.000000 ICntrl=      3107 IOpCl=  0 I1Cent=           0 NGrid=           0
         NMat0=    1 NMatS0=      1 NMatT0=    0 NMatD0=    1 NMtDS0=    0 NMtDT0=    0
 Petite list used in FoFCou.
 End of G2Drv F.D. properties file   721 does not exist.
 End of G2Drv F.D. properties file   722 does not exist.
 End of G2Drv F.D. properties file   788 does not exist.
 Leave Link 1110 at Mon Feb 21 20:04:49 2022, MaxMem= 16106127360 cpu:              82.8 elap:               3.0
 (Enter /sw/contrib/gaussian/g16/B01/g16/l1002.exe)
 Minotr:  Closed shell wavefunction.
          IDoAtm=11111
          Frozen-core window.
          Direct CPHF calculation.
          Differentiating once with respect to electric field.
                with respect to dipole field.
          Differentiating once with respect to nuclear coordinates.
          Requested convergence is 1.0D-08 RMS, and 1.0D-07 maximum.
          Secondary convergence is 1.0D-12 RMS, and 1.0D-12 maximum.
          NewPWx=T KeepS1=T KeepF1=T KeepIn=T MapXYZ=F SortEE=F KeepMc=T.
 Keep R1 ints in memory in symmetry-blocked form, NReq=348888983.
 FoFCou: FMM=F IPFlag=           0 FMFlag=           0 FMFlg1=           0
         NFxFlg=           0 DoJE=F BraDBF=F KetDBF=F FulRan=T
         wScrn=  0.000000 ICntrl=       600 IOpCl=  0 I1Cent=           0 NGrid=           0
         NMat0=    1 NMatS0=  21528 NMatT0=    0 NMatD0=    1 NMtDS0=    0 NMtDT0=    0
 Petite list used in FoFCou.
          MDV=   16106127360 using IRadAn=       1.
          Solving linear equations simultaneously, MaxMat=       0.
          There are    18 degrees of freedom in the 1st order CPHF.  IDoFFX=6 NUNeed=    18.
     15 vectors produced by pass  0 Test12= 1.70D-14 5.56D-09 XBig12= 8.27D+00 1.06D+00.
 AX will form    15 AO Fock derivatives at one time.
     15 vectors produced by pass  1 Test12= 1.70D-14 5.56D-09 XBig12= 1.34D+00 2.64D-01.
     15 vectors produced by pass  2 Test12= 1.70D-14 5.56D-09 XBig12= 1.42D-01 9.82D-02.
     15 vectors produced by pass  3 Test12= 1.70D-14 5.56D-09 XBig12= 5.03D-03 1.13D-02.
     15 vectors produced by pass  4 Test12= 1.70D-14 5.56D-09 XBig12= 1.02D-04 1.97D-03.
     15 vectors produced by pass  5 Test12= 1.70D-14 5.56D-09 XBig12= 1.43D-06 1.82D-04.
     15 vectors produced by pass  6 Test12= 1.70D-14 5.56D-09 XBig12= 1.13D-08 1.39D-05.
     13 vectors produced by pass  7 Test12= 1.70D-14 5.56D-09 XBig12= 8.34D-11 1.31D-06.
      3 vectors produced by pass  8 Test12= 1.70D-14 5.56D-09 XBig12= 5.75D-13 1.24D-07.
      2 vectors produced by pass  9 Test12= 1.70D-14 5.56D-09 XBig12= 3.72D-15 9.85D-09.
 InvSVY:  IOpt=1 It=  1 EMax= 1.22D-15
 Solved reduced A of dimension   123 with    15 vectors.
 FullF1:  Do perturbations      1 to      18.
 Saving first derivative matrices.
 End of Minotr F.D. properties file   721 does not exist.
 End of Minotr F.D. properties file   722 does not exist.
 End of Minotr F.D. properties file   788 does not exist.
 Leave Link 1002 at Mon Feb 21 20:04:52 2022, MaxMem= 16106127360 cpu:              80.6 elap:               2.9
 (Enter /sw/contrib/gaussian/g16/B01/g16/l811.exe)
 MDV= 16106127360.
 Form MO integral derivatives with frozen-active canonical formalism.
 MOERI=1 MOERIx=1 NAtoms=     5 NAtomX=     5.
 Discarding MO integrals.
 MO basis two electron integral derivatives will not be stored on disk.
 IAlg= 3 DoFC=T DoPWx=T Debug=F.
 Frozen-core window:  NFC=   4 NFV=   0.
 Reordered first order wavefunction length =     18678272
 In DefCFB: NBatch=  1 ICI= 16 ICA=191 LFMax= 96
            Large arrays: LIAPS=   619940160 LIARS=   288257200 words.
 In StABat: MaxSiz= 55 MinSiz= 25 NAtomB=  5
 DoIAMN: NPSUse= 28.
 Leave Link  811 at Mon Feb 21 20:06:13 2022, MaxMem= 16106127360 cpu:            2241.0 elap:              80.2
 (Enter /sw/contrib/gaussian/g16/B01/g16/l804.exe)
 Frozen-core window:  NFC=   4 NFV=   0.
 Closed-shell transformation, MDV= 16106127360 ITran=4 ISComp=1.
 Semi-Direct transformation.
 ModeAB=           2 MOrb=            16 LenV=   16104923037
 LASXX=     67341636 LTotXX=    67341636 LenRXX=    67341636
 LTotAB=    68301760 MaxLAS=    99807120 LenRXY=    99807120
 NonZer=   134683272 LenScr=   202817536 LnRSAI=           0
 LnScr1=           0 LExtra=           0 Total=    369966292
 MaxDsk=          -1 SrtSym=           F ITran=            4
 DoSDTr:  NPSUse= 28
 JobTyp=0 Pass  1:  I=   1 to  16.
 (rs|ai) integrals will be sorted in core.
 Complete sort for first half transformation.
 First half transformation complete.
 Begin second half transformation for I=  10.
 Begin second half transformation for I=  10.
 Complete sort for second half transformation.
 Second half transformation complete.
 Spin components of T(2) and E(2):
     alpha-alpha T2 =       0.3395284056D-01 E2=     -0.1223107282D+00
     alpha-beta  T2 =       0.1864169958D+00 E2=     -0.6997119479D+00
     beta-beta   T2 =       0.3395284056D-01 E2=     -0.1223107282D+00
 ANorm=    0.1583870372D+01
 E2 =    -0.9443334044D+00 EUMP2 =    -0.28044652260119D+03
 Leave Link  804 at Mon Feb 21 20:06:28 2022, MaxMem= 16106127360 cpu:             426.7 elap:              15.3
 (Enter /sw/contrib/gaussian/g16/B01/g16/l1002.exe)
 Minotr:  Closed shell wavefunction.
          Computing MP2/KS-MP2 derivatives.
          Using Z-Vector for PSCF gradient.
          Skipping F1 and S1 gradient terms here.
          IDoAtm=11111
          Frozen-core window.
          Using MO integrals in the linear equations.
          Forming densities via direct SCF.
          Differentiating once with respect to electric field.
                with respect to dipole field.
          Differentiating once with respect to nuclear coordinates.
          Using symmetry in CPHF.
          Requested convergence is 1.0D-10 RMS, and 1.0D-09 maximum.
          NewPWx=F KeepS1=T KeepF1=T KeepIn=T MapXYZ=F SortEE=F KeepMc=T.
          MDV=   16106127360 using IRadAn=       5.
          Solving linear equations separately, MaxMat=       0.
          There are     1 degrees of freedom in the 1st order CPHF.  IDoFFX=0 NUNeed=     1.
 FoFJK:  IHMeth= 1 ICntrl=       0 DoSepK=F KAlg= 0 I1Cent=           0 FoldK=F
 IRaf=         0 NMat=       1 IRICut=       1 DoRegI=T DoRafI=F ISym2E= 0 IDoP0=0 IntGTp=1.
 FoFCou: FMM=F IPFlag=           0 FMFlag=      100000 FMFlg1=           0
         NFxFlg=           0 DoJE=F BraDBF=F KetDBF=F FulRan=T
         wScrn=  0.000000 ICntrl=         0 IOpCl=  0 I1Cent=           0 NGrid=           0
         NMat0=    1 NMatS0=      1 NMatT0=    0 NMatD0=    1 NMtDS0=    0 NMtDT0=    0
 Symmetry not used in FoFCou.
 LinEq1:  Iter=  0 NonCon=     1 RMS=5.95D-03 Max=1.32D-01 NDo=     1
 LinEq1:  Iter=  1 NonCon=     1 RMS=1.90D-03 Max=3.83D-02 NDo=     1
 LinEq1:  Iter=  2 NonCon=     1 RMS=8.66D-04 Max=1.43D-02 NDo=     1
 LinEq1:  Iter=  3 NonCon=     1 RMS=3.87D-04 Max=7.82D-03 NDo=     1
 LinEq1:  Iter=  4 NonCon=     1 RMS=1.19D-04 Max=1.90D-03 NDo=     1
 LinEq1:  Iter=  5 NonCon=     1 RMS=4.57D-05 Max=7.28D-04 NDo=     1
 LinEq1:  Iter=  6 NonCon=     1 RMS=2.04D-05 Max=2.30D-04 NDo=     1
 LinEq1:  Iter=  7 NonCon=     1 RMS=8.17D-06 Max=1.60D-04 NDo=     1
 LinEq1:  Iter=  8 NonCon=     1 RMS=3.45D-06 Max=3.42D-05 NDo=     1
 LinEq1:  Iter=  9 NonCon=     1 RMS=9.35D-07 Max=1.30D-05 NDo=     1
 LinEq1:  Iter= 10 NonCon=     1 RMS=1.83D-07 Max=2.00D-06 NDo=     1
 LinEq1:  Iter= 11 NonCon=     1 RMS=3.40D-08 Max=3.53D-07 NDo=     1
 LinEq1:  Iter= 12 NonCon=     1 RMS=8.22D-09 Max=1.27D-07 NDo=     1
 LinEq1:  Iter= 13 NonCon=     1 RMS=1.49D-09 Max=2.54D-08 NDo=     1
 LinEq1:  Iter= 14 NonCon=     1 RMS=2.70D-10 Max=3.79D-09 NDo=     1
 LinEq1:  Iter= 15 NonCon=     0 RMS=4.86D-11 Max=5.46D-10 NDo=     1
 Linear equations converged to 1.000D-10 1.000D-09 after    15 iterations.
 End of Minotr F.D. properties file   721 does not exist.
 End of Minotr F.D. properties file   722 does not exist.
 End of Minotr F.D. properties file   788 does not exist.
 Leave Link 1002 at Mon Feb 21 20:06:31 2022, MaxMem= 16106127360 cpu:              65.3 elap:               2.4
 (Enter /sw/contrib/gaussian/g16/B01/g16/l1102.exe)
 Use density number 2.
 Symmetrizing basis deriv contribution to polar:
 IMax=3 JMax=2 DiffMx= 0.00D+00
 Leave Link 1102 at Mon Feb 21 20:06:31 2022, MaxMem= 16106127360 cpu:               0.7 elap:               0.1
 (Enter /sw/contrib/gaussian/g16/B01/g16/l1110.exe)
 Forming Gx(P) for generalized density number  2 NAtomX=     5.
 Integral derivatives from FoFJK, PRISM(SPDF).
 Do as many integral derivatives as possible in FoFJK.
 G2DrvN: MDV=   16106126844.
 G2DrvN: will do     6 centers at a time, making    1 passes.
 Calling FoFCou, ICntrl=  3107 FMM=F I1Cent=   0 AccDes= 0.00D+00.
 FoFJK:  IHMeth= 1 ICntrl=    3107 DoSepK=F KAlg= 0 I1Cent=           0 FoldK=F
 IRaf=         0 NMat=       1 IRICut=       1 DoRegI=T DoRafI=F ISym2E= 1 IDoP0=0 IntGTp=1.
 FoFCou: FMM=F IPFlag=           0 FMFlag=      100000 FMFlg1=           0
         NFxFlg=           0 DoJE=F BraDBF=F KetDBF=F FulRan=T
         wScrn=  0.000000 ICntrl=      3107 IOpCl=  0 I1Cent=           0 NGrid=           0
         NMat0=    1 NMatS0=      1 NMatT0=    0 NMatD0=    1 NMtDS0=    0 NMtDT0=    0
 Petite list used in FoFCou.
 End of G2Drv F.D. properties file   721 does not exist.
 End of G2Drv F.D. properties file   722 does not exist.
 End of G2Drv F.D. properties file   788 does not exist.
 Leave Link 1110 at Mon Feb 21 20:06:34 2022, MaxMem= 16106127360 cpu:              84.1 elap:               3.0
 (Enter /sw/contrib/gaussian/g16/B01/g16/l1112.exe)
 MP22nd: MDV=   16106127360
 This link is doing NAtomX=     5 total of    18 degrees of freedom.
 Using ON3 I/O method in MakUI.
 Frozen-core window:  NFC=   4 NFV=   0.
 Using Ix for Sx.
 Use MO integrals over full window.
 Using OV2 memory method for fx*t*t/D, MaxI=    16 DoOO2=F NP=  28.
 R2 and R3 integrals will be kept in memory, NReq=   915591705.
 FoFCou: FMM=F IPFlag=           0 FMFlag=           0 FMFlg1=           0
         NFxFlg=           0 DoJE=F BraDBF=F KetDBF=F FulRan=T
         wScrn=  0.000000 ICntrl=       600 IOpCl=  0 I1Cent=           0 NGrid=           0
         NMat0=    1 NMatS0=      1 NMatT0=    0 NMatD0=    1 NMtDS0=    0 NMtDT0=    0
 Symmetry not used in FoFCou.
 DD1Dir will call FoFMem   1 times, MxPair=       272
 NAB=   136 NAA=     0 NBB=     0.
 Symmetry is being used.
 FoFJK:  IHMeth= 1 ICntrl=       0 DoSepK=F KAlg= 0 I1Cent=           0 FoldK=F
 IRaf=         0 NMat=      18 IRICut=      45 DoRegI=T DoRafI=T ISym2E= 2 IDoP0=3 IntGTp=3.
 Discarding MO integrals.
 Leave Link 1112 at Mon Feb 21 20:07:14 2022, MaxMem= 16106127360 cpu:            1121.7 elap:              40.6
 (Enter /sw/contrib/gaussian/g16/B01/g16/l601.exe)
 Copying SCF densities to generalized density rwf, IOpCl= 0 IROHF=0.

 **********************************************************************

            Population analysis using the MP2 Density.

 **********************************************************************

 Orbital symmetries:
       Occupied  (A') (A') (A') (A') (A') (A') (A') (A') (A') (A')
                 (A") (A') (A") (A') (A") (A')
       Virtual   (A') (A") (A') (A') (A") (A') (A') (A') (A") (A')
                 (A") (A') (A') (A') (A") (A') (A') (A") (A') (A')
                 (A') (A') (A') (A') (A") (A') (A') (A") (A') (A')
                 (A") (A') (A") (A') (A') (A") (A') (A') (A") (A')
                 (A") (A') (A") (A') (A') (A") (A') (A') (A") (A')
                 (A") (A') (A') (A') (A") (A') (A") (A') (A") (A')
                 (A') (A') (A") (A') (A') (A") (A') (A") (A') (A')
                 (A") (A') (A') (A") (A") (A') (A') (A") (A') (A')
                 (A') (A") (A') (A") (A') (A") (A') (A") (A') (A')
                 (A") (A') (A') (A") (A') (A") (A') (A") (A') (A')
                 (A") (A') (A") (A') (A') (A") (A') (A') (A") (A')
                 (A") (A') (A') (A') (A") (A') (A') (A') (A") (A')
                 (A") (A') (A") (A') (A') (A") (A") (A') (A") (A')
                 (A') (A') (A') (A") (A") (A") (A') (A') (A') (A')
                 (A") (A') (A') (A") (A') (A") (A') (A') (A') (A')
                 (A") (A') (A') (A") (A') (A") (A') (A") (A') (A")
                 (A') (A") (A') (A") (A') (A") (A") (A') (A") (A')
                 (A") (A') (A") (A') (A") (A') (A") (A") (A') (A')
                 (A') (A') (A') (A') (A') (A') (A') (A') (A') (A')
                 (A')
 The electronic state is 1-A'.
 Alpha  occ. eigenvalues --  -20.69129 -20.68459 -20.65879 -15.81315  -1.62438
 Alpha  occ. eigenvalues --   -1.49764  -1.25739  -0.94842  -0.77409  -0.76036
 Alpha  occ. eigenvalues --   -0.71215  -0.68163  -0.62091  -0.59015  -0.48574
 Alpha  occ. eigenvalues --   -0.47291
 Alpha virt. eigenvalues --    0.02991   0.07144   0.08588   0.10168   0.13384
 Alpha virt. eigenvalues --    0.13392   0.14467   0.15510   0.17804   0.19413
 Alpha virt. eigenvalues --    0.19976   0.20637   0.22076   0.23500   0.23724
 Alpha virt. eigenvalues --    0.26640   0.29370   0.30458   0.31103   0.34330
 Alpha virt. eigenvalues --    0.34892   0.38740   0.42366   0.43386   0.52722
 Alpha virt. eigenvalues --    0.52905   0.55845   0.58141   0.62577   0.63826
 Alpha virt. eigenvalues --    0.67427   0.68583   0.70633   0.71170   0.72537
 Alpha virt. eigenvalues --    0.72949   0.74497   0.79115   0.79226   0.81055
 Alpha virt. eigenvalues --    0.81255   0.83079   0.86801   0.90794   0.92273
 Alpha virt. eigenvalues --    0.92654   0.95782   0.97571   0.98664   1.01964
 Alpha virt. eigenvalues --    1.05129   1.05489   1.08371   1.12000   1.14296
 Alpha virt. eigenvalues --    1.18897   1.22169   1.23556   1.33839   1.34967
 Alpha virt. eigenvalues --    1.38599   1.45769   1.49192   1.51155   1.53761
 Alpha virt. eigenvalues --    1.56699   1.57881   1.61506   1.66276   1.66895
 Alpha virt. eigenvalues --    1.70341   1.79353   1.83178   1.83437   1.87780
 Alpha virt. eigenvalues --    1.91153   1.96379   1.99270   2.00884   2.07787
 Alpha virt. eigenvalues --    2.12268   2.13182   2.14990   2.22523   2.26296
 Alpha virt. eigenvalues --    2.26563   2.28961   2.31589   2.34482   2.38919
 Alpha virt. eigenvalues --    2.42454   2.43007   2.45407   2.46307   2.47747
 Alpha virt. eigenvalues --    2.50235   2.58377   2.59718   2.62027   2.62659
 Alpha virt. eigenvalues --    2.63410   2.66547   2.75746   2.82010   2.85631
 Alpha virt. eigenvalues --    2.88497   2.89360   2.92560   2.95762   3.02759
 Alpha virt. eigenvalues --    3.06914   3.11969   3.20422   3.22788   3.31877
 Alpha virt. eigenvalues --    3.34319   3.51641   3.64910   3.83864   3.86100
 Alpha virt. eigenvalues --    4.16225   4.16814   4.18731   4.25910   4.36467
 Alpha virt. eigenvalues --    4.39639   4.46833   4.52472   4.66339   4.71635
 Alpha virt. eigenvalues --    4.80665   4.82405   4.85404   4.89603   5.02318
 Alpha virt. eigenvalues --    5.07755   5.11587   5.15339   5.18747   5.26531
 Alpha virt. eigenvalues --    5.27592   5.31195   5.35938   5.36687   5.61441
 Alpha virt. eigenvalues --    5.67362   5.77371   5.83741   5.95912   6.16545
 Alpha virt. eigenvalues --    6.30910   6.33611   6.39831   6.49359   6.50542
 Alpha virt. eigenvalues --    6.61618   6.66658   6.69978   6.75696   6.76305
 Alpha virt. eigenvalues --    6.83306   6.89819   7.02207   7.05756   7.05946
 Alpha virt. eigenvalues --    7.09155   7.12726   7.15298   7.18140   7.22885
 Alpha virt. eigenvalues --    7.26905   7.32198   7.32603   7.35300   7.39872
 Alpha virt. eigenvalues --    7.43416   7.48442   7.60905   7.62113   7.62996
 Alpha virt. eigenvalues --    7.67082   7.80745   7.88750   8.09920   8.31886
 Alpha virt. eigenvalues --    8.42847   8.54975  13.39501  14.40705  15.38737
 Alpha virt. eigenvalues --   16.15241
          Condensed to atoms (all electrons):
               1          2          3          4          5
     1  H    0.606330   0.122518   0.021773   0.012799  -0.000699
     2  O    0.122518   8.317484  -0.175426  -0.091600   0.015670
     3  O    0.021773  -0.175426   8.470706  -0.130297  -0.038641
     4  N    0.012799  -0.091600  -0.130297   6.972084  -0.055741
     5  O   -0.000699   0.015670  -0.038641  -0.055741   8.272682
 Mulliken charges:
               1
     1  H    0.237279
     2  O   -0.188646
     3  O   -0.148116
     4  N    0.292755
     5  O   -0.193271
 Sum of Mulliken charges =  -0.00000
 Mulliken charges with hydrogens summed into heavy atoms:
               1
     2  O    0.048632
     3  O   -0.148116
     4  N    0.292755
     5  O   -0.193271
 APT charges:
               1
     1  H    0.299913
     2  O   -0.290591
     3  O   -0.494783
     4  N    0.876741
     5  O   -0.391280
 Sum of APT charges =  -0.00000
 APT charges with hydrogens summed into heavy atoms:
               1
     2  O    0.009322
     3  O   -0.494783
     4  N    0.876741
     5  O   -0.391280
 Electronic spatial extent (au):  <R**2>=            252.7242
 Charge=             -0.0000 electrons
 Dipole moment (field-independent basis, Debye):
    X=              0.5002    Y=              1.3416    Z=              0.0000  Tot=              1.4318
 Quadrupole moment (field-independent basis, Debye-Ang):
   XX=            -22.4624   YY=            -18.6735   ZZ=            -21.9914
   XY=              3.2263   XZ=              0.0000   YZ=             -0.0000
 Traceless Quadrupole moment (field-independent basis, Debye-Ang):
   XX=             -1.4199   YY=              2.3689   ZZ=             -0.9490
   XY=              3.2263   XZ=              0.0000   YZ=             -0.0000
 Octapole moment (field-independent basis, Debye-Ang**2):
  XXX=              2.8895  YYY=             11.1237  ZZZ=             -0.0000  XYY=              7.8045
  XXY=              6.5414  XXZ=              0.0000  XZZ=             -1.5529  YZZ=             -0.8341
  YYZ=              0.0000  XYZ=              0.0000
 Hexadecapole moment (field-independent basis, Debye-Ang**3):
 XXXX=           -158.2558 YYYY=            -89.9393 ZZZZ=            -18.2096 XXXY=            -36.6401
 XXXZ=             -0.0000 YYYX=            -30.9578 YYYZ=             -0.0000 ZZZX=             -0.0000
 ZZZY=             -0.0000 XXYY=            -34.0631 XXZZ=            -30.8151 YYZZ=            -20.6044
 XXYZ=             -0.0000 YYXZ=             -0.0000 ZZXY=            -15.0098
 N-N= 1.169602898203D+02 E-N=-8.960349892638D+02  KE= 2.802239242986D+02
 Symmetry A'   KE= 2.662513468437D+02
 Symmetry A"   KE= 1.397257745487D+01
  Exact polarizability:  33.932   9.402  30.047   0.000   0.000  17.891
 Approx polarizability:  28.967   5.086  23.367  -0.000   0.000  15.498
 No NMR shielding tensors so no spin-rotation constants.
 Leave Link  601 at Mon Feb 21 20:07:15 2022, MaxMem= 16106127360 cpu:               4.5 elap:               0.2
 (Enter /sw/contrib/gaussian/g16/B01/g16/l701.exe)
 ... and contract with generalized density number  2.
 Compute integral second derivatives.
 Leave Link  701 at Mon Feb 21 20:07:15 2022, MaxMem= 16106127360 cpu:               6.5 elap:               0.3
 (Enter /sw/contrib/gaussian/g16/B01/g16/l702.exe)
 L702 exits ... SP integral derivatives will be done elsewhere.
 Leave Link  702 at Mon Feb 21 20:07:15 2022, MaxMem= 16106127360 cpu:               1.3 elap:               0.1
 (Enter /sw/contrib/gaussian/g16/B01/g16/l703.exe)
 Integral derivatives from FoFJK, PRISM(SPDF).
 Compute integral second derivatives, UseDBF=F ICtDFT=           0.
 Calling FoFJK, ICntrl=  10100127 FMM=F ISym2X=1 I1Cent= 0 IOpClX= 0 NMat=1 NMatS=1 NMatT=0.
 FoFJK:  IHMeth= 1 ICntrl=10100127 DoSepK=F KAlg= 0 I1Cent=           0 FoldK=F
 IRaf=         0 NMat=       1 IRICut=       1 DoRegI=T DoRafI=F ISym2E= 1 IDoP0=0 IntGTp=1.
 FoFCou: FMM=F IPFlag=           0 FMFlag=      100000 FMFlg1=         800
         NFxFlg=           0 DoJE=F BraDBF=F KetDBF=F FulRan=T
         wScrn=  0.000000 ICntrl=  10100127 IOpCl=  0 I1Cent=           0 NGrid=           0
         NMat0=    1 NMatS0=      1 NMatT0=    0 NMatD0=    1 NMtDS0=    0 NMtDT0=    0
 Petite list used in FoFCou.
 Leave Link  703 at Mon Feb 21 20:07:30 2022, MaxMem= 16106127360 cpu:             428.4 elap:              15.4
 (Enter /sw/contrib/gaussian/g16/B01/g16/l716.exe)
 Dipole        = 1.96810597D-01 5.27823936D-01 8.70345544D-32
 Polarizability= 3.39321562D+01 9.40237170D+00 3.00469444D+01
                 1.74831864D-30 2.52185673D-30 1.78908739D+01
 Full mass-weighted force constant matrix:
 Low frequencies --- -553.5736  -55.7583  -47.6130    0.0013    0.0013    0.0014
 Low frequencies ---   10.6803  228.3907  325.0247
 ******    1 imaginary frequencies (negative Signs) ****** 
 Diagonal vibrational polarizability:
       13.9939405      25.4170902      11.5779883
 Harmonic frequencies (cm**-1), IR intensities (KM/Mole), Raman scattering
 activities (A**4/AMU), depolarization ratios for plane and unpolarized
 incident light, reduced masses (AMU), force constants (mDyne/A),
 and normal coordinates:
                      1                      2                      3
                     A"                     A"                     A'
 Frequencies --   -544.4723               228.2220               324.7034
 Red. masses --      1.1193                12.3415                 7.9014
 Frc consts  --      0.1955                 0.3787                 0.4908
 IR Inten    --    127.0786                 0.0813                 5.8729
  Atom  AN      X      Y      Z        X      Y      Z        X      Y      Z
     1   1    -0.00  -0.00   1.00    -0.00   0.00  -0.45     0.59  -0.43  -0.00
     2   8    -0.00   0.00  -0.06    -0.00   0.00  -0.35    -0.10  -0.36  -0.00
     3   8     0.00  -0.00  -0.05    -0.00  -0.00   0.35    -0.13   0.42   0.00
     4   7     0.00   0.00   0.05     0.00  -0.00   0.58     0.04   0.23   0.00
     5   8     0.00   0.00   0.00    -0.00   0.00  -0.48     0.16  -0.24  -0.00
                      4                      5                      6
                     A'                     A'                     A'
 Frequencies --    451.9055               779.0107               966.1294
 Red. masses --     12.2982                12.0975                15.6818
 Frc consts  --      1.4797                 4.3255                 8.6242
 IR Inten    --    198.7206               158.5870                26.5976
  Atom  AN      X      Y      Z        X      Y      Z        X      Y      Z
     1   1     0.41   0.20  -0.00    -0.42   0.17   0.00    -0.09  -0.03  -0.00
     2   8     0.32   0.21  -0.00     0.42   0.06  -0.00    -0.52   0.04  -0.00
     3   8     0.18   0.43   0.00    -0.07  -0.24  -0.00     0.76  -0.03   0.00
     4   7    -0.35  -0.41   0.00    -0.14   0.60   0.00    -0.12   0.26   0.00
     5   8    -0.22  -0.29  -0.00    -0.20  -0.36   0.00    -0.12  -0.23  -0.00
                      7                      8                      9
                     A'                     A'                     A'
 Frequencies --   1319.0455              1677.0253              3976.8384
 Red. masses --      1.1497                13.5222                 1.0675
 Frc consts  --      1.1785                22.4066                 9.9472
 IR Inten    --    155.9327               143.2265                84.3564
  Atom  AN      X      Y      Z        X      Y      Z        X      Y      Z
     1   1     0.99  -0.05  -0.00    -0.31   0.00   0.00     0.10   0.99   0.00
     2   8    -0.02   0.06  -0.00    -0.01  -0.04   0.00    -0.01  -0.06  -0.00
     3   8    -0.02  -0.06   0.00     0.00   0.15  -0.00     0.00   0.00  -0.00
     4   7     0.02   0.02   0.00     0.71  -0.05  -0.00    -0.00  -0.00   0.00
     5   8    -0.03  -0.01  -0.00    -0.60  -0.07   0.00     0.00   0.00   0.00

 -------------------
 - Thermochemistry -
 -------------------
 Temperature   298.150 Kelvin.  Pressure   1.00000 Atm.
 Atom     1 has atomic number  1 and mass   1.00783
 Atom     2 has atomic number  8 and mass  15.99491
 Atom     3 has atomic number  8 and mass  15.99491
 Atom     4 has atomic number  7 and mass  14.00307
 Atom     5 has atomic number  8 and mass  15.99491
 Molecular mass:    62.99564 amu.
 Principal axes and moments of inertia in atomic units:
                           1         2         3
     Eigenvalues --    32.80314 359.98417 392.78730
           X            0.81031  -0.58600   0.00000
           Y            0.58600   0.81031   0.00000
           Z            0.00000  -0.00000   1.00000
 This molecule is an asymmetric top.
 Rotational symmetry number  1.
 Rotational temperatures (Kelvin)      2.64042     0.24060     0.22051
 Rotational constants (GHZ):          55.01733     5.01339     4.59470
    1 imaginary frequencies ignored.
 Zero-point vibrational energy      58155.7 (Joules/Mol)
                                   13.89956 (Kcal/Mol)
 Warning -- explicit consideration of   3 degrees of freedom as
           vibrations may cause significant error
 Vibrational temperatures:    328.36   467.18   650.19  1120.82  1390.04
          (Kelvin)           1897.81  2412.87  5721.78
 
 Zero-point correction=                           0.022150 (Hartree/Particle)
 Thermal correction to Energy=                    0.026292
 Thermal correction to Enthalpy=                  0.027237
 Thermal correction to Gibbs Free Energy=        -0.003993
 Sum of electronic and zero-point Energies=           -280.424372
 Sum of electronic and thermal Energies=              -280.420230
 Sum of electronic and thermal Enthalpies=            -280.419286
 Sum of electronic and thermal Free Energies=         -280.450515
 
                     E (Thermal)             CV                S
                      KCal/Mol        Cal/Mol-Kelvin    Cal/Mol-Kelvin
 Total                   16.499             12.023             65.727
 Electronic               0.000              0.000              0.000
 Translational            0.889              2.981             38.341
 Rotational               0.889              2.981             23.055
 Vibrational             14.721              6.061              4.332
 Vibration     1          0.651              1.798              1.893
 Vibration     2          0.709              1.626              1.286
 Vibration     3          0.811              1.357              0.790
                       Q            Log10(Q)             Ln(Q)
 Total Bot       0.686199D+02          1.836450          4.228582
 Total V=0       0.105900D+13         12.024895         27.688344
 Vib (Bot)       0.143221D-09         -9.843994        -22.666633
 Vib (Bot)    1  0.863680D+00         -0.063647         -0.146553
 Vib (Bot)    2  0.577299D+00         -0.238599         -0.549395
 Vib (Bot)    3  0.378888D+00         -0.421489         -0.970515
 Vib (V=0)       0.221030D+01          0.344452          0.793129
 Vib (V=0)    1  0.149797D+01          0.175503          0.404111
 Vib (V=0)    2  0.126372D+01          0.101652          0.234063
 Vib (V=0)    3  0.112734D+01          0.052055          0.119861
 Electronic      0.100000D+01          0.000000          0.000000
 Translational   0.196526D+08          7.293420         16.793719
 Rotational      0.243794D+05          4.387024         10.101495
 
                                                                title
                                                             IR Spectrum
 
     3                                                                         1          1                                          
     9                                                                         6          3           9     7         4   3  2       
     7                                                                         7          1           6     7         5   2  2       
     7                                                                         7          9           6     9         2   5  8       
 
     X                                                                         X          X           X     X         X   X  X       
     X                                                                         X          X           X     X         X              
     X                                                                         X          X           X     X         X              
     X                                                                         X          X                 X         X              
     X                                                                         X          X                 X         X              
     X                                                                         X          X                 X         X              
     X                                                                         X          X                 X         X              
     X                                                                         X          X                 X         X              
                                                                               X          X                 X         X              
                                                                               X          X                 X         X              
                                                                               X          X                 X         X              
                                                                               X          X                 X         X              
                                                                               X          X                 X         X              
                                                                               X          X                 X         X              
                                                                                          X                 X         X              
                                                                                          X                 X         X              
                                                                                                                      X              
                                                                                                                      X              
                                                                                                                      X              
                                                                                                                      X              
 
 ***** Axes restored to original set *****
 -------------------------------------------------------------------
 Center     Atomic                   Forces (Hartrees/Bohr)
 Number     Number              X              Y              Z
 -------------------------------------------------------------------
      1        1          -0.000084644   -0.000000000   -0.015260470
      2        8           0.000636652    0.000000000    0.015250169
      3        8          -0.000549967    0.000000000    0.000000528
      4        7          -0.000282235    0.000000000   -0.000022862
      5        8           0.000280194   -0.000000000    0.000032636
 -------------------------------------------------------------------
 Cartesian Forces:  Max     0.015260470 RMS     0.005575687
 -----------------------------------------------------------------------------------------------
                       Internal Coordinate Forces (Hartree/Bohr or radian)
  Cent   Atom   N1       Length/X         N2         Alpha/Y        N3         Beta/Z          J
 -----------------------------------------------------------------------------------------------
      1  H 
      2  O        1   0.015260(     1)
      3  O        2  -0.000546(     2)      1   0.000153(     5)
      4  N        3   0.000010(     3)      2   0.000076(     6)      1   0.000000(     8)     0
      5  O        4   0.000280(     4)      3  -0.000084(     7)      2  -0.000000(     9)     0
 -----------------------------------------------------------------------------------------------
 Internal  Forces:  Max     0.015260470 RMS     0.005091324
 Force constants in Cartesian coordinates: 
                1             2             3             4             5 
      1  0.586567D-01
      2  0.000000D+00 -0.108943D-01
      3  0.544546D-02  0.000000D+00  0.567491D+00
      4 -0.289979D-01  0.000000D+00 -0.168060D-01  0.265458D+00
      5  0.000000D+00  0.115398D-01  0.000000D+00  0.000000D+00 -0.620725D-02
      6  0.493563D-01  0.000000D+00 -0.563721D+00  0.331073D-01  0.000000D+00
      7 -0.189236D-01  0.000000D+00  0.128851D-01 -0.219881D+00  0.000000D+00
      8  0.000000D+00  0.107128D-02  0.000000D+00  0.000000D+00 -0.679475D-02
      9 -0.543659D-01  0.000000D+00 -0.325545D-03 -0.187136D-01  0.000000D+00
     10 -0.945956D-02  0.000000D+00 -0.488382D-02 -0.170530D-01  0.000000D+00
     11  0.000000D+00 -0.275844D-02  0.000000D+00  0.000000D+00 -0.486758D-02
     12  0.541072D-02  0.000000D+00 -0.489134D-02  0.116554D-01  0.000000D+00
     13 -0.127557D-02  0.000000D+00  0.335933D-02  0.473397D-03  0.000000D+00
     14  0.000000D+00  0.104160D-02  0.000000D+00  0.000000D+00  0.632975D-02
     15 -0.584660D-02  0.000000D+00  0.144753D-02 -0.924303D-02  0.000000D+00
                6             7             8             9            10 
      6  0.650453D+00
      7 -0.216928D-01  0.341802D+00
      8  0.000000D+00  0.000000D+00  0.434596D-02
      9 -0.791827D-01  0.363121D-01  0.000000D+00  0.181649D+00
     10 -0.526272D-01 -0.780436D-01  0.000000D+00  0.175029D+00  0.828470D+00
     11  0.000000D+00  0.000000D+00  0.854424D-02  0.000000D+00  0.000000D+00
     12  0.171529D-01  0.628159D-01  0.000000D+00 -0.819073D-01 -0.178315D-01
     13 -0.814362D-02 -0.249545D-01  0.000000D+00 -0.138262D+00 -0.723914D+00
     14  0.000000D+00  0.000000D+00 -0.716673D-02  0.000000D+00  0.000000D+00
     15 -0.247023D-01 -0.903203D-01  0.000000D+00 -0.202339D-01 -0.996866D-01
               11            12            13            14            15 
     11  0.855049D-02
     12  0.000000D+00  0.187010D+00
     13  0.000000D+00 -0.620505D-01  0.749670D+00
     14 -0.946871D-02  0.000000D+00  0.000000D+00  0.926408D-02
     15  0.000000D+00 -0.117364D+00  0.205097D+00  0.000000D+00  0.160853D+00
 Force constants in internal coordinates: 
                1             2             3             4             5 
      1  0.567491D+00
      2 -0.107627D-01  0.281682D+00
      3  0.355719D-02  0.239021D-02  0.117421D+00
      4 -0.361345D-02  0.585684D-02  0.153050D+00  0.812016D+00
      5  0.973250D-02  0.660579D-01  0.236995D-02  0.484306D-02  0.218154D+00
      6  0.466830D-02  0.592626D-01  0.413092D-01  0.218702D-01  0.316662D-01
      7 -0.125819D-02  0.378594D-01  0.319898D-01  0.847848D-01  0.213285D-01
      8  0.000000D+00  0.000000D+00  0.000000D+00  0.000000D+00  0.000000D+00
      9  0.000000D+00  0.000000D+00  0.000000D+00  0.000000D+00  0.000000D+00
                6             7             8             9 
      6  0.283491D+00
      7  0.957469D-01  0.482763D+00
      8  0.000000D+00  0.000000D+00 -0.777729D-02
      9  0.000000D+00  0.000000D+00 -0.389123D-02  0.410815D-01
 Leave Link  716 at Mon Feb 21 20:07:31 2022, MaxMem= 16106127360 cpu:               2.2 elap:               0.1
 (Enter /sw/contrib/gaussian/g16/B01/g16/l103.exe)

 GradGradGradGradGradGradGradGradGradGradGradGradGradGradGradGradGradGrad
 Berny optimization.
 Search for a local minimum.
 Step number   1 out of a maximum of    2
 All quantities printed in internal units (Hartrees-Bohrs-Radians)
 Second derivative matrix not updated -- analytic derivatives used.
 The second derivative matrix:
                          r1        r2        r3        r4        a1
           r1           0.56749
           r2          -0.01076   0.28168
           r3           0.00356   0.00239   0.11742
           r4          -0.00361   0.00586   0.15305   0.81202
           a1           0.00973   0.06606   0.00237   0.00484   0.21815
           a2           0.00467   0.05926   0.04131   0.02187   0.03167
           a3          -0.00126   0.03786   0.03199   0.08478   0.02133
           d1          -0.00000   0.00000  -0.00000  -0.00000   0.00000
           d2           0.00000   0.00000  -0.00000  -0.00000   0.00000
                          a2        a3        d1        d2
           a2           0.28349
           a3           0.09575   0.48276
           d1           0.00000   0.00000  -0.00778
           d2           0.00000   0.00000  -0.00389   0.04108
 ITU=  0
     Eigenvalues ---   -0.00809   0.04139   0.07836   0.17584   0.22604
     Eigenvalues ---    0.32615   0.51751   0.56812   0.87099
 Eigenvalue     1 is  -8.09D-03 should be greater than     0.000000 Eigenvector:
                          d1        d2        r3        a2        a3
   1                    0.99688   0.07890   0.00000  -0.00000  -0.00000
                          a1        r4        r2        r1
   1                    0.00000  -0.00000  -0.00000  -0.00000
 Angle between quadratic step and forces=   4.21 degrees.
 Linear search not attempted -- first point.
 Variable       Old X    -DE/DX   Delta X   Delta X   Delta X     New X
                                 (Linear)    (Quad)   (Total)
    r1        1.80281   0.01526   0.00000   0.02689   0.02689   1.82970
    r2        2.74940  -0.00055   0.00000  -0.00090  -0.00090   2.74850
    r3        2.75670   0.00001   0.00000  -0.00186  -0.00186   2.75485
    r4        2.21236   0.00028   0.00000   0.00082   0.00082   2.21318
    a1        1.70335   0.00015   0.00000  -0.00026  -0.00026   1.70310
    a2        1.78543   0.00008   0.00000   0.00028   0.00028   1.78571
    a3        1.90362  -0.00008   0.00000  -0.00010  -0.00010   1.90352
    d1        3.14159   0.00000   0.00000  -0.00000   0.00000   3.14159
    d2        3.14159  -0.00000   0.00000  -0.00000   0.00000   3.14159
         Item               Value     Threshold  Converged?
 Maximum Force            0.015260     0.000450     NO 
 RMS     Force            0.005091     0.000300     NO 
 Maximum Displacement     0.026893     0.001800     NO 
 RMS     Displacement     0.008996     0.001200     NO 
 Predicted change in Energy=-2.055455D-04
                       ----------------------------
                       ! Non-Optimized Parameters !
                       ! (Angstroms and Degrees)  !
 ----------------------                            ----------------------
 !      Name          Value   Derivative information (Atomic Units)     !
 ------------------------------------------------------------------------
 !       r1          0.9682   -DE/DX =    0.0153                        !
 !       r2          1.4544   -DE/DX =   -0.0005                        !
 !       r3          1.4578   -DE/DX =    0.0                           !
 !       r4          1.1712   -DE/DX =    0.0003                        !
 !       a1         97.5802   -DE/DX =    0.0002                        !
 !       a2        102.3137   -DE/DX =    0.0001                        !
 !       a3        109.0638   -DE/DX =   -0.0001                        !
 !       d1        180.0      -DE/DX =    0.0                           !
 !       d2        180.0      -DE/DX =    0.0                           !
 ------------------------------------------------------------------------
 GradGradGradGradGradGradGradGradGradGradGradGradGradGradGradGradGradGrad

 Leave Link  103 at Mon Feb 21 20:07:31 2022, MaxMem= 16106127360 cpu:               2.6 elap:               0.1
 (Enter /sw/contrib/gaussian/g16/B01/g16/l9999.exe)

 ----------------------------------------------------------------------

 Electric dipole moment (input orientation):
 (Debye = 10**-18 statcoulomb cm , SI units = C m)
                  (au)            (Debye)         (10**-30 SI)
   Tot        0.563323D+00      0.143182D+01      0.477605D+01
   x         -0.144123D+00     -0.366325D+00     -0.122193D+01
   y          0.000000D+00      0.000000D+00      0.000000D+00
   z         -0.544574D+00     -0.138417D+01     -0.461709D+01

 Dipole polarizability, Alpha (input orientation).
 (esu units = cm**3 , SI units = C**2 m**2 J**-1)
 Alpha(0;0):
               (au)            (10**-24 esu)      (10**-40 SI)
   iso        0.272900D+02      0.404396D+01      0.449951D+01
   aniso      0.218016D+02      0.323066D+01      0.359459D+01
   xx         0.320604D+02      0.475086D+01      0.528604D+01
   yx         0.000000D+00      0.000000D+00      0.000000D+00
   yy         0.178909D+02      0.265115D+01      0.294981D+01
   zx         0.960069D+01      0.142268D+01      0.158294D+01
   zy         0.000000D+00      0.000000D+00      0.000000D+00
   zz         0.319187D+02      0.472987D+01      0.526269D+01

 ----------------------------------------------------------------------

 Dipole orientation:
     1          0.00000000          0.00000000         -0.00000000
     8         -0.46123948          0.00000000         -1.74280652
     8          2.08036599          0.00000000         -2.79134676
     7          1.59593324          0.00000000         -5.50515087
     8          3.52732471          0.00000000         -6.58415504

 Electric dipole moment (dipole orientation):
 (Debye = 10**-18 statcoulomb cm , SI units = C m)
                  (au)            (Debye)         (10**-30 SI)
   Tot        0.563323D+00      0.143182D+01      0.477605D+01
   x          0.000000D+00      0.000000D+00      0.000000D+00
   y          0.000000D+00      0.000000D+00      0.000000D+00
   z          0.563323D+00      0.143182D+01      0.477605D+01

 Dipole polarizability, Alpha (dipole orientation).
 (esu units = cm**3 , SI units = C**2 m**2 J**-1)
 Alpha(0;0):
               (au)            (10**-24 esu)      (10**-40 SI)
   iso        0.272900D+02      0.404396D+01      0.449951D+01
   aniso      0.218016D+02      0.323066D+01      0.359459D+01
   xx         0.273020D+02      0.404574D+01      0.450150D+01
   yx         0.000000D+00      0.000000D+00      0.000000D+00
   yy         0.178909D+02      0.265115D+01      0.294981D+01
   zx        -0.837887D+01     -0.124162D+01     -0.138149D+01
   zy         0.000000D+00      0.000000D+00      0.000000D+00
   zz         0.366771D+02      0.543498D+01      0.604723D+01

 ----------------------------------------------------------------------
 1\1\GINC-N2128\Freq\RMP2-FC\Aug-CC-pVTZ\H1N1O3\CGAVINH\21-Feb-2022\1\\
 #p freq mp2/aug-cc-pvtz density=current\\title\\0,1\H\O,1,r1\O,2,r2,1,
 a1\N,3,r3,2,a2,1,d1,0\O,4,r4,3,a3,2,d2,0\\r1=0.95400487\r2=1.45491931\
 r3=1.45878406\r4=1.17072885\a1=97.59494903\a2=102.29752444\a3=109.0695
 5123\d1=180.\d2=180.\\Version=ES64L-G16RevB.01\State=1-A'\HF=-279.5021
 892\MP2=-280.4465226\RMSD=3.787e-09\RMSF=5.576e-03\ZeroPoint=0.0221504
 \Thermal=0.0262924\Dipole=-0.1441233,0.,-0.5445741\DipoleDeriv=0.26449
 03,0.,0.0486926,0.,0.3576606,0.,0.085086,0.,0.277587,-0.3280891,0.,-0.
 2050896,0.,-0.3170484,0.,-0.1169249,0.,-0.2266343,-0.0464424,0.,0.1435
 615,0.,-0.086547,0.,-0.7494012,0.,-1.3513607,0.8960025,0.,0.9102052,0.
 ,0.0663835,0.,0.9219661,0.,1.6678372,-0.7859612,0.,-0.8973697,0.,-0.02
 04487,0.,-0.1407261,0.,-0.3674292\Polar=32.0603849,0.,17.8908739,9.600
 6924,0.,31.9187158\Quadrupole=-1.4966135,-0.7055223,2.2021358,0.,2.077
 7913,0.\PG=CS [SG(H1N1O3)]\NImag=1\\0.05865666,0.,-0.01089427,0.005445
 46,0.,0.56749064,-0.02899789,0.,-0.01680604,0.26545808,0.,0.01153983,0
 .,0.,-0.00620725,0.04935633,0.,-0.56372129,0.03310728,0.,0.65045333,-0
 .01892364,0.,0.01288508,-0.21988061,0.,-0.02169277,0.34180239,0.,0.001
 07128,0.,0.,-0.00679475,0.,0.,0.00434596,-0.05436591,0.,-0.00032554,-0
 .01871362,0.,-0.07918268,0.03631210,0.,0.18164936,-0.00945956,0.,-0.00
 488382,-0.01705298,0.,-0.05262723,-0.07804362,0.,0.17502920,0.82846987
 ,0.,-0.00275844,0.,0.,-0.00486758,0.,0.,0.00854424,0.,0.,0.00855049,0.
 00541072,0.,-0.00489134,0.01165541,0.,0.01715291,0.06281585,0.,-0.0819
 0727,-0.01783153,0.,0.18700967,-0.00127557,0.,0.00335933,0.00047340,0.
 ,-0.00814362,-0.02495451,0.,-0.13826177,-0.72391370,0.,-0.06205045,0.7
 4967038,0.,0.00104160,0.,0.,0.00632975,0.,0.,-0.00716673,0.,0.,-0.0094
 6871,0.,0.,0.00926408,-0.00584660,0.,0.00144753,-0.00924303,0.,-0.0247
 0228,-0.09032027,0.,-0.02023387,-0.09968661,0.,-0.11736397,0.20509651,
 0.,0.16085258\\0.00008464,0.,0.01526047,-0.00063665,0.,-0.01525017,0.0
 0054997,0.,-0.00000053,0.00028223,0.,0.00002286,-0.00028019,0.,-0.0000
 3264\\\@


 THOSE WHO TRY TO PASS CHEMISTRY OFF AS A NEW SCIENCE
 SHOW HOW LITTLE KNOWLEDGE THEY HAVE OF THE CHARACTER
 AND LITERATURE OF THE ANCIENTS.
   -- NICOLAS LEFEVRE
 "COURS DE CHYMIE" J.-N.LELOUP, PARIS, 1751
 Job cpu time:       0 days  2 hours  2 minutes 28.1 seconds.
 Elapsed time:       0 days  0 hours  4 minutes 25.8 seconds.
 File lengths (MBytes):  RWF=   7239 Int=      0 D2E=      0 Chk=      8 Scr=      1
 Normal termination of Gaussian 16 at Mon Feb 21 20:07:32 2022.
