title                                                                   
Freq      RMP2-FC                                                     Aug-CC-pVTZ         
Number of atoms                            I                5
Info1-9                                    I   N=           9
          33          24           0           0           0         100
           6           2           1
Full Title                                 C   N=           1
title       
Route                                      C   N=           4
#p freq mp2/aug-cc-pvtz density=current         
Charge                                     I                0
Multiplicity                               I                1
Number of electrons                        I               32
Number of alpha electrons                  I               16
Number of beta electrons                   I               16
Number of basis functions                  I              207
Number of independent functions            I              207
Number of point charges in /Mol/           I                0
Number of translation vectors              I                0
Atomic numbers                             I   N=           5
           1           8           8           7           8
Nuclear charges                            R   N=           5
  1.00000000E+00  8.00000000E+00  8.00000000E+00  7.00000000E+00  8.00000000E+00
Current cartesian coordinates              R   N=          15
  3.00570611E+00  3.09438012E+00 -4.61090435E-31  2.74931266E+00  1.28132087E+00
 -6.52575975E-31 -5.78389257E-18  1.30311355E+00  2.96004277E-31 -5.00078794E-01
 -1.40785104E+00 -7.47981574E-32 -2.68745698E+00 -1.73936227E+00  4.54051611E-31
Number of symbols in /Mol/                 I                0
Force Field                                I                0
Atom Types                                 C   N=           5
                                                            
Int Atom Types                             I   N=           5
           0           0           0           0           0
MM charges                                 R   N=           5
  0.00000000E+00  0.00000000E+00  0.00000000E+00  0.00000000E+00  0.00000000E+00
Integer atomic weights                     I   N=           5
           1          16          16          14          16
Real atomic weights                        R   N=           5
  1.00782504E+00  1.59949146E+01  1.59949146E+01  1.40030740E+01  1.59949146E+01
Atom fragment info                         I   N=           5
           0           0           0           0           0
Atom residue num                           I   N=           5
           0           0           0           0           0
Nuclear spins                              I   N=           5
           1           0           0           2           0
Nuclear ZEff                               R   N=           5
 -1.00000000E+00 -5.60000000E+00 -5.60000000E+00 -4.55000000E+00 -5.60000000E+00
Nuclear ZNuc                               R   N=           5
  1.00000000E+00  8.00000000E+00  8.00000000E+00  7.00000000E+00  8.00000000E+00
Nuclear QMom                               R   N=           5
  0.00000000E+00  0.00000000E+00  0.00000000E+00  2.04400000E+00  0.00000000E+00
Nuclear GFac                               R   N=           5
  2.79284600E+00  0.00000000E+00  0.00000000E+00  4.03761000E-01  0.00000000E+00
MicOpt                                     I   N=           5
          -1          -1          -1          -1          -1
Number of residues                         I                0
Number of secondary structures             I                0
SymInf integers                            I   N=          26
           1           2           1           1           1           1
           1          -1           0           0           0           0
           0           0           0           0           0           0
           0           0           0           0           0           0
           0           0
RotTr to input orientation                 R   N=          12
 -9.90148440E-01 -8.46553422E-16 -1.40021664E-01  1.40021664E-01  7.83808632E-16
 -9.90148440E-01  9.47963740E-16 -1.00000000E+00 -6.57551076E-16  2.54281496E+00
  0.00000000E+00  3.48475962E+00
Number of contracted shells                I               65
Number of primitive shells                 I              119
Pure/Cartesian d shells                    I                0
Pure/Cartesian f shells                    I                0
Highest angular momentum                   I                3
Largest degree of contraction              I                7
Shell types                                I   N=          65
           0           0           0           0           1           1
           1          -2          -2           0           0           0
           0           0           1           1           1           1
          -2          -2          -2          -3          -3           0
           0           0           0           0           1           1
           1           1          -2          -2          -2          -3
          -3           0           0           0           0           0
           1           1           1           1          -2          -2
          -2          -3          -3           0           0           0
           0           0           1           1           1           1
          -2          -2          -2          -3          -3
Number of primitives per shell             I   N=          65
           3           1           1           1           1           1
           1           1           1           7           6           1
           1           1           3           1           1           1
           1           1           1           1           1           7
           6           1           1           1           3           1
           1           1           1           1           1           1
           1           7           6           1           1           1
           3           1           1           1           1           1
           1           1           1           7           6           1
           1           1           3           1           1           1
           1           1           1           1           1
Shell to atom map                          I   N=          65
           1           1           1           1           1           1
           1           1           1           2           2           2
           2           2           2           2           2           2
           2           2           2           2           2           3
           3           3           3           3           3           3
           3           3           3           3           3           3
           3           4           4           4           4           4
           4           4           4           4           4           4
           4           4           4           5           5           5
           5           5           5           5           5           5
           5           5           5           5           5
Primitive exponents                        R   N=         119
  3.38700000E+01  5.09500000E+00  1.15900000E+00  3.25800000E-01  1.02700000E-01
  2.52600000E-02  1.40700000E+00  3.88000000E-01  1.02000000E-01  1.05700000E+00
  2.47000000E-01  1.53300000E+04  2.29900000E+03  5.22400000E+02  1.47300000E+02
  4.75500000E+01  1.67600000E+01  6.20700000E+00  5.22400000E+02  1.47300000E+02
  4.75500000E+01  1.67600000E+01  6.20700000E+00  6.88200000E-01  1.75200000E+00
  2.38400000E-01  7.37600000E-02  3.44600000E+01  7.74900000E+00  2.28000000E+00
  7.15600000E-01  2.14000000E-01  5.97400000E-02  2.31400000E+00  6.45000000E-01
  2.14000000E-01  1.42800000E+00  5.00000000E-01  1.53300000E+04  2.29900000E+03
  5.22400000E+02  1.47300000E+02  4.75500000E+01  1.67600000E+01  6.20700000E+00
  5.22400000E+02  1.47300000E+02  4.75500000E+01  1.67600000E+01  6.20700000E+00
  6.88200000E-01  1.75200000E+00  2.38400000E-01  7.37600000E-02  3.44600000E+01
  7.74900000E+00  2.28000000E+00  7.15600000E-01  2.14000000E-01  5.97400000E-02
  2.31400000E+00  6.45000000E-01  2.14000000E-01  1.42800000E+00  5.00000000E-01
  1.14200000E+04  1.71200000E+03  3.89300000E+02  1.10000000E+02  3.55700000E+01
  1.25400000E+01  4.64400000E+00  3.89300000E+02  1.10000000E+02  3.55700000E+01
  1.25400000E+01  4.64400000E+00  5.11800000E-01  1.29300000E+00  1.78700000E-01
  5.76000000E-02  2.66300000E+01  5.94800000E+00  1.74200000E+00  5.55000000E-01
  1.72500000E-01  4.91000000E-02  1.65400000E+00  4.69000000E-01  1.51000000E-01
  1.09300000E+00  3.64000000E-01  1.53300000E+04  2.29900000E+03  5.22400000E+02
  1.47300000E+02  4.75500000E+01  1.67600000E+01  6.20700000E+00  5.22400000E+02
  1.47300000E+02  4.75500000E+01  1.67600000E+01  6.20700000E+00  6.88200000E-01
  1.75200000E+00  2.38400000E-01  7.37600000E-02  3.44600000E+01  7.74900000E+00
  2.28000000E+00  7.15600000E-01  2.14000000E-01  5.97400000E-02  2.31400000E+00
  6.45000000E-01  2.14000000E-01  1.42800000E+00  5.00000000E-01
Contraction coefficients                   R   N=         119
  2.54948632E-02  1.90362766E-01  8.52162022E-01  1.00000000E+00  1.00000000E+00
  1.00000000E+00  1.00000000E+00  1.00000000E+00  1.00000000E+00  1.00000000E+00
  1.00000000E+00  5.19808943E-04  4.02025621E-03  2.07128267E-02  8.10105536E-02
  2.35962985E-01  4.42653446E-01  3.57064423E-01 -4.42115008E-05 -1.22591041E-03
 -1.05517725E-02 -6.74452633E-02 -1.71198607E-01  1.07329856E+00  1.00000000E+00
  1.00000000E+00  1.00000000E+00  4.11634896E-02  2.57762836E-01  8.02419274E-01
  1.00000000E+00  1.00000000E+00  1.00000000E+00  1.00000000E+00  1.00000000E+00
  1.00000000E+00  1.00000000E+00  1.00000000E+00  5.19808943E-04  4.02025621E-03
  2.07128267E-02  8.10105536E-02  2.35962985E-01  4.42653446E-01  3.57064423E-01
 -4.42115008E-05 -1.22591041E-03 -1.05517725E-02 -6.74452633E-02 -1.71198607E-01
  1.07329856E+00  1.00000000E+00  1.00000000E+00  1.00000000E+00  4.11634896E-02
  2.57762836E-01  8.02419274E-01  1.00000000E+00  1.00000000E+00  1.00000000E+00
  1.00000000E+00  1.00000000E+00  1.00000000E+00  1.00000000E+00  1.00000000E+00
  5.34563860E-04  4.13435660E-03  2.12335358E-02  8.25006224E-02  2.38138871E-01
  4.42551547E-01  3.53757422E-01 -4.89867350E-05 -1.19527323E-03 -1.03490714E-02
 -6.48680190E-02 -1.71552477E-01  1.07289568E+00  1.00000000E+00  1.00000000E+00
  1.00000000E+00  3.98072123E-02  2.49002660E-01  8.10479727E-01  1.00000000E+00
  1.00000000E+00  1.00000000E+00  1.00000000E+00  1.00000000E+00  1.00000000E+00
  1.00000000E+00  1.00000000E+00  5.19808943E-04  4.02025621E-03  2.07128267E-02
  8.10105536E-02  2.35962985E-01  4.42653446E-01  3.57064423E-01 -4.42115008E-05
 -1.22591041E-03 -1.05517725E-02 -6.74452633E-02 -1.71198607E-01  1.07329856E+00
  1.00000000E+00  1.00000000E+00  1.00000000E+00  4.11634896E-02  2.57762836E-01
  8.02419274E-01  1.00000000E+00  1.00000000E+00  1.00000000E+00  1.00000000E+00
  1.00000000E+00  1.00000000E+00  1.00000000E+00  1.00000000E+00
Coordinates of each shell                  R   N=         195
  3.00570611E+00  3.09438012E+00 -2.21156053E-31  3.00570611E+00  3.09438012E+00
 -2.21156053E-31  3.00570611E+00  3.09438012E+00 -2.21156053E-31  3.00570611E+00
  3.09438012E+00 -2.21156053E-31  3.00570611E+00  3.09438012E+00 -2.21156053E-31
  3.00570611E+00  3.09438012E+00 -2.21156053E-31  3.00570611E+00  3.09438012E+00
 -2.21156053E-31  3.00570611E+00  3.09438012E+00 -2.21156053E-31  3.00570611E+00
  3.09438012E+00 -2.21156053E-31  2.74931266E+00  1.28132087E+00 -5.05540106E-31
  2.74931266E+00  1.28132087E+00 -5.05540106E-31  2.74931266E+00  1.28132087E+00
 -5.05540106E-31  2.74931266E+00  1.28132087E+00 -5.05540106E-31  2.74931266E+00
  1.28132087E+00 -5.05540106E-31  2.74931266E+00  1.28132087E+00 -5.05540106E-31
  2.74931266E+00  1.28132087E+00 -5.05540106E-31  2.74931266E+00  1.28132087E+00
 -5.05540106E-31  2.74931266E+00  1.28132087E+00 -5.05540106E-31  2.74931266E+00
  1.28132087E+00 -5.05540106E-31  2.74931266E+00  1.28132087E+00 -5.05540106E-31
  2.74931266E+00  1.28132087E+00 -5.05540106E-31  2.74931266E+00  1.28132087E+00
 -5.05540106E-31  2.74931266E+00  1.28132087E+00 -5.05540106E-31  8.07598011E-18
  1.30311355E+00  2.55094992E-31  8.07598011E-18  1.30311355E+00  2.55094992E-31
  8.07598011E-18  1.30311355E+00  2.55094992E-31  8.07598011E-18  1.30311355E+00
  2.55094992E-31  8.07598011E-18  1.30311355E+00  2.55094992E-31  8.07598011E-18
  1.30311355E+00  2.55094992E-31  8.07598011E-18  1.30311355E+00  2.55094992E-31
  8.07598011E-18  1.30311355E+00  2.55094992E-31  8.07598011E-18  1.30311355E+00
  2.55094992E-31  8.07598011E-18  1.30311355E+00  2.55094992E-31  8.07598011E-18
  1.30311355E+00  2.55094992E-31  8.07598011E-18  1.30311355E+00  2.55094992E-31
  8.07598011E-18  1.30311355E+00  2.55094992E-31  8.07598011E-18  1.30311355E+00
  2.55094992E-31 -5.00078794E-01 -1.40785104E+00 -1.38020505E-31 -5.00078794E-01
 -1.40785104E+00 -1.38020505E-31 -5.00078794E-01 -1.40785104E+00 -1.38020505E-31
 -5.00078794E-01 -1.40785104E+00 -1.38020505E-31 -5.00078794E-01 -1.40785104E+00
 -1.38020505E-31 -5.00078794E-01 -1.40785104E+00 -1.38020505E-31 -5.00078794E-01
 -1.40785104E+00 -1.38020505E-31 -5.00078794E-01 -1.40785104E+00 -1.38020505E-31
 -5.00078794E-01 -1.40785104E+00 -1.38020505E-31 -5.00078794E-01 -1.40785104E+00
 -1.38020505E-31 -5.00078794E-01 -1.40785104E+00 -1.38020505E-31 -5.00078794E-01
 -1.40785104E+00 -1.38020505E-31 -5.00078794E-01 -1.40785104E+00 -1.38020505E-31
 -5.00078794E-01 -1.40785104E+00 -1.38020505E-31 -2.68745698E+00 -1.73936227E+00
  3.98857563E-31 -2.68745698E+00 -1.73936227E+00  3.98857563E-31 -2.68745698E+00
 -1.73936227E+00  3.98857563E-31 -2.68745698E+00 -1.73936227E+00  3.98857563E-31
 -2.68745698E+00 -1.73936227E+00  3.98857563E-31 -2.68745698E+00 -1.73936227E+00
  3.98857563E-31 -2.68745698E+00 -1.73936227E+00  3.98857563E-31 -2.68745698E+00
 -1.73936227E+00  3.98857563E-31 -2.68745698E+00 -1.73936227E+00  3.98857563E-31
 -2.68745698E+00 -1.73936227E+00  3.98857563E-31 -2.68745698E+00 -1.73936227E+00
  3.98857563E-31 -2.68745698E+00 -1.73936227E+00  3.98857563E-31 -2.68745698E+00
 -1.73936227E+00  3.98857563E-31 -2.68745698E+00 -1.73936227E+00  3.98857563E-31
Num ILSW                                   I              100
ILSW                                       I   N=         100
           0           0           0           0           2           0
           0           0           0           0           0          -1
           5           0           0           0           2           0
           0           0           0           0           1           0
           1           0           0           0           0           0
           0           0      100000           0          -1           0
           0           0           0           0           0           0
           0           0           0           1           1           0
           0 -2000000000           1           0           0           0
           0           0           4          52           0           0
           0           0           0           0           0           0
           0           0           0           5           4           1
           0           0           0           0           0           0
           0           0           0           0           0           0
           0           0           0           0           0           0
           0           0           0           0           0           0
           0           0           0           0
Num RLSW                                   I               52
RLSW                                       R   N=          52
  1.00000000E+00  1.00000000E+00  1.00000000E+00  1.00000000E+00  1.00000000E+00
  0.00000000E+00  0.00000000E+00  1.00000000E+00  0.00000000E+00  0.00000000E+00
  0.00000000E+00  0.00000000E+00  1.00000000E+00  0.00000000E+00  0.00000000E+00
  0.00000000E+00  0.00000000E+00  1.00000000E+00  0.00000000E+00  0.00000000E+00
  0.00000000E+00  0.00000000E+00  1.00000000E+00  0.00000000E+00  0.00000000E+00
  0.00000000E+00  0.00000000E+00  1.00000000E+00  0.00000000E+00  0.00000000E+00
  0.00000000E+00  0.00000000E+00  1.00000000E+00  0.00000000E+00  0.00000000E+00
  0.00000000E+00  0.00000000E+00  0.00000000E+00  1.00000000E+00  1.00000000E+00
  0.00000000E+00  1.00000000E+00  0.00000000E+00  0.00000000E+00  0.00000000E+00
  0.00000000E+00  0.00000000E+00  0.00000000E+00  0.00000000E+00  0.00000000E+00
  0.00000000E+00  0.00000000E+00
MxBond                                     I                2
NBond                                      I   N=           5
           1           2           2           2           1
IBond                                      I   N=          10
           2           0           1           3           2           4
           3           5           4           0
RBond                                      R   N=          10
  1.00000000E+00  0.00000000E+00  1.00000000E+00  1.00000000E+00  1.00000000E+00
  1.00000000E+00  1.00000000E+00  2.00000000E+00  2.00000000E+00  0.00000000E+00
Virial Ratio                               R      2.002299925205725E+00
SCF Energy                                 R     -2.795012136648555E+02
MP2 Energy                                 R     -2.804465004846682E+02
Total Energy                               R     -2.804465004846682E+02
Post-SCF wavefunction norm                 R      1.584247748191778E+00
RMS Force                                  R      2.364347387572565E-03
RMS Density                                R      3.774001861795348E-09
NImag                                      I                1
Job Status                                 I                1
Nuclear derivative order                   I                2
External E-field                           R   N=          35
  0.00000000E+00  0.00000000E+00  0.00000000E+00  0.00000000E+00  0.00000000E+00
  0.00000000E+00  0.00000000E+00  0.00000000E+00  0.00000000E+00  0.00000000E+00
  0.00000000E+00  0.00000000E+00  0.00000000E+00  0.00000000E+00  0.00000000E+00
  0.00000000E+00  0.00000000E+00  0.00000000E+00  0.00000000E+00  0.00000000E+00
  0.00000000E+00  0.00000000E+00  0.00000000E+00  0.00000000E+00  0.00000000E+00
  0.00000000E+00  0.00000000E+00  0.00000000E+00  0.00000000E+00  0.00000000E+00
  0.00000000E+00  0.00000000E+00  0.00000000E+00  0.00000000E+00  0.00000000E+00
IOpCl                                      I                0
IROHF                                      I                0
Alpha Orbital Energies                     R   N=         207
 -2.06914116E+01 -2.06837821E+01 -2.06591985E+01 -1.58121302E+01 -1.62412578E+00
 -1.49641262E+00 -1.25325213E+00 -9.48563951E-01 -7.74637748E-01 -7.58204622E-01
 -7.12137928E-01 -6.75667542E-01 -6.19803163E-01 -5.91106928E-01 -4.85396782E-01
 -4.72971828E-01  2.96158315E-02  7.19558311E-02  8.59013964E-02  1.01098354E-01
  1.34150629E-01  1.34211083E-01  1.44356639E-01  1.55225809E-01  1.78152087E-01
  1.93874594E-01  1.99589101E-01  2.06343237E-01  2.21194710E-01  2.35546485E-01
  2.37581631E-01  2.64499058E-01  2.93014253E-01  3.05199692E-01  3.10095121E-01
  3.42928925E-01  3.50476984E-01  3.88285878E-01  4.21101731E-01  4.30238069E-01
  5.26980130E-01  5.30929657E-01  5.61721570E-01  5.85194330E-01  6.26273230E-01
  6.36346674E-01  6.74062636E-01  6.84271585E-01  7.05026580E-01  7.12822726E-01
  7.23633779E-01  7.30743312E-01  7.44768999E-01  7.88983628E-01  7.91836514E-01
  8.09225652E-01  8.13060946E-01  8.32808204E-01  8.68261423E-01  9.06936326E-01
  9.23261305E-01  9.25618510E-01  9.60214167E-01  9.85775607E-01  9.86658653E-01
  1.01656698E+00  1.05307191E+00  1.05359930E+00  1.08881355E+00  1.12327105E+00
  1.14548040E+00  1.18711334E+00  1.22291321E+00  1.23060819E+00  1.33698021E+00
  1.34863014E+00  1.38888458E+00  1.45211668E+00  1.48742776E+00  1.50870869E+00
  1.54091247E+00  1.56900212E+00  1.58132468E+00  1.61698491E+00  1.66420259E+00
  1.67145088E+00  1.70320237E+00  1.79171451E+00  1.82637237E+00  1.83191559E+00
  1.88037113E+00  1.91372153E+00  1.96010930E+00  1.99429975E+00  2.00656993E+00
  2.07631254E+00  2.11577320E+00  2.13037828E+00  2.15071862E+00  2.22511851E+00
  2.26338368E+00  2.26565034E+00  2.28718218E+00  2.31890503E+00  2.35701074E+00
  2.38907549E+00  2.42832088E+00  2.42869427E+00  2.45310910E+00  2.46509394E+00
  2.47739251E+00  2.51033966E+00  2.58993817E+00  2.59393565E+00  2.61746829E+00
  2.62882825E+00  2.62961411E+00  2.67208062E+00  2.76420818E+00  2.83401677E+00
  2.87099864E+00  2.89392986E+00  2.89952279E+00  2.92240123E+00  2.95593907E+00
  3.03880041E+00  3.07445447E+00  3.12774084E+00  3.20801235E+00  3.23502433E+00
  3.31419355E+00  3.32971917E+00  3.50003588E+00  3.65714084E+00  3.84101328E+00
  3.84451937E+00  4.15173051E+00  4.16166372E+00  4.18642236E+00  4.26388278E+00
  4.34489196E+00  4.39798258E+00  4.46434811E+00  4.51716717E+00  4.67629269E+00
  4.71206252E+00  4.81121687E+00  4.82217762E+00  4.83189449E+00  4.89793724E+00
  5.02103994E+00  5.07681227E+00  5.09903262E+00  5.13857153E+00  5.18722354E+00
  5.24933264E+00  5.27079710E+00  5.30837489E+00  5.33639089E+00  5.36904634E+00
  5.62457688E+00  5.67411697E+00  5.77344014E+00  5.82950983E+00  5.95754182E+00
  6.17703575E+00  6.30874285E+00  6.33570863E+00  6.39245256E+00  6.49259881E+00
  6.50353813E+00  6.61821413E+00  6.66367552E+00  6.69675353E+00  6.76373902E+00
  6.76523393E+00  6.83510206E+00  6.89518394E+00  7.00768033E+00  7.04935625E+00
  7.05827248E+00  7.09047600E+00  7.12728411E+00  7.15367671E+00  7.18363825E+00
  7.22137097E+00  7.24504833E+00  7.31210784E+00  7.32437336E+00  7.36045501E+00
  7.40442042E+00  7.42803447E+00  7.48854390E+00  7.60059620E+00  7.61733869E+00
  7.63880365E+00  7.67255089E+00  7.79806310E+00  7.89914191E+00  8.08427722E+00
  8.31638336E+00  8.40949720E+00  8.54327036E+00  1.34101583E+01  1.43473354E+01
  1.51906044E+01  1.61579933E+01
Alpha MO coefficients                      R   N=       42849
  9.03660701E-05 -5.98639130E-04 -7.04122155E-04 -2.07847727E-06 -1.98526529E-05
 -2.66562003E-05  0.00000000E+00 -4.90868195E-05  4.93669637E-05  0.00000000E+00
  7.86719003E-05  2.88176533E-05  0.00000000E+00  3.09154412E-05  0.00000000E+00
  0.00000000E+00 -4.81567646E-05  2.53382451E-05 -5.89772415E-06  0.00000000E+00
  0.00000000E+00 -1.24152136E-04  1.27742354E-04  4.39921987E-03 -2.83487384E-04
  9.65940712E-06  1.45310869E-03  1.79770477E-03  1.04327496E-04  3.21167755E-06
  0.00000000E+00 -6.02569738E-04 -1.12859540E-05  0.00000000E+00 -1.02633826E-03
  7.99359993E-04  0.00000000E+00 -3.92731104E-04  7.88037797E-05  0.00000000E+00
  2.89537960E-05  0.00000000E+00  0.00000000E+00 -5.32227496E-05  1.01570072E-05
 -3.73884910E-04  0.00000000E+00  0.00000000E+00  7.29560317E-04 -9.52655132E-05
 -4.41257424E-04  0.00000000E+00  0.00000000E+00  2.29582756E-04 -2.72405442E-05
  0.00000000E+00  7.96561101E-05  9.19508267E-06  0.00000000E+00  0.00000000E+00
 -1.10011706E-04  1.01310611E-05  0.00000000E+00  2.55915573E-04 -3.60057540E-05
  0.00000000E+00  0.00000000E+00 -3.35874156E-04  9.36525943E-05  9.76913349E-01
 -9.23077681E-03  4.33116018E-02  2.12494217E-03 -9.10983463E-04  1.46166052E-03
 -1.39017027E-03  0.00000000E+00 -1.41513826E-03  1.43119711E-03  0.00000000E+00
  1.06062164E-04 -1.15451115E-03  0.00000000E+00 -1.27405061E-04 -9.85423095E-06
  0.00000000E+00  4.95494644E-05  0.00000000E+00  0.00000000E+00 -3.60279490E-05
  1.70501384E-05  7.38557417E-04  0.00000000E+00  0.00000000E+00 -2.39378976E-04
 -3.29601029E-04 -3.62203610E-04  0.00000000E+00  0.00000000E+00 -3.19402131E-04
 -3.72225309E-04  0.00000000E+00  4.74306579E-05 -5.09085219E-05  0.00000000E+00
  0.00000000E+00 -3.92920895E-05 -1.19128104E-05  0.00000000E+00  2.13795436E-05
  2.06348503E-05  0.00000000E+00  0.00000000E+00 -3.00133470E-04 -1.09312361E-04
  3.75949448E-05  3.84819530E-05 -2.60899972E-04 -7.38244243E-04 -1.47921566E-04
 -2.63231293E-05 -9.58167563E-05  0.00000000E+00  2.51869098E-04  6.84704091E-04
  0.00000000E+00 -7.99017897E-04 -4.74258201E-04  0.00000000E+00 -1.30588463E-04
 -2.85155531E-05  0.00000000E+00 -1.73415038E-05  0.00000000E+00  0.00000000E+00
 -2.79653952E-05  1.49597979E-05 -3.27264651E-04  0.00000000E+00  0.00000000E+00
 -8.19999162E-04  1.27563488E-04 -3.71558893E-05  0.00000000E+00  0.00000000E+00
  8.99809224E-05 -1.08433769E-04  0.00000000E+00 -1.97989581E-05 -1.19372283E-04
  0.00000000E+00  0.00000000E+00 -6.64219524E-05 -1.37959860E-04  0.00000000E+00
 -5.60623877E-06 -1.60142766E-04  0.00000000E+00  0.00000000E+00  4.36749606E-05
 -4.03372709E-04 -2.26023641E-03  1.18638054E-04 -1.07316290E-04 -2.16394081E-04
  1.42266636E-04 -7.17608407E-06 -2.61345571E-05  0.00000000E+00  6.69939942E-05
  1.52852641E-04  0.00000000E+00  2.31395427E-04  2.11157313E-04  0.00000000E+00
  1.28146653E-04  3.03278805E-05  0.00000000E+00 -3.03128291E-06  0.00000000E+00
  0.00000000E+00 -1.77290201E-05  1.29706510E-06  1.66884883E-06  0.00000000E+00
  0.00000000E+00  7.71385067E-05  8.31790755E-05 -9.83928036E-05  0.00000000E+00
  0.00000000E+00  1.56816040E-04  1.66021363E-04  0.00000000E+00  1.60742225E-05
 -3.23716510E-06  0.00000000E+00  0.00000000E+00 -4.04547082E-06 -1.23429329E-05
  0.00000000E+00 -3.29762289E-05  4.46129138E-05  0.00000000E+00  0.00000000E+00
  7.88522547E-05  8.93619839E-05  4.27077051E-05 -9.99402820E-04 -4.62197108E-04
 -1.32891606E-05 -2.17832605E-05  1.50160841E-05  0.00000000E+00  8.15101267E-06
  2.67986948E-04  0.00000000E+00 -5.25438101E-05  1.25798794E-04  0.00000000E+00
  2.67324745E-05  0.00000000E+00  0.00000000E+00  1.05118466E-05  9.51075786E-06
 -3.43308903E-05  0.00000000E+00  0.00000000E+00  1.69960040E-05  4.03392624E-05
  1.11801526E-04  9.98034180E-05 -2.83925878E-05  6.94329054E-04  5.60859087E-04
  1.02849817E-05  2.13598335E-06  0.00000000E+00 -7.91504001E-05  1.20696109E-05
  0.00000000E+00  4.28553683E-04  9.64540454E-04  0.00000000E+00  3.43261859E-05
  9.50292062E-05  0.00000000E+00 -3.13866448E-06  0.00000000E+00  0.00000000E+00
 -1.87807077E-07 -3.22514272E-06 -3.17723497E-05  0.00000000E+00  0.00000000E+00
 -1.05046205E-05  6.92843300E-05 -1.49383056E-05  0.00000000E+00  0.00000000E+00
 -2.88205965E-04 -1.81896177E-04  0.00000000E+00  9.09190497E-06  6.09972432E-06
  0.00000000E+00  0.00000000E+00  2.39565189E-06 -1.78607075E-05  0.00000000E+00
 -4.33301772E-05 -4.06556598E-05  0.00000000E+00  0.00000000E+00 -8.15844680E-05
  4.29792692E-05  2.29850667E-03  4.00472430E-05  7.79665899E-05 -7.27562846E-05
 -4.41750522E-04  7.23194051E-06  1.56008661E-05  0.00000000E+00 -6.28143719E-05
 -5.08876066E-05  0.00000000E+00  2.37635515E-04 -2.33773621E-04  0.00000000E+00
 -1.65330082E-04 -5.79383725E-05  0.00000000E+00 -8.75036793E-06  0.00000000E+00
  0.00000000E+00  2.22459682E-05  2.08002157E-05  5.15892663E-06  0.00000000E+00
  0.00000000E+00 -1.16945269E-04 -5.07675899E-05 -8.26348953E-06  0.00000000E+00
  0.00000000E+00 -2.24833801E-04 -2.34535001E-04  0.00000000E+00  3.17608758E-06
 -1.67896476E-06  0.00000000E+00  0.00000000E+00  1.65816053E-06 -1.22038542E-05
  0.00000000E+00 -4.57667920E-05  8.28054789E-06  0.00000000E+00  0.00000000E+00
 -7.42025231E-05  1.76461663E-04  2.58582966E-04  1.46371672E-03 -7.79511748E-05
 -1.50806164E-03  4.46074122E-04 -1.44092002E-04  7.22580766E-07  0.00000000E+00
 -2.10484952E-03 -4.06142633E-04  0.00000000E+00  1.11517662E-03  8.05998983E-04
  0.00000000E+00 -1.71345933E-04  6.35241067E-05  0.00000000E+00 -1.23022456E-04
  0.00000000E+00  0.00000000E+00  2.43509729E-04  9.19502274E-05 -4.45747241E-04
  0.00000000E+00  0.00000000E+00  8.99926247E-04 -6.13621214E-05  7.11257094E-06
  0.00000000E+00  0.00000000E+00 -3.49374671E-04 -1.08067968E-04  0.00000000E+00
  2.32444229E-07  1.60713524E-05  0.00000000E+00  0.00000000E+00  1.71211188E-05
  1.06316979E-05  0.00000000E+00  1.54764133E-04 -7.61136004E-05  0.00000000E+00
  0.00000000E+00 -2.37888921E-04  5.44433178E-05  9.76649579E-01 -9.84394674E-03
  4.35716163E-02  4.53219503E-03 -4.58100048E-04  2.14701286E-03  4.71753544E-04
  0.00000000E+00 -2.38469784E-03 -5.97277553E-04  0.00000000E+00  1.12708804E-03
 -1.07130682E-05  0.00000000E+00  4.48139861E-07 -3.87416853E-05  0.00000000E+00
 -2.33242878E-04  0.00000000E+00  0.00000000E+00  1.02436942E-04  3.23760509E-05
  3.91161219E-04  0.00000000E+00  0.00000000E+00 -8.40144565E-04 -4.15777904E-04
 -1.46386157E-04  0.00000000E+00  0.00000000E+00  2.47623684E-04  9.11240345E-06
  0.00000000E+00  5.22720846E-05  1.72308185E-05  0.00000000E+00  0.00000000E+00
 -2.28491891E-05 -1.27437697E-05  0.00000000E+00  1.40123129E-04  1.00217900E-05
  0.00000000E+00  0.00000000E+00 -1.91942214E-04 -1.40041544E-04  4.80702702E-04
  2.20034014E-03  1.64452284E-04  1.47666400E-05 -4.94134652E-05 -2.50105660E-04
  0.00000000E+00  4.75128303E-05 -1.32043138E-03  0.00000000E+00  2.54474450E-04
 -3.70514188E-04  0.00000000E+00 -4.41895240E-06  0.00000000E+00  0.00000000E+00
  7.43999123E-05  6.75123356E-06 -1.57935762E-04  0.00000000E+00  0.00000000E+00
 -5.38592324E-04  2.55932796E-05  9.76828390E-01 -9.16845651E-03  4.34553852E-02
  5.46037277E-05 -1.04836404E-03 -1.48839839E-03  1.51452226E-03  0.00000000E+00
  1.50543387E-03 -1.36119105E-03  0.00000000E+00 -6.22328814E-04 -1.01684432E-03
  0.00000000E+00  5.38895257E-05  7.23925923E-06  0.00000000E+00  2.80343768E-05
  0.00000000E+00  0.00000000E+00 -1.19600171E-04  1.05046924E-05  7.65387207E-04
  0.00000000E+00  0.00000000E+00 -2.04014913E-04 -2.23321321E-04 -2.63165052E-04
  0.00000000E+00  0.00000000E+00  1.86672845E-04  1.60807506E-04  0.00000000E+00
 -6.32289517E-05  2.16770361E-06  0.00000000E+00  0.00000000E+00  1.74299124E-05