title                                                                   
Freq      RMP2-FC                                                     Aug-CC-pVTZ         
Number of atoms                            I                5
Info1-9                                    I   N=           9
          33          24           0           0           0         100
           6           2           1
Full Title                                 C   N=           1
title       
Route                                      C   N=           4
#p freq mp2/aug-cc-pvtz density=current         
Charge                                     I                0
Multiplicity                               I                1
Number of electrons                        I               32
Number of alpha electrons                  I               16
Number of beta electrons                   I               16
Number of basis functions                  I              207
Number of independent functions            I              207
Number of point charges in /Mol/           I                0
Number of translation vectors              I                0
Atomic numbers                             I   N=           5
           1           8           8           7           8
Nuclear charges                            R   N=           5
  1.00000000E+00  8.00000000E+00  8.00000000E+00  7.00000000E+00  8.00000000E+00
Current cartesian coordinates              R   N=          15
  2.84423399E+00  3.19982829E+00  2.47214733E-32  2.74759195E+00  1.37128194E+00
 -3.34028561E-31 -6.67334355E-17  1.27161488E+00 -7.72454279E-33 -4.89120234E-01
 -1.44134830E+00 -1.77846693E-31 -2.67514099E+00 -1.78169559E+00 -8.28319191E-33
Number of symbols in /Mol/                 I                0
Force Field                                I                0
Atom Types                                 C   N=           5
                                                            
Int Atom Types                             I   N=           5
           0           0           0           0           0
MM charges                                 R   N=           5
  0.00000000E+00  0.00000000E+00  0.00000000E+00  0.00000000E+00  0.00000000E+00
Integer atomic weights                     I   N=           5
           1          16          16          14          16
Real atomic weights                        R   N=           5
  1.00782504E+00  1.59949146E+01  1.59949146E+01  1.40030740E+01  1.59949146E+01
Atom fragment info                         I   N=           5
           0           0           0           0           0
Atom residue num                           I   N=           5
           0           0           0           0           0
Nuclear spins                              I   N=           5
           1           0           0           2           0
Nuclear ZEff                               R   N=           5
 -1.00000000E+00 -5.60000000E+00 -5.60000000E+00 -4.55000000E+00 -5.60000000E+00
Nuclear ZNuc                               R   N=           5
  1.00000000E+00  8.00000000E+00  8.00000000E+00  7.00000000E+00  8.00000000E+00
Nuclear QMom                               R   N=           5
  0.00000000E+00  0.00000000E+00  0.00000000E+00  2.04400000E+00  0.00000000E+00
Nuclear GFac                               R   N=           5
  2.79284600E+00  0.00000000E+00  0.00000000E+00  4.03761000E-01  0.00000000E+00
MicOpt                                     I   N=           5
          -1          -1          -1          -1          -1
Number of residues                         I                0
Number of secondary structures             I                0
SymInf integers                            I   N=          26
           1           2           1           1           1           1
           1          -1           0           0           0           0
           0           0           0           0           0           0
           0           0           0           0           0           0
           0           0
RotTr to input orientation                 R   N=          12
 -9.98606261E-01  6.88751455E-16 -5.27781810E-02  5.27781810E-02 -6.94874970E-16
 -9.98606261E-01 -7.24465752E-16 -1.00000000E+00  6.57555447E-16  2.67138875E+00
  0.00000000E+00  3.34548206E+00
Number of contracted shells                I               65
Number of primitive shells                 I              119
Pure/Cartesian d shells                    I                0
Pure/Cartesian f shells                    I                0
Highest angular momentum                   I                3
Largest degree of contraction              I                7
Shell types                                I   N=          65
           0           0           0           0           1           1
           1          -2          -2           0           0           0
           0           0           1           1           1           1
          -2          -2          -2          -3          -3           0
           0           0           0           0           1           1
           1           1          -2          -2          -2          -3
          -3           0           0           0           0           0
           1           1           1           1          -2          -2
          -2          -3          -3           0           0           0
           0           0           1           1           1           1
          -2          -2          -2          -3          -3
Number of primitives per shell             I   N=          65
           3           1           1           1           1           1
           1           1           1           7           6           1
           1           1           3           1           1           1
           1           1           1           1           1           7
           6           1           1           1           3           1
           1           1           1           1           1           1
           1           7           6           1           1           1
           3           1           1           1           1           1
           1           1           1           7           6           1
           1           1           3           1           1           1
           1           1           1           1           1
Shell to atom map                          I   N=          65
           1           1           1           1           1           1
           1           1           1           2           2           2
           2           2           2           2           2           2
           2           2           2           2           2           3
           3           3           3           3           3           3
           3           3           3           3           3           3
           3           4           4           4           4           4
           4           4           4           4           4           4
           4           4           4           5           5           5
           5           5           5           5           5           5
           5           5           5           5           5
Primitive exponents                        R   N=         119
  3.38700000E+01  5.09500000E+00  1.15900000E+00  3.25800000E-01  1.02700000E-01
  2.52600000E-02  1.40700000E+00  3.88000000E-01  1.02000000E-01  1.05700000E+00
  2.47000000E-01  1.53300000E+04  2.29900000E+03  5.22400000E+02  1.47300000E+02
  4.75500000E+01  1.67600000E+01  6.20700000E+00  5.22400000E+02  1.47300000E+02
  4.75500000E+01  1.67600000E+01  6.20700000E+00  6.88200000E-01  1.75200000E+00
  2.38400000E-01  7.37600000E-02  3.44600000E+01  7.74900000E+00  2.28000000E+00
  7.15600000E-01  2.14000000E-01  5.97400000E-02  2.31400000E+00  6.45000000E-01
  2.14000000E-01  1.42800000E+00  5.00000000E-01  1.53300000E+04  2.29900000E+03
  5.22400000E+02  1.47300000E+02  4.75500000E+01  1.67600000E+01  6.20700000E+00
  5.22400000E+02  1.47300000E+02  4.75500000E+01  1.67600000E+01  6.20700000E+00
  6.88200000E-01  1.75200000E+00  2.38400000E-01  7.37600000E-02  3.44600000E+01
  7.74900000E+00  2.28000000E+00  7.15600000E-01  2.14000000E-01  5.97400000E-02
  2.31400000E+00  6.45000000E-01  2.14000000E-01  1.42800000E+00  5.00000000E-01
  1.14200000E+04  1.71200000E+03  3.89300000E+02  1.10000000E+02  3.55700000E+01
  1.25400000E+01  4.64400000E+00  3.89300000E+02  1.10000000E+02  3.55700000E+01
  1.25400000E+01  4.64400000E+00  5.11800000E-01  1.29300000E+00  1.78700000E-01
  5.76000000E-02  2.66300000E+01  5.94800000E+00  1.74200000E+00  5.55000000E-01
  1.72500000E-01  4.91000000E-02  1.65400000E+00  4.69000000E-01  1.51000000E-01
  1.09300000E+00  3.64000000E-01  1.53300000E+04  2.29900000E+03  5.22400000E+02
  1.47300000E+02  4.75500000E+01  1.67600000E+01  6.20700000E+00  5.22400000E+02
  1.47300000E+02  4.75500000E+01  1.67600000E+01  6.20700000E+00  6.88200000E-01
  1.75200000E+00  2.38400000E-01  7.37600000E-02  3.44600000E+01  7.74900000E+00
  2.28000000E+00  7.15600000E-01  2.14000000E-01  5.97400000E-02  2.31400000E+00
  6.45000000E-01  2.14000000E-01  1.42800000E+00  5.00000000E-01
Contraction coefficients                   R   N=         119
  2.54948632E-02  1.90362766E-01  8.52162022E-01  1.00000000E+00  1.00000000E+00
  1.00000000E+00  1.00000000E+00  1.00000000E+00  1.00000000E+00  1.00000000E+00
  1.00000000E+00  5.19808943E-04  4.02025621E-03  2.07128267E-02  8.10105536E-02
  2.35962985E-01  4.42653446E-01  3.57064423E-01 -4.42115008E-05 -1.22591041E-03
 -1.05517725E-02 -6.74452633E-02 -1.71198607E-01  1.07329856E+00  1.00000000E+00
  1.00000000E+00  1.00000000E+00  4.11634896E-02  2.57762836E-01  8.02419274E-01
  1.00000000E+00  1.00000000E+00  1.00000000E+00  1.00000000E+00  1.00000000E+00
  1.00000000E+00  1.00000000E+00  1.00000000E+00  5.19808943E-04  4.02025621E-03
  2.07128267E-02  8.10105536E-02  2.35962985E-01  4.42653446E-01  3.57064423E-01
 -4.42115008E-05 -1.22591041E-03 -1.05517725E-02 -6.74452633E-02 -1.71198607E-01
  1.07329856E+00  1.00000000E+00  1.00000000E+00  1.00000000E+00  4.11634896E-02
  2.57762836E-01  8.02419274E-01  1.00000000E+00  1.00000000E+00  1.00000000E+00
  1.00000000E+00  1.00000000E+00  1.00000000E+00  1.00000000E+00  1.00000000E+00
  5.34563860E-04  4.13435660E-03  2.12335358E-02  8.25006224E-02  2.38138871E-01
  4.42551547E-01  3.53757422E-01 -4.89867350E-05 -1.19527323E-03 -1.03490714E-02
 -6.48680190E-02 -1.71552477E-01  1.07289568E+00  1.00000000E+00  1.00000000E+00
  1.00000000E+00  3.98072123E-02  2.49002660E-01  8.10479727E-01  1.00000000E+00
  1.00000000E+00  1.00000000E+00  1.00000000E+00  1.00000000E+00  1.00000000E+00
  1.00000000E+00  1.00000000E+00  5.19808943E-04  4.02025621E-03  2.07128267E-02
  8.10105536E-02  2.35962985E-01  4.42653446E-01  3.57064423E-01 -4.42115008E-05
 -1.22591041E-03 -1.05517725E-02 -6.74452633E-02 -1.71198607E-01  1.07329856E+00
  1.00000000E+00  1.00000000E+00  1.00000000E+00  4.11634896E-02  2.57762836E-01
  8.02419274E-01  1.00000000E+00  1.00000000E+00  1.00000000E+00  1.00000000E+00
  1.00000000E+00  1.00000000E+00  1.00000000E+00  1.00000000E+00
Coordinates of each shell                  R   N=         195
  2.84423399E+00  3.19982829E+00  0.00000000E+00  2.84423399E+00  3.19982829E+00
  0.00000000E+00  2.84423399E+00  3.19982829E+00  0.00000000E+00  2.84423399E+00
  3.19982829E+00  0.00000000E+00  2.84423399E+00  3.19982829E+00  0.00000000E+00
  2.84423399E+00  3.19982829E+00  0.00000000E+00  2.84423399E+00  3.19982829E+00
  0.00000000E+00  2.84423399E+00  3.19982829E+00  0.00000000E+00  2.84423399E+00
  3.19982829E+00  0.00000000E+00  2.74759195E+00  1.37128194E+00  0.00000000E+00
  2.74759195E+00  1.37128194E+00  0.00000000E+00  2.74759195E+00  1.37128194E+00
  0.00000000E+00  2.74759195E+00  1.37128194E+00  0.00000000E+00  2.74759195E+00
  1.37128194E+00  0.00000000E+00  2.74759195E+00  1.37128194E+00  0.00000000E+00
  2.74759195E+00  1.37128194E+00  0.00000000E+00  2.74759195E+00  1.37128194E+00
  0.00000000E+00  2.74759195E+00  1.37128194E+00  0.00000000E+00  2.74759195E+00
  1.37128194E+00  0.00000000E+00  2.74759195E+00  1.37128194E+00  0.00000000E+00
  2.74759195E+00  1.37128194E+00  0.00000000E+00  2.74759195E+00  1.37128194E+00
  0.00000000E+00  2.74759195E+00  1.37128194E+00  0.00000000E+00  3.29091911E-18
  1.27161488E+00  0.00000000E+00  3.29091911E-18  1.27161488E+00  0.00000000E+00
  3.29091911E-18  1.27161488E+00  0.00000000E+00  3.29091911E-18  1.27161488E+00
  0.00000000E+00  3.29091911E-18  1.27161488E+00  0.00000000E+00  3.29091911E-18
  1.27161488E+00  0.00000000E+00  3.29091911E-18  1.27161488E+00  0.00000000E+00
  3.29091911E-18  1.27161488E+00  0.00000000E+00  3.29091911E-18  1.27161488E+00
  0.00000000E+00  3.29091911E-18  1.27161488E+00  0.00000000E+00  3.29091911E-18
  1.27161488E+00  0.00000000E+00  3.29091911E-18  1.27161488E+00  0.00000000E+00
  3.29091911E-18  1.27161488E+00  0.00000000E+00  3.29091911E-18  1.27161488E+00
  0.00000000E+00 -4.89120234E-01 -1.44134830E+00  0.00000000E+00 -4.89120234E-01
 -1.44134830E+00  0.00000000E+00 -4.89120234E-01 -1.44134830E+00  0.00000000E+00
 -4.89120234E-01 -1.44134830E+00  0.00000000E+00 -4.89120234E-01 -1.44134830E+00
  0.00000000E+00 -4.89120234E-01 -1.44134830E+00  0.00000000E+00 -4.89120234E-01
 -1.44134830E+00  0.00000000E+00 -4.89120234E-01 -1.44134830E+00  0.00000000E+00
 -4.89120234E-01 -1.44134830E+00  0.00000000E+00 -4.89120234E-01 -1.44134830E+00
  0.00000000E+00 -4.89120234E-01 -1.44134830E+00  0.00000000E+00 -4.89120234E-01
 -1.44134830E+00  0.00000000E+00 -4.89120234E-01 -1.44134830E+00  0.00000000E+00
 -4.89120234E-01 -1.44134830E+00  0.00000000E+00 -2.67514099E+00 -1.78169559E+00
  0.00000000E+00 -2.67514099E+00 -1.78169559E+00  0.00000000E+00 -2.67514099E+00
 -1.78169559E+00  0.00000000E+00 -2.67514099E+00 -1.78169559E+00  0.00000000E+00
 -2.67514099E+00 -1.78169559E+00  0.00000000E+00 -2.67514099E+00 -1.78169559E+00
  0.00000000E+00 -2.67514099E+00 -1.78169559E+00  0.00000000E+00 -2.67514099E+00
 -1.78169559E+00  0.00000000E+00 -2.67514099E+00 -1.78169559E+00  0.00000000E+00
 -2.67514099E+00 -1.78169559E+00  0.00000000E+00 -2.67514099E+00 -1.78169559E+00
  0.00000000E+00 -2.67514099E+00 -1.78169559E+00  0.00000000E+00 -2.67514099E+00
 -1.78169559E+00  0.00000000E+00 -2.67514099E+00 -1.78169559E+00  0.00000000E+00
Num ILSW                                   I              100
ILSW                                       I   N=         100
           0           0           0           0           2           0
           0           0           0           0           0          -1
           5           0           0           0           2           0
           0           0           0           0           1           0
           1           0           0           0           0           0
           0           0      100000           0          -1           0
           0           0           0           0           0           0
           0           0           0           1           1           0
           0 -2000000000           1           0           0           0
           0           0           4          52           0           0
           0           0           0           0           0           0
           0           0           0           5           4           1
           0           0           0           0           0           0
           0           0           0           0           0           0
           0           0           0           0           0           0
           0           0           0           0           0           0
           0           0           0           0
Num RLSW                                   I               52
RLSW                                       R   N=          52
  1.00000000E+00  1.00000000E+00  1.00000000E+00  1.00000000E+00  1.00000000E+00
  0.00000000E+00  0.00000000E+00  1.00000000E+00  0.00000000E+00  0.00000000E+00
  0.00000000E+00  0.00000000E+00  1.00000000E+00  0.00000000E+00  0.00000000E+00
  0.00000000E+00  0.00000000E+00  1.00000000E+00  0.00000000E+00  0.00000000E+00
  0.00000000E+00  0.00000000E+00  1.00000000E+00  0.00000000E+00  0.00000000E+00
  0.00000000E+00  0.00000000E+00  1.00000000E+00  0.00000000E+00  0.00000000E+00
  0.00000000E+00  0.00000000E+00  1.00000000E+00  0.00000000E+00  0.00000000E+00
  0.00000000E+00  0.00000000E+00  0.00000000E+00  1.00000000E+00  1.00000000E+00
  0.00000000E+00  1.00000000E+00  0.00000000E+00  0.00000000E+00  0.00000000E+00
  0.00000000E+00  0.00000000E+00  0.00000000E+00  0.00000000E+00  0.00000000E+00
  0.00000000E+00  0.00000000E+00
MxBond                                     I                2
NBond                                      I   N=           5
           1           2           2           2           1
IBond                                      I   N=          10
           2           0           1           3           2           4
           3           5           4           0
RBond                                      R   N=          10
  1.00000000E+00  0.00000000E+00  1.00000000E+00  1.00000000E+00  1.00000000E+00
  1.00000000E+00  1.00000000E+00  2.00000000E+00  2.00000000E+00  0.00000000E+00
Virial Ratio                               R      2.002317788306087E+00
SCF Energy                                 R     -2.795011143108497E+02
MP2 Energy                                 R     -2.804465327681123E+02
Total Energy                               R     -2.804465327681123E+02
Post-SCF wavefunction norm                 R      1.584340297043943E+00
RMS Force                                  R      2.150352843989479E-03
RMS Density                                R      3.766215176248428E-09
NImag                                      I                1
Job Status                                 I                1
Nuclear derivative order                   I                2
External E-field                           R   N=          35
  0.00000000E+00  0.00000000E+00  0.00000000E+00  0.00000000E+00  0.00000000E+00
  0.00000000E+00  0.00000000E+00  0.00000000E+00  0.00000000E+00  0.00000000E+00
  0.00000000E+00  0.00000000E+00  0.00000000E+00  0.00000000E+00  0.00000000E+00
  0.00000000E+00  0.00000000E+00  0.00000000E+00  0.00000000E+00  0.00000000E+00
  0.00000000E+00  0.00000000E+00  0.00000000E+00  0.00000000E+00  0.00000000E+00
  0.00000000E+00  0.00000000E+00  0.00000000E+00  0.00000000E+00  0.00000000E+00
  0.00000000E+00  0.00000000E+00  0.00000000E+00  0.00000000E+00  0.00000000E+00
IOpCl                                      I                0
IROHF                                      I                0
Alpha Orbital Energies                     R   N=         207
 -2.06906250E+01 -2.06842700E+01 -2.06609140E+01 -1.58127910E+01 -1.62416187E+00
 -1.49732116E+00 -1.25402259E+00 -9.48223083E-01 -7.74083984E-01 -7.57571977E-01
 -7.12086421E-01 -6.78638656E-01 -6.20904519E-01 -5.91713148E-01 -4.85536113E-01
 -4.72538807E-01  2.99117891E-02  7.15602868E-02  8.59157025E-02  1.01624059E-01
  1.33823814E-01  1.34094452E-01  1.44141094E-01  1.54668790E-01  1.78176594E-01
  1.93913234E-01  1.99584425E-01  2.06414528E-01  2.20665517E-01  2.35293521E-01
  2.37346899E-01  2.64972978E-01  2.93437328E-01  3.03683113E-01  3.11198496E-01
  3.43210407E-01  3.50105403E-01  3.87317375E-01  4.23968575E-01  4.30942081E-01
  5.27744067E-01  5.29437585E-01  5.57969641E-01  5.80991745E-01  6.26145903E-01
  6.38054591E-01  6.74683710E-01  6.84923196E-01  7.06525432E-01  7.09581752E-01
  7.28197508E-01  7.29069784E-01  7.44369263E-01  7.93887352E-01  7.95141607E-01
  8.12035549E-01  8.12186021E-01  8.29029606E-01  8.67573907E-01  9.08598569E-01
  9.20652732E-01  9.27807410E-01  9.54215352E-01  9.76081671E-01  9.86499094E-01
  1.01771803E+00  1.05142415E+00  1.05436026E+00  1.08274465E+00  1.11724635E+00
  1.14458790E+00  1.19041881E+00  1.22100856E+00  1.23638270E+00  1.33969652E+00
  1.35192912E+00  1.38564858E+00  1.45807369E+00  1.48691505E+00  1.50528724E+00
  1.53705612E+00  1.56639018E+00  1.57948512E+00  1.60968521E+00  1.66181992E+00
  1.67108224E+00  1.70309231E+00  1.79870362E+00  1.83047815E+00  1.83643718E+00
  1.87707888E+00  1.91146546E+00  1.95450248E+00  1.99460590E+00  2.00332042E+00
  2.07947912E+00  2.12805449E+00  2.13209476E+00  2.14965715E+00  2.22718989E+00
  2.26197494E+00  2.26399901E+00  2.29137901E+00  2.31359858E+00  2.34209185E+00
  2.38667741E+00  2.42854210E+00  2.43516245E+00  2.45301474E+00  2.46234585E+00
  2.48074363E+00  2.49891679E+00  2.59107404E+00  2.59973271E+00  2.61887159E+00
  2.62710838E+00  2.63530625E+00  2.66487504E+00  2.75802070E+00  2.82746204E+00
  2.84379586E+00  2.87792575E+00  2.89154023E+00  2.92919513E+00  2.95267366E+00
  3.02406299E+00  3.06943143E+00  3.11979791E+00  3.20975590E+00  3.22300638E+00
  3.31355420E+00  3.34316886E+00  3.51897751E+00  3.63734812E+00  3.83673522E+00
  3.83993936E+00  4.14563620E+00  4.17426857E+00  4.18332448E+00  4.25884475E+00
  4.34374798E+00  4.39710002E+00  4.46116454E+00  4.52982774E+00  4.65803691E+00
  4.73728802E+00  4.80178595E+00  4.82350923E+00  4.82853140E+00  4.89552988E+00
  5.02526809E+00  5.07681570E+00  5.10134559E+00  5.13446037E+00  5.17245695E+00
  5.25302351E+00  5.26956034E+00  5.30623692E+00  5.32836662E+00  5.35883663E+00
  5.60073768E+00  5.67346608E+00  5.76365033E+00  5.84566059E+00  5.95829685E+00
  6.17653708E+00  6.31215869E+00  6.33031585E+00  6.39352993E+00  6.49386217E+00
  6.50517744E+00  6.61541293E+00  6.66779219E+00  6.70376251E+00  6.76040812E+00
  6.76247928E+00  6.83527364E+00  6.89941647E+00  7.02775797E+00  7.04730088E+00
  7.05678097E+00  7.08886441E+00  7.12554460E+00  7.13999835E+00  7.18242865E+00
  7.22751260E+00  7.24147199E+00  7.30126715E+00  7.32419036E+00  7.35127147E+00
  7.39981831E+00  7.45411326E+00  7.48486124E+00  7.60685284E+00  7.62142736E+00
  7.62632912E+00  7.66750542E+00  7.79909635E+00  7.88714369E+00  8.09442796E+00
  8.31977495E+00  8.39026377E+00  8.54220824E+00  1.33893466E+01  1.43873898E+01
  1.51913396E+01  1.61545846E+01
Alpha MO coefficients                      R   N=       42849
  8.84304933E-05 -4.81611808E-04 -6.32370739E-04 -2.15554913E-06 -1.87554999E-06
 -3.07162379E-05  0.00000000E+00 -6.19290827E-05 -3.39578240E-05  0.00000000E+00
  6.92802758E-05 -2.94876164E-06  0.00000000E+00  2.53185687E-05  0.00000000E+00
  0.00000000E+00 -6.31579309E-05  1.51562254E-05 -1.05402714E-05  0.00000000E+00
  0.00000000E+00 -1.67701181E-04  1.28372098E-04  4.76555069E-03 -2.96354562E-04
  2.73235523E-05  1.32303994E-03  1.69181267E-03  1.05169524E-04  1.10333568E-05
  0.00000000E+00 -6.14967735E-04 -7.95216292E-05  0.00000000E+00 -1.06071074E-03
  6.73239112E-04  0.00000000E+00 -3.84421518E-04  5.70838032E-05  0.00000000E+00
  2.85233408E-05  0.00000000E+00  0.00000000E+00 -5.22274024E-05  6.92439581E-06
 -3.65987976E-04  0.00000000E+00  0.00000000E+00  7.48242682E-04 -3.26865710E-05
 -4.32629588E-04  0.00000000E+00  0.00000000E+00  2.38653001E-04  4.40255918E-06
  0.00000000E+00  7.95832906E-05  1.40200988E-05  0.00000000E+00  0.00000000E+00
 -1.09975205E-04 -1.17824247E-06  0.00000000E+00  2.55628885E-04 -2.63811607E-05
  0.00000000E+00  0.00000000E+00 -3.44497734E-04  3.97693124E-05  9.76907008E-01
 -9.21946297E-03  4.33230991E-02  2.04094675E-03 -8.57058640E-04  1.48441157E-03
 -1.35184507E-03  0.00000000E+00 -1.42421952E-03  1.38087995E-03  0.00000000E+00
  1.27383991E-04 -1.08957237E-03  0.00000000E+00 -1.19319097E-04 -5.27647916E-06
  0.00000000E+00  4.48407913E-05  0.00000000E+00  0.00000000E+00 -3.63757192E-05
  2.36082839E-05  7.49886135E-04  0.00000000E+00  0.00000000E+00 -2.20595934E-04
 -3.92662748E-04 -3.74386134E-04  0.00000000E+00  0.00000000E+00 -3.04280477E-04
 -3.37381862E-04  0.00000000E+00  4.69477824E-05 -4.81118431E-05  0.00000000E+00
  0.00000000E+00 -3.76652677E-05 -1.67320231E-05  0.00000000E+00  2.40332253E-05
  1.83749420E-05  0.00000000E+00  0.00000000E+00 -3.04875597E-04 -1.39842430E-04
  3.93490039E-05  4.67478854E-05 -2.66302614E-04 -6.74024873E-04 -1.37645376E-04
 -2.70137389E-05 -9.86321751E-05  0.00000000E+00  2.70799518E-04  7.16642544E-04
  0.00000000E+00 -8.11382525E-04 -4.19736717E-04  0.00000000E+00 -1.17728505E-04
 -2.27373767E-05  0.00000000E+00 -1.79408670E-05  0.00000000E+00  0.00000000E+00
 -2.95557149E-05  1.50459683E-05 -3.32225263E-04  0.00000000E+00  0.00000000E+00
 -8.34123462E-04  1.23589021E-04 -3.67500869E-05  0.00000000E+00  0.00000000E+00
  7.74569252E-05 -1.25680033E-04  0.00000000E+00 -2.05882026E-05 -1.20676176E-04
  0.00000000E+00  0.00000000E+00 -6.16564935E-05 -1.38707126E-04  0.00000000E+00
  3.57960618E-06 -1.55364193E-04  0.00000000E+00  0.00000000E+00  4.41099800E-05
 -4.18137038E-04 -2.68174193E-03  1.23156057E-04 -1.28296762E-04 -2.25468816E-04
  1.45617579E-04 -8.23876140E-06 -2.81467942E-05  0.00000000E+00  7.00828125E-05
  1.65653989E-04  0.00000000E+00  2.36135742E-04  1.73067666E-04  0.00000000E+00
  1.24572115E-04  2.17913830E-05  0.00000000E+00 -3.37064910E-06  0.00000000E+00
  0.00000000E+00 -1.80556509E-05  1.54737654E-06  6.45203486E-07  0.00000000E+00
  0.00000000E+00  8.11765820E-05  8.63412918E-05 -9.69055068E-05  0.00000000E+00
  0.00000000E+00  1.69873586E-04  1.51129451E-04  0.00000000E+00  1.58604251E-05
 -3.48250408E-06  0.00000000E+00  0.00000000E+00 -4.34623314E-06 -1.18248337E-05
  0.00000000E+00 -3.34574994E-05  4.59497386E-05  0.00000000E+00  0.00000000E+00
  8.44176097E-05  8.93248594E-05  4.40811473E-05 -9.86714458E-04 -4.77311988E-04
 -9.78928646E-06 -1.96683834E-05  1.50443513E-05  0.00000000E+00  3.83332808E-06
  2.77663557E-04  0.00000000E+00 -3.34783440E-05  1.32038882E-04  0.00000000E+00
  2.82033190E-05  0.00000000E+00  0.00000000E+00  1.02972134E-05  8.17852233E-06
 -2.44077682E-05  0.00000000E+00  0.00000000E+00  7.90989409E-06  2.84857558E-05
  1.17075429E-04  8.40358085E-05 -2.70920124E-05  7.51302475E-04  6.35222083E-04
  1.06764916E-05  2.42463586E-06  0.00000000E+00 -7.58686324E-05  1.85314855E-05
  0.00000000E+00  2.76891191E-04  8.90023253E-04  0.00000000E+00 -4.37419697E-06
  7.44246198E-05  0.00000000E+00 -2.45930897E-06  0.00000000E+00  0.00000000E+00
  1.81138743E-07 -5.22402676E-06 -3.51911148E-05  0.00000000E+00  0.00000000E+00
 -2.47276964E-05  7.41516981E-05 -2.37643933E-05  0.00000000E+00  0.00000000E+00
 -2.58412416E-04 -1.85844647E-04  0.00000000E+00  8.80967711E-06  5.89971044E-06
  0.00000000E+00  0.00000000E+00  3.09174428E-06 -1.94094907E-05  0.00000000E+00
 -3.69068530E-05 -3.76873542E-05  0.00000000E+00  0.00000000E+00 -6.86251245E-05
  1.72257157E-05  2.72077818E-03  3.88493969E-05  9.60491537E-05 -1.03947548E-04
 -4.50983669E-04  7.26785542E-06  1.59224262E-05  0.00000000E+00 -6.21466891E-05
 -5.77303957E-05  0.00000000E+00  2.32422307E-04 -1.68327174E-04  0.00000000E+00
 -1.80600542E-04 -6.09309580E-05  0.00000000E+00 -8.90176091E-06  0.00000000E+00
  0.00000000E+00  2.19591262E-05  1.99693941E-05  5.36521751E-06  0.00000000E+00
  0.00000000E+00 -1.14691374E-04 -4.83723122E-05 -1.02524004E-05  0.00000000E+00
  0.00000000E+00 -2.18131358E-04 -1.93353190E-04  0.00000000E+00  3.62895406E-06
  1.68193487E-08  0.00000000E+00  0.00000000E+00  2.25227858E-06 -1.42713032E-05
  0.00000000E+00 -4.85840899E-05  7.53583614E-07  0.00000000E+00  0.00000000E+00
 -7.79453270E-05  1.89918335E-04  2.58614054E-04  1.46444086E-03 -7.83434934E-05
 -1.54149471E-03  3.83426632E-04 -1.44603846E-04 -6.11428234E-07  0.00000000E+00
 -2.08635602E-03 -4.05213633E-04  0.00000000E+00  1.05937605E-03  7.82653290E-04
  0.00000000E+00 -1.71210042E-04  5.28578356E-05  0.00000000E+00 -1.23304042E-04
  0.00000000E+00  0.00000000E+00  2.42700237E-04  9.51248768E-05 -4.42934564E-04
  0.00000000E+00  0.00000000E+00  8.96266957E-04 -6.28706365E-05  1.14929481E-05
  0.00000000E+00  0.00000000E+00 -3.44618858E-04 -1.22945780E-04  0.00000000E+00
 -1.49153560E-06  1.49334495E-05  0.00000000E+00  0.00000000E+00  1.90416765E-05
  1.33638098E-05  0.00000000E+00  1.65296415E-04 -7.15744533E-05  0.00000000E+00
  0.00000000E+00 -2.40301148E-04  4.03920151E-05  9.76648648E-01 -9.84881624E-03
  4.35683867E-02  4.52141807E-03 -4.33093031E-04  2.14652647E-03  4.83431477E-04
  0.00000000E+00 -2.38100934E-03 -6.06365931E-04  0.00000000E+00  1.14665325E-03
 -6.38439734E-06  0.00000000E+00  6.54305618E-06 -4.06055513E-05  0.00000000E+00
 -2.32527125E-04  0.00000000E+00  0.00000000E+00  1.02449243E-04  3.24895250E-05
  3.89998858E-04  0.00000000E+00  0.00000000E+00 -8.31613046E-04 -4.21937320E-04
 -1.52097731E-04  0.00000000E+00  0.00000000E+00  2.58512328E-04  1.54871710E-05
  0.00000000E+00  5.20642612E-05  1.77975480E-05  0.00000000E+00  0.00000000E+00
 -2.19582577E-05 -1.33355891E-05  0.00000000E+00  1.38706167E-04  9.63289493E-06
  0.00000000E+00  0.00000000E+00 -1.88344333E-04 -1.41750872E-04  4.68976545E-04
  1.89903294E-03  8.52387918E-05  1.94477224E-05 -3.66906552E-05 -2.50247851E-04
  0.00000000E+00  1.61146612E-04 -1.23760600E-03  0.00000000E+00  3.62116302E-04
 -3.30414643E-04  0.00000000E+00 -5.10300425E-06  0.00000000E+00  0.00000000E+00
  7.36764104E-05  3.19732762E-05 -1.73652873E-04  0.00000000E+00  0.00000000E+00
 -5.31391624E-04 -6.67081039E-05  9.76830648E-01 -9.17976742E-03  4.34406888E-02
  3.37103190E-04 -1.22785189E-03 -1.59299052E-03  1.40927000E-03  0.00000000E+00
  1.61211272E-03 -1.26770649E-03  0.00000000E+00 -5.24969709E-04 -7.28645167E-04
  0.00000000E+00  5.47126759E-05 -6.52173977E-05  0.00000000E+00  3.32473834E-05
  0.00000000E+00  0.00000000E+00 -1.17764524E-04 -1.72306981E-05  7.45707742E-04
  0.00000000E+00  0.00000000E+00 -1.95316978E-04 -1.84793580E-04 -2.70504792E-04
  0.00000000E+00  0.00000000E+00  1.33793871E-04  1.01432472E-04  0.00000000E+00
 -6.43348351E-05  3.40211924E-06  0.00000000E+00  0.00000000E+00  1.66943916E-05