 Entering Gaussian System, Link 0=g16
 Input=hoono_d2_186p0327.gjf
 Output=hoono_d2_186p0327.log
 Initial command:
 /sw/contrib/gaussian/g16/B01/g16/l1.exe "/scr/Gau-9535.inp" -scrdir="/scr/"
 Entering Link 1 = /sw/contrib/gaussian/g16/B01/g16/l1.exe PID=      9536.
  
 Copyright (c) 1988-2017, Gaussian, Inc.  All Rights Reserved.
  
 This is part of the Gaussian(R) 16 program.  It is based on
 the Gaussian(R) 09 system (copyright 2009, Gaussian, Inc.),
 the Gaussian(R) 03 system (copyright 2003, Gaussian, Inc.),
 the Gaussian(R) 98 system (copyright 1998, Gaussian, Inc.),
 the Gaussian(R) 94 system (copyright 1995, Gaussian, Inc.),
 the Gaussian 92(TM) system (copyright 1992, Gaussian, Inc.),
 the Gaussian 90(TM) system (copyright 1990, Gaussian, Inc.),
 the Gaussian 88(TM) system (copyright 1988, Gaussian, Inc.),
 the Gaussian 86(TM) system (copyright 1986, Carnegie Mellon
 University), and the Gaussian 82(TM) system (copyright 1983,
 Carnegie Mellon University). Gaussian is a federally registered
 trademark of Gaussian, Inc.
  
 This software contains proprietary and confidential information,
 including trade secrets, belonging to Gaussian, Inc.
  
 This software is provided under written license and may be
 used, copied, transmitted, or stored only in accord with that
 written license.
  
 The following legend is applicable only to US Government
 contracts under FAR:
  
                    RESTRICTED RIGHTS LEGEND
  
 Use, reproduction and disclosure by the US Government is
 subject to restrictions as set forth in subparagraphs (a)
 and (c) of the Commercial Computer Software - Restricted
 Rights clause in FAR 52.227-19.
  
 Gaussian, Inc.
 340 Quinnipiac St., Bldg. 40, Wallingford CT 06492
  
  
 ---------------------------------------------------------------
 Warning -- This program may not be used in any manner that
 competes with the business of Gaussian, Inc. or will provide
 assistance to any competitor of Gaussian, Inc.  The licensee
 of this program is prohibited from giving any competitor of
 Gaussian, Inc. access to this program.  By using this program,
 the user acknowledges that Gaussian, Inc. is engaged in the
 business of creating and licensing software in the field of
 computational chemistry and represents and warrants to the
 licensee that it is not a competitor of Gaussian, Inc. and that
 it will not use this program in any manner prohibited above.
 ---------------------------------------------------------------
  

 Cite this work as:
 Gaussian 16, Revision B.01,
 M. J. Frisch, G. W. Trucks, H. B. Schlegel, G. E. Scuseria, 
 M. A. Robb, J. R. Cheeseman, G. Scalmani, V. Barone, 
 G. A. Petersson, H. Nakatsuji, X. Li, M. Caricato, A. V. Marenich, 
 J. Bloino, B. G. Janesko, R. Gomperts, B. Mennucci, H. P. Hratchian, 
 J. V. Ortiz, A. F. Izmaylov, J. L. Sonnenberg, D. Williams-Young, 
 F. Ding, F. Lipparini, F. Egidi, J. Goings, B. Peng, A. Petrone, 
 T. Henderson, D. Ranasinghe, V. G. Zakrzewski, J. Gao, N. Rega, 
 G. Zheng, W. Liang, M. Hada, M. Ehara, K. Toyota, R. Fukuda, 
 J. Hasegawa, M. Ishida, T. Nakajima, Y. Honda, O. Kitao, H. Nakai, 
 T. Vreven, K. Throssell, J. A. Montgomery, Jr., J. E. Peralta, 
 F. Ogliaro, M. J. Bearpark, J. J. Heyd, E. N. Brothers, K. N. Kudin, 
 V. N. Staroverov, T. A. Keith, R. Kobayashi, J. Normand, 
 K. Raghavachari, A. P. Rendell, J. C. Burant, S. S. Iyengar, 
 J. Tomasi, M. Cossi, J. M. Millam, M. Klene, C. Adamo, R. Cammi, 
 J. W. Ochterski, R. L. Martin, K. Morokuma, O. Farkas, 
 J. B. Foresman, and D. J. Fox, Gaussian, Inc., Wallingford CT, 2016.
 
 ******************************************
 Gaussian 16:  ES64L-G16RevB.01 20-Dec-2017
                21-Feb-2022 
 ******************************************
 %nproc=28
 Will use up to   28 processors via shared memory.
 %mem=120GB
 %chk=hoono_d2_186p0327.chk
 ---------------------------------------
 #p freq mp2/aug-cc-pvtz density=current
 ---------------------------------------
 1/10=4,30=1,38=1/1,3;
 2/12=2,17=6,18=5,40=1/2;
 3/5=16,6=1,7=10,11=9,25=1,30=1,71=2,140=1/1,2,3;
 4//1;
 5/5=2,38=5,98=1/2;
 8/6=3,8=1,10=1,19=11,30=-1/1;
 9/15=3,16=-3/6;
 11/6=1,8=1,15=11,17=12,24=-1,27=1,28=-2,29=300,32=6,42=3/1,2,10;
 10/6=2,21=1/2;
 8/6=4,8=1,10=1,19=11,30=-1/11,4;
 10/5=1,20=4/2;
 11/12=2,14=11,16=1,17=2,28=-2,42=3,76=2/2,10,12;
 6/7=2,8=2,9=2,10=2,22=-1/1;
 7/8=1,10=1,12=2,25=1,44=2/1,2,3,16;
 1/10=4,30=1/3;
 99//99;
 Leave Link    1 at Mon Feb 21 21:09:34 2022, MaxMem= 16106127360 cpu:               2.6 elap:               0.1
 (Enter /sw/contrib/gaussian/g16/B01/g16/l101.exe)
 -----
 title
 -----
 Symbolic Z-matrix:
 Charge =  0 Multiplicity = 1
 H
 O                    1    r1
 O                    2    r2       1    a1
 N                    3    r3       2    a2       1    d1       0
 O                    4    r4       3    a3       2    d2       0
       Variables:
  r1                    0.96898                  
  r2                    1.45492                  
  r3                    1.45878                  
  r4                    1.17073                  
  a1                   97.59495                  
  a2                  102.29752                  
  a3                  109.06955                  
  d1                  180.                       
  d2                  186.03271                  
 
 ITRead=  0  0  0  0  0
 MicOpt= -1 -1 -1 -1 -1
 NAtoms=      5 NQM=        5 NQMF=       0 NMMI=      0 NMMIF=      0
                NMic=       0 NMicF=      0.
                    Isotopes and Nuclear Properties:
 (Nuclear quadrupole moments (NQMom) in fm**2, nuclear magnetic moments (NMagM)
  in nuclear magnetons)

  Atom         1           2           3           4           5
 IAtWgt=           1          16          16          14          16
 AtmWgt=   1.0078250  15.9949146  15.9949146  14.0030740  15.9949146
 NucSpn=           1           0           0           2           0
 AtZEff=  -0.0000000  -0.0000000  -0.0000000  -0.0000000  -0.0000000
 NQMom=    0.0000000   0.0000000   0.0000000   2.0440000   0.0000000
 NMagM=    2.7928460   0.0000000   0.0000000   0.4037610   0.0000000
 AtZNuc=   1.0000000   8.0000000   8.0000000   7.0000000   8.0000000
 Leave Link  101 at Mon Feb 21 21:09:34 2022, MaxMem= 16106127360 cpu:               2.5 elap:               0.1
 (Enter /sw/contrib/gaussian/g16/B01/g16/l103.exe)

 GradGradGradGradGradGradGradGradGradGradGradGradGradGradGradGradGradGrad
 Berny optimization.
 Initialization pass.
                       ----------------------------
                       !    Initial Parameters    !
                       ! (Angstroms and Degrees)  !
 ----------------------                            ----------------------
 !      Name          Value   Derivative information (Atomic Units)     !
 ------------------------------------------------------------------------
 !       r1          0.969    calculate D2E/DX2 analytically            !
 !       r2          1.4549   calculate D2E/DX2 analytically            !
 !       r3          1.4588   calculate D2E/DX2 analytically            !
 !       r4          1.1707   calculate D2E/DX2 analytically            !
 !       a1         97.5949   calculate D2E/DX2 analytically            !
 !       a2        102.2975   calculate D2E/DX2 analytically            !
 !       a3        109.0696   calculate D2E/DX2 analytically            !
 !       d1        180.0      calculate D2E/DX2 analytically            !
 !       d2        186.0327   calculate D2E/DX2 analytically            !
 ------------------------------------------------------------------------
 Trust Radius=3.00D-01 FncErr=1.00D-07 GrdErr=1.00D-07 EigMax=2.50D+02 EigMin=1.00D-04
 Number of steps in this run=      2 maximum allowed number of steps=      2.
 GradGradGradGradGradGradGradGradGradGradGradGradGradGradGradGradGradGrad

 Leave Link  103 at Mon Feb 21 21:09:34 2022, MaxMem= 16106127360 cpu:               0.5 elap:               0.0
 (Enter /sw/contrib/gaussian/g16/B01/g16/l202.exe)
                          Input orientation:                          
 ---------------------------------------------------------------------
 Center     Atomic      Atomic             Coordinates (Angstroms)
 Number     Number       Type             X           Y           Z
 ---------------------------------------------------------------------
      1          1           0        0.000000    0.000000    0.000000
      2          8           0        0.000000    0.000000    0.968976
      3          8           0        1.442156    0.000000    1.161271
      4          7           0        1.561752    0.000000    2.615144
      5          8           0        2.689760    0.116287    2.906141
 ---------------------------------------------------------------------
                    Distance matrix (angstroms):
                    1          2          3          4          5
     1  H    0.000000
     2  O    0.968976   0.000000
     3  O    1.851584   1.454919   0.000000
     4  N    3.045989   2.269127   1.458784   0.000000
     5  O    3.961564   3.316767   2.148165   1.170729   0.000000
 Stoichiometry    HNO3
 Framework group  C1[X(HNO3)]
 Deg. of freedom     9
 Full point group                 C1      NOp   1
 Largest Abelian subgroup         C1      NOp   1
 Largest concise Abelian subgroup C1      NOp   1
                         Standard orientation:                         
 ---------------------------------------------------------------------
 Center     Atomic      Atomic             Coordinates (Angstroms)
 Number     Number       Type             X           Y           Z
 ---------------------------------------------------------------------
      1          1           0        2.248252    0.433566   -0.030522
      2          8           0        1.597595   -0.284425   -0.023590
      3          8           0        0.400681    0.541210    0.026546
      4          7           0       -0.664130   -0.455795    0.040990
      5          8           0       -1.698195    0.087841   -0.035007
 ---------------------------------------------------------------------
 Rotational constants (GHZ):          54.6255084           5.0144246           4.5981823
 Leave Link  202 at Mon Feb 21 21:09:34 2022, MaxMem= 16106127360 cpu:               3.2 elap:               0.2
 (Enter /sw/contrib/gaussian/g16/B01/g16/l301.exe)
 Standard basis: Aug-CC-pVTZ (5D, 7F)
 Ernie: Thresh=  0.10000D-02 Tol=  0.10000D-05 Strict=F.
 Ernie:  12 primitive shells out of 131 were deleted.
 There are   245 symmetry adapted cartesian basis functions of A   symmetry.
 There are   207 symmetry adapted basis functions of A   symmetry.
   207 basis functions,   315 primitive gaussians,   245 cartesian basis functions
    16 alpha electrons       16 beta electrons
       nuclear repulsion energy       116.8806465952 Hartrees.
 IExCor=    0 DFT=F Ex=HF Corr=None ExCW=0 ScaHFX=  1.000000
 ScaDFX=  1.000000  1.000000  1.000000  1.000000 ScalE2=  1.000000  1.000000
 IRadAn=      5 IRanWt=     -1 IRanGd=            0 ICorTp=0 IEmpDi=  4
 NAtoms=    5 NActive=    5 NUniq=    5 SFac= 1.00D+00 NAtFMM=   60 NAOKFM=F Big=F
 Integral buffers will be    131072 words long.
 Raffenetti 1 integral format.
 Two-electron integral symmetry is turned on.
 Leave Link  301 at Mon Feb 21 21:09:34 2022, MaxMem= 16106127360 cpu:               1.5 elap:               0.1
 (Enter /sw/contrib/gaussian/g16/B01/g16/l302.exe)
 NPDir=0 NMtPBC=     1 NCelOv=     1 NCel=       1 NClECP=     1 NCelD=      1
         NCelK=      1 NCelE2=     1 NClLst=     1 CellRange=     0.0.
 One-electron integrals computed using PRISM.
 One-electron integral symmetry used in STVInt
 NBasis=   207 RedAO= T EigKep=  1.81D-04  NBF=   207
 NBsUse=   207 1.00D-06 EigRej= -1.00D+00 NBFU=   207
 Leave Link  302 at Mon Feb 21 21:09:34 2022, MaxMem= 16106127360 cpu:               4.7 elap:               0.2
 (Enter /sw/contrib/gaussian/g16/B01/g16/l303.exe)
 DipDrv:  MaxL=1.
 Leave Link  303 at Mon Feb 21 21:09:34 2022, MaxMem= 16106127360 cpu:               1.1 elap:               0.1
 (Enter /sw/contrib/gaussian/g16/B01/g16/l401.exe)
 ExpMin= 2.53D-02 ExpMax= 1.53D+04 ExpMxC= 5.22D+02 IAcc=3 IRadAn=         5 AccDes= 0.00D+00
 Harris functional with IExCor=  205 and IRadAn=       5 diagonalized for initial guess.
 HarFok:  IExCor=  205 AccDes= 0.00D+00 IRadAn=         5 IDoV= 1 UseB2=F ITyADJ=14
 ICtDFT=  3500011 ScaDFX=  1.000000  1.000000  1.000000  1.000000
 FoFCou: FMM=F IPFlag=           0 FMFlag=      100000 FMFlg1=           0
         NFxFlg=           0 DoJE=T BraDBF=F KetDBF=T FulRan=T
         wScrn=  0.000000 ICntrl=       500 IOpCl=  0 I1Cent=   200000004 NGrid=           0
         NMat0=    1 NMatS0=      1 NMatT0=    0 NMatD0=    1 NMtDS0=    0 NMtDT0=    0
 Petite list used in FoFCou.
 Harris En= -279.628472725465    
 JPrj=0 DoOrth=F DoCkMO=F.
 Leave Link  401 at Mon Feb 21 21:09:35 2022, MaxMem= 16106127360 cpu:               8.7 elap:               0.4
 (Enter /sw/contrib/gaussian/g16/B01/g16/l502.exe)
 Keep R1 ints in memory in canonical form, NReq=245616893.
 FoFCou: FMM=F IPFlag=           0 FMFlag=           0 FMFlg1=           0
         NFxFlg=           0 DoJE=F BraDBF=F KetDBF=F FulRan=T
         wScrn=  0.000000 ICntrl=       600 IOpCl=  0 I1Cent=           0 NGrid=           0
         NMat0=    1 NMatS0=  21528 NMatT0=    0 NMatD0=    1 NMtDS0=    0 NMtDT0=    0
 Symmetry not used in FoFCou.
 Two-electron integral symmetry not used.
 Closed shell SCF:
 Using DIIS extrapolation, IDIIS=  1040.
 NGot= 16106127360 LenX= 15874260251 LenY= 15874199785
 Requested convergence on RMS density matrix=1.00D-08 within 128 cycles.
 Requested convergence on MAX density matrix=1.00D-06.
 Requested convergence on             energy=1.00D-06.
 No special actions if energy rises.

 Cycle   1  Pass 1  IDiag  1:
 E= -279.370474836860    
 DIIS: error= 2.43D-02 at cycle   1 NSaved=   1.
 NSaved= 1 IEnMin= 1 EnMin= -279.370474836860     IErMin= 1 ErrMin= 2.43D-02
 ErrMax= 2.43D-02  0.00D+00 EMaxC= 1.00D-01 BMatC= 4.38D-01 BMatP= 4.38D-01
 IDIUse=3 WtCom= 7.57D-01 WtEn= 2.43D-01
 Coeff-Com:  0.100D+01
 Coeff-En:   0.100D+01
 Coeff:      0.100D+01
 Gap=     0.519 Goal=   None    Shift=    0.000
 GapD=    0.519 DampG=2.000 DampE=0.500 DampFc=1.0000 IDamp=-1.
 RMSDP=1.62D-03 MaxDP=9.93D-02              OVMax= 1.13D-01

 Cycle   2  Pass 1  IDiag  1:
 E= -279.452450028241     Delta-E=       -0.081975191381 Rises=F Damp=F
 DIIS: error= 1.76D-02 at cycle   2 NSaved=   2.
 NSaved= 2 IEnMin= 2 EnMin= -279.452450028241     IErMin= 2 ErrMin= 1.76D-02
 ErrMax= 1.76D-02  0.00D+00 EMaxC= 1.00D-01 BMatC= 7.15D-02 BMatP= 4.38D-01
 IDIUse=3 WtCom= 8.24D-01 WtEn= 1.76D-01
 Coeff-Com:  0.194D+00 0.806D+00
 Coeff-En:   0.000D+00 0.100D+01
 Coeff:      0.160D+00 0.840D+00
 Gap=     0.534 Goal=   None    Shift=    0.000
 RMSDP=8.98D-04 MaxDP=3.73D-02 DE=-8.20D-02 OVMax= 6.87D-02

 Cycle   3  Pass 1  IDiag  1:
 E= -279.481496304964     Delta-E=       -0.029046276723 Rises=F Damp=F
 DIIS: error= 1.02D-02 at cycle   3 NSaved=   3.
 NSaved= 3 IEnMin= 3 EnMin= -279.481496304964     IErMin= 3 ErrMin= 1.02D-02
 ErrMax= 1.02D-02  0.00D+00 EMaxC= 1.00D-01 BMatC= 2.86D-02 BMatP= 7.15D-02
 IDIUse=3 WtCom= 8.98D-01 WtEn= 1.02D-01
 Coeff-Com: -0.330D-01 0.378D+00 0.655D+00
 Coeff-En:   0.000D+00 0.240D+00 0.760D+00
 Coeff:     -0.296D-01 0.364D+00 0.666D+00
 Gap=     0.510 Goal=   None    Shift=    0.000
 RMSDP=3.76D-04 MaxDP=1.54D-02 DE=-2.90D-02 OVMax= 3.79D-02

 Cycle   4  Pass 1  IDiag  1:
 E= -279.500465867758     Delta-E=       -0.018969562794 Rises=F Damp=F
 DIIS: error= 1.28D-03 at cycle   4 NSaved=   4.
 NSaved= 4 IEnMin= 4 EnMin= -279.500465867758     IErMin= 4 ErrMin= 1.28D-03
 ErrMax= 1.28D-03  0.00D+00 EMaxC= 1.00D-01 BMatC= 4.90D-04 BMatP= 2.86D-02
 IDIUse=3 WtCom= 9.87D-01 WtEn= 1.28D-02
 Coeff-Com: -0.116D-01 0.575D-01 0.158D+00 0.796D+00
 Coeff-En:   0.000D+00 0.000D+00 0.000D+00 0.100D+01
 Coeff:     -0.115D-01 0.567D-01 0.156D+00 0.799D+00
 Gap=     0.502 Goal=   None    Shift=    0.000
 RMSDP=9.01D-05 MaxDP=2.16D-03 DE=-1.90D-02 OVMax= 1.11D-02

 Cycle   5  Pass 1  IDiag  1:
 E= -279.501139627560     Delta-E=       -0.000673759802 Rises=F Damp=F
 DIIS: error= 7.34D-04 at cycle   5 NSaved=   5.
 NSaved= 5 IEnMin= 5 EnMin= -279.501139627560     IErMin= 5 ErrMin= 7.34D-04
 ErrMax= 7.34D-04  0.00D+00 EMaxC= 1.00D-01 BMatC= 8.70D-05 BMatP= 4.90D-04
 IDIUse=3 WtCom= 9.93D-01 WtEn= 7.34D-03
 Coeff-Com:  0.613D-02-0.724D-01-0.118D+00 0.199D-01 0.116D+01
 Coeff-En:   0.000D+00 0.000D+00 0.000D+00 0.000D+00 0.100D+01
 Coeff:      0.609D-02-0.719D-01-0.117D+00 0.197D-01 0.116D+01
 Gap=     0.502 Goal=   None    Shift=    0.000
 RMSDP=7.62D-05 MaxDP=2.10D-03 DE=-6.74D-04 OVMax= 1.11D-02

 Cycle   6  Pass 1  IDiag  1:
 E= -279.501454380999     Delta-E=       -0.000314753439 Rises=F Damp=F
 DIIS: error= 2.84D-04 at cycle   6 NSaved=   6.
 NSaved= 6 IEnMin= 6 EnMin= -279.501454380999     IErMin= 6 ErrMin= 2.84D-04
 ErrMax= 2.84D-04  0.00D+00 EMaxC= 1.00D-01 BMatC= 1.66D-05 BMatP= 8.70D-05
 IDIUse=3 WtCom= 9.97D-01 WtEn= 2.84D-03
 Coeff-Com:  0.586D-03 0.170D-02 0.473D-02-0.130D+00-0.232D+00 0.135D+01
 Coeff-En:   0.000D+00 0.000D+00 0.000D+00 0.000D+00 0.000D+00 0.100D+01
 Coeff:      0.584D-03 0.170D-02 0.471D-02-0.129D+00-0.231D+00 0.135D+01
 Gap=     0.502 Goal=   None    Shift=    0.000
 RMSDP=4.53D-05 MaxDP=1.06D-03 DE=-3.15D-04 OVMax= 5.55D-03

 Cycle   7  Pass 1  IDiag  1:
 E= -279.501526939351     Delta-E=       -0.000072558352 Rises=F Damp=F
 DIIS: error= 1.21D-04 at cycle   7 NSaved=   7.
 NSaved= 7 IEnMin= 7 EnMin= -279.501526939351     IErMin= 7 ErrMin= 1.21D-04
 ErrMax= 1.21D-04  0.00D+00 EMaxC= 1.00D-01 BMatC= 4.47D-06 BMatP= 1.66D-05
 IDIUse=3 WtCom= 9.99D-01 WtEn= 1.21D-03
 Coeff-Com: -0.937D-03 0.135D-01 0.264D-01-0.238D-01-0.286D+00 0.387D+00
 Coeff-Com:  0.884D+00
 Coeff-En:   0.000D+00 0.000D+00 0.000D+00 0.000D+00 0.000D+00 0.000D+00
 Coeff-En:   0.100D+01
 Coeff:     -0.936D-03 0.135D-01 0.264D-01-0.238D-01-0.285D+00 0.386D+00
 Coeff:      0.884D+00
 Gap=     0.502 Goal=   None    Shift=    0.000
 RMSDP=1.32D-05 MaxDP=3.77D-04 DE=-7.26D-05 OVMax= 1.55D-03

 Cycle   8  Pass 1  IDiag  1:
 E= -279.501535786795     Delta-E=       -0.000008847444 Rises=F Damp=F
 DIIS: error= 5.57D-05 at cycle   8 NSaved=   8.
 NSaved= 8 IEnMin= 8 EnMin= -279.501535786795     IErMin= 8 ErrMin= 5.57D-05
 ErrMax= 5.57D-05  0.00D+00 EMaxC= 1.00D-01 BMatC= 6.07D-07 BMatP= 4.47D-06
 IDIUse=1 WtCom= 1.00D+00 WtEn= 0.00D+00
 Coeff-Com: -0.449D-03 0.345D-02 0.762D-02 0.274D-01-0.409D-01-0.198D+00
 Coeff-Com:  0.176D+00 0.103D+01
 Coeff:     -0.449D-03 0.345D-02 0.762D-02 0.274D-01-0.409D-01-0.198D+00
 Coeff:      0.176D+00 0.103D+01
 Gap=     0.502 Goal=   None    Shift=    0.000
 RMSDP=6.88D-06 MaxDP=2.00D-04 DE=-8.85D-06 OVMax= 7.43D-04

 Cycle   9  Pass 1  IDiag  1:
 E= -279.501537558105     Delta-E=       -0.000001771310 Rises=F Damp=F
 DIIS: error= 1.58D-05 at cycle   9 NSaved=   9.
 NSaved= 9 IEnMin= 9 EnMin= -279.501537558105     IErMin= 9 ErrMin= 1.58D-05
 ErrMax= 1.58D-05  0.00D+00 EMaxC= 1.00D-01 BMatC= 6.97D-08 BMatP= 6.07D-07
 IDIUse=1 WtCom= 1.00D+00 WtEn= 0.00D+00
 Coeff-Com:  0.124D-03-0.173D-02-0.310D-02-0.211D-02 0.344D-01 0.280D-03
 Coeff-Com: -0.169D+00-0.103D+00 0.124D+01
 Coeff:      0.124D-03-0.173D-02-0.310D-02-0.211D-02 0.344D-01 0.280D-03
 Coeff:     -0.169D+00-0.103D+00 0.124D+01
 Gap=     0.502 Goal=   None    Shift=    0.000
 RMSDP=1.95D-06 MaxDP=5.18D-05 DE=-1.77D-06 OVMax= 1.75D-04

 Cycle  10  Pass 1  IDiag  1:
 E= -279.501537721065     Delta-E=       -0.000000162960 Rises=F Damp=F
 DIIS: error= 3.99D-06 at cycle  10 NSaved=  10.
 NSaved=10 IEnMin=10 EnMin= -279.501537721065     IErMin=10 ErrMin= 3.99D-06
 ErrMax= 3.99D-06  0.00D+00 EMaxC= 1.00D-01 BMatC= 5.67D-09 BMatP= 6.97D-08
 IDIUse=1 WtCom= 1.00D+00 WtEn= 0.00D+00
 Coeff-Com:  0.309D-04-0.240D-03-0.319D-03-0.271D-02 0.156D-02 0.198D-01
 Coeff-Com: -0.128D-01-0.745D-01-0.840D-01 0.115D+01
 Coeff:      0.309D-04-0.240D-03-0.319D-03-0.271D-02 0.156D-02 0.198D-01
 Coeff:     -0.128D-01-0.745D-01-0.840D-01 0.115D+01
 Gap=     0.502 Goal=   None    Shift=    0.000
 RMSDP=5.19D-07 MaxDP=2.10D-05 DE=-1.63D-07 OVMax= 4.19D-05

 Cycle  11  Pass 1  IDiag  1:
 E= -279.501537734330     Delta-E=       -0.000000013265 Rises=F Damp=F
 DIIS: error= 1.97D-06 at cycle  11 NSaved=  11.
 NSaved=11 IEnMin=11 EnMin= -279.501537734330     IErMin=11 ErrMin= 1.97D-06
 ErrMax= 1.97D-06  0.00D+00 EMaxC= 1.00D-01 BMatC= 7.05D-10 BMatP= 5.67D-09
 IDIUse=1 WtCom= 1.00D+00 WtEn= 0.00D+00
 Coeff-Com: -0.220D-04 0.252D-03 0.500D-03 0.565D-03-0.439D-02-0.381D-02
 Coeff-Com:  0.219D-01 0.318D-01-0.141D+00-0.189D+00 0.128D+01
 Coeff:     -0.220D-04 0.252D-03 0.500D-03 0.565D-03-0.439D-02-0.381D-02
 Coeff:      0.219D-01 0.318D-01-0.141D+00-0.189D+00 0.128D+01
 Gap=     0.502 Goal=   None    Shift=    0.000
 RMSDP=1.95D-07 MaxDP=6.52D-06 DE=-1.33D-08 OVMax= 1.78D-05

 Cycle  12  Pass 1  IDiag  1:
 E= -279.501537736406     Delta-E=       -0.000000002076 Rises=F Damp=F
 DIIS: error= 5.47D-07 at cycle  12 NSaved=  12.
 NSaved=12 IEnMin=12 EnMin= -279.501537736406     IErMin=12 ErrMin= 5.47D-07
 ErrMax= 5.47D-07  0.00D+00 EMaxC= 1.00D-01 BMatC= 8.39D-11 BMatP= 7.05D-10
 IDIUse=1 WtCom= 1.00D+00 WtEn= 0.00D+00
 Coeff-Com:  0.163D-05-0.342D-04-0.747D-04 0.186D-03 0.120D-02-0.237D-02
 Coeff-Com: -0.462D-02 0.521D-02 0.461D-01-0.118D+00-0.303D+00 0.137D+01
 Coeff:      0.163D-05-0.342D-04-0.747D-04 0.186D-03 0.120D-02-0.237D-02
 Coeff:     -0.462D-02 0.521D-02 0.461D-01-0.118D+00-0.303D+00 0.137D+01
 Gap=     0.502 Goal=   None    Shift=    0.000
 RMSDP=8.69D-08 MaxDP=2.81D-06 DE=-2.08D-09 OVMax= 7.44D-06

 Cycle  13  Pass 1  IDiag  1:
 E= -279.501537736716     Delta-E=       -0.000000000310 Rises=F Damp=F
 DIIS: error= 1.90D-07 at cycle  13 NSaved=  13.
 NSaved=13 IEnMin=13 EnMin= -279.501537736716     IErMin=13 ErrMin= 1.90D-07
 ErrMax= 1.90D-07  0.00D+00 EMaxC= 1.00D-01 BMatC= 7.24D-12 BMatP= 8.39D-11
 IDIUse=1 WtCom= 1.00D+00 WtEn= 0.00D+00
 Coeff-Com:  0.150D-05-0.155D-04-0.254D-04-0.110D-03 0.108D-03 0.981D-03
 Coeff-Com: -0.869D-03-0.413D-02-0.366D-03 0.516D-01-0.346D-01-0.398D+00
 Coeff-Com:  0.139D+01
 Coeff:      0.150D-05-0.155D-04-0.254D-04-0.110D-03 0.108D-03 0.981D-03
 Coeff:     -0.869D-03-0.413D-02-0.366D-03 0.516D-01-0.346D-01-0.398D+00
 Coeff:      0.139D+01
 Gap=     0.502 Goal=   None    Shift=    0.000
 RMSDP=3.04D-08 MaxDP=5.82D-07 DE=-3.10D-10 OVMax= 3.37D-06

 Cycle  14  Pass 1  IDiag  1:
 E= -279.501537736752     Delta-E=       -0.000000000035 Rises=F Damp=F
 DIIS: error= 1.13D-07 at cycle  14 NSaved=  14.
 NSaved=14 IEnMin=14 EnMin= -279.501537736752     IErMin=14 ErrMin= 1.13D-07
 ErrMax= 1.13D-07  0.00D+00 EMaxC= 1.00D-01 BMatC= 1.28D-12 BMatP= 7.24D-12
 IDIUse=1 WtCom= 1.00D+00 WtEn= 0.00D+00
 Coeff-Com: -0.571D-06 0.803D-05 0.136D-04 0.245D-04-0.159D-03-0.758D-04
 Coeff-Com:  0.662D-03 0.925D-03-0.402D-02-0.590D-02 0.357D-01 0.186D-01
 Coeff-Com: -0.523D+00 0.148D+01
 Coeff:     -0.571D-06 0.803D-05 0.136D-04 0.245D-04-0.159D-03-0.758D-04
 Coeff:      0.662D-03 0.925D-03-0.402D-02-0.590D-02 0.357D-01 0.186D-01
 Coeff:     -0.523D+00 0.148D+01
 Gap=     0.502 Goal=   None    Shift=    0.000
 RMSDP=1.38D-08 MaxDP=3.16D-07 DE=-3.54D-11 OVMax= 1.98D-06

 Cycle  15  Pass 1  IDiag  1:
 E= -279.501537736759     Delta-E=       -0.000000000007 Rises=F Damp=F
 DIIS: error= 6.51D-08 at cycle  15 NSaved=  15.
 NSaved=15 IEnMin=15 EnMin= -279.501537736759     IErMin=15 ErrMin= 6.51D-08
 ErrMax= 6.51D-08  0.00D+00 EMaxC= 1.00D-01 BMatC= 3.63D-13 BMatP= 1.28D-12
 IDIUse=1 WtCom= 1.00D+00 WtEn= 0.00D+00
 Coeff-Com:  0.611D-07-0.168D-05-0.444D-05 0.992D-05 0.902D-04-0.182D-03
 Coeff-Com: -0.252D-03 0.242D-03 0.312D-02-0.830D-02-0.169D-01 0.907D-01
 Coeff-Com: -0.106D-01-0.967D+00 0.191D+01
 Coeff:      0.611D-07-0.168D-05-0.444D-05 0.992D-05 0.902D-04-0.182D-03
 Coeff:     -0.252D-03 0.242D-03 0.312D-02-0.830D-02-0.169D-01 0.907D-01
 Coeff:     -0.106D-01-0.967D+00 0.191D+01
 Gap=     0.502 Goal=   None    Shift=    0.000
 RMSDP=1.10D-08 MaxDP=2.79D-07 DE=-6.76D-12 OVMax= 1.77D-06

 Cycle  16  Pass 1  IDiag  1:
 E= -279.501537736761     Delta-E=       -0.000000000003 Rises=F Damp=F
 DIIS: error= 2.46D-08 at cycle  16 NSaved=  16.
 NSaved=16 IEnMin=16 EnMin= -279.501537736761     IErMin=16 ErrMin= 2.46D-08
 ErrMax= 2.46D-08  0.00D+00 EMaxC= 1.00D-01 BMatC= 4.93D-14 BMatP= 3.63D-13
 IDIUse=1 WtCom= 1.00D+00 WtEn= 0.00D+00
 Coeff-Com:  0.544D-07-0.661D-06-0.221D-06-0.847D-05-0.738D-05 0.748D-04
 Coeff-Com: -0.334D-05-0.240D-03-0.469D-03 0.369D-02 0.427D-03-0.370D-01
 Coeff-Com:  0.102D+00 0.973D-01-0.734D+00 0.157D+01
 Coeff:      0.544D-07-0.661D-06-0.221D-06-0.847D-05-0.738D-05 0.748D-04
 Coeff:     -0.334D-05-0.240D-03-0.469D-03 0.369D-02 0.427D-03-0.370D-01
 Coeff:      0.102D+00 0.973D-01-0.734D+00 0.157D+01
 Gap=     0.502 Goal=   None    Shift=    0.000
 RMSDP=4.08D-09 MaxDP=1.14D-07 DE=-2.50D-12 OVMax= 7.34D-07

 SCF Done:  E(RHF) =  -279.501537737     A.U. after   16 cycles
            NFock= 16  Conv=0.41D-08     -V/T= 2.0024
 KE= 2.788459951930D+02 PE=-8.950889270246D+02 EE= 2.198607474996D+02
 Leave Link  502 at Mon Feb 21 21:09:42 2022, MaxMem= 16106127360 cpu:              42.7 elap:               7.4
 (Enter /sw/contrib/gaussian/g16/B01/g16/l801.exe)
 ExpMin= 2.53D-02 ExpMax= 1.53D+04 ExpMxC= 5.22D+02 IAcc=3 IRadAn=         5 AccDes= 0.00D+00
 HarFok:  IExCor=  205 AccDes= 0.00D+00 IRadAn=         5 IDoV=-2 UseB2=F ITyADJ=14
 ICtDFT= 12500011 ScaDFX=  1.000000  1.000000  1.000000  1.000000
 Largest valence mixing into a core orbital is  2.08D-04
 Largest core mixing into a valence orbital is  3.63D-05
 Range of M.O.s used for correlation:     5   207
 NBasis=   207 NAE=    16 NBE=    16 NFC=     4 NFV=     0
 NROrb=    203 NOA=    12 NOB=    12 NVA=   191 NVB=   191

 **** Warning!!: The largest alpha MO coefficient is  0.17664618D+02

 Leave Link  801 at Mon Feb 21 21:09:42 2022, MaxMem= 16106127360 cpu:               3.2 elap:               0.2
 (Enter /sw/contrib/gaussian/g16/B01/g16/l906.exe)
 Frozen-core derivative calculation, NFC=   4 NFV=   0.
 FulOut=F Deriv=T AODrv=T NAtomX=     5
   MMem=           0  MDisk=          12 MDiskD=          12
  W3Min=      811440 MinDsk=     2425030 NBas6D=         245
 NBas2D=       30762    NTT=       30135    LW2=     7400000
    MDV= 16105638402 MDiskM=      328645 NBas2p=       30702
 Disk-based method using ON**2 memory for 12 occupieds at a time.
 Permanent disk used for amplitudes=    11516536 words.
 Estimated scratch disk usage=   321251614 words.
 IMap=   1   2   3   4   5   6   7   8   9  10  11  12  13  14  15  16
 Actual    scratch disk usage=   310331678 words.
 JobTyp=1 Pass  1:  I=   5 to  16 NPSUse= 28 ParTrn=T ParDer=T DoDerP=T.
 (rs|ai) integrals will be sorted in core.
 Spin components of T(2) and E(2):
     alpha-alpha T2 =       0.3401565640D-01 E2=     -0.1223892876D+00
     alpha-beta  T2 =       0.1868215216D+00 E2=     -0.7001912421D+00
     beta-beta   T2 =       0.3401565640D-01 E2=     -0.1223892876D+00
 The integrals were generated   1 times.
 ANorm=    0.1120202140D+01
 E2 =    -0.9449698173D+00 EUMP2 =    -0.28044650755403D+03
 Leave Link  906 at Mon Feb 21 21:11:20 2022, MaxMem= 16106127360 cpu:            2732.0 elap:              97.7
 (Enter /sw/contrib/gaussian/g16/B01/g16/l1101.exe)
 Using compressed Sx but separate Hx and Fx, NAtomX=     5.
 Will process      6 centers per pass.
 Leave Link 1101 at Mon Feb 21 21:11:20 2022, MaxMem= 16106127360 cpu:               5.2 elap:               0.2
 (Enter /sw/contrib/gaussian/g16/B01/g16/l1102.exe)
 Leave Link 1102 at Mon Feb 21 21:11:20 2022, MaxMem= 16106127360 cpu:               1.2 elap:               0.1
 (Enter /sw/contrib/gaussian/g16/B01/g16/l1110.exe)
 Forming Gx(P) for the SCF density, NAtomX=     5.
 Integral derivatives from FoFJK, PRISM(SPDF).
 Do as many integral derivatives as possible in FoFJK.
 G2DrvN: MDV=   16106126844.
 G2DrvN: will do     6 centers at a time, making    1 passes.
 Calling FoFCou, ICntrl=  3107 FMM=F I1Cent=   0 AccDes= 0.00D+00.
 FoFJK:  IHMeth= 1 ICntrl=    3107 DoSepK=F KAlg= 0 I1Cent=           0 FoldK=F
 IRaf=         0 NMat=       1 IRICut=       1 DoRegI=T DoRafI=F ISym2E= 0 IDoP0=0 IntGTp=1.
 FoFCou: FMM=F IPFlag=           0 FMFlag=      100000 FMFlg1=           0
         NFxFlg=           0 DoJE=F BraDBF=F KetDBF=F FulRan=T
         wScrn=  0.000000 ICntrl=      3107 IOpCl=  0 I1Cent=           0 NGrid=           0
         NMat0=    1 NMatS0=      1 NMatT0=    0 NMatD0=    1 NMtDS0=    0 NMtDT0=    0
 Symmetry not used in FoFCou.
 End of G2Drv F.D. properties file   721 does not exist.
 End of G2Drv F.D. properties file   722 does not exist.
 End of G2Drv F.D. properties file   788 does not exist.
 Leave Link 1110 at Mon Feb 21 21:11:23 2022, MaxMem= 16106127360 cpu:              83.5 elap:               3.0
 (Enter /sw/contrib/gaussian/g16/B01/g16/l1002.exe)
 Minotr:  Closed shell wavefunction.
          IDoAtm=11111
          Frozen-core window.
          Direct CPHF calculation.
          Differentiating once with respect to electric field.
                with respect to dipole field.
          Differentiating once with respect to nuclear coordinates.
          Requested convergence is 1.0D-08 RMS, and 1.0D-07 maximum.
          Secondary convergence is 1.0D-12 RMS, and 1.0D-12 maximum.
          NewPWx=T KeepS1=T KeepF1=T KeepIn=T MapXYZ=F SortEE=F KeepMc=T.
 Keep R1 ints in memory in canonical form, NReq=245618134.
 FoFCou: FMM=F IPFlag=           0 FMFlag=           0 FMFlg1=           0
         NFxFlg=           0 DoJE=F BraDBF=F KetDBF=F FulRan=T
         wScrn=  0.000000 ICntrl=       600 IOpCl=  0 I1Cent=           0 NGrid=           0
         NMat0=    1 NMatS0=  21528 NMatT0=    0 NMatD0=    1 NMtDS0=    0 NMtDT0=    0
 Symmetry not used in FoFCou.
 Two-electron integral symmetry not used.
          MDV=   16106127360 using IRadAn=       1.
          Solving linear equations simultaneously, MaxMat=       0.
          There are    18 degrees of freedom in the 1st order CPHF.  IDoFFX=6 NUNeed=    18.
     15 vectors produced by pass  0 Test12= 1.70D-14 5.56D-09 XBig12= 9.50D+00 1.10D+00.
 AX will form    15 AO Fock derivatives at one time.
     15 vectors produced by pass  1 Test12= 1.70D-14 5.56D-09 XBig12= 1.16D+00 2.25D-01.
     15 vectors produced by pass  2 Test12= 1.70D-14 5.56D-09 XBig12= 1.24D-01 9.41D-02.
     15 vectors produced by pass  3 Test12= 1.70D-14 5.56D-09 XBig12= 4.08D-03 1.01D-02.
     15 vectors produced by pass  4 Test12= 1.70D-14 5.56D-09 XBig12= 7.53D-05 1.58D-03.
     15 vectors produced by pass  5 Test12= 1.70D-14 5.56D-09 XBig12= 9.83D-07 1.27D-04.
     15 vectors produced by pass  6 Test12= 1.70D-14 5.56D-09 XBig12= 7.85D-09 1.01D-05.
     12 vectors produced by pass  7 Test12= 1.70D-14 5.56D-09 XBig12= 5.86D-11 9.35D-07.
      3 vectors produced by pass  8 Test12= 1.70D-14 5.56D-09 XBig12= 4.58D-13 9.36D-08.
      2 vectors produced by pass  9 Test12= 1.70D-14 5.56D-09 XBig12= 3.33D-15 9.27D-09.
 InvSVY:  IOpt=1 It=  1 EMax= 1.11D-15
 Solved reduced A of dimension   122 with    15 vectors.
 FullF1:  Do perturbations      1 to      18.
 Saving first derivative matrices.
 End of Minotr F.D. properties file   721 does not exist.
 End of Minotr F.D. properties file   722 does not exist.
 End of Minotr F.D. properties file   788 does not exist.
 Leave Link 1002 at Mon Feb 21 21:11:27 2022, MaxMem= 16106127360 cpu:              99.1 elap:               3.6
 (Enter /sw/contrib/gaussian/g16/B01/g16/l811.exe)
 MDV= 16106127360.
 Form MO integral derivatives with frozen-active canonical formalism.
 MOERI=1 MOERIx=1 NAtoms=     5 NAtomX=     5.
 Discarding MO integrals.
 MO basis two electron integral derivatives will not be stored on disk.
 IAlg= 3 DoFC=T DoPWx=T Debug=F.
 Frozen-core window:  NFC=   4 NFV=   0.
 Reordered first order wavefunction length =     18678272
 In DefCFB: NBatch=  1 ICI= 16 ICA=191 LFMax= 96
            Large arrays: LIAPS=   619940160 LIARS=   288257200 words.
 In StABat: MaxSiz= 55 MinSiz= 25 NAtomB=  5
 DoIAMN: NPSUse= 28.
 Leave Link  811 at Mon Feb 21 21:13:01 2022, MaxMem= 16106127360 cpu:            2617.4 elap:              93.7
 (Enter /sw/contrib/gaussian/g16/B01/g16/l804.exe)
 Frozen-core window:  NFC=   4 NFV=   0.
 Closed-shell transformation, MDV= 16106127360 ITran=4 ISComp=1.
 Semi-Direct transformation.
 ModeAB=           2 MOrb=            16 LenV=   16104925835
 LASXX=     67341636 LTotXX=    67341636 LenRXX=    67341636
 LTotAB=    68301760 MaxLAS=    99807120 LenRXY=    99807120
 NonZer=   134683272 LenScr=   202817536 LnRSAI=           0
 LnScr1=           0 LExtra=           0 Total=    369966292
 MaxDsk=          -1 SrtSym=           F ITran=            4
 DoSDTr:  NPSUse= 28
 JobTyp=0 Pass  1:  I=   1 to  16.
 (rs|ai) integrals will be sorted in core.
 Complete sort for first half transformation.
 First half transformation complete.
 Begin second half transformation for I=  10.
 Begin second half transformation for I=  10.
 Complete sort for second half transformation.
 Second half transformation complete.
 SymMOI:  orbitals are not symmetric.
 Spin components of T(2) and E(2):
     alpha-alpha T2 =       0.3401565640D-01 E2=     -0.1223892876D+00
     alpha-beta  T2 =       0.1868215216D+00 E2=     -0.7001912421D+00
     beta-beta   T2 =       0.3401565640D-01 E2=     -0.1223892876D+00
 ANorm=    0.1584205059D+01
 E2 =    -0.9449698173D+00 EUMP2 =    -0.28044650755403D+03
 Leave Link  804 at Mon Feb 21 21:13:14 2022, MaxMem= 16106127360 cpu:             383.7 elap:              13.8
 (Enter /sw/contrib/gaussian/g16/B01/g16/l1002.exe)
 Minotr:  Closed shell wavefunction.
          Computing MP2/KS-MP2 derivatives.
          Using Z-Vector for PSCF gradient.
          Skipping F1 and S1 gradient terms here.
          IDoAtm=11111
          Frozen-core window.
          Using MO integrals in the linear equations.
          Forming densities via direct SCF.
          Differentiating once with respect to electric field.
                with respect to dipole field.
          Differentiating once with respect to nuclear coordinates.
          Requested convergence is 1.0D-10 RMS, and 1.0D-09 maximum.
          NewPWx=F KeepS1=T KeepF1=T KeepIn=T MapXYZ=F SortEE=F KeepMc=T.
          MDV=   16106127360 using IRadAn=       5.
          Solving linear equations separately, MaxMat=       0.
          There are     1 degrees of freedom in the 1st order CPHF.  IDoFFX=0 NUNeed=     1.
 FoFJK:  IHMeth= 1 ICntrl=       0 DoSepK=F KAlg= 0 I1Cent=           0 FoldK=F
 IRaf=         0 NMat=       1 IRICut=       1 DoRegI=T DoRafI=F ISym2E= 0 IDoP0=0 IntGTp=1.
 FoFCou: FMM=F IPFlag=           0 FMFlag=      100000 FMFlg1=           0
         NFxFlg=           0 DoJE=F BraDBF=F KetDBF=F FulRan=T
         wScrn=  0.000000 ICntrl=         0 IOpCl=  0 I1Cent=           0 NGrid=           0
         NMat0=    1 NMatS0=      1 NMatT0=    0 NMatD0=    1 NMtDS0=    0 NMtDT0=    0
 Symmetry not used in FoFCou.
 LinEq1:  Iter=  0 NonCon=     1 RMS=5.95D-03 Max=1.31D-01 NDo=     1
 LinEq1:  Iter=  1 NonCon=     1 RMS=1.90D-03 Max=3.81D-02 NDo=     1
 LinEq1:  Iter=  2 NonCon=     1 RMS=8.67D-04 Max=1.36D-02 NDo=     1
 LinEq1:  Iter=  3 NonCon=     1 RMS=3.86D-04 Max=7.79D-03 NDo=     1
 LinEq1:  Iter=  4 NonCon=     1 RMS=1.19D-04 Max=1.85D-03 NDo=     1
 LinEq1:  Iter=  5 NonCon=     1 RMS=4.55D-05 Max=7.17D-04 NDo=     1
 LinEq1:  Iter=  6 NonCon=     1 RMS=2.04D-05 Max=2.13D-04 NDo=     1
 LinEq1:  Iter=  7 NonCon=     1 RMS=8.18D-06 Max=1.36D-04 NDo=     1
 LinEq1:  Iter=  8 NonCon=     1 RMS=3.53D-06 Max=3.30D-05 NDo=     1
 LinEq1:  Iter=  9 NonCon=     1 RMS=9.82D-07 Max=1.22D-05 NDo=     1
 LinEq1:  Iter= 10 NonCon=     1 RMS=2.14D-07 Max=3.96D-06 NDo=     1
 LinEq1:  Iter= 11 NonCon=     1 RMS=5.51D-08 Max=1.52D-06 NDo=     1
 LinEq1:  Iter= 12 NonCon=     1 RMS=1.76D-08 Max=4.00D-07 NDo=     1
 LinEq1:  Iter= 13 NonCon=     1 RMS=3.84D-09 Max=6.40D-08 NDo=     1
 LinEq1:  Iter= 14 NonCon=     1 RMS=7.92D-10 Max=1.27D-08 NDo=     1
 LinEq1:  Iter= 15 NonCon=     1 RMS=1.84D-10 Max=2.85D-09 NDo=     1
 LinEq1:  Iter= 16 NonCon=     0 RMS=4.77D-11 Max=6.22D-10 NDo=     1
 Linear equations converged to 1.000D-10 1.000D-09 after    16 iterations.
 End of Minotr F.D. properties file   721 does not exist.
 End of Minotr F.D. properties file   722 does not exist.
 End of Minotr F.D. properties file   788 does not exist.
 Leave Link 1002 at Mon Feb 21 21:13:17 2022, MaxMem= 16106127360 cpu:              68.0 elap:               2.5
 (Enter /sw/contrib/gaussian/g16/B01/g16/l1102.exe)
 Use density number 2.
 Symmetrizing basis deriv contribution to polar:
 IMax=3 JMax=2 DiffMx= 0.00D+00
 Leave Link 1102 at Mon Feb 21 21:13:17 2022, MaxMem= 16106127360 cpu:               0.8 elap:               0.1
 (Enter /sw/contrib/gaussian/g16/B01/g16/l1110.exe)
 Forming Gx(P) for generalized density number  2 NAtomX=     5.
 Integral derivatives from FoFJK, PRISM(SPDF).
 Do as many integral derivatives as possible in FoFJK.
 G2DrvN: MDV=   16106126844.
 G2DrvN: will do     6 centers at a time, making    1 passes.
 Calling FoFCou, ICntrl=  3107 FMM=F I1Cent=   0 AccDes= 0.00D+00.
 FoFJK:  IHMeth= 1 ICntrl=    3107 DoSepK=F KAlg= 0 I1Cent=           0 FoldK=F
 IRaf=         0 NMat=       1 IRICut=       1 DoRegI=T DoRafI=F ISym2E= 0 IDoP0=0 IntGTp=1.
 FoFCou: FMM=F IPFlag=           0 FMFlag=      100000 FMFlg1=           0
         NFxFlg=           0 DoJE=F BraDBF=F KetDBF=F FulRan=T
         wScrn=  0.000000 ICntrl=      3107 IOpCl=  0 I1Cent=           0 NGrid=           0
         NMat0=    1 NMatS0=      1 NMatT0=    0 NMatD0=    1 NMtDS0=    0 NMtDT0=    0
 Symmetry not used in FoFCou.
 End of G2Drv F.D. properties file   721 does not exist.
 End of G2Drv F.D. properties file   722 does not exist.
 End of G2Drv F.D. properties file   788 does not exist.
 Leave Link 1110 at Mon Feb 21 21:13:20 2022, MaxMem= 16106127360 cpu:              83.5 elap:               3.0
 (Enter /sw/contrib/gaussian/g16/B01/g16/l1112.exe)
 MP22nd: MDV=   16106127360
 This link is doing NAtomX=     5 total of    18 degrees of freedom.
 Using ON3 I/O method in MakUI.
 Frozen-core window:  NFC=   4 NFV=   0.
 Using Ix for Sx.
 Use MO integrals over full window.
 Using OV2 memory method for fx*t*t/D, MaxI=    16 DoOO2=F NP=  28.
 R2 and R3 integrals will be kept in memory, NReq=   915591705.
 FoFCou: FMM=F IPFlag=           0 FMFlag=           0 FMFlg1=           0
         NFxFlg=           0 DoJE=F BraDBF=F KetDBF=F FulRan=T
         wScrn=  0.000000 ICntrl=       600 IOpCl=  0 I1Cent=           0 NGrid=           0
         NMat0=    1 NMatS0=      1 NMatT0=    0 NMatD0=    1 NMtDS0=    0 NMtDT0=    0
 Symmetry not used in FoFCou.
 DD1Dir will call FoFMem   1 times, MxPair=       272
 NAB=   136 NAA=     0 NBB=     0.
 Symmetry is being used.
 FoFJK:  IHMeth= 1 ICntrl=       0 DoSepK=F KAlg= 0 I1Cent=           0 FoldK=F
 IRaf=         0 NMat=      18 IRICut=      45 DoRegI=T DoRafI=T ISym2E= 2 IDoP0=3 IntGTp=3.
 Discarding MO integrals.
 Leave Link 1112 at Mon Feb 21 21:14:03 2022, MaxMem= 16106127360 cpu:            1176.3 elap:              42.6
 (Enter /sw/contrib/gaussian/g16/B01/g16/l601.exe)
 Copying SCF densities to generalized density rwf, IOpCl= 0 IROHF=0.

 **********************************************************************

            Population analysis using the MP2 Density.

 **********************************************************************

 Orbital symmetries:
       Occupied  (A) (A) (A) (A) (A) (A) (A) (A) (A) (A) (A) (A)
                 (A) (A) (A) (A)
       Virtual   (A) (A) (A) (A) (A) (A) (A) (A) (A) (A) (A) (A)
                 (A) (A) (A) (A) (A) (A) (A) (A) (A) (A) (A) (A)
                 (A) (A) (A) (A) (A) (A) (A) (A) (A) (A) (A) (A)
                 (A) (A) (A) (A) (A) (A) (A) (A) (A) (A) (A) (A)
                 (A) (A) (A) (A) (A) (A) (A) (A) (A) (A) (A) (A)
                 (A) (A) (A) (A) (A) (A) (A) (A) (A) (A) (A) (A)
                 (A) (A) (A) (A) (A) (A) (A) (A) (A) (A) (A) (A)
                 (A) (A) (A) (A) (A) (A) (A) (A) (A) (A) (A) (A)
                 (A) (A) (A) (A) (A) (A) (A) (A) (A) (A) (A) (A)
                 (A) (A) (A) (A) (A) (A) (A) (A) (A) (A) (A) (A)
                 (A) (A) (A) (A) (A) (A) (A) (A) (A) (A) (A) (A)
                 (A) (A) (A) (A) (A) (A) (A) (A) (A) (A) (A) (A)
                 (A) (A) (A) (A) (A) (A) (A) (A) (A) (A) (A) (A)
                 (A) (A) (A) (A) (A) (A) (A) (A) (A) (A) (A) (A)
                 (A) (A) (A) (A) (A) (A) (A) (A) (A) (A) (A) (A)
                 (A) (A) (A) (A) (A) (A) (A) (A) (A) (A) (A)
 The electronic state is 1-A.
 Alpha  occ. eigenvalues --  -20.69070 -20.68442 -20.66000 -15.81275  -1.62405
 Alpha  occ. eigenvalues --   -1.49570  -1.25438  -0.94806  -0.77275  -0.75915
 Alpha  occ. eigenvalues --   -0.71216  -0.67897  -0.62058  -0.58934  -0.48522
 Alpha  occ. eigenvalues --   -0.47248
 Alpha virt. eigenvalues --    0.02963   0.07151   0.08603   0.10172   0.13208
 Alpha virt. eigenvalues --    0.13568   0.14410   0.15455   0.17802   0.19409
 Alpha virt. eigenvalues --    0.19946   0.20669   0.22094   0.23430   0.23877
 Alpha virt. eigenvalues --    0.26539   0.29342   0.30306   0.31181   0.34339
 Alpha virt. eigenvalues --    0.34992   0.38719   0.42108   0.43056   0.52519
 Alpha virt. eigenvalues --    0.53155   0.55829   0.58118   0.62604   0.63848
 Alpha virt. eigenvalues --    0.67161   0.68764   0.70652   0.71143   0.72524
 Alpha virt. eigenvalues --    0.72992   0.74478   0.78961   0.79454   0.80739
 Alpha virt. eigenvalues --    0.81584   0.83008   0.86804   0.90776   0.92190
 Alpha virt. eigenvalues --    0.92635   0.95603   0.97580   0.98555   1.01604
 Alpha virt. eigenvalues --    1.04922   1.05532   1.08577   1.11676   1.13960
 Alpha virt. eigenvalues --    1.19070   1.22187   1.23207   1.33823   1.35129
 Alpha virt. eigenvalues --    1.38830   1.45139   1.48744   1.50848   1.53809
 Alpha virt. eigenvalues --    1.56497   1.58201   1.61323   1.66277   1.66907
 Alpha virt. eigenvalues --    1.70407   1.79116   1.82822   1.83808   1.88016
 Alpha virt. eigenvalues --    1.91103   1.95593   1.99078   2.00812   2.07750
 Alpha virt. eigenvalues --    2.11971   2.13043   2.15157   2.22570   2.26385
 Alpha virt. eigenvalues --    2.26585   2.29002   2.31397   2.34521   2.38653
 Alpha virt. eigenvalues --    2.41796   2.43327   2.45393   2.46261   2.47772
 Alpha virt. eigenvalues --    2.50280   2.59057   2.59642   2.61835   2.62445
 Alpha virt. eigenvalues --    2.63554   2.66652   2.75456   2.82021   2.85426
 Alpha virt. eigenvalues --    2.88539   2.90125   2.92311   2.96226   3.02715
 Alpha virt. eigenvalues --    3.06926   3.12190   3.20517   3.22556   3.31497
 Alpha virt. eigenvalues --    3.34225   3.51476   3.63976   3.83668   3.84720
 Alpha virt. eigenvalues --    4.14895   4.16173   4.18410   4.25653   4.35185
 Alpha virt. eigenvalues --    4.39356   4.46444   4.51921   4.65811   4.70956
 Alpha virt. eigenvalues --    4.80583   4.82402   4.82706   4.89930   5.02261
 Alpha virt. eigenvalues --    5.07469   5.10467   5.14668   5.17911   5.24385
 Alpha virt. eigenvalues --    5.27296   5.30532   5.32905   5.35520   5.60586
 Alpha virt. eigenvalues --    5.67426   5.76873   5.82885   5.95811   6.16908
 Alpha virt. eigenvalues --    6.30985   6.33719   6.39412   6.49343   6.50539
 Alpha virt. eigenvalues --    6.61462   6.66726   6.69864   6.75660   6.76401
 Alpha virt. eigenvalues --    6.83235   6.89808   7.01461   7.05392   7.05861
 Alpha virt. eigenvalues --    7.09032   7.12511   7.15251   7.18158   7.22536
 Alpha virt. eigenvalues --    7.24197   7.30798   7.32632   7.34833   7.39928
 Alpha virt. eigenvalues --    7.43208   7.48342   7.59035   7.62556   7.63196
 Alpha virt. eigenvalues --    7.66938   7.78990   7.88633   8.09190   8.31293
 Alpha virt. eigenvalues --    8.40865   8.54330  13.39334  14.39013  15.16318
 Alpha virt. eigenvalues --   16.14936
          Condensed to atoms (all electrons):
               1          2          3          4          5
     1  H    0.589533   0.128411   0.019870   0.012437  -0.000636
     2  O    0.128411   8.321328  -0.173108  -0.090467   0.015378
     3  O    0.019870  -0.173108   8.470329  -0.130616  -0.038798
     4  N    0.012437  -0.090467  -0.130616   6.972752  -0.055709
     5  O   -0.000636   0.015378  -0.038798  -0.055709   8.272535
 Mulliken charges:
               1
     1  H    0.250385
     2  O   -0.201542
     3  O   -0.147677
     4  N    0.291603
     5  O   -0.192769
 Sum of Mulliken charges =  -0.00000
 Mulliken charges with hydrogens summed into heavy atoms:
               1
     2  O    0.048843
     3  O   -0.147677
     4  N    0.291603
     5  O   -0.192769
 APT charges:
               1
     1  H    0.299224
     2  O   -0.288032
     3  O   -0.495991
     4  N    0.875756
     5  O   -0.390957
 Sum of APT charges =  -0.00000
 APT charges with hydrogens summed into heavy atoms:
               1
     2  O    0.011192
     3  O   -0.495991
     4  N    0.875756
     5  O   -0.390957
 Electronic spatial extent (au):  <R**2>=            252.7541
 Charge=             -0.0000 electrons
 Dipole moment (field-independent basis, Debye):
    X=              1.2149    Y=              0.7902    Z=             -0.0112  Tot=              1.4493
 Quadrupole moment (field-independent basis, Debye-Ang):
   XX=            -17.9825   YY=            -23.0931   ZZ=            -22.0167
   XY=              2.7847   XZ=             -0.1644   YZ=              0.0641
 Traceless Quadrupole moment (field-independent basis, Debye-Ang):
   XX=              3.0482   YY=             -2.0623   ZZ=             -0.9859
   XY=              2.7847   XZ=             -0.1644   YZ=              0.0641
 Octapole moment (field-independent basis, Debye-Ang**2):
  XXX=             18.1831  YYY=              1.7506  ZZZ=             -0.0907  XYY=              1.0822
  XXY=              6.1994  XXZ=             -0.2032  XZZ=             -1.7680  YZZ=              0.2562
  YYZ=             -0.1201  XYZ=             -0.1450
 Hexadecapole moment (field-independent basis, Debye-Ang**3):
 XXXX=           -189.8613 YYYY=            -41.0554 ZZZZ=            -18.3901 XXXY=             12.1114
 XXXZ=             -0.8945 YYYX=              0.9995 YYYZ=              0.2059 ZZZX=              0.1379
 ZZZY=              0.0445 XXYY=            -42.4172 XXZZ=            -41.6246 YYZZ=             -9.9072
 XXYZ=              0.0014 YYXZ=             -0.0503 ZZXY=              0.4747
 N-N= 1.168806465952D+02 E-N=-8.958724096966D+02  KE= 2.801979045676D+02
  Exact polarizability:  41.685   0.974  22.514   0.097  -0.068  17.956
 Approx polarizability:  31.919  -1.127  20.572   0.197  -0.014  15.555
 No NMR shielding tensors so no spin-rotation constants.
 Leave Link  601 at Mon Feb 21 21:14:03 2022, MaxMem= 16106127360 cpu:              10.3 elap:               0.4
 (Enter /sw/contrib/gaussian/g16/B01/g16/l701.exe)
 ... and contract with generalized density number  2.
 Compute integral second derivatives.
 Leave Link  701 at Mon Feb 21 21:14:03 2022, MaxMem= 16106127360 cpu:               6.2 elap:               0.2
 (Enter /sw/contrib/gaussian/g16/B01/g16/l702.exe)
 L702 exits ... SP integral derivatives will be done elsewhere.
 Leave Link  702 at Mon Feb 21 21:14:03 2022, MaxMem= 16106127360 cpu:               0.4 elap:               0.0
 (Enter /sw/contrib/gaussian/g16/B01/g16/l703.exe)
 Integral derivatives from FoFJK, PRISM(SPDF).
 Compute integral second derivatives, UseDBF=F ICtDFT=           0.
 Calling FoFJK, ICntrl=  10100127 FMM=F ISym2X=0 I1Cent= 0 IOpClX= 0 NMat=1 NMatS=1 NMatT=0.
 FoFJK:  IHMeth= 1 ICntrl=10100127 DoSepK=F KAlg= 0 I1Cent=           0 FoldK=F
 IRaf=         0 NMat=       1 IRICut=       1 DoRegI=T DoRafI=F ISym2E= 0 IDoP0=0 IntGTp=1.
 FoFCou: FMM=F IPFlag=           0 FMFlag=      100000 FMFlg1=         800
         NFxFlg=           0 DoJE=F BraDBF=F KetDBF=F FulRan=T
         wScrn=  0.000000 ICntrl=  10100127 IOpCl=  0 I1Cent=           0 NGrid=           0
         NMat0=    1 NMatS0=      1 NMatT0=    0 NMatD0=    1 NMtDS0=    0 NMtDT0=    0
 Symmetry not used in FoFCou.
 Leave Link  703 at Mon Feb 21 21:14:19 2022, MaxMem= 16106127360 cpu:             422.9 elap:              15.2
 (Enter /sw/contrib/gaussian/g16/B01/g16/l716.exe)
 Dipole        = 4.77979558D-01 3.10897195D-01-4.41233883D-03
 Polarizability= 4.16853524D+01 9.73545565D-01 2.25144675D+01
                 9.73844676D-02-6.75727884D-02 1.79557884D+01
 Full mass-weighted force constant matrix:
 Low frequencies --- -269.8933  -18.6138   -8.6676   -0.0007    0.0006    0.0015
 Low frequencies ---    1.6940  225.6382  342.2004
 ******    1 imaginary frequencies (negative Signs) ****** 
 Diagonal vibrational polarizability:
       34.9860711       4.5568536      46.4236246
 Harmonic frequencies (cm**-1), IR intensities (KM/Mole), Raman scattering
 activities (A**4/AMU), depolarization ratios for plane and unpolarized
 incident light, reduced masses (AMU), force constants (mDyne/A),
 and normal coordinates:
                      1                      2                      3
                      A                      A                      A
 Frequencies --   -269.8930               225.6358               342.0485
 Red. masses --      1.1383                10.5261                 8.6487
 Frc consts  --      0.0489                 0.3157                 0.5962
 IR Inten    --    124.7166                 1.8209                 4.1158
  Atom  AN      X      Y      Z        X      Y      Z        X      Y      Z
     1   1     0.03  -0.02   0.99     0.00  -0.07  -0.57     0.17  -0.67   0.04
     2   8    -0.00   0.00  -0.06    -0.04  -0.02  -0.31    -0.30  -0.25   0.02
     3   8     0.00   0.00  -0.04     0.03   0.05   0.33     0.14   0.43   0.01
     4   7    -0.00   0.00   0.06    -0.02   0.03   0.52     0.19   0.18  -0.08
     5   8     0.00  -0.00  -0.01     0.03  -0.05  -0.44    -0.02  -0.30   0.04
                      4                      5                      6
                      A                      A                      A
 Frequencies --    451.9457               785.8177               967.2135
 Red. masses --     12.3009                12.9086                15.3948
 Frc consts  --      1.4803                 4.6965                 8.4853
 IR Inten    --    199.1118               170.2739                22.3930
  Atom  AN      X      Y      Z        X      Y      Z        X      Y      Z
     1   1    -0.45   0.09  -0.00    -0.16   0.35   0.03    -0.16   0.07  -0.01
     2   8    -0.38   0.03  -0.00     0.39  -0.18  -0.02    -0.40   0.33   0.02
     3   8    -0.40  -0.25  -0.00    -0.21  -0.18   0.04     0.59  -0.46  -0.01
     4   7     0.52   0.12   0.01     0.26   0.58  -0.00     0.05   0.27  -0.00
     5   8     0.35   0.11  -0.01    -0.39  -0.17  -0.01    -0.22  -0.11  -0.01
                      7                      8                      9
                      A                      A                      A
 Frequencies --   1371.0909              1676.9436              3778.6858
 Red. masses --      1.1334                13.2095                 1.0675
 Frc consts  --      1.2554                21.8864                 8.9809
 IR Inten    --    152.6458               140.2505                82.6249
  Atom  AN      X      Y      Z        X      Y      Z        X      Y      Z
     1   1     0.77  -0.63  -0.04     0.27  -0.21  -0.01     0.67   0.74  -0.01
     2   8     0.01   0.06   0.00     0.03   0.03  -0.00    -0.04  -0.05   0.00
     3   8    -0.05  -0.03   0.00    -0.09  -0.12   0.00     0.00  -0.00  -0.00
     4   7     0.02  -0.00   0.00    -0.53   0.46  -0.05    -0.00  -0.00  -0.00
     5   8    -0.03   0.01  -0.00     0.52  -0.30   0.04     0.00  -0.00   0.00

 -------------------
 - Thermochemistry -
 -------------------
 Temperature   298.150 Kelvin.  Pressure   1.00000 Atm.
 Atom     1 has atomic number  1 and mass   1.00783
 Atom     2 has atomic number  8 and mass  15.99491
 Atom     3 has atomic number  8 and mass  15.99491
 Atom     4 has atomic number  7 and mass  14.00307
 Atom     5 has atomic number  8 and mass  15.99491
 Molecular mass:    62.99564 amu.
 Principal axes and moments of inertia in atomic units:
                           1         2         3
     Eigenvalues --    33.03843 359.90993 392.49014
           X            0.99994   0.01070  -0.00070
           Y           -0.01070   0.99994  -0.00152
           Z            0.00068   0.00153   1.00000
 This molecule is an asymmetric top.
 Rotational symmetry number  1.
 Rotational temperatures (Kelvin)      2.62161     0.24065     0.22068
 Rotational constants (GHZ):          54.62551     5.01442     4.59818
    1 imaginary frequencies ignored.
 Zero-point vibrational energy      57417.1 (Joules/Mol)
                                   13.72300 (Kcal/Mol)
 Warning -- explicit consideration of   3 degrees of freedom as
           vibrations may cause significant error
 Vibrational temperatures:    324.64   492.13   650.25  1130.62  1391.60
          (Kelvin)           1972.69  2412.75  5436.69
 
 Zero-point correction=                           0.021869 (Hartree/Particle)
 Thermal correction to Energy=                    0.025991
 Thermal correction to Enthalpy=                  0.026935
 Thermal correction to Gibbs Free Energy=        -0.004262
 Sum of electronic and zero-point Energies=           -280.424639
 Sum of electronic and thermal Energies=              -280.420517
 Sum of electronic and thermal Enthalpies=            -280.419573
 Sum of electronic and thermal Free Energies=         -280.450769
 
                     E (Thermal)             CV                S
                      KCal/Mol        Cal/Mol-Kelvin    Cal/Mol-Kelvin
 Total                   16.309             11.957             65.659
 Electronic               0.000              0.000              0.000
 Translational            0.889              2.981             38.341
 Rotational               0.889              2.981             23.061
 Vibrational             14.532              5.995              4.258
 Vibration     1          0.650              1.802              1.913
 Vibration     2          0.721              1.591              1.203
 Vibration     3          0.811              1.357              0.790
                       Q            Log10(Q)             Ln(Q)
 Total Bot       0.912633D+02          1.960296          4.513748
 Total V=0       0.104551D+13         12.019329         27.675527
 Vib (Bot)       0.189893D-09         -9.721490        -22.384559
 Vib (Bot)    1  0.874556D+00         -0.058213         -0.134039
 Vib (Bot)    2  0.542157D+00         -0.265875         -0.612200
 Vib (Bot)    3  0.378842D+00         -0.421542         -0.970636
 Vib (V=0)       0.217542D+01          0.337543          0.777221
 Vib (V=0)    1  0.150740D+01          0.178227          0.410384
 Vib (V=0)    2  0.123752D+01          0.092552          0.213108
 Vib (V=0)    3  0.112731D+01          0.052044          0.119837
 Electronic      0.100000D+01          0.000000          0.000000
 Translational   0.196526D+08          7.293420         16.793719
 Rotational      0.244549D+05          4.388367         10.104588
 
                                                                title
                                                             IR Spectrum
 
     3                                                                      1         1                                              
     7                                                                      6         3             9     7          4   3   2       
     7                                                                      7         7             6     8          5   4   2       
     9                                                                      7         1             7     6          2   2   6       
 
     X                                                                      X         X             X     X          X   X   X       
     X                                                                      X         X             X     X          X               
     X                                                                      X         X                   X          X               
     X                                                                      X         X                   X          X               
     X                                                                      X         X                   X          X               
     X                                                                      X         X                   X          X               
     X                                                                      X         X                   X          X               
     X                                                                      X         X                   X          X               
                                                                            X         X                   X          X               
                                                                            X         X                   X          X               
                                                                            X         X                   X          X               
                                                                            X         X                   X          X               
                                                                            X         X                   X          X               
                                                                            X         X                   X          X               
                                                                                      X                   X          X               
                                                                                                          X          X               
                                                                                                          X          X               
                                                                                                                     X               
                                                                                                                     X               
                                                                                                                     X               
 
 ***** Axes restored to original set *****
 -------------------------------------------------------------------
 Center     Atomic                   Forces (Hartrees/Bohr)
 Number     Number              X              Y              Z
 -------------------------------------------------------------------
      1        1           0.000076481   -0.000225822    0.000005634
      2        8           0.000114019   -0.001388961    0.000135729
      3        8          -0.000080877    0.001570824   -0.000312372
      4        7          -0.000675914    0.002054765    0.000101777
      5        8           0.000566292   -0.002010806    0.000069233
 -------------------------------------------------------------------
 Cartesian Forces:  Max     0.002054765 RMS     0.000953842
 -----------------------------------------------------------------------------------------------
                       Internal Coordinate Forces (Hartree/Bohr or radian)
  Cent   Atom   N1       Length/X         N2         Alpha/Y        N3         Beta/Z          J
 -----------------------------------------------------------------------------------------------
      1  H 
      2  O        1  -0.000006(     1)
      3  O        2  -0.000208(     2)      1  -0.000140(     5)
      4  N        3   0.000161(     3)      2  -0.000176(     6)      1   0.000410(     8)     0
      5  O        4   0.000363(     4)      3  -0.000008(     7)      2  -0.004304(     9)     0
 -----------------------------------------------------------------------------------------------
 Internal  Forces:  Max     0.004303984 RMS     0.001450817
 Force constants in Cartesian coordinates: 
                1             2             3             4             5 
      1  0.646305D-01
      2 -0.340786D-03 -0.237340D-02
      3  0.529478D-02  0.775730D-04  0.512357D+00
      4 -0.357746D-01  0.720772D-03 -0.162937D-01  0.272847D+00
      5  0.342039D-03  0.305883D-02 -0.105122D-03  0.217243D-03  0.200711D-02
      6  0.482396D-01 -0.260686D-03 -0.508537D+00  0.334684D-01 -0.836520D-04
      7 -0.184001D-01 -0.363738D-03  0.125404D-01 -0.220464D+00 -0.101076D-02
      8  0.652773D-03  0.101426D-02  0.109326D-04 -0.683082D-03 -0.648117D-02
      9 -0.531510D-01  0.178710D-03 -0.476379D-03 -0.194141D-01  0.200904D-02
     10 -0.923344D-02  0.514804D-04 -0.486369D-02 -0.169190D-01  0.984428D-03
     11 -0.493081D-03 -0.271347D-02 -0.288967D-03 -0.861350D-03 -0.480313D-02
     12  0.535904D-02  0.495296D-04 -0.474285D-02  0.114658D-01 -0.182710D-02
     13 -0.122231D-02 -0.677289D-04  0.332224D-02  0.310150D-03 -0.532954D-03
     14 -0.160945D-03  0.101378D-02  0.305584D-03  0.606417D-03  0.621836D-02
     15 -0.574243D-02 -0.451269D-04  0.139936D-02 -0.922642D-02  0.683525D-05
                6             7             8             9            10 
      6  0.594459D+00
      7 -0.213790D-01  0.341060D+00
      8  0.283601D-02  0.844294D-02  0.462007D-02
      9 -0.784080D-01  0.361308D-01 -0.384481D-02  0.181222D+00
     10 -0.523401D-01 -0.776809D-01 -0.773390D-02  0.174300D+00  0.820127D+00
     11 -0.149203D-02 -0.427041D-02  0.795839D-02  0.132484D-01  0.789631D-01
     12  0.170777D-01  0.627792D-01  0.903707D-02 -0.817934D-01 -0.178584D-01
     13 -0.798886D-02 -0.245157D-01 -0.678732D-03 -0.137866D+00 -0.716294D+00
     14 -0.999640D-03 -0.279804D-02 -0.711156D-02 -0.115913D-01 -0.722651D-01
     15 -0.245916D-01 -0.900713D-01 -0.803921D-02 -0.205438D-01 -0.992381D-01
               11            12            13            14            15 
     11  0.163641D-01
     12  0.609299D-03  0.186737D+00
     13 -0.733383D-01 -0.617456D-01  0.741722D+00
     14 -0.168059D-01 -0.786879D-02  0.746177D-01  0.166853D-01
     15 -0.120767D-01 -0.117278D+00  0.204278D+00  0.201542D-01  0.161014D+00
 Force constants in internal coordinates: 
                1             2             3             4             5 
      1  0.512357D+00
      2 -0.103975D-01  0.281378D+00
      3  0.345861D-02  0.246640D-02  0.117459D+00
      4 -0.357919D-02  0.588063D-02  0.153088D+00  0.811814D+00
      5  0.977167D-02  0.653306D-01  0.226954D-02  0.479924D-02  0.216692D+00
      6  0.463538D-02  0.589378D-01  0.409096D-01  0.216974D-01  0.312575D-01
      7 -0.116488D-02  0.375606D-01  0.323621D-01  0.846747D-01  0.212916D-01
      8 -0.830904D-04  0.639741D-03 -0.558260D-05 -0.435594D-04 -0.107656D-02
      9  0.669752D-04 -0.737995D-03 -0.476630D-02  0.346231D-03  0.312835D-03
                6             7             8             9 
      6  0.281813D+00
      7  0.955852D-01  0.483036D+00
      8 -0.251022D-04  0.249331D-03 -0.780970D-02
      9  0.228484D-02 -0.794519D-03 -0.385190D-02  0.404285D-01
 Leave Link  716 at Mon Feb 21 21:14:19 2022, MaxMem= 16106127360 cpu:               1.2 elap:               0.1
 (Enter /sw/contrib/gaussian/g16/B01/g16/l103.exe)

 GradGradGradGradGradGradGradGradGradGradGradGradGradGradGradGradGradGrad
 Berny optimization.
 Search for a local minimum.
 Step number   1 out of a maximum of    2
 All quantities printed in internal units (Hartrees-Bohrs-Radians)
 Second derivative matrix not updated -- analytic derivatives used.
 The second derivative matrix:
                          r1        r2        r3        r4        a1
           r1           0.51236
           r2          -0.01040   0.28138
           r3           0.00346   0.00247   0.11746
           r4          -0.00358   0.00588   0.15309   0.81181
           a1           0.00977   0.06533   0.00227   0.00480   0.21669
           a2           0.00464   0.05894   0.04091   0.02170   0.03126
           a3          -0.00116   0.03756   0.03236   0.08467   0.02129
           d1          -0.00008   0.00064  -0.00001  -0.00004  -0.00108
           d2           0.00007  -0.00074  -0.00477   0.00035   0.00031
                          a2        a3        d1        d2
           a2           0.28181
           a3           0.09559   0.48304
           d1          -0.00003   0.00025  -0.00781
           d2           0.00228  -0.00079  -0.00385   0.04043
 ITU=  0
     Eigenvalues ---   -0.00812   0.04004   0.07914   0.17531   0.22484
     Eigenvalues ---    0.32512   0.51298   0.51712   0.87074
 Eigenvalue     1 is  -8.12D-03 should be greater than     0.000000 Eigenvector:
                          d1        d2        a1        r3        r2
   1                    0.99681   0.07947   0.00570   0.00432  -0.00307
                          a2        r4        a3        r1
   1                   -0.00097  -0.00074  -0.00036  -0.00005
 Angle between quadratic step and forces=   8.29 degrees.
 Linear search not attempted -- first point.
 Variable       Old X    -DE/DX   Delta X   Delta X   Delta X     New X
                                 (Linear)    (Quad)   (Total)
    r1        1.83110  -0.00001   0.00000   0.00002   0.00002   1.83112
    r2        2.74940  -0.00021   0.00000  -0.00122  -0.00122   2.74818
    r3        2.75670   0.00016   0.00000  -0.00518  -0.00518   2.75153
    r4        2.21236   0.00036   0.00000   0.00147   0.00147   2.21383
    a1        1.70335  -0.00014   0.00000  -0.00018  -0.00018   1.70317
    a2        1.78543  -0.00018   0.00000   0.00123   0.00123   1.78666
    a3        1.90362  -0.00001   0.00000  -0.00025  -0.00025   1.90337
    d1        3.14159   0.00041   0.00000   0.01672   0.01672   3.15831
    d2        3.24688  -0.00430   0.00000  -0.10585  -0.10585   3.14104
         Item               Value     Threshold  Converged?
 Maximum Force            0.004304     0.000450     NO 
 RMS     Force            0.001451     0.000300     NO 
 Maximum Displacement     0.105848     0.001800     NO 
 RMS     Displacement     0.035770     0.001200     NO 
 Predicted change in Energy=-2.316399D-04
                       ----------------------------
                       ! Non-Optimized Parameters !
                       ! (Angstroms and Degrees)  !
 ----------------------                            ----------------------
 !      Name          Value   Derivative information (Atomic Units)     !
 ------------------------------------------------------------------------
 !       r1          0.969    -DE/DX =    0.0                           !
 !       r2          1.4543   -DE/DX =   -0.0002                        !
 !       r3          1.456    -DE/DX =    0.0002                        !
 !       r4          1.1715   -DE/DX =    0.0004                        !
 !       a1         97.5847   -DE/DX =   -0.0001                        !
 !       a2        102.3682   -DE/DX =   -0.0002                        !
 !       a3        109.0552   -DE/DX =    0.0                           !
 !       d1        180.9579   -DE/DX =    0.0004                        !
 !       d2        179.9681   -DE/DX =   -0.0043                        !
 ------------------------------------------------------------------------
 GradGradGradGradGradGradGradGradGradGradGradGradGradGradGradGradGradGrad

 Leave Link  103 at Mon Feb 21 21:14:19 2022, MaxMem= 16106127360 cpu:               0.6 elap:               0.0
 (Enter /sw/contrib/gaussian/g16/B01/g16/l9999.exe)

 ----------------------------------------------------------------------

 Electric dipole moment (input orientation):
 (Debye = 10**-18 statcoulomb cm , SI units = C m)
                  (au)            (Debye)         (10**-30 SI)
   Tot        0.570211D+00      0.144933D+01      0.483445D+01
   x         -0.145345D+00     -0.369431D+00     -0.123229D+01
   y         -0.444861D-02     -0.113072D-01     -0.377169D-01
   z         -0.551358D+00     -0.140141D+01     -0.467461D+01

 Dipole polarizability, Alpha (input orientation).
 (esu units = cm**3 , SI units = C**2 m**2 J**-1)
 Alpha(0;0):
               (au)            (10**-24 esu)      (10**-40 SI)
   iso        0.273852D+02      0.405807D+01      0.451521D+01
   aniso      0.218766D+02      0.324177D+01      0.360696D+01
   xx         0.320432D+02      0.474831D+01      0.528321D+01
   yx         0.663019D+00      0.982493D-01      0.109317D+00
   yy         0.179855D+02      0.266517D+01      0.296540D+01
   zx         0.962417D+01      0.142616D+01      0.158681D+01
   zy         0.442361D+00      0.655512D-01      0.729355D-01
   zz         0.321269D+02      0.476072D+01      0.529702D+01

 ----------------------------------------------------------------------

 Dipole orientation:
     1         -0.00000000         -0.00000000         -0.00000000
     8         -0.46674156          0.01428566         -1.77055632
     8          2.07588937          0.01987601         -2.81659252
     7          1.59411767          0.04153903         -5.53078385
     8          3.51494157         -0.17175951         -6.60756716

 Electric dipole moment (dipole orientation):
 (Debye = 10**-18 statcoulomb cm , SI units = C m)
                  (au)            (Debye)         (10**-30 SI)
   Tot        0.570211D+00      0.144933D+01      0.483445D+01
   x          0.000000D+00      0.000000D+00      0.000000D+00
   y          0.000000D+00      0.000000D+00      0.000000D+00
   z          0.570211D+00      0.144933D+01      0.483445D+01

 Dipole polarizability, Alpha (dipole orientation).
 (esu units = cm**3 , SI units = C**2 m**2 J**-1)
 Alpha(0;0):
               (au)            (10**-24 esu)      (10**-40 SI)
   iso        0.273852D+02      0.405807D+01      0.451521D+01
   aniso      0.218766D+02      0.324177D+01      0.360696D+01
   xx         0.273033D+02      0.404593D+01      0.450170D+01
   yx        -0.472604D+00     -0.700326D-01     -0.779218D-01
   yy         0.179783D+02      0.266410D+01      0.296421D+01
   zx        -0.835626D+01     -0.123827D+01     -0.137776D+01
   zy         0.457837D+00      0.678444D-01      0.754870D-01
   zz         0.368741D+02      0.546417D+01      0.607971D+01

 ----------------------------------------------------------------------
 1\1\GINC-N2129\Freq\RMP2-FC\Aug-CC-pVTZ\H1N1O3\CGAVINH\21-Feb-2022\1\\
 #p freq mp2/aug-cc-pvtz density=current\\title\\0,1\H\O,1,r1\O,2,r2,1,
 a1\N,3,r3,2,a2,1,d1,0\O,4,r4,3,a3,2,d2,0\\r1=0.96897556\r2=1.45491931\
 r3=1.45878406\r4=1.17072885\a1=97.59494903\a2=102.29752444\a3=109.0695
 5123\d1=180.\d2=186.03270653\\Version=ES64L-G16RevB.01\State=1-A\HF=-2
 79.5015377\MP2=-280.4465076\RMSD=4.077e-09\RMSF=9.538e-04\ZeroPoint=0.
 021869\Thermal=0.0259906\Dipole=-0.1453452,-0.0044486,-0.5513583\Dipol
 eDeriv=0.2663721,-0.000901,0.0481439,0.0020946,0.3555794,0.0026456,0.0
 821036,0.001064,0.2757199,-0.3272702,-0.005025,-0.2063929,0.0044193,-0
 .313746,0.0049901,-0.1107446,-0.0057398,-0.2230788,-0.0469891,-0.00899
 ,0.1460722,-0.0116059,-0.0883795,0.0011009,-0.7495478,-0.0452749,-1.35
 26034,0.887435,0.0695453,0.9062987,0.075581,0.0718138,0.0727506,0.9191
 412,0.0543083,1.6680183,-0.7795478,-0.0546293,-0.894122,-0.0704889,-0.
 0252679,-0.0814871,-0.1409525,-0.0043577,-0.368056\Polar=32.0432071,0.
 663019,17.9854717,9.6241727,0.4423612,32.1269296\Quadrupole=-1.4992083
 ,-0.7416872,2.2408954,-0.1334815,2.0943198,0.0453828\PG=C01 [X(H1N1O3)
 ]\NImag=1\\0.06463047,-0.00034079,-0.00237340,0.00529478,0.00007757,0.
 51235698,-0.03577458,0.00072077,-0.01629369,0.27284702,0.00034204,0.00
 305883,-0.00010512,0.00021724,0.00200711,0.04823959,-0.00026069,-0.508
 53711,0.03346838,-0.00008365,0.59445897,-0.01840014,-0.00036374,0.0125
 4036,-0.22046363,-0.00101076,-0.02137899,0.34106035,0.00065277,0.00101
 426,0.00001093,-0.00068308,-0.00648117,0.00283601,0.00844294,0.0046200
 7,-0.05315097,0.00017871,-0.00047638,-0.01941412,0.00200904,-0.0784080
 0,0.03613078,-0.00384481,0.18122157,-0.00923344,0.00005148,-0.00486369
 ,-0.01691896,0.00098443,-0.05234011,-0.07768088,-0.00773390,0.17430026
 ,0.82012696,-0.00049308,-0.00271347,-0.00028897,-0.00086135,-0.0048031
 3,-0.00149203,-0.00427041,0.00795839,0.01324840,0.07896310,0.01636412,
 0.00535904,0.00004953,-0.00474285,0.01146584,-0.00182710,0.01707773,0.
 06277916,0.00903707,-0.08179344,-0.01785839,0.00060930,0.18673678,-0.0
 0122231,-0.00006773,0.00332224,0.00031015,-0.00053295,-0.00798886,-0.0
 2451568,-0.00067873,-0.13786595,-0.71629368,-0.07333826,-0.06174565,0.
 74172152,-0.00016094,0.00101378,0.00030558,0.00060642,0.00621836,-0.00
 099964,-0.00279804,-0.00711156,-0.01159134,-0.07226511,-0.01680590,-0.
 00786879,0.07461767,0.01668532,-0.00574243,-0.00004513,0.00139936,-0.0
 0922642,0.00000684,-0.02459159,-0.09007131,-0.00803921,-0.02054376,-0.
 09923806,-0.01207670,-0.11727822,0.20427822,0.02015419,0.16101422\\-0.
 00007648,0.00022582,-0.00000563,-0.00011402,0.00138896,-0.00013573,0.0
 0008088,-0.00157082,0.00031237,0.00067591,-0.00205476,-0.00010178,-0.0
 0056629,0.00201081,-0.00006923\\\@


 There ain't no surer way to find out whether you
 like people or hate them than to travel with them.
                                     -- Mark Twain
 Job cpu time:       0 days  2 hours  9 minutes 24.9 seconds.
 Elapsed time:       0 days  0 hours  4 minutes 45.0 seconds.
 File lengths (MBytes):  RWF=   7239 Int=      0 D2E=      0 Chk=      8 Scr=      1
 Normal termination of Gaussian 16 at Mon Feb 21 21:14:20 2022.
