 Entering Gaussian System, Link 0=g16
 Input=hoono_a3_109p6262.gjf
 Output=hoono_a3_109p6262.log
 Initial command:
 /sw/contrib/gaussian/g16/B01/g16/l1.exe "/scr/Gau-30208.inp" -scrdir="/scr/"
 Entering Link 1 = /sw/contrib/gaussian/g16/B01/g16/l1.exe PID=     30209.
  
 Copyright (c) 1988-2017, Gaussian, Inc.  All Rights Reserved.
  
 This is part of the Gaussian(R) 16 program.  It is based on
 the Gaussian(R) 09 system (copyright 2009, Gaussian, Inc.),
 the Gaussian(R) 03 system (copyright 2003, Gaussian, Inc.),
 the Gaussian(R) 98 system (copyright 1998, Gaussian, Inc.),
 the Gaussian(R) 94 system (copyright 1995, Gaussian, Inc.),
 the Gaussian 92(TM) system (copyright 1992, Gaussian, Inc.),
 the Gaussian 90(TM) system (copyright 1990, Gaussian, Inc.),
 the Gaussian 88(TM) system (copyright 1988, Gaussian, Inc.),
 the Gaussian 86(TM) system (copyright 1986, Carnegie Mellon
 University), and the Gaussian 82(TM) system (copyright 1983,
 Carnegie Mellon University). Gaussian is a federally registered
 trademark of Gaussian, Inc.
  
 This software contains proprietary and confidential information,
 including trade secrets, belonging to Gaussian, Inc.
  
 This software is provided under written license and may be
 used, copied, transmitted, or stored only in accord with that
 written license.
  
 The following legend is applicable only to US Government
 contracts under FAR:
  
                    RESTRICTED RIGHTS LEGEND
  
 Use, reproduction and disclosure by the US Government is
 subject to restrictions as set forth in subparagraphs (a)
 and (c) of the Commercial Computer Software - Restricted
 Rights clause in FAR 52.227-19.
  
 Gaussian, Inc.
 340 Quinnipiac St., Bldg. 40, Wallingford CT 06492
  
  
 ---------------------------------------------------------------
 Warning -- This program may not be used in any manner that
 competes with the business of Gaussian, Inc. or will provide
 assistance to any competitor of Gaussian, Inc.  The licensee
 of this program is prohibited from giving any competitor of
 Gaussian, Inc. access to this program.  By using this program,
 the user acknowledges that Gaussian, Inc. is engaged in the
 business of creating and licensing software in the field of
 computational chemistry and represents and warrants to the
 licensee that it is not a competitor of Gaussian, Inc. and that
 it will not use this program in any manner prohibited above.
 ---------------------------------------------------------------
  

 Cite this work as:
 Gaussian 16, Revision B.01,
 M. J. Frisch, G. W. Trucks, H. B. Schlegel, G. E. Scuseria, 
 M. A. Robb, J. R. Cheeseman, G. Scalmani, V. Barone, 
 G. A. Petersson, H. Nakatsuji, X. Li, M. Caricato, A. V. Marenich, 
 J. Bloino, B. G. Janesko, R. Gomperts, B. Mennucci, H. P. Hratchian, 
 J. V. Ortiz, A. F. Izmaylov, J. L. Sonnenberg, D. Williams-Young, 
 F. Ding, F. Lipparini, F. Egidi, J. Goings, B. Peng, A. Petrone, 
 T. Henderson, D. Ranasinghe, V. G. Zakrzewski, J. Gao, N. Rega, 
 G. Zheng, W. Liang, M. Hada, M. Ehara, K. Toyota, R. Fukuda, 
 J. Hasegawa, M. Ishida, T. Nakajima, Y. Honda, O. Kitao, H. Nakai, 
 T. Vreven, K. Throssell, J. A. Montgomery, Jr., J. E. Peralta, 
 F. Ogliaro, M. J. Bearpark, J. J. Heyd, E. N. Brothers, K. N. Kudin, 
 V. N. Staroverov, T. A. Keith, R. Kobayashi, J. Normand, 
 K. Raghavachari, A. P. Rendell, J. C. Burant, S. S. Iyengar, 
 J. Tomasi, M. Cossi, J. M. Millam, M. Klene, C. Adamo, R. Cammi, 
 J. W. Ochterski, R. L. Martin, K. Morokuma, O. Farkas, 
 J. B. Foresman, and D. J. Fox, Gaussian, Inc., Wallingford CT, 2016.
 
 ******************************************
 Gaussian 16:  ES64L-G16RevB.01 20-Dec-2017
                21-Feb-2022 
 ******************************************
 %nproc=28
 Will use up to   28 processors via shared memory.
 %mem=120GB
 %chk=hoono_a3_109p6262.chk
 ---------------------------------------
 #p freq mp2/aug-cc-pvtz density=current
 ---------------------------------------
 1/10=4,30=1,38=1/1,3;
 2/12=2,17=6,18=5,40=1/2;
 3/5=16,6=1,7=10,11=9,25=1,30=1,71=2,140=1/1,2,3;
 4//1;
 5/5=2,38=5,98=1/2;
 8/6=3,8=1,10=1,19=11,30=-1/1;
 9/15=3,16=-3/6;
 11/6=1,8=1,15=11,17=12,24=-1,27=1,28=-2,29=300,32=6,42=3/1,2,10;
 10/6=2,21=1/2;
 8/6=4,8=1,10=1,19=11,30=-1/11,4;
 10/5=1,20=4/2;
 11/12=2,14=11,16=1,17=2,28=-2,42=3,76=2/2,10,12;
 6/7=2,8=2,9=2,10=2,22=-1/1;
 7/8=1,10=1,12=2,25=1,44=2/1,2,3,16;
 1/10=4,30=1/3;
 99//99;
 Leave Link    1 at Mon Feb 21 20:50:19 2022, MaxMem= 16106127360 cpu:               3.8 elap:               0.1
 (Enter /sw/contrib/gaussian/g16/B01/g16/l101.exe)
 -----
 title
 -----
 Symbolic Z-matrix:
 Charge =  0 Multiplicity = 1
 H
 O                    1    r1
 O                    2    r2       1    a1
 N                    3    r3       2    a2       1    d1       0
 O                    4    r4       3    a3       2    d2       0
       Variables:
  r1                    0.96898                  
  r2                    1.45492                  
  r3                    1.45878                  
  r4                    1.17073                  
  a1                   97.59495                  
  a2                  102.29752                  
  a3                  109.62623                  
  d1                  180.                       
  d2                  180.                       
 
 ITRead=  0  0  0  0  0
 MicOpt= -1 -1 -1 -1 -1
 NAtoms=      5 NQM=        5 NQMF=       0 NMMI=      0 NMMIF=      0
                NMic=       0 NMicF=      0.
                    Isotopes and Nuclear Properties:
 (Nuclear quadrupole moments (NQMom) in fm**2, nuclear magnetic moments (NMagM)
  in nuclear magnetons)

  Atom         1           2           3           4           5
 IAtWgt=           1          16          16          14          16
 AtmWgt=   1.0078250  15.9949146  15.9949146  14.0030740  15.9949146
 NucSpn=           1           0           0           2           0
 AtZEff=  -0.0000000  -0.0000000  -0.0000000  -0.0000000  -0.0000000
 NQMom=    0.0000000   0.0000000   0.0000000   2.0440000   0.0000000
 NMagM=    2.7928460   0.0000000   0.0000000   0.4037610   0.0000000
 AtZNuc=   1.0000000   8.0000000   8.0000000   7.0000000   8.0000000
 Leave Link  101 at Mon Feb 21 20:50:19 2022, MaxMem= 16106127360 cpu:               2.6 elap:               0.1
 (Enter /sw/contrib/gaussian/g16/B01/g16/l103.exe)

 GradGradGradGradGradGradGradGradGradGradGradGradGradGradGradGradGradGrad
 Berny optimization.
 Initialization pass.
                       ----------------------------
                       !    Initial Parameters    !
                       ! (Angstroms and Degrees)  !
 ----------------------                            ----------------------
 !      Name          Value   Derivative information (Atomic Units)     !
 ------------------------------------------------------------------------
 !       r1          0.969    calculate D2E/DX2 analytically            !
 !       r2          1.4549   calculate D2E/DX2 analytically            !
 !       r3          1.4588   calculate D2E/DX2 analytically            !
 !       r4          1.1707   calculate D2E/DX2 analytically            !
 !       a1         97.5949   calculate D2E/DX2 analytically            !
 !       a2        102.2975   calculate D2E/DX2 analytically            !
 !       a3        109.6262   calculate D2E/DX2 analytically            !
 !       d1        180.0      calculate D2E/DX2 analytically            !
 !       d2        180.0      calculate D2E/DX2 analytically            !
 ------------------------------------------------------------------------
 Trust Radius=3.00D-01 FncErr=1.00D-07 GrdErr=1.00D-07 EigMax=2.50D+02 EigMin=1.00D-04
 Number of steps in this run=      2 maximum allowed number of steps=      2.
 GradGradGradGradGradGradGradGradGradGradGradGradGradGradGradGradGradGrad

 Leave Link  103 at Mon Feb 21 20:50:20 2022, MaxMem= 16106127360 cpu:               0.5 elap:               0.0
 (Enter /sw/contrib/gaussian/g16/B01/g16/l202.exe)
                          Input orientation:                          
 ---------------------------------------------------------------------
 Center     Atomic      Atomic             Coordinates (Angstroms)
 Number     Number       Type             X           Y           Z
 ---------------------------------------------------------------------
      1          1           0        0.000000    0.000000    0.000000
      2          8           0        0.000000    0.000000    0.968976
      3          8           0        1.442156    0.000000    1.161271
      4          7           0        1.561752    0.000000    2.615144
      5          8           0        2.692992    0.000000    2.916644
 ---------------------------------------------------------------------
                    Distance matrix (angstroms):
                    1          2          3          4          5
     1  H    0.000000
     2  O    0.968976   0.000000
     3  O    1.851584   1.454919   0.000000
     4  N    3.045989   2.269127   1.458784   0.000000
     5  O    3.969763   3.323494   2.155441   1.170729   0.000000
 Stoichiometry    HNO3
 Framework group  CS[SG(HNO3)]
 Deg. of freedom     7
 Full point group                 CS      NOp   2
 Largest Abelian subgroup         CS      NOp   2
 Largest concise Abelian subgroup C1      NOp   1
                         Standard orientation:                         
 ---------------------------------------------------------------------
 Center     Atomic      Atomic             Coordinates (Angstroms)
 Number     Number       Type             X           Y           Z
 ---------------------------------------------------------------------
      1          1           0        1.549780    1.689003    0.000000
      2          8           0        1.454096    0.724763    0.000000
      3          8           0        0.000000    0.675818    0.000000
      4          7           0       -0.262579   -0.759140   -0.000000
      5          8           0       -1.418062   -0.947458   -0.000000
 ---------------------------------------------------------------------
 Rotational constants (GHZ):          55.1028782           4.9975054           4.5819497
 Leave Link  202 at Mon Feb 21 20:50:20 2022, MaxMem= 16106127360 cpu:               0.4 elap:               0.0
 (Enter /sw/contrib/gaussian/g16/B01/g16/l301.exe)
 Standard basis: Aug-CC-pVTZ (5D, 7F)
 Ernie: Thresh=  0.10000D-02 Tol=  0.10000D-05 Strict=F.
 Ernie:  12 primitive shells out of 131 were deleted.
 There are   166 symmetry adapted cartesian basis functions of A'  symmetry.
 There are    79 symmetry adapted cartesian basis functions of A"  symmetry.
 There are   136 symmetry adapted basis functions of A'  symmetry.
 There are    71 symmetry adapted basis functions of A"  symmetry.
   207 basis functions,   315 primitive gaussians,   245 cartesian basis functions
    16 alpha electrons       16 beta electrons
       nuclear repulsion energy       116.8045538992 Hartrees.
 IExCor=    0 DFT=F Ex=HF Corr=None ExCW=0 ScaHFX=  1.000000
 ScaDFX=  1.000000  1.000000  1.000000  1.000000 ScalE2=  1.000000  1.000000
 IRadAn=      5 IRanWt=     -1 IRanGd=            0 ICorTp=0 IEmpDi=  4
 NAtoms=    5 NActive=    5 NUniq=    5 SFac= 1.00D+00 NAtFMM=   60 NAOKFM=F Big=F
 Integral buffers will be    131072 words long.
 Raffenetti 1 integral format.
 Two-electron integral symmetry is turned on.
 Leave Link  301 at Mon Feb 21 20:50:20 2022, MaxMem= 16106127360 cpu:               1.8 elap:               0.1
 (Enter /sw/contrib/gaussian/g16/B01/g16/l302.exe)
 NPDir=0 NMtPBC=     1 NCelOv=     1 NCel=       1 NClECP=     1 NCelD=      1
         NCelK=      1 NCelE2=     1 NClLst=     1 CellRange=     0.0.
 One-electron integrals computed using PRISM.
 One-electron integral symmetry used in STVInt
 NBasis=   207 RedAO= T EigKep=  1.82D-04  NBF=   136    71
 NBsUse=   207 1.00D-06 EigRej= -1.00D+00 NBFU=   136    71
 Leave Link  302 at Mon Feb 21 20:50:20 2022, MaxMem= 16106127360 cpu:               4.5 elap:               0.2
 (Enter /sw/contrib/gaussian/g16/B01/g16/l303.exe)
 DipDrv:  MaxL=1.
 Leave Link  303 at Mon Feb 21 20:50:20 2022, MaxMem= 16106127360 cpu:               0.8 elap:               0.1
 (Enter /sw/contrib/gaussian/g16/B01/g16/l401.exe)
 ExpMin= 2.53D-02 ExpMax= 1.53D+04 ExpMxC= 5.22D+02 IAcc=3 IRadAn=         5 AccDes= 0.00D+00
 Harris functional with IExCor=  205 and IRadAn=       5 diagonalized for initial guess.
 HarFok:  IExCor=  205 AccDes= 0.00D+00 IRadAn=         5 IDoV= 1 UseB2=F ITyADJ=14
 ICtDFT=  3500011 ScaDFX=  1.000000  1.000000  1.000000  1.000000
 FoFCou: FMM=F IPFlag=           0 FMFlag=      100000 FMFlg1=           0
         NFxFlg=           0 DoJE=T BraDBF=F KetDBF=T FulRan=T
         wScrn=  0.000000 ICntrl=       500 IOpCl=  0 I1Cent=   200000004 NGrid=           0
         NMat0=    1 NMatS0=      1 NMatT0=    0 NMatD0=    1 NMtDS0=    0 NMtDT0=    0
 Petite list used in FoFCou.
 Harris En= -279.628675612680    
 JPrj=0 DoOrth=F DoCkMO=F.
 Initial guess orbital symmetries:
       Occupied  (A') (A') (A') (A') (A') (A') (A') (A') (A') (A')
                 (A") (A') (A') (A") (A") (A')
       Virtual   (A") (A') (A') (A') (A') (A') (A") (A') (A') (A')
                 (A") (A') (A") (A') (A') (A") (A') (A") (A') (A')
                 (A') (A') (A') (A') (A') (A") (A') (A") (A') (A')
                 (A") (A') (A") (A') (A') (A") (A') (A") (A') (A')
                 (A") (A') (A") (A') (A") (A') (A') (A') (A") (A")
                 (A') (A') (A') (A') (A") (A') (A") (A') (A") (A')
                 (A') (A') (A") (A') (A') (A") (A') (A") (A') (A')
                 (A") (A') (A') (A") (A") (A') (A') (A") (A') (A')
                 (A') (A") (A') (A") (A') (A") (A') (A") (A') (A')
                 (A') (A") (A') (A") (A') (A") (A") (A') (A') (A")
                 (A') (A') (A") (A') (A') (A') (A') (A") (A") (A')
                 (A") (A') (A') (A') (A") (A') (A') (A') (A") (A')
                 (A") (A') (A') (A") (A") (A') (A') (A") (A") (A')
                 (A') (A') (A') (A") (A") (A') (A") (A') (A') (A')
                 (A') (A") (A") (A') (A') (A") (A') (A') (A') (A')
                 (A") (A') (A') (A") (A') (A") (A') (A") (A') (A")
                 (A') (A") (A') (A") (A') (A") (A") (A") (A') (A')
                 (A") (A') (A") (A') (A") (A') (A") (A") (A') (A')
                 (A') (A') (A') (A') (A') (A') (A') (A') (A') (A')
                 (A')
 The electronic state of the initial guess is 1-A'.
 Leave Link  401 at Mon Feb 21 20:50:20 2022, MaxMem= 16106127360 cpu:               6.9 elap:               0.3
 (Enter /sw/contrib/gaussian/g16/B01/g16/l502.exe)
 Keep R1 ints in memory in symmetry-blocked form, NReq=348887737.
 FoFCou: FMM=F IPFlag=           0 FMFlag=           0 FMFlg1=           0
         NFxFlg=           0 DoJE=F BraDBF=F KetDBF=F FulRan=T
         wScrn=  0.000000 ICntrl=       600 IOpCl=  0 I1Cent=           0 NGrid=           0
         NMat0=    1 NMatS0=  21528 NMatT0=    0 NMatD0=    1 NMtDS0=    0 NMtDT0=    0
 Petite list used in FoFCou.
 Closed shell SCF:
 Using DIIS extrapolation, IDIIS=  1040.
 NGot= 16106127360 LenX= 15988850015 LenY= 15988789549
 Requested convergence on RMS density matrix=1.00D-08 within 128 cycles.
 Requested convergence on MAX density matrix=1.00D-06.
 Requested convergence on             energy=1.00D-06.
 No special actions if energy rises.

 Cycle   1  Pass 1  IDiag  1:
 E= -279.370584769324    
 DIIS: error= 2.77D-02 at cycle   1 NSaved=   1.
 NSaved= 1 IEnMin= 1 EnMin= -279.370584769324     IErMin= 1 ErrMin= 2.77D-02
 ErrMax= 2.77D-02  0.00D+00 EMaxC= 1.00D-01 BMatC= 4.38D-01 BMatP= 4.38D-01
 IDIUse=3 WtCom= 7.23D-01 WtEn= 2.77D-01
 Coeff-Com:  0.100D+01
 Coeff-En:   0.100D+01
 Coeff:      0.100D+01
 Gap=     0.514 Goal=   None    Shift=    0.000
 GapD=    0.514 DampG=2.000 DampE=0.500 DampFc=1.0000 IDamp=-1.
 RMSDP=1.62D-03 MaxDP=9.85D-02              OVMax= 1.13D-01

 Cycle   2  Pass 1  IDiag  1:
 E= -279.452390590564     Delta-E=       -0.081805821240 Rises=F Damp=F
 DIIS: error= 1.78D-02 at cycle   2 NSaved=   2.
 NSaved= 2 IEnMin= 2 EnMin= -279.452390590564     IErMin= 2 ErrMin= 1.78D-02
 ErrMax= 1.78D-02  0.00D+00 EMaxC= 1.00D-01 BMatC= 7.17D-02 BMatP= 4.38D-01
 IDIUse=3 WtCom= 8.22D-01 WtEn= 1.78D-01
 Coeff-Com:  0.195D+00 0.805D+00
 Coeff-En:   0.000D+00 0.100D+01
 Coeff:      0.160D+00 0.840D+00
 Gap=     0.529 Goal=   None    Shift=    0.000
 RMSDP=9.00D-04 MaxDP=3.73D-02 DE=-8.18D-02 OVMax= 6.92D-02

 Cycle   3  Pass 1  IDiag  1:
 E= -279.481396404852     Delta-E=       -0.029005814288 Rises=F Damp=F
 DIIS: error= 1.04D-02 at cycle   3 NSaved=   3.
 NSaved= 3 IEnMin= 3 EnMin= -279.481396404852     IErMin= 3 ErrMin= 1.04D-02
 ErrMax= 1.04D-02  0.00D+00 EMaxC= 1.00D-01 BMatC= 2.88D-02 BMatP= 7.17D-02
 IDIUse=3 WtCom= 8.96D-01 WtEn= 1.04D-01
 Coeff-Com: -0.330D-01 0.379D+00 0.654D+00
 Coeff-En:   0.000D+00 0.242D+00 0.758D+00
 Coeff:     -0.296D-01 0.365D+00 0.665D+00
 Gap=     0.510 Goal=   None    Shift=    0.000
 RMSDP=3.77D-04 MaxDP=1.53D-02 DE=-2.90D-02 OVMax= 3.82D-02

 Cycle   4  Pass 1  IDiag  1:
 E= -279.500549613944     Delta-E=       -0.019153209092 Rises=F Damp=F
 DIIS: error= 1.30D-03 at cycle   4 NSaved=   4.
 NSaved= 4 IEnMin= 4 EnMin= -279.500549613944     IErMin= 4 ErrMin= 1.30D-03
 ErrMax= 1.30D-03  0.00D+00 EMaxC= 1.00D-01 BMatC= 4.92D-04 BMatP= 2.88D-02
 IDIUse=3 WtCom= 9.87D-01 WtEn= 1.30D-02
 Coeff-Com: -0.117D-01 0.576D-01 0.158D+00 0.796D+00
 Coeff-En:   0.000D+00 0.000D+00 0.000D+00 0.100D+01
 Coeff:     -0.115D-01 0.568D-01 0.156D+00 0.799D+00
 Gap=     0.501 Goal=   None    Shift=    0.000
 RMSDP=9.05D-05 MaxDP=2.78D-03 DE=-1.92D-02 OVMax= 1.12D-02

 Cycle   5  Pass 1  IDiag  1:
 E= -279.501225714240     Delta-E=       -0.000676100295 Rises=F Damp=F
 DIIS: error= 7.39D-04 at cycle   5 NSaved=   5.
 NSaved= 5 IEnMin= 5 EnMin= -279.501225714240     IErMin= 5 ErrMin= 7.39D-04
 ErrMax= 7.39D-04  0.00D+00 EMaxC= 1.00D-01 BMatC= 8.73D-05 BMatP= 4.92D-04
 IDIUse=3 WtCom= 9.93D-01 WtEn= 7.39D-03
 Coeff-Com:  0.611D-02-0.723D-01-0.117D+00 0.217D-01 0.116D+01
 Coeff-En:   0.000D+00 0.000D+00 0.000D+00 0.000D+00 0.100D+01
 Coeff:      0.607D-02-0.718D-01-0.117D+00 0.215D-01 0.116D+01
 Gap=     0.501 Goal=   None    Shift=    0.000
 RMSDP=7.62D-05 MaxDP=2.10D-03 DE=-6.76D-04 OVMax= 1.11D-02

 Cycle   6  Pass 1  IDiag  1:
 E= -279.501541081255     Delta-E=       -0.000315367015 Rises=F Damp=F
 DIIS: error= 2.89D-04 at cycle   6 NSaved=   6.
 NSaved= 6 IEnMin= 6 EnMin= -279.501541081255     IErMin= 6 ErrMin= 2.89D-04
 ErrMax= 2.89D-04  0.00D+00 EMaxC= 1.00D-01 BMatC= 1.68D-05 BMatP= 8.73D-05
 IDIUse=3 WtCom= 9.97D-01 WtEn= 2.89D-03
 Coeff-Com:  0.612D-03 0.143D-02 0.416D-02-0.130D+00-0.229D+00 0.135D+01
 Coeff-En:   0.000D+00 0.000D+00 0.000D+00 0.000D+00 0.000D+00 0.100D+01
 Coeff:      0.610D-03 0.143D-02 0.415D-02-0.130D+00-0.228D+00 0.135D+01
 Gap=     0.502 Goal=   None    Shift=    0.000
 RMSDP=4.55D-05 MaxDP=1.26D-03 DE=-3.15D-04 OVMax= 5.55D-03

 Cycle   7  Pass 1  IDiag  1:
 E= -279.501614204933     Delta-E=       -0.000073123679 Rises=F Damp=F
 DIIS: error= 1.23D-04 at cycle   7 NSaved=   7.
 NSaved= 7 IEnMin= 7 EnMin= -279.501614204933     IErMin= 7 ErrMin= 1.23D-04
 ErrMax= 1.23D-04  0.00D+00 EMaxC= 1.00D-01 BMatC= 4.58D-06 BMatP= 1.68D-05
 IDIUse=3 WtCom= 9.99D-01 WtEn= 1.23D-03
 Coeff-Com: -0.939D-03 0.136D-01 0.265D-01-0.248D-01-0.289D+00 0.395D+00
 Coeff-Com:  0.879D+00
 Coeff-En:   0.000D+00 0.000D+00 0.000D+00 0.000D+00 0.000D+00 0.000D+00
 Coeff-En:   0.100D+01
 Coeff:     -0.938D-03 0.136D-01 0.265D-01-0.248D-01-0.289D+00 0.395D+00
 Coeff:      0.879D+00
 Gap=     0.502 Goal=   None    Shift=    0.000
 RMSDP=1.33D-05 MaxDP=3.81D-04 DE=-7.31D-05 OVMax= 1.56D-03

 Cycle   8  Pass 1  IDiag  1:
 E= -279.501623211932     Delta-E=       -0.000009006998 Rises=F Damp=F
 DIIS: error= 5.80D-05 at cycle   8 NSaved=   8.
 NSaved= 8 IEnMin= 8 EnMin= -279.501623211932     IErMin= 8 ErrMin= 5.80D-05
 ErrMax= 5.80D-05  0.00D+00 EMaxC= 1.00D-01 BMatC= 6.08D-07 BMatP= 4.58D-06
 IDIUse=1 WtCom= 1.00D+00 WtEn= 0.00D+00
 Coeff-Com: -0.450D-03 0.346D-02 0.760D-02 0.275D-01-0.411D-01-0.197D+00
 Coeff-Com:  0.166D+00 0.103D+01
 Coeff:     -0.450D-03 0.346D-02 0.760D-02 0.275D-01-0.411D-01-0.197D+00
 Coeff:      0.166D+00 0.103D+01
 Gap=     0.501 Goal=   None    Shift=    0.000
 RMSDP=6.96D-06 MaxDP=2.03D-04 DE=-9.01D-06 OVMax= 7.55D-04

 Cycle   9  Pass 1  IDiag  1:
 E= -279.501625005884     Delta-E=       -0.000001793952 Rises=F Damp=F
 DIIS: error= 1.56D-05 at cycle   9 NSaved=   9.
 NSaved= 9 IEnMin= 9 EnMin= -279.501625005884     IErMin= 9 ErrMin= 1.56D-05
 ErrMax= 1.56D-05  0.00D+00 EMaxC= 1.00D-01 BMatC= 6.91D-08 BMatP= 6.08D-07
 IDIUse=1 WtCom= 1.00D+00 WtEn= 0.00D+00
 Coeff-Com:  0.122D-03-0.172D-02-0.306D-02-0.202D-02 0.341D-01-0.151D-03
 Coeff-Com: -0.165D+00-0.105D+00 0.124D+01
 Coeff:      0.122D-03-0.172D-02-0.306D-02-0.202D-02 0.341D-01-0.151D-03
 Coeff:     -0.165D+00-0.105D+00 0.124D+01
 Gap=     0.501 Goal=   None    Shift=    0.000
 RMSDP=1.94D-06 MaxDP=6.63D-05 DE=-1.79D-06 OVMax= 1.76D-04

 Cycle  10  Pass 1  IDiag  1:
 E= -279.501625166380     Delta-E=       -0.000000160496 Rises=F Damp=F
 DIIS: error= 4.11D-06 at cycle  10 NSaved=  10.
 NSaved=10 IEnMin=10 EnMin= -279.501625166380     IErMin=10 ErrMin= 4.11D-06
 ErrMax= 4.11D-06  0.00D+00 EMaxC= 1.00D-01 BMatC= 5.58D-09 BMatP= 6.91D-08
 IDIUse=1 WtCom= 1.00D+00 WtEn= 0.00D+00
 Coeff-Com:  0.313D-04-0.246D-03-0.328D-03-0.271D-02 0.166D-02 0.197D-01
 Coeff-Com: -0.129D-01-0.748D-01-0.797D-01 0.115D+01
 Coeff:      0.313D-04-0.246D-03-0.328D-03-0.271D-02 0.166D-02 0.197D-01
 Coeff:     -0.129D-01-0.748D-01-0.797D-01 0.115D+01
 Gap=     0.501 Goal=   None    Shift=    0.000
 RMSDP=5.08D-07 MaxDP=2.11D-05 DE=-1.60D-07 OVMax= 4.20D-05

 Cycle  11  Pass 1  IDiag  1:
 E= -279.501625178998     Delta-E=       -0.000000012618 Rises=F Damp=F
 DIIS: error= 2.04D-06 at cycle  11 NSaved=  11.
 NSaved=11 IEnMin=11 EnMin= -279.501625178998     IErMin=11 ErrMin= 2.04D-06
 ErrMax= 2.04D-06  0.00D+00 EMaxC= 1.00D-01 BMatC= 6.64D-10 BMatP= 5.58D-09
 IDIUse=1 WtCom= 1.00D+00 WtEn= 0.00D+00
 Coeff-Com: -0.213D-04 0.244D-03 0.487D-03 0.534D-03-0.429D-02-0.355D-02
 Coeff-Com:  0.208D-01 0.314D-01-0.139D+00-0.180D+00 0.127D+01
 Coeff:     -0.213D-04 0.244D-03 0.487D-03 0.534D-03-0.429D-02-0.355D-02
 Coeff:      0.208D-01 0.314D-01-0.139D+00-0.180D+00 0.127D+01
 Gap=     0.501 Goal=   None    Shift=    0.000
 RMSDP=1.79D-07 MaxDP=6.62D-06 DE=-1.26D-08 OVMax= 1.74D-05

 Cycle  12  Pass 1  IDiag  1:
 E= -279.501625180817     Delta-E=       -0.000000001819 Rises=F Damp=F
 DIIS: error= 5.93D-07 at cycle  12 NSaved=  12.
 NSaved=12 IEnMin=12 EnMin= -279.501625180817     IErMin=12 ErrMin= 5.93D-07
 ErrMax= 5.93D-07  0.00D+00 EMaxC= 1.00D-01 BMatC= 7.19D-11 BMatP= 6.64D-10
 IDIUse=1 WtCom= 1.00D+00 WtEn= 0.00D+00
 Coeff-Com:  0.122D-05-0.290D-04-0.626D-04 0.184D-03 0.108D-02-0.229D-02
 Coeff-Com: -0.411D-02 0.544D-02 0.418D-01-0.113D+00-0.281D+00 0.135D+01
 Coeff:      0.122D-05-0.290D-04-0.626D-04 0.184D-03 0.108D-02-0.229D-02
 Coeff:     -0.411D-02 0.544D-02 0.418D-01-0.113D+00-0.281D+00 0.135D+01
 Gap=     0.501 Goal=   None    Shift=    0.000
 RMSDP=7.20D-08 MaxDP=2.87D-06 DE=-1.82D-09 OVMax= 6.70D-06

 Cycle  13  Pass 1  IDiag  1:
 E= -279.501625181047     Delta-E=       -0.000000000230 Rises=F Damp=F
 DIIS: error= 1.71D-07 at cycle  13 NSaved=  13.
 NSaved=13 IEnMin=13 EnMin= -279.501625181047     IErMin=13 ErrMin= 1.71D-07
 ErrMax= 1.71D-07  0.00D+00 EMaxC= 1.00D-01 BMatC= 4.05D-12 BMatP= 7.19D-11
 IDIUse=1 WtCom= 1.00D+00 WtEn= 0.00D+00
 Coeff-Com:  0.128D-05-0.140D-04-0.224D-04-0.898D-04 0.121D-03 0.762D-03
 Coeff-Com: -0.819D-03-0.328D-02 0.490D-03 0.412D-01-0.351D-01-0.328D+00
 Coeff-Com:  0.132D+01
 Coeff:      0.128D-05-0.140D-04-0.224D-04-0.898D-04 0.121D-03 0.762D-03
 Coeff:     -0.819D-03-0.328D-02 0.490D-03 0.412D-01-0.351D-01-0.328D+00
 Coeff:      0.132D+01
 Gap=     0.501 Goal=   None    Shift=    0.000
 RMSDP=1.92D-08 MaxDP=5.62D-07 DE=-2.30D-10 OVMax= 1.57D-06

 Cycle  14  Pass 1  IDiag  1:
 E= -279.501625181061     Delta-E=       -0.000000000014 Rises=F Damp=F
 DIIS: error= 2.42D-08 at cycle  14 NSaved=  14.
 NSaved=14 IEnMin=14 EnMin= -279.501625181061     IErMin=14 ErrMin= 2.42D-08
 ErrMax= 2.42D-08  0.00D+00 EMaxC= 1.00D-01 BMatC= 1.98D-13 BMatP= 4.05D-12
 IDIUse=1 WtCom= 1.00D+00 WtEn= 0.00D+00
 Coeff-Com: -0.191D-06 0.313D-05 0.557D-05 0.459D-05-0.825D-04 0.448D-04
 Coeff-Com:  0.279D-03 0.232D-03-0.244D-02 0.138D-02 0.170D-01-0.253D-01
 Coeff-Com: -0.201D+00 0.121D+01
 Coeff:     -0.191D-06 0.313D-05 0.557D-05 0.459D-05-0.825D-04 0.448D-04
 Coeff:      0.279D-03 0.232D-03-0.244D-02 0.138D-02 0.170D-01-0.253D-01
 Coeff:     -0.201D+00 0.121D+01
 Gap=     0.501 Goal=   None    Shift=    0.000
 RMSDP=3.82D-09 MaxDP=9.20D-08 DE=-1.42D-11 OVMax= 3.44D-07

 SCF Done:  E(RHF) =  -279.501625181     A.U. after   14 cycles
            NFock= 14  Conv=0.38D-08     -V/T= 2.0024
 KE= 2.788416161778D+02 PE=-8.949294631101D+02 EE= 2.197816678521D+02
 Leave Link  502 at Mon Feb 21 20:50:24 2022, MaxMem= 16106127360 cpu:              54.5 elap:               3.5
 (Enter /sw/contrib/gaussian/g16/B01/g16/l801.exe)
 ExpMin= 2.53D-02 ExpMax= 1.53D+04 ExpMxC= 5.22D+02 IAcc=3 IRadAn=         5 AccDes= 0.00D+00
 HarFok:  IExCor=  205 AccDes= 0.00D+00 IRadAn=         5 IDoV=-2 UseB2=F ITyADJ=14
 ICtDFT= 12500011 ScaDFX=  1.000000  1.000000  1.000000  1.000000
 Largest valence mixing into a core orbital is  2.08D-04
 Largest core mixing into a valence orbital is  3.62D-05
 Range of M.O.s used for correlation:     5   207
 NBasis=   207 NAE=    16 NBE=    16 NFC=     4 NFV=     0
 NROrb=    203 NOA=    12 NOB=    12 NVA=   191 NVB=   191

 **** Warning!!: The largest alpha MO coefficient is  0.17700805D+02

 Leave Link  801 at Mon Feb 21 20:50:24 2022, MaxMem= 16106127360 cpu:               2.4 elap:               0.1
 (Enter /sw/contrib/gaussian/g16/B01/g16/l906.exe)
 Frozen-core derivative calculation, NFC=   4 NFV=   0.
 FulOut=F Deriv=T AODrv=T NAtomX=     5
   MMem=           0  MDisk=          12 MDiskD=          12
  W3Min=      811440 MinDsk=     2425030 NBas6D=         245
 NBas2D=       30762    NTT=       30135    LW2=     7400000
    MDV= 16105574283 MDiskM=      328644 NBas2p=       30702
 Disk-based method using ON**2 memory for 12 occupieds at a time.
 Permanent disk used for amplitudes=    11516536 words.
 Estimated scratch disk usage=   321251614 words.
 IMap=   1   2   3   4   5   6   7   8   9  10  11  12  13  14  15  16
 Actual    scratch disk usage=   310331678 words.
 JobTyp=1 Pass  1:  I=   5 to  16 NPSUse= 28 ParTrn=T ParDer=T DoDerP=T.
 (rs|ai) integrals will be sorted in core.
 Spin components of T(2) and E(2):
     alpha-alpha T2 =       0.3403858049D-01 E2=     -0.1224157895D+00
     alpha-beta  T2 =       0.1868790124D+00 E2=     -0.7002548550D+00
     beta-beta   T2 =       0.3403858049D-01 E2=     -0.1224157895D+00
 The integrals were generated   1 times.
 ANorm=    0.1120248264D+01
 E2 =    -0.9450864340D+00 EUMP2 =    -0.28044671161507D+03
 Leave Link  906 at Mon Feb 21 20:52:01 2022, MaxMem= 16106127360 cpu:            2701.8 elap:              96.6
 (Enter /sw/contrib/gaussian/g16/B01/g16/l1101.exe)
 Using compressed Sx but separate Hx and Fx, NAtomX=     5.
 Will process      6 centers per pass.
 Leave Link 1101 at Mon Feb 21 20:52:01 2022, MaxMem= 16106127360 cpu:               5.2 elap:               0.2
 (Enter /sw/contrib/gaussian/g16/B01/g16/l1102.exe)
 Leave Link 1102 at Mon Feb 21 20:52:01 2022, MaxMem= 16106127360 cpu:               1.0 elap:               0.1
 (Enter /sw/contrib/gaussian/g16/B01/g16/l1110.exe)
 Forming Gx(P) for the SCF density, NAtomX=     5.
 Integral derivatives from FoFJK, PRISM(SPDF).
 Do as many integral derivatives as possible in FoFJK.
 G2DrvN: MDV=   16106126844.
 G2DrvN: will do     6 centers at a time, making    1 passes.
 Calling FoFCou, ICntrl=  3107 FMM=F I1Cent=   0 AccDes= 0.00D+00.
 FoFJK:  IHMeth= 1 ICntrl=    3107 DoSepK=F KAlg= 0 I1Cent=           0 FoldK=F
 IRaf=         0 NMat=       1 IRICut=       1 DoRegI=T DoRafI=F ISym2E= 1 IDoP0=0 IntGTp=1.
 FoFCou: FMM=F IPFlag=           0 FMFlag=      100000 FMFlg1=           0
         NFxFlg=           0 DoJE=F BraDBF=F KetDBF=F FulRan=T
         wScrn=  0.000000 ICntrl=      3107 IOpCl=  0 I1Cent=           0 NGrid=           0
         NMat0=    1 NMatS0=      1 NMatT0=    0 NMatD0=    1 NMtDS0=    0 NMtDT0=    0
 Petite list used in FoFCou.
 End of G2Drv F.D. properties file   721 does not exist.
 End of G2Drv F.D. properties file   722 does not exist.
 End of G2Drv F.D. properties file   788 does not exist.
 Leave Link 1110 at Mon Feb 21 20:52:04 2022, MaxMem= 16106127360 cpu:              83.3 elap:               3.0
 (Enter /sw/contrib/gaussian/g16/B01/g16/l1002.exe)
 Minotr:  Closed shell wavefunction.
          IDoAtm=11111
          Frozen-core window.
          Direct CPHF calculation.
          Differentiating once with respect to electric field.
                with respect to dipole field.
          Differentiating once with respect to nuclear coordinates.
          Requested convergence is 1.0D-08 RMS, and 1.0D-07 maximum.
          Secondary convergence is 1.0D-12 RMS, and 1.0D-12 maximum.
          NewPWx=T KeepS1=T KeepF1=T KeepIn=T MapXYZ=F SortEE=F KeepMc=T.
 Keep R1 ints in memory in symmetry-blocked form, NReq=348888983.
 FoFCou: FMM=F IPFlag=           0 FMFlag=           0 FMFlg1=           0
         NFxFlg=           0 DoJE=F BraDBF=F KetDBF=F FulRan=T
         wScrn=  0.000000 ICntrl=       600 IOpCl=  0 I1Cent=           0 NGrid=           0
         NMat0=    1 NMatS0=  21528 NMatT0=    0 NMatD0=    1 NMtDS0=    0 NMtDT0=    0
 Petite list used in FoFCou.
          MDV=   16106127360 using IRadAn=       1.
          Solving linear equations simultaneously, MaxMat=       0.
          There are    18 degrees of freedom in the 1st order CPHF.  IDoFFX=6 NUNeed=    18.
     15 vectors produced by pass  0 Test12= 1.70D-14 5.56D-09 XBig12= 8.28D+00 1.05D+00.
 AX will form    15 AO Fock derivatives at one time.
     15 vectors produced by pass  1 Test12= 1.70D-14 5.56D-09 XBig12= 1.34D+00 2.62D-01.
     15 vectors produced by pass  2 Test12= 1.70D-14 5.56D-09 XBig12= 1.41D-01 9.74D-02.
     15 vectors produced by pass  3 Test12= 1.70D-14 5.56D-09 XBig12= 4.94D-03 1.10D-02.
     15 vectors produced by pass  4 Test12= 1.70D-14 5.56D-09 XBig12= 9.84D-05 1.91D-03.
     15 vectors produced by pass  5 Test12= 1.70D-14 5.56D-09 XBig12= 1.39D-06 1.73D-04.
     15 vectors produced by pass  6 Test12= 1.70D-14 5.56D-09 XBig12= 1.09D-08 1.47D-05.
     13 vectors produced by pass  7 Test12= 1.70D-14 5.56D-09 XBig12= 8.04D-11 1.28D-06.
      3 vectors produced by pass  8 Test12= 1.70D-14 5.56D-09 XBig12= 5.61D-13 1.19D-07.
      2 vectors produced by pass  9 Test12= 1.70D-14 5.56D-09 XBig12= 3.66D-15 9.86D-09.
 InvSVY:  IOpt=1 It=  1 EMax= 8.88D-16
 Solved reduced A of dimension   123 with    15 vectors.
 FullF1:  Do perturbations      1 to      18.
 Saving first derivative matrices.
 End of Minotr F.D. properties file   721 does not exist.
 End of Minotr F.D. properties file   722 does not exist.
 End of Minotr F.D. properties file   788 does not exist.
 Leave Link 1002 at Mon Feb 21 20:52:07 2022, MaxMem= 16106127360 cpu:              83.2 elap:               3.0
 (Enter /sw/contrib/gaussian/g16/B01/g16/l811.exe)
 MDV= 16106127360.
 Form MO integral derivatives with frozen-active canonical formalism.
 MOERI=1 MOERIx=1 NAtoms=     5 NAtomX=     5.
 Discarding MO integrals.
 MO basis two electron integral derivatives will not be stored on disk.
 IAlg= 3 DoFC=T DoPWx=T Debug=F.
 Frozen-core window:  NFC=   4 NFV=   0.
 Reordered first order wavefunction length =     18678272
 In DefCFB: NBatch=  1 ICI= 16 ICA=191 LFMax= 96
            Large arrays: LIAPS=   619940160 LIARS=   288257200 words.
 In StABat: MaxSiz= 55 MinSiz= 25 NAtomB=  5
 DoIAMN: NPSUse= 28.
 Leave Link  811 at Mon Feb 21 20:53:27 2022, MaxMem= 16106127360 cpu:            2252.0 elap:              80.6
 (Enter /sw/contrib/gaussian/g16/B01/g16/l804.exe)
 Frozen-core window:  NFC=   4 NFV=   0.
 Closed-shell transformation, MDV= 16106127360 ITran=4 ISComp=1.
 Semi-Direct transformation.
 ModeAB=           2 MOrb=            16 LenV=   16104923051
 LASXX=     67341636 LTotXX=    67341636 LenRXX=    67341636
 LTotAB=    68301760 MaxLAS=    99807120 LenRXY=    99807120
 NonZer=   134683272 LenScr=   202817536 LnRSAI=           0
 LnScr1=           0 LExtra=           0 Total=    369966292
 MaxDsk=          -1 SrtSym=           F ITran=            4
 DoSDTr:  NPSUse= 28
 JobTyp=0 Pass  1:  I=   1 to  16.
 (rs|ai) integrals will be sorted in core.
 Complete sort for first half transformation.
 First half transformation complete.
 Begin second half transformation for I=  10.
 Begin second half transformation for I=  10.
 Complete sort for second half transformation.
 Second half transformation complete.
 Spin components of T(2) and E(2):
     alpha-alpha T2 =       0.3403858049D-01 E2=     -0.1224157895D+00
     alpha-beta  T2 =       0.1868790124D+00 E2=     -0.7002548550D+00
     beta-beta   T2 =       0.3403858049D-01 E2=     -0.1224157895D+00
 ANorm=    0.1584270288D+01
 E2 =    -0.9450864340D+00 EUMP2 =    -0.28044671161507D+03
 Leave Link  804 at Mon Feb 21 20:53:43 2022, MaxMem= 16106127360 cpu:             436.8 elap:              15.6
 (Enter /sw/contrib/gaussian/g16/B01/g16/l1002.exe)
 Minotr:  Closed shell wavefunction.
          Computing MP2/KS-MP2 derivatives.
          Using Z-Vector for PSCF gradient.
          Skipping F1 and S1 gradient terms here.
          IDoAtm=11111
          Frozen-core window.
          Using MO integrals in the linear equations.
          Forming densities via direct SCF.
          Differentiating once with respect to electric field.
                with respect to dipole field.
          Differentiating once with respect to nuclear coordinates.
          Using symmetry in CPHF.
          Requested convergence is 1.0D-10 RMS, and 1.0D-09 maximum.
          NewPWx=F KeepS1=T KeepF1=T KeepIn=T MapXYZ=F SortEE=F KeepMc=T.
          MDV=   16106127360 using IRadAn=       5.
          Solving linear equations separately, MaxMat=       0.
          There are     1 degrees of freedom in the 1st order CPHF.  IDoFFX=0 NUNeed=     1.
 FoFJK:  IHMeth= 1 ICntrl=       0 DoSepK=F KAlg= 0 I1Cent=           0 FoldK=F
 IRaf=         0 NMat=       1 IRICut=       1 DoRegI=T DoRafI=F ISym2E= 0 IDoP0=0 IntGTp=1.
 FoFCou: FMM=F IPFlag=           0 FMFlag=      100000 FMFlg1=           0
         NFxFlg=           0 DoJE=F BraDBF=F KetDBF=F FulRan=T
         wScrn=  0.000000 ICntrl=         0 IOpCl=  0 I1Cent=           0 NGrid=           0
         NMat0=    1 NMatS0=      1 NMatT0=    0 NMatD0=    1 NMtDS0=    0 NMtDT0=    0
 Symmetry not used in FoFCou.
 LinEq1:  Iter=  0 NonCon=     1 RMS=5.97D-03 Max=1.33D-01 NDo=     1
 LinEq1:  Iter=  1 NonCon=     1 RMS=1.91D-03 Max=3.83D-02 NDo=     1
 LinEq1:  Iter=  2 NonCon=     1 RMS=8.70D-04 Max=1.41D-02 NDo=     1
 LinEq1:  Iter=  3 NonCon=     1 RMS=3.87D-04 Max=7.82D-03 NDo=     1
 LinEq1:  Iter=  4 NonCon=     1 RMS=1.20D-04 Max=1.93D-03 NDo=     1
 LinEq1:  Iter=  5 NonCon=     1 RMS=4.62D-05 Max=7.37D-04 NDo=     1
 LinEq1:  Iter=  6 NonCon=     1 RMS=2.06D-05 Max=2.38D-04 NDo=     1
 LinEq1:  Iter=  7 NonCon=     1 RMS=8.24D-06 Max=1.59D-04 NDo=     1
 LinEq1:  Iter=  8 NonCon=     1 RMS=3.50D-06 Max=3.44D-05 NDo=     1
 LinEq1:  Iter=  9 NonCon=     1 RMS=9.47D-07 Max=1.32D-05 NDo=     1
 LinEq1:  Iter= 10 NonCon=     1 RMS=1.86D-07 Max=2.01D-06 NDo=     1
 LinEq1:  Iter= 11 NonCon=     1 RMS=3.45D-08 Max=3.56D-07 NDo=     1
 LinEq1:  Iter= 12 NonCon=     1 RMS=8.33D-09 Max=1.28D-07 NDo=     1
 LinEq1:  Iter= 13 NonCon=     1 RMS=1.51D-09 Max=2.59D-08 NDo=     1
 LinEq1:  Iter= 14 NonCon=     1 RMS=2.73D-10 Max=3.83D-09 NDo=     1
 LinEq1:  Iter= 15 NonCon=     0 RMS=4.88D-11 Max=5.56D-10 NDo=     1
 Linear equations converged to 1.000D-10 1.000D-09 after    15 iterations.
 End of Minotr F.D. properties file   721 does not exist.
 End of Minotr F.D. properties file   722 does not exist.
 End of Minotr F.D. properties file   788 does not exist.
 Leave Link 1002 at Mon Feb 21 20:53:46 2022, MaxMem= 16106127360 cpu:              63.0 elap:               2.3
 (Enter /sw/contrib/gaussian/g16/B01/g16/l1102.exe)
 Use density number 2.
 Symmetrizing basis deriv contribution to polar:
 IMax=3 JMax=2 DiffMx= 0.00D+00
 Leave Link 1102 at Mon Feb 21 20:53:46 2022, MaxMem= 16106127360 cpu:               0.9 elap:               0.1
 (Enter /sw/contrib/gaussian/g16/B01/g16/l1110.exe)
 Forming Gx(P) for generalized density number  2 NAtomX=     5.
 Integral derivatives from FoFJK, PRISM(SPDF).
 Do as many integral derivatives as possible in FoFJK.
 G2DrvN: MDV=   16106126844.
 G2DrvN: will do     6 centers at a time, making    1 passes.
 Calling FoFCou, ICntrl=  3107 FMM=F I1Cent=   0 AccDes= 0.00D+00.
 FoFJK:  IHMeth= 1 ICntrl=    3107 DoSepK=F KAlg= 0 I1Cent=           0 FoldK=F
 IRaf=         0 NMat=       1 IRICut=       1 DoRegI=T DoRafI=F ISym2E= 1 IDoP0=0 IntGTp=1.
 FoFCou: FMM=F IPFlag=           0 FMFlag=      100000 FMFlg1=           0
         NFxFlg=           0 DoJE=F BraDBF=F KetDBF=F FulRan=T
         wScrn=  0.000000 ICntrl=      3107 IOpCl=  0 I1Cent=           0 NGrid=           0
         NMat0=    1 NMatS0=      1 NMatT0=    0 NMatD0=    1 NMtDS0=    0 NMtDT0=    0
 Petite list used in FoFCou.
 End of G2Drv F.D. properties file   721 does not exist.
 End of G2Drv F.D. properties file   722 does not exist.
 End of G2Drv F.D. properties file   788 does not exist.
 Leave Link 1110 at Mon Feb 21 20:53:49 2022, MaxMem= 16106127360 cpu:              86.0 elap:               3.1
 (Enter /sw/contrib/gaussian/g16/B01/g16/l1112.exe)
 MP22nd: MDV=   16106127360
 This link is doing NAtomX=     5 total of    18 degrees of freedom.
 Using ON3 I/O method in MakUI.
 Frozen-core window:  NFC=   4 NFV=   0.
 Using Ix for Sx.
 Use MO integrals over full window.
 Using OV2 memory method for fx*t*t/D, MaxI=    16 DoOO2=F NP=  28.
 R2 and R3 integrals will be kept in memory, NReq=   915591705.
 FoFCou: FMM=F IPFlag=           0 FMFlag=           0 FMFlg1=           0
         NFxFlg=           0 DoJE=F BraDBF=F KetDBF=F FulRan=T
         wScrn=  0.000000 ICntrl=       600 IOpCl=  0 I1Cent=           0 NGrid=           0
         NMat0=    1 NMatS0=      1 NMatT0=    0 NMatD0=    1 NMtDS0=    0 NMtDT0=    0
 Symmetry not used in FoFCou.
 DD1Dir will call FoFMem   1 times, MxPair=       272
 NAB=   136 NAA=     0 NBB=     0.
 Symmetry is being used.
 FoFJK:  IHMeth= 1 ICntrl=       0 DoSepK=F KAlg= 0 I1Cent=           0 FoldK=F
 IRaf=         0 NMat=      18 IRICut=      45 DoRegI=T DoRafI=T ISym2E= 2 IDoP0=3 IntGTp=3.
 Discarding MO integrals.
 Leave Link 1112 at Mon Feb 21 20:54:33 2022, MaxMem= 16106127360 cpu:            1213.0 elap:              44.0
 (Enter /sw/contrib/gaussian/g16/B01/g16/l601.exe)
 Copying SCF densities to generalized density rwf, IOpCl= 0 IROHF=0.

 **********************************************************************

            Population analysis using the MP2 Density.

 **********************************************************************

 Orbital symmetries:
       Occupied  (A') (A') (A') (A') (A') (A') (A') (A') (A') (A')
                 (A") (A') (A") (A') (A") (A')
       Virtual   (A') (A") (A') (A') (A') (A") (A') (A') (A") (A')
                 (A") (A') (A') (A') (A") (A') (A') (A") (A') (A')
                 (A') (A') (A') (A') (A") (A') (A') (A") (A') (A')
                 (A") (A') (A") (A') (A') (A") (A') (A') (A") (A')
                 (A") (A') (A") (A') (A') (A") (A') (A') (A") (A')
                 (A") (A') (A') (A') (A") (A') (A") (A') (A") (A')
                 (A') (A') (A") (A') (A') (A") (A') (A") (A') (A')
                 (A") (A') (A') (A") (A") (A') (A') (A") (A') (A')
                 (A') (A") (A') (A") (A') (A") (A') (A") (A') (A')
                 (A") (A') (A') (A") (A') (A") (A') (A") (A') (A')
                 (A") (A') (A") (A') (A') (A") (A') (A') (A") (A')
                 (A") (A') (A') (A') (A") (A') (A') (A') (A") (A')
                 (A") (A') (A") (A') (A') (A") (A") (A') (A") (A')
                 (A') (A') (A') (A") (A") (A") (A') (A') (A') (A')
                 (A") (A') (A") (A') (A') (A") (A') (A') (A') (A')
                 (A") (A') (A') (A") (A') (A") (A') (A") (A') (A")
                 (A') (A") (A') (A') (A") (A") (A") (A') (A") (A')
                 (A") (A') (A") (A') (A") (A') (A") (A") (A') (A')
                 (A') (A') (A') (A') (A') (A') (A') (A') (A') (A')
                 (A')
 The electronic state is 1-A'.
 Alpha  occ. eigenvalues --  -20.69112 -20.68449 -20.66033 -15.81264  -1.62357
 Alpha  occ. eigenvalues --   -1.49615  -1.25486  -0.94792  -0.77308  -0.75900
 Alpha  occ. eigenvalues --   -0.71169  -0.67952  -0.62067  -0.58991  -0.48549
 Alpha  occ. eigenvalues --   -0.47182
 Alpha virt. eigenvalues --    0.02958   0.07191   0.08584   0.10173   0.13398
 Alpha virt. eigenvalues --    0.13399   0.14406   0.15457   0.17820   0.19420
 Alpha virt. eigenvalues --    0.19979   0.20626   0.22082   0.23488   0.23731
 Alpha virt. eigenvalues --    0.26565   0.29386   0.30406   0.31056   0.34326
 Alpha virt. eigenvalues --    0.34982   0.38703   0.42176   0.43145   0.52682
 Alpha virt. eigenvalues --    0.52968   0.55873   0.58220   0.62627   0.63710
 Alpha virt. eigenvalues --    0.67431   0.68436   0.70722   0.71094   0.72431
 Alpha virt. eigenvalues --    0.72953   0.74522   0.79063   0.79177   0.81002
 Alpha virt. eigenvalues --    0.81250   0.83036   0.86826   0.90792   0.92180
 Alpha virt. eigenvalues --    0.92514   0.95668   0.97857   0.98451   1.01625
 Alpha virt. eigenvalues --    1.05206   1.05474   1.08208   1.11789   1.14086
 Alpha virt. eigenvalues --    1.18917   1.22189   1.23240   1.33858   1.34969
 Alpha virt. eigenvalues --    1.38531   1.45262   1.48790   1.50955   1.53836
 Alpha virt. eigenvalues --    1.56638   1.57986   1.61359   1.66394   1.66887
 Alpha virt. eigenvalues --    1.70382   1.79339   1.83200   1.83443   1.87728
 Alpha virt. eigenvalues --    1.91101   1.95595   1.99156   2.00716   2.07629
 Alpha virt. eigenvalues --    2.12013   2.13266   2.14928   2.22371   2.26317
 Alpha virt. eigenvalues --    2.26424   2.28968   2.31425   2.34259   2.38608
 Alpha virt. eigenvalues --    2.42337   2.42886   2.45535   2.46451   2.47617
 Alpha virt. eigenvalues --    2.50164   2.58968   2.59562   2.61940   2.62564
 Alpha virt. eigenvalues --    2.63476   2.66608   2.75935   2.82862   2.85860
 Alpha virt. eigenvalues --    2.88066   2.89422   2.91739   2.96058   3.02422
 Alpha virt. eigenvalues --    3.06999   3.11947   3.20467   3.22803   3.31556
 Alpha virt. eigenvalues --    3.34345   3.51306   3.64574   3.83845   3.84466
 Alpha virt. eigenvalues --    4.14830   4.16101   4.18338   4.25745   4.35313
 Alpha virt. eigenvalues --    4.39311   4.46330   4.51869   4.66421   4.71000
 Alpha virt. eigenvalues --    4.80645   4.82269   4.82802   4.89542   5.02258
 Alpha virt. eigenvalues --    5.07797   5.10177   5.14352   5.18144   5.24170
 Alpha virt. eigenvalues --    5.27116   5.30988   5.32912   5.35662   5.60790
 Alpha virt. eigenvalues --    5.67364   5.76300   5.82902   5.95769   6.16815
 Alpha virt. eigenvalues --    6.30783   6.33909   6.39415   6.49249   6.50386
 Alpha virt. eigenvalues --    6.61312   6.66786   6.69712   6.75746   6.76262
 Alpha virt. eigenvalues --    6.83030   6.90045   7.01268   7.05554   7.05692
 Alpha virt. eigenvalues --    7.08926   7.12505   7.14871   7.18115   7.22465
 Alpha virt. eigenvalues --    7.24135   7.30708   7.32499   7.34762   7.39972
 Alpha virt. eigenvalues --    7.43184   7.48527   7.60729   7.61842   7.62680
 Alpha virt. eigenvalues --    7.66389   7.78548   7.88984   8.09236   8.31438
 Alpha virt. eigenvalues --    8.40917   8.54472  13.38611  14.39997  15.15863
 Alpha virt. eigenvalues --   16.15105
          Condensed to atoms (all electrons):
               1          2          3          4          5
     1  H    0.589487   0.128557   0.019981   0.012360  -0.000667
     2  O    0.128557   8.320064  -0.172646  -0.090962   0.015377
     3  O    0.019981  -0.172646   8.469589  -0.132242  -0.036745
     4  N    0.012360  -0.090962  -0.132242   6.976416  -0.056672
     5  O   -0.000667   0.015377  -0.036745  -0.056672   8.271761
 Mulliken charges:
               1
     1  H    0.250283
     2  O   -0.200390
     3  O   -0.147938
     4  N    0.291100
     5  O   -0.193055
 Sum of Mulliken charges =  -0.00000
 Mulliken charges with hydrogens summed into heavy atoms:
               1
     2  O    0.049892
     3  O   -0.147938
     4  N    0.291100
     5  O   -0.193055
 APT charges:
               1
     1  H    0.299589
     2  O   -0.287568
     3  O   -0.499720
     4  N    0.880681
     5  O   -0.392981
 Sum of APT charges =   0.00000
 APT charges with hydrogens summed into heavy atoms:
               1
     2  O    0.012020
     3  O   -0.499720
     4  N    0.880681
     5  O   -0.392981
 Electronic spatial extent (au):  <R**2>=            253.3484
 Charge=              0.0000 electrons
 Dipole moment (field-independent basis, Debye):
    X=              0.5066    Y=              1.3680    Z=              0.0000  Tot=              1.4588
 Quadrupole moment (field-independent basis, Debye-Ang):
   XX=            -22.4512   YY=            -18.6194   ZZ=            -22.0132
   XY=              3.2697   XZ=             -0.0000   YZ=              0.0000
 Traceless Quadrupole moment (field-independent basis, Debye-Ang):
   XX=             -1.4233   YY=              2.4086   ZZ=             -0.9852
   XY=              3.2697   XZ=             -0.0000   YZ=              0.0000
 Octapole moment (field-independent basis, Debye-Ang**2):
  XXX=              2.8895  YYY=             11.3087  ZZZ=             -0.0000  XYY=              7.9270
  XXY=              6.5864  XXZ=              0.0000  XZZ=             -1.5748  YZZ=             -0.8573
  YYZ=              0.0000  XYZ=              0.0000
 Hexadecapole moment (field-independent basis, Debye-Ang**3):
 XXXX=           -158.3739 YYYY=            -90.2081 ZZZZ=            -18.2496 XXXY=            -36.8094
 XXXZ=             -0.0000 YYYX=            -30.8591 YYYZ=             -0.0000 ZZZX=             -0.0000
 ZZZY=             -0.0000 XXYY=            -33.9654 XXZZ=            -30.8653 YYZZ=            -20.7589
 XXYZ=             -0.0000 YYXZ=             -0.0000 ZZXY=            -15.1198
 N-N= 1.168045538992D+02 E-N=-8.957140763186D+02  KE= 2.801938105347D+02
 Symmetry A'   KE= 2.662238481368D+02
 Symmetry A"   KE= 1.396996239786D+01
  Exact polarizability:  34.015   9.523  30.337   0.000  -0.000  17.938
 Approx polarizability:  28.991   5.177  23.578   0.000   0.000  15.527
 No NMR shielding tensors so no spin-rotation constants.
 Leave Link  601 at Mon Feb 21 20:54:33 2022, MaxMem= 16106127360 cpu:               5.7 elap:               0.2
 (Enter /sw/contrib/gaussian/g16/B01/g16/l701.exe)
 ... and contract with generalized density number  2.
 Compute integral second derivatives.
 Leave Link  701 at Mon Feb 21 20:54:33 2022, MaxMem= 16106127360 cpu:               5.6 elap:               0.2
 (Enter /sw/contrib/gaussian/g16/B01/g16/l702.exe)
 L702 exits ... SP integral derivatives will be done elsewhere.
 Leave Link  702 at Mon Feb 21 20:54:33 2022, MaxMem= 16106127360 cpu:               0.6 elap:               0.0
 (Enter /sw/contrib/gaussian/g16/B01/g16/l703.exe)
 Integral derivatives from FoFJK, PRISM(SPDF).
 Compute integral second derivatives, UseDBF=F ICtDFT=           0.
 Calling FoFJK, ICntrl=  10100127 FMM=F ISym2X=1 I1Cent= 0 IOpClX= 0 NMat=1 NMatS=1 NMatT=0.
 FoFJK:  IHMeth= 1 ICntrl=10100127 DoSepK=F KAlg= 0 I1Cent=           0 FoldK=F
 IRaf=         0 NMat=       1 IRICut=       1 DoRegI=T DoRafI=F ISym2E= 1 IDoP0=0 IntGTp=1.
 FoFCou: FMM=F IPFlag=           0 FMFlag=      100000 FMFlg1=         800
         NFxFlg=           0 DoJE=F BraDBF=F KetDBF=F FulRan=T
         wScrn=  0.000000 ICntrl=  10100127 IOpCl=  0 I1Cent=           0 NGrid=           0
         NMat0=    1 NMatS0=      1 NMatT0=    0 NMatD0=    1 NMtDS0=    0 NMtDT0=    0
 Petite list used in FoFCou.
 Leave Link  703 at Mon Feb 21 20:54:48 2022, MaxMem= 16106127360 cpu:             421.2 elap:              15.1
 (Enter /sw/contrib/gaussian/g16/B01/g16/l716.exe)
 Dipole        = 1.99317022D-01 5.38198818D-01 4.85024404D-32
 Polarizability= 3.40153528D+01 9.52331096D+00 3.03367352D+01
                 6.13867522D-30-4.59230511D-30 1.79378364D+01
 Full mass-weighted force constant matrix:
 Low frequencies --- -271.0452  -60.0109   -0.0004    0.0007    0.0010   15.5513
 Low frequencies ---   24.3134  228.6563  341.0944
 ******    1 imaginary frequencies (negative Signs) ****** 
 Diagonal vibrational polarizability:
       14.2516621      25.8054801      46.1131249
 Harmonic frequencies (cm**-1), IR intensities (KM/Mole), Raman scattering
 activities (A**4/AMU), depolarization ratios for plane and unpolarized
 incident light, reduced masses (AMU), force constants (mDyne/A),
 and normal coordinates:
                      1                      2                      3
                     A"                     A"                     A'
 Frequencies --   -271.0405               228.3662               341.0943
 Red. masses --      1.1410                10.3027                 8.5960
 Frc consts  --      0.0494                 0.3166                 0.5892
 IR Inten    --    124.5837                 0.9208                 5.4158
  Atom  AN      X      Y      Z        X      Y      Z        X      Y      Z
     1   1    -0.00  -0.00   1.00    -0.00   0.00  -0.59     0.54  -0.44  -0.00
     2   8    -0.00  -0.00  -0.07    -0.00   0.00  -0.30    -0.09  -0.37  -0.00
     3   8    -0.00  -0.00  -0.04    -0.00  -0.00   0.32    -0.14   0.43   0.00
     4   7     0.00   0.00   0.06     0.00   0.00   0.52     0.04   0.25   0.00
     5   8     0.00   0.00  -0.01     0.00   0.00  -0.44     0.17  -0.25  -0.00
                      4                      5                      6
                     A'                     A'                     A'
 Frequencies --    447.0049               786.1244               966.7712
 Red. masses --     12.3873                12.9110                15.3544
 Frc consts  --      1.4583                 4.7010                 8.4554
 IR Inten    --    199.4764               173.0998                23.6120
  Atom  AN      X      Y      Z        X      Y      Z        X      Y      Z
     1   1     0.40   0.20  -0.00    -0.34   0.19   0.00    -0.18  -0.04  -0.00
     2   8     0.32   0.21  -0.00     0.42   0.08  -0.00    -0.52   0.03  -0.00
     3   8     0.18   0.43   0.00    -0.07  -0.27   0.00     0.75  -0.02   0.00
     4   7    -0.35  -0.41   0.00    -0.14   0.62   0.00    -0.12   0.25   0.00
     5   8    -0.22  -0.30  -0.00    -0.21  -0.37  -0.00    -0.11  -0.22  -0.00
                      7                      8                      9
                     A'                     A'                     A'
 Frequencies --   1371.1442              1677.1719              3778.7987
 Red. masses --      1.1335                13.1836                 1.0675
 Frc consts  --      1.2556                21.8494                 8.9814
 IR Inten    --    154.0658               142.0724                82.9808
  Atom  AN      X      Y      Z        X      Y      Z        X      Y      Z
     1   1     0.99  -0.05  -0.00    -0.35   0.01   0.00     0.10   0.99   0.00
     2   8    -0.03   0.05  -0.00    -0.00  -0.04   0.00    -0.01  -0.06  -0.00
     3   8    -0.02  -0.05   0.00     0.00   0.15  -0.00     0.00   0.00  -0.00
     4   7     0.02   0.01   0.00     0.70  -0.05  -0.00    -0.00  -0.00   0.00
     5   8    -0.03  -0.01  -0.00    -0.59  -0.07   0.00     0.00   0.00   0.00

 -------------------
 - Thermochemistry -
 -------------------
 Temperature   298.150 Kelvin.  Pressure   1.00000 Atm.
 Atom     1 has atomic number  1 and mass   1.00783
 Atom     2 has atomic number  8 and mass  15.99491
 Atom     3 has atomic number  8 and mass  15.99491
 Atom     4 has atomic number  7 and mass  14.00307
 Atom     5 has atomic number  8 and mass  15.99491
 Molecular mass:    62.99564 amu.
 Principal axes and moments of inertia in atomic units:
                           1         2         3
     Eigenvalues --    32.75221 361.12841 393.88062
           X            0.80885  -0.58801   0.00000
           Y            0.58801   0.80885   0.00000
           Z            0.00000  -0.00000   1.00000
 This molecule is an asymmetric top.
 Rotational symmetry number  1.
 Rotational temperatures (Kelvin)      2.64452     0.23984     0.21990
 Rotational constants (GHZ):          55.10288     4.99751     4.58195
    1 imaginary frequencies ignored.
 Zero-point vibrational energy      57399.7 (Joules/Mol)
                                   13.71885 (Kcal/Mol)
 Warning -- explicit consideration of   3 degrees of freedom as
           vibrations may cause significant error
 Vibrational temperatures:    328.57   490.76   643.14  1131.06  1390.97
          (Kelvin)           1972.77  2413.08  5436.85
 
 Zero-point correction=                           0.021862 (Hartree/Particle)
 Thermal correction to Energy=                    0.025985
 Thermal correction to Enthalpy=                  0.026929
 Thermal correction to Gibbs Free Energy=        -0.004265
 Sum of electronic and zero-point Energies=           -280.424849
 Sum of electronic and thermal Energies=              -280.420726
 Sum of electronic and thermal Enthalpies=            -280.419782
 Sum of electronic and thermal Free Energies=         -280.450977
 
                     E (Thermal)             CV                S
                      KCal/Mol        Cal/Mol-Kelvin    Cal/Mol-Kelvin
 Total                   16.306             11.966             65.655
 Electronic               0.000              0.000              0.000
 Translational            0.889              2.981             38.341
 Rotational               0.889              2.981             23.059
 Vibrational             14.529              6.004              4.255
 Vibration     1          0.651              1.798              1.892
 Vibration     2          0.721              1.593              1.207
 Vibration     3          0.806              1.368              0.805
                       Q            Log10(Q)             Ln(Q)
 Total Bot       0.915977D+02          1.961884          4.517406
 Total V=0       0.104201D+13         12.017873         27.672174
 Vib (Bot)       0.190759D-09         -9.719514        -22.380009
 Vib (Bot)    1  0.863081D+00         -0.063949         -0.147247
 Vib (Bot)    2  0.544003D+00         -0.264399         -0.608801
 Vib (Bot)    3  0.384567D+00         -0.415028         -0.955638
 Vib (V=0)       0.217007D+01          0.336474          0.774760
 Vib (V=0)    1  0.149745D+01          0.175353          0.403764
 Vib (V=0)    2  0.123888D+01          0.093028          0.214205
 Vib (V=0)    3  0.113079D+01          0.053381          0.122913
 Electronic      0.100000D+01          0.000000          0.000000
 Translational   0.196526D+08          7.293420         16.793719
 Rotational      0.244331D+05          4.387979         10.103695
 
                                                                title
                                                             IR Spectrum
 
     3                                                                      1         1                                              
     7                                                                      6         3             9     7          4   3   2       
     7                                                                      7         7             6     8          4   4   2       
     9                                                                      7         1             7     6          7   1   8       
 
     X                                                                      X         X             X     X          X   X   X       
     X                                                                      X         X             X     X          X               
     X                                                                      X         X                   X          X               
     X                                                                      X         X                   X          X               
     X                                                                      X         X                   X          X               
     X                                                                      X         X                   X          X               
     X                                                                      X         X                   X          X               
     X                                                                      X         X                   X          X               
                                                                            X         X                   X          X               
                                                                            X         X                   X          X               
                                                                            X         X                   X          X               
                                                                            X         X                   X          X               
                                                                            X         X                   X          X               
                                                                            X         X                   X          X               
                                                                                      X                   X          X               
                                                                                                          X          X               
                                                                                                          X          X               
                                                                                                                     X               
                                                                                                                     X               
                                                                                                                     X               
 
 ***** Axes restored to original set *****
 -------------------------------------------------------------------
 Center     Atomic                   Forces (Hartrees/Bohr)
 Number     Number              X              Y              Z
 -------------------------------------------------------------------
      1        1           0.000180246   -0.000000000   -0.000009486
      2        8           0.000359885    0.000000000    0.000563340
      3        8           0.001546921   -0.000000000   -0.000338930
      4        7          -0.002223616    0.000000000    0.001948370
      5        8           0.000136564   -0.000000000   -0.002163292
 -------------------------------------------------------------------
 Cartesian Forces:  Max     0.002223616 RMS     0.001046466
 -----------------------------------------------------------------------------------------------
                       Internal Coordinate Forces (Hartree/Bohr or radian)
  Cent   Atom   N1       Length/X         N2         Alpha/Y        N3         Beta/Z          J
 -----------------------------------------------------------------------------------------------
      1  H 
      2  O        1   0.000009(     1)
      3  O        2  -0.000609(     2)      1  -0.000330(     5)
      4  N        3  -0.000385(     3)      2  -0.000983(     6)      1  -0.000000(     8)     0
      5  O        4  -0.000425(     4)      3  -0.004702(     7)      2  -0.000000(     9)     0
 -----------------------------------------------------------------------------------------------
 Internal  Forces:  Max     0.004702351 RMS     0.001629151
 Force constants in Cartesian coordinates: 
                1             2             3             4             5 
      1  0.646459D-01
      2  0.000000D+00 -0.238718D-02
      3  0.524515D-02  0.000000D+00  0.512389D+00
      4 -0.358311D-01  0.000000D+00 -0.162898D-01  0.272595D+00
      5  0.000000D+00  0.311881D-02  0.000000D+00  0.000000D+00  0.210420D-02
      6  0.483062D-01  0.000000D+00 -0.508551D+00  0.331536D-01  0.000000D+00
      7 -0.183528D-01  0.000000D+00  0.125928D-01 -0.220438D+00  0.000000D+00
      8  0.000000D+00  0.972446D-03  0.000000D+00  0.000000D+00 -0.646889D-02
      9 -0.531622D-01  0.000000D+00 -0.425823D-03 -0.194101D-01  0.000000D+00
     10 -0.934142D-02  0.000000D+00 -0.488597D-02 -0.168071D-01  0.000000D+00
     11  0.000000D+00 -0.273277D-02  0.000000D+00  0.000000D+00 -0.511261D-02
     12  0.532016D-02  0.000000D+00 -0.486758D-02  0.114610D-01  0.000000D+00
     13 -0.112051D-02  0.000000D+00  0.333776D-02  0.481872D-03  0.000000D+00
     14  0.000000D+00  0.102869D-02  0.000000D+00  0.000000D+00  0.635849D-02
     15 -0.570925D-02  0.000000D+00  0.145470D-02 -0.891474D-02  0.000000D+00
                6             7             8             9            10 
      6  0.594678D+00
      7 -0.210493D-01  0.340851D+00
      8  0.000000D+00  0.000000D+00  0.381203D-02
      9 -0.786082D-01  0.341650D-01  0.000000D+00  0.180097D+00
     10 -0.528116D-01 -0.791489D-01  0.000000D+00  0.176333D+00  0.828071D+00
     11  0.000000D+00  0.000000D+00  0.959327D-02  0.000000D+00  0.000000D+00
     12  0.169448D-01  0.634746D-01  0.000000D+00 -0.807414D-01 -0.136739D-01
     13 -0.759899D-02 -0.229107D-01  0.000000D+00 -0.137925D+00 -0.722774D+00
     14  0.000000D+00  0.000000D+00 -0.790886D-02  0.000000D+00  0.000000D+00
     15 -0.244638D-01 -0.891832D-01  0.000000D+00 -0.203213D-01 -0.104961D+00
               11            12            13            14            15 
     11  0.702859D-02
     12  0.000000D+00  0.187787D+00
     13  0.000000D+00 -0.665819D-01  0.746323D+00
     14 -0.877649D-02  0.000000D+00  0.000000D+00  0.929817D-02
     15  0.000000D+00 -0.119123D+00  0.208769D+00  0.000000D+00  0.162453D+00
 Force constants in internal coordinates: 
                1             2             3             4             5 
      1  0.512389D+00
      2 -0.104404D-01  0.280961D+00
      3  0.352832D-02  0.215713D-02  0.115956D+00
      4 -0.359981D-02  0.567217D-02  0.152107D+00  0.811501D+00
      5  0.978467D-02  0.652599D-01  0.228075D-02  0.467483D-02  0.216771D+00
      6  0.469033D-02  0.587981D-01  0.412379D-01  0.211026D-01  0.312906D-01
      7 -0.120806D-02  0.368074D-01  0.286718D-01  0.812909D-01  0.211806D-01
      8  0.000000D+00  0.000000D+00  0.000000D+00  0.000000D+00  0.000000D+00
      9  0.000000D+00  0.000000D+00  0.000000D+00  0.000000D+00  0.000000D+00
                6             7             8             9 
      6  0.282766D+00
      7  0.950242D-01  0.475174D+00
      8  0.000000D+00  0.000000D+00 -0.780324D-02
      9  0.000000D+00  0.000000D+00 -0.389010D-02  0.410290D-01
 Leave Link  716 at Mon Feb 21 20:54:48 2022, MaxMem= 16106127360 cpu:               1.2 elap:               0.1
 (Enter /sw/contrib/gaussian/g16/B01/g16/l103.exe)

 GradGradGradGradGradGradGradGradGradGradGradGradGradGradGradGradGradGrad
 Berny optimization.
 Search for a local minimum.
 Step number   1 out of a maximum of    2
 All quantities printed in internal units (Hartrees-Bohrs-Radians)
 Second derivative matrix not updated -- analytic derivatives used.
 The second derivative matrix:
                          r1        r2        r3        r4        a1
           r1           0.51239
           r2          -0.01044   0.28096
           r3           0.00353   0.00216   0.11596
           r4          -0.00360   0.00567   0.15211   0.81150
           a1           0.00978   0.06526   0.00228   0.00467   0.21677
           a2           0.00469   0.05880   0.04124   0.02110   0.03129
           a3          -0.00121   0.03681   0.02867   0.08129   0.02118
           d1           0.00000   0.00000  -0.00000  -0.00000   0.00000
           d2           0.00000   0.00000  -0.00000  -0.00000   0.00000
                          a2        a3        d1        d2
           a2           0.28277
           a3           0.09502   0.47517
           d1           0.00000   0.00000  -0.00780
           d2           0.00000   0.00000  -0.00389   0.04103
 ITU=  0
     Eigenvalues ---   -0.00811   0.04134   0.07723   0.17530   0.22549
     Eigenvalues ---    0.32419   0.51231   0.51352   0.86747
 Eigenvalue     1 is  -8.11D-03 should be greater than     0.000000 Eigenvector:
                          d1        d2        r3        a2        a3
   1                    0.99688   0.07892   0.00000  -0.00000  -0.00000
                          r4        a1        r2        r1
   1                   -0.00000   0.00000  -0.00000  -0.00000
 Angle between quadratic step and forces=  18.33 degrees.
 Linear search not attempted -- first point.
 Variable       Old X    -DE/DX   Delta X   Delta X   Delta X     New X
                                 (Linear)    (Quad)   (Total)
    r1        1.83110   0.00001   0.00000   0.00000   0.00000   1.83110
    r2        2.74940  -0.00061   0.00000  -0.00086  -0.00086   2.74854
    r3        2.75670  -0.00039   0.00000  -0.00209  -0.00209   2.75461
    r4        2.21236  -0.00043   0.00000   0.00086   0.00086   2.21322
    a1        1.70335  -0.00033   0.00000  -0.00034  -0.00034   1.70301
    a2        1.78543  -0.00098   0.00000   0.00030   0.00030   1.78573
    a3        1.91334  -0.00470   0.00000  -0.00990  -0.00990   1.90344
    d1        3.14159  -0.00000   0.00000  -0.00000   0.00000   3.14159
    d2        3.14159  -0.00000   0.00000  -0.00000   0.00000   3.14159
         Item               Value     Threshold  Converged?
 Maximum Force            0.004702     0.000450     NO 
 RMS     Force            0.001629     0.000300     NO 
 Maximum Displacement     0.009897     0.001800     NO 
 RMS     Displacement     0.003399     0.001200     NO 
 Predicted change in Energy=-2.365478D-05
                       ----------------------------
                       ! Non-Optimized Parameters !
                       ! (Angstroms and Degrees)  !
 ----------------------                            ----------------------
 !      Name          Value   Derivative information (Atomic Units)     !
 ------------------------------------------------------------------------
 !       r1          0.969    -DE/DX =    0.0                           !
 !       r2          1.4545   -DE/DX =   -0.0006                        !
 !       r3          1.4577   -DE/DX =   -0.0004                        !
 !       r4          1.1712   -DE/DX =   -0.0004                        !
 !       a1         97.5756   -DE/DX =   -0.0003                        !
 !       a2        102.315    -DE/DX =   -0.001                         !
 !       a3        109.0592   -DE/DX =   -0.0047                        !
 !       d1        180.0      -DE/DX =    0.0                           !
 !       d2        180.0      -DE/DX =    0.0                           !
 ------------------------------------------------------------------------
 GradGradGradGradGradGradGradGradGradGradGradGradGradGradGradGradGradGrad

 Leave Link  103 at Mon Feb 21 20:54:48 2022, MaxMem= 16106127360 cpu:               1.2 elap:               0.1
 (Enter /sw/contrib/gaussian/g16/B01/g16/l9999.exe)

 ----------------------------------------------------------------------

 Electric dipole moment (input orientation):
 (Debye = 10**-18 statcoulomb cm , SI units = C m)
                  (au)            (Debye)         (10**-30 SI)
   Tot        0.573921D+00      0.145876D+01      0.486590D+01
   x         -0.145197D+00     -0.369053D+00     -0.123103D+01
   y          0.000000D+00      0.000000D+00      0.000000D+00
   z         -0.555251D+00     -0.141131D+01     -0.470761D+01

 Dipole polarizability, Alpha (input orientation).
 (esu units = cm**3 , SI units = C**2 m**2 J**-1)
 Alpha(0;0):
               (au)            (10**-24 esu)      (10**-40 SI)
   iso        0.274300D+02      0.406470D+01      0.452259D+01
   aniso      0.220217D+02      0.326328D+01      0.363089D+01
   xx         0.321079D+02      0.475789D+01      0.529387D+01
   yx         0.000000D+00      0.000000D+00      0.000000D+00
   yy         0.179378D+02      0.265811D+01      0.295755D+01
   zx         0.969906D+01      0.143725D+01      0.159916D+01
   zy         0.000000D+00      0.000000D+00      0.000000D+00
   zz         0.322442D+02      0.477810D+01      0.531636D+01

 ----------------------------------------------------------------------

 Dipole orientation:
     1          0.00000000          0.00000000          0.00000000
     8         -0.46325125         -0.00000000         -1.77153034
     8          2.08143766          0.00000000         -2.81256510
     7          1.60501613          0.00000000         -5.52778707
     8          3.52906447          0.00000000         -6.61983148

 Electric dipole moment (dipole orientation):
 (Debye = 10**-18 statcoulomb cm , SI units = C m)
                  (au)            (Debye)         (10**-30 SI)
   Tot        0.573921D+00      0.145876D+01      0.486590D+01
   x          0.000000D+00      0.000000D+00      0.000000D+00
   y          0.000000D+00      0.000000D+00      0.000000D+00
   z          0.573921D+00      0.145876D+01      0.486590D+01

 Dipole polarizability, Alpha (dipole orientation).
 (esu units = cm**3 , SI units = C**2 m**2 J**-1)
 Alpha(0;0):
               (au)            (10**-24 esu)      (10**-40 SI)
   iso        0.274300D+02      0.406470D+01      0.452259D+01
   aniso      0.220217D+02      0.326328D+01      0.363089D+01
   xx         0.273687D+02      0.405562D+01      0.451249D+01
   yx         0.000000D+00      0.000000D+00      0.000000D+00
   yy         0.179378D+02      0.265811D+01      0.295755D+01
   zx        -0.842412D+01     -0.124833D+01     -0.138895D+01
   zy         0.000000D+00      0.000000D+00      0.000000D+00
   zz         0.369834D+02      0.548037D+01      0.609774D+01

 ----------------------------------------------------------------------
 1\1\GINC-N2108\Freq\RMP2-FC\Aug-CC-pVTZ\H1N1O3\CGAVINH\21-Feb-2022\1\\
 #p freq mp2/aug-cc-pvtz density=current\\title\\0,1\H\O,1,r1\O,2,r2,1,
 a1\N,3,r3,2,a2,1,d1,0\O,4,r4,3,a3,2,d2,0\\r1=0.96897556\r2=1.45491931\
 r3=1.45878406\r4=1.17072885\a1=97.59494903\a2=102.29752444\a3=109.6262
 268\d1=180.\d2=180.\\Version=ES64L-G16RevB.01\State=1-A'\HF=-279.50162
 52\MP2=-280.4467116\RMSD=3.817e-09\RMSF=1.046e-03\ZeroPoint=0.0218624\
 Thermal=0.0259852\Dipole=-0.1451968,0.,-0.5552505\DipoleDeriv=0.266681
 7,0.,0.0484524,0.,0.3556579,0.,0.0826043,0.,0.2764262,-0.3269071,0.,-0
 .2065835,0.,-0.3141106,0.,-0.1103399,0.,-0.2216869,-0.0493633,0.,0.145
 938,0.,-0.0860593,0.,-0.7549915,0.,-1.3637381,0.893548,0.,0.9121088,0.
 ,0.0641722,0.,0.9273878,0.,1.684323,-0.7839593,0.,-0.8999157,0.,-0.019
 6602,0.,-0.1446608,0.,-0.3753242\Polar=32.107858,0.,17.9378364,9.69906
 49,0.,32.2442299\Quadrupole=-1.5081728,-0.7324995,2.2406723,0.,2.10355
 31,0.\PG=CS [SG(H1N1O3)]\NImag=1\\0.06464587,0.,-0.00238718,0.00524515
 ,0.,0.51238929,-0.03583114,0.,-0.01628978,0.27259481,0.,0.00311881,0.,
 0.,0.00210420,0.04830617,0.,-0.50855058,0.03315363,0.,0.59467784,-0.01
 835280,0.,0.01259285,-0.22043841,0.,-0.02104925,0.34085077,0.,0.000972
 45,0.,0.,-0.00646889,0.,0.,0.00381203,-0.05316222,0.,-0.00042582,-0.01
 941013,0.,-0.07860824,0.03416502,0.,0.18009675,-0.00934142,0.,-0.00488
 597,-0.01680713,0.,-0.05281156,-0.07914889,0.,0.17633269,0.82807110,0.
 ,-0.00273277,0.,0.,-0.00511261,0.,0.,0.00959327,0.,0.,0.00702859,0.005
 32016,0.,-0.00486758,0.01146102,0.,0.01694481,0.06347461,0.,-0.0807413
 9,-0.01367385,0.,0.18778696,-0.00112051,0.,0.00333776,0.00048187,0.,-0
 .00759899,-0.02291067,0.,-0.13792536,-0.72277366,0.,-0.06658195,0.7463
 2297,0.,0.00102869,0.,0.,0.00635849,0.,0.,-0.00790886,0.,0.,-0.0087764
 9,0.,0.,0.00929817,-0.00570925,0.,0.00145470,-0.00891474,0.,-0.0244638
 3,-0.08918323,0.,-0.02032130,-0.10496131,0.,-0.11912281,0.20876853,0.,
 0.16245324\\-0.00018025,0.,0.00000949,-0.00035988,0.,-0.00056334,-0.00
 154692,0.,0.00033893,0.00222362,0.,-0.00194837,-0.00013656,0.,0.002163
 29\\\@


 I WOULD TAKE COUNSEL OF MYSELF.
 I WOULD STOP AND LOOK WITHIN
 AND LOOKING WITHIN, LOOK BACK, ALSO
 THAT I MAY LOOK AHEAD WITH CLEARER UNDERSTANDING
 OF THE WAY I HAVE BEEN MOVING, AND IN WHAT DIRECTION.
 I NEED TO KNOW IF I AM GOING FORWARD OR RETREATING,
 WHETHER I HAVE BEEN WASTING, OR ENJOYING
 THE PRECIOUS MOMENTS OF LIFE.  THERE HAVE BEEN FRICTIONS,
 ANNOYANCES AND SOMETIMES WRATH,
 BUT WERE THEY BECAUSE I WAS RIGHT AND OTHERS WRONG.....
 HAVE I HAD MY THOUGHTS TOO SHARPLY FOCUSED
 ON THAT WHICH PLEASED ME, SERVED MY SELF-ESTEEM,
 UNDERGIRDED MY SECURITY,
 OF WHICH I DID NOT INQUIRE WHETHER IT SERVED OR HAMPERED OTHERS.....
 HAVE I BEEN TRYING TO STOP THE CLOCK
 TO HOLD THE WORLD
 IN PERPETUATION OF WHAT WAS AN IS ALREADY SLIPPING AWAY.....
 HAVE I BEEN CRITICAL OF OTHERS FOR WHAT REALLY NEEDED CHANGING IN ME...
 LET ME INDEED TAKE COUNSEL OF MYSELF
 AND SET MY DIRECTIONS STRAIGHT.

                          R.T. WESTON AS ADAPTED BY D. OSBORN 1967
 Job cpu time:       0 days  2 hours  4 minutes  1.2 seconds.
 Elapsed time:       0 days  0 hours  4 minutes 29.0 seconds.
 File lengths (MBytes):  RWF=   7239 Int=      0 D2E=      0 Chk=      8 Scr=      1
 Normal termination of Gaussian 16 at Mon Feb 21 20:54:49 2022.
