title                                                                   
Freq      RMP2-FC                                                     Aug-CC-pVTZ         
Number of atoms                            I                5
Info1-9                                    I   N=           9
          33          24           0           0           0         100
           6           2           1
Full Title                                 C   N=           1
title       
Route                                      C   N=           4
#p freq mp2/aug-cc-pvtz density=current         
Charge                                     I                0
Multiplicity                               I                1
Number of electrons                        I               32
Number of alpha electrons                  I               16
Number of beta electrons                   I               16
Number of basis functions                  I              207
Number of independent functions            I              207
Number of point charges in /Mol/           I                0
Number of translation vectors              I                0
Atomic numbers                             I   N=           5
           1           8           8           7           8
Nuclear charges                            R   N=           5
  1.00000000E+00  8.00000000E+00  8.00000000E+00  7.00000000E+00  8.00000000E+00
Current cartesian coordinates              R   N=          15
 -4.24453192E+00  8.15608385E-01  1.63601770E-01 -3.02164570E+00 -5.35618270E-01
 -1.43231787E-02 -7.56462865E-01  1.02262361E+00 -1.92208907E-02  1.25376924E+00
 -8.63550761E-01  7.62956389E-03  3.21162697E+00  1.66650529E-01  6.41797976E-03
Number of symbols in /Mol/                 I                0
Force Field                                I                0
Atom Types                                 C   N=           5
                                                            
Int Atom Types                             I   N=           5
           0           0           0           0           0
MM charges                                 R   N=           5
  0.00000000E+00  0.00000000E+00  0.00000000E+00  0.00000000E+00  0.00000000E+00
Integer atomic weights                     I   N=           5
           1          16          16          14          16
Real atomic weights                        R   N=           5
  1.00782504E+00  1.59949146E+01  1.59949146E+01  1.40030740E+01  1.59949146E+01
Atom fragment info                         I   N=           5
           0           0           0           0           0
Atom residue num                           I   N=           5
           0           0           0           0           0
Nuclear spins                              I   N=           5
           1           0           0           2           0
Nuclear ZEff                               R   N=           5
 -1.00000000E+00 -5.60000000E+00 -5.60000000E+00 -4.55000000E+00 -5.60000000E+00
Nuclear ZNuc                               R   N=           5
  1.00000000E+00  8.00000000E+00  8.00000000E+00  7.00000000E+00  8.00000000E+00
Nuclear QMom                               R   N=           5
  0.00000000E+00  0.00000000E+00  0.00000000E+00  2.04400000E+00  0.00000000E+00
Nuclear GFac                               R   N=           5
  2.79284600E+00  0.00000000E+00  0.00000000E+00  4.03761000E-01  0.00000000E+00
MicOpt                                     I   N=           5
          -1          -1          -1          -1          -1
Number of residues                         I                0
Number of secondary structures             I                0
SymInf integers                            I   N=          26
           1           1           1           1           1           0
           0           0           0           0           0           0
           0           0           0           0           0           0
           0           0           0           0           0           0
           0           0
RotTr to input orientation                 R   N=          12
  7.42125273E-01  5.68844813E-02  6.67842972E-01  6.70168301E-01 -7.95637205E-02
 -7.37932289E-01  1.11591760E-02  9.95205391E-01 -9.71684240E-02  2.60155386E+00
  1.43523471E-01  3.45244150E+00
Number of contracted shells                I               65
Number of primitive shells                 I              119
Pure/Cartesian d shells                    I                0
Pure/Cartesian f shells                    I                0
Highest angular momentum                   I                3
Largest degree of contraction              I                7
Shell types                                I   N=          65
           0           0           0           0           1           1
           1          -2          -2           0           0           0
           0           0           1           1           1           1
          -2          -2          -2          -3          -3           0
           0           0           0           0           1           1
           1           1          -2          -2          -2          -3
          -3           0           0           0           0           0
           1           1           1           1          -2          -2
          -2          -3          -3           0           0           0
           0           0           1           1           1           1
          -2          -2          -2          -3          -3
Number of primitives per shell             I   N=          65
           3           1           1           1           1           1
           1           1           1           7           6           1
           1           1           3           1           1           1
           1           1           1           1           1           7
           6           1           1           1           3           1
           1           1           1           1           1           1
           1           7           6           1           1           1
           3           1           1           1           1           1
           1           1           1           7           6           1
           1           1           3           1           1           1
           1           1           1           1           1
Shell to atom map                          I   N=          65
           1           1           1           1           1           1
           1           1           1           2           2           2
           2           2           2           2           2           2
           2           2           2           2           2           3
           3           3           3           3           3           3
           3           3           3           3           3           3
           3           4           4           4           4           4
           4           4           4           4           4           4
           4           4           4           5           5           5
           5           5           5           5           5           5
           5           5           5           5           5
Primitive exponents                        R   N=         119
  3.38700000E+01  5.09500000E+00  1.15900000E+00  3.25800000E-01  1.02700000E-01
  2.52600000E-02  1.40700000E+00  3.88000000E-01  1.02000000E-01  1.05700000E+00
  2.47000000E-01  1.53300000E+04  2.29900000E+03  5.22400000E+02  1.47300000E+02
  4.75500000E+01  1.67600000E+01  6.20700000E+00  5.22400000E+02  1.47300000E+02
  4.75500000E+01  1.67600000E+01  6.20700000E+00  6.88200000E-01  1.75200000E+00
  2.38400000E-01  7.37600000E-02  3.44600000E+01  7.74900000E+00  2.28000000E+00
  7.15600000E-01  2.14000000E-01  5.97400000E-02  2.31400000E+00  6.45000000E-01
  2.14000000E-01  1.42800000E+00  5.00000000E-01  1.53300000E+04  2.29900000E+03
  5.22400000E+02  1.47300000E+02  4.75500000E+01  1.67600000E+01  6.20700000E+00
  5.22400000E+02  1.47300000E+02  4.75500000E+01  1.67600000E+01  6.20700000E+00
  6.88200000E-01  1.75200000E+00  2.38400000E-01  7.37600000E-02  3.44600000E+01
  7.74900000E+00  2.28000000E+00  7.15600000E-01  2.14000000E-01  5.97400000E-02
  2.31400000E+00  6.45000000E-01  2.14000000E-01  1.42800000E+00  5.00000000E-01
  1.14200000E+04  1.71200000E+03  3.89300000E+02  1.10000000E+02  3.55700000E+01
  1.25400000E+01  4.64400000E+00  3.89300000E+02  1.10000000E+02  3.55700000E+01
  1.25400000E+01  4.64400000E+00  5.11800000E-01  1.29300000E+00  1.78700000E-01
  5.76000000E-02  2.66300000E+01  5.94800000E+00  1.74200000E+00  5.55000000E-01
  1.72500000E-01  4.91000000E-02  1.65400000E+00  4.69000000E-01  1.51000000E-01
  1.09300000E+00  3.64000000E-01  1.53300000E+04  2.29900000E+03  5.22400000E+02
  1.47300000E+02  4.75500000E+01  1.67600000E+01  6.20700000E+00  5.22400000E+02
  1.47300000E+02  4.75500000E+01  1.67600000E+01  6.20700000E+00  6.88200000E-01
  1.75200000E+00  2.38400000E-01  7.37600000E-02  3.44600000E+01  7.74900000E+00
  2.28000000E+00  7.15600000E-01  2.14000000E-01  5.97400000E-02  2.31400000E+00
  6.45000000E-01  2.14000000E-01  1.42800000E+00  5.00000000E-01
Contraction coefficients                   R   N=         119
  2.54948632E-02  1.90362766E-01  8.52162022E-01  1.00000000E+00  1.00000000E+00
  1.00000000E+00  1.00000000E+00  1.00000000E+00  1.00000000E+00  1.00000000E+00
  1.00000000E+00  5.19808943E-04  4.02025621E-03  2.07128267E-02  8.10105536E-02
  2.35962985E-01  4.42653446E-01  3.57064423E-01 -4.42115008E-05 -1.22591041E-03
 -1.05517725E-02 -6.74452633E-02 -1.71198607E-01  1.07329856E+00  1.00000000E+00
  1.00000000E+00  1.00000000E+00  4.11634896E-02  2.57762836E-01  8.02419274E-01
  1.00000000E+00  1.00000000E+00  1.00000000E+00  1.00000000E+00  1.00000000E+00
  1.00000000E+00  1.00000000E+00  1.00000000E+00  5.19808943E-04  4.02025621E-03
  2.07128267E-02  8.10105536E-02  2.35962985E-01  4.42653446E-01  3.57064423E-01
 -4.42115008E-05 -1.22591041E-03 -1.05517725E-02 -6.74452633E-02 -1.71198607E-01
  1.07329856E+00  1.00000000E+00  1.00000000E+00  1.00000000E+00  4.11634896E-02
  2.57762836E-01  8.02419274E-01  1.00000000E+00  1.00000000E+00  1.00000000E+00
  1.00000000E+00  1.00000000E+00  1.00000000E+00  1.00000000E+00  1.00000000E+00
  5.34563860E-04  4.13435660E-03  2.12335358E-02  8.25006224E-02  2.38138871E-01
  4.42551547E-01  3.53757422E-01 -4.89867350E-05 -1.19527323E-03 -1.03490714E-02
 -6.48680190E-02 -1.71552477E-01  1.07289568E+00  1.00000000E+00  1.00000000E+00
  1.00000000E+00  3.98072123E-02  2.49002660E-01  8.10479727E-01  1.00000000E+00
  1.00000000E+00  1.00000000E+00  1.00000000E+00  1.00000000E+00  1.00000000E+00
  1.00000000E+00  1.00000000E+00  5.19808943E-04  4.02025621E-03  2.07128267E-02
  8.10105536E-02  2.35962985E-01  4.42653446E-01  3.57064423E-01 -4.42115008E-05
 -1.22591041E-03 -1.05517725E-02 -6.74452633E-02 -1.71198607E-01  1.07329856E+00
  1.00000000E+00  1.00000000E+00  1.00000000E+00  4.11634896E-02  2.57762836E-01
  8.02419274E-01  1.00000000E+00  1.00000000E+00  1.00000000E+00  1.00000000E+00
  1.00000000E+00  1.00000000E+00  1.00000000E+00  1.00000000E+00
Coordinates of each shell                  R   N=         195
 -4.24453192E+00  8.15608385E-01  1.63601770E-01 -4.24453192E+00  8.15608385E-01
  1.63601770E-01 -4.24453192E+00  8.15608385E-01  1.63601770E-01 -4.24453192E+00
  8.15608385E-01  1.63601770E-01 -4.24453192E+00  8.15608385E-01  1.63601770E-01
 -4.24453192E+00  8.15608385E-01  1.63601770E-01 -4.24453192E+00  8.15608385E-01
  1.63601770E-01 -4.24453192E+00  8.15608385E-01  1.63601770E-01 -4.24453192E+00
  8.15608385E-01  1.63601770E-01 -3.02164570E+00 -5.35618270E-01 -1.43231787E-02
 -3.02164570E+00 -5.35618270E-01 -1.43231787E-02 -3.02164570E+00 -5.35618270E-01
 -1.43231787E-02 -3.02164570E+00 -5.35618270E-01 -1.43231787E-02 -3.02164570E+00
 -5.35618270E-01 -1.43231787E-02 -3.02164570E+00 -5.35618270E-01 -1.43231787E-02
 -3.02164570E+00 -5.35618270E-01 -1.43231787E-02 -3.02164570E+00 -5.35618270E-01
 -1.43231787E-02 -3.02164570E+00 -5.35618270E-01 -1.43231787E-02 -3.02164570E+00
 -5.35618270E-01 -1.43231787E-02 -3.02164570E+00 -5.35618270E-01 -1.43231787E-02
 -3.02164570E+00 -5.35618270E-01 -1.43231787E-02 -3.02164570E+00 -5.35618270E-01
 -1.43231787E-02 -3.02164570E+00 -5.35618270E-01 -1.43231787E-02 -7.56462865E-01
  1.02262361E+00 -1.92208907E-02 -7.56462865E-01  1.02262361E+00 -1.92208907E-02
 -7.56462865E-01  1.02262361E+00 -1.92208907E-02 -7.56462865E-01  1.02262361E+00
 -1.92208907E-02 -7.56462865E-01  1.02262361E+00 -1.92208907E-02 -7.56462865E-01
  1.02262361E+00 -1.92208907E-02 -7.56462865E-01  1.02262361E+00 -1.92208907E-02
 -7.56462865E-01  1.02262361E+00 -1.92208907E-02 -7.56462865E-01  1.02262361E+00
 -1.92208907E-02 -7.56462865E-01  1.02262361E+00 -1.92208907E-02 -7.56462865E-01
  1.02262361E+00 -1.92208907E-02 -7.56462865E-01  1.02262361E+00 -1.92208907E-02
 -7.56462865E-01  1.02262361E+00 -1.92208907E-02 -7.56462865E-01  1.02262361E+00
 -1.92208907E-02  1.25376924E+00 -8.63550761E-01  7.62956389E-03  1.25376924E+00
 -8.63550761E-01  7.62956389E-03  1.25376924E+00 -8.63550761E-01  7.62956389E-03
  1.25376924E+00 -8.63550761E-01  7.62956389E-03  1.25376924E+00 -8.63550761E-01
  7.62956389E-03  1.25376924E+00 -8.63550761E-01  7.62956389E-03  1.25376924E+00
 -8.63550761E-01  7.62956389E-03  1.25376924E+00 -8.63550761E-01  7.62956389E-03
  1.25376924E+00 -8.63550761E-01  7.62956389E-03  1.25376924E+00 -8.63550761E-01
  7.62956389E-03  1.25376924E+00 -8.63550761E-01  7.62956389E-03  1.25376924E+00
 -8.63550761E-01  7.62956389E-03  1.25376924E+00 -8.63550761E-01  7.62956389E-03
  1.25376924E+00 -8.63550761E-01  7.62956389E-03  3.21162697E+00  1.66650529E-01
  6.41797976E-03  3.21162697E+00  1.66650529E-01  6.41797976E-03  3.21162697E+00
  1.66650529E-01  6.41797976E-03  3.21162697E+00  1.66650529E-01  6.41797976E-03
  3.21162697E+00  1.66650529E-01  6.41797976E-03  3.21162697E+00  1.66650529E-01
  6.41797976E-03  3.21162697E+00  1.66650529E-01  6.41797976E-03  3.21162697E+00
  1.66650529E-01  6.41797976E-03  3.21162697E+00  1.66650529E-01  6.41797976E-03
  3.21162697E+00  1.66650529E-01  6.41797976E-03  3.21162697E+00  1.66650529E-01
  6.41797976E-03  3.21162697E+00  1.66650529E-01  6.41797976E-03  3.21162697E+00
  1.66650529E-01  6.41797976E-03  3.21162697E+00  1.66650529E-01  6.41797976E-03
Num ILSW                                   I              100
ILSW                                       I   N=         100
           0           0           0           0           2           0
           0           0           0           0           0          -1
           5           0           0           0           2           0
           0           0           0           0           1           0
           1           0           0           0           0           0
           0           0      100000           0          -1           0
           0           0           0           0           0           0
           0           0           0           1           1           0
           0 -2000000000           1           0           0           0
           0           0           4          52           0           0
           0           0           0           0           0           0
           0           0           0           5           4           1
           0           0           0           0           0           0
           0           0           0           0           0           0
           0           0           0           0           0           0
           0           0           0           0           0           0
           0           0           0           0
Num RLSW                                   I               52
RLSW                                       R   N=          52
  1.00000000E+00  1.00000000E+00  1.00000000E+00  1.00000000E+00  1.00000000E+00
  0.00000000E+00  0.00000000E+00  1.00000000E+00  0.00000000E+00  0.00000000E+00
  0.00000000E+00  0.00000000E+00  1.00000000E+00  0.00000000E+00  0.00000000E+00
  0.00000000E+00  0.00000000E+00  1.00000000E+00  0.00000000E+00  0.00000000E+00
  0.00000000E+00  0.00000000E+00  1.00000000E+00  0.00000000E+00  0.00000000E+00
  0.00000000E+00  0.00000000E+00  1.00000000E+00  0.00000000E+00  0.00000000E+00
  0.00000000E+00  0.00000000E+00  1.00000000E+00  0.00000000E+00  0.00000000E+00
  0.00000000E+00  0.00000000E+00  0.00000000E+00  1.00000000E+00  1.00000000E+00
  0.00000000E+00  1.00000000E+00  0.00000000E+00  0.00000000E+00  0.00000000E+00
  0.00000000E+00  0.00000000E+00  0.00000000E+00  0.00000000E+00  0.00000000E+00
  0.00000000E+00  0.00000000E+00
MxBond                                     I                2
NBond                                      I   N=           5
           1           2           2           2           1
IBond                                      I   N=          10
           2           0           1           3           2           4
           3           5           4           0
RBond                                      R   N=          10
  1.00000000E+00  0.00000000E+00  1.00000000E+00  1.00000000E+00  1.00000000E+00
  1.00000000E+00  1.00000000E+00  2.00000000E+00  2.00000000E+00  0.00000000E+00
Virial Ratio                               R      2.002353716956006E+00
SCF Energy                                 R     -2.795017212961004E+02
MP2 Energy                                 R     -2.804467800977571E+02
Total Energy                               R     -2.804467800977571E+02
Post-SCF wavefunction norm                 R      1.584237015021516E+00
RMS Force                                  R      3.098951511337035E-04
RMS Density                                R      7.527253189296324E-09
NImag                                      I                1
Job Status                                 I                1
Nuclear derivative order                   I                2
External E-field                           R   N=          35
  0.00000000E+00  0.00000000E+00  0.00000000E+00  0.00000000E+00  0.00000000E+00
  0.00000000E+00  0.00000000E+00  0.00000000E+00  0.00000000E+00  0.00000000E+00
  0.00000000E+00  0.00000000E+00  0.00000000E+00  0.00000000E+00  0.00000000E+00
  0.00000000E+00  0.00000000E+00  0.00000000E+00  0.00000000E+00  0.00000000E+00
  0.00000000E+00  0.00000000E+00  0.00000000E+00  0.00000000E+00  0.00000000E+00
  0.00000000E+00  0.00000000E+00  0.00000000E+00  0.00000000E+00  0.00000000E+00
  0.00000000E+00  0.00000000E+00  0.00000000E+00  0.00000000E+00  0.00000000E+00
IOpCl                                      I                0
IROHF                                      I                0
Alpha Orbital Energies                     R   N=         207
 -2.06909292E+01 -2.06842869E+01 -2.06600242E+01 -1.58127975E+01 -1.62403003E+00
 -1.49576902E+00 -1.25441757E+00 -9.48072876E-01 -7.72706913E-01 -7.59262841E-01
 -7.12103587E-01 -6.79206574E-01 -6.20293819E-01 -5.89259789E-01 -4.85728581E-01
 -4.72256065E-01  2.96149459E-02  7.16655388E-02  8.59396127E-02  1.01728428E-01
  1.33207852E-01  1.34564613E-01  1.44025992E-01  1.54501840E-01  1.78216267E-01
  1.94155619E-01  1.99642858E-01  2.06437596E-01  2.20811446E-01  2.35405305E-01
  2.37344742E-01  2.66314850E-01  2.93187370E-01  3.02437712E-01  3.11091438E-01
  3.43456814E-01  3.51020837E-01  3.87316336E-01  4.20570224E-01  4.30672369E-01
  5.27246476E-01  5.29855907E-01  5.58534352E-01  5.81458044E-01  6.25955678E-01
  6.38232247E-01  6.74253538E-01  6.84142008E-01  7.06555553E-01  7.11764207E-01
  7.22031259E-01  7.30857186E-01  7.45673124E-01  7.88628494E-01  7.93864678E-01
  8.10295600E-01  8.13126173E-01  8.31733328E-01  8.68052904E-01  9.08320373E-01
  9.19246715E-01  9.29431216E-01  9.56291153E-01  9.74473707E-01  9.86675792E-01
  1.01612776E+00  1.05438964E+00  1.05467680E+00  1.08273507E+00  1.11660621E+00
  1.13648733E+00  1.19324256E+00  1.22018753E+00  1.23310775E+00  1.33825738E+00
  1.35054337E+00  1.38700107E+00  1.45410758E+00  1.48929943E+00  1.50873721E+00
  1.53774746E+00  1.56704554E+00  1.58003063E+00  1.61008532E+00  1.66489723E+00
  1.66823826E+00  1.70410348E+00  1.79178198E+00  1.83070995E+00  1.83561974E+00
  1.87912123E+00  1.90852383E+00  1.95615401E+00  1.98708141E+00  2.01426092E+00
  2.07768311E+00  2.11919709E+00  2.13030947E+00  2.15200109E+00  2.22338816E+00
  2.26113182E+00  2.26843082E+00  2.28888870E+00  2.31338492E+00  2.34389767E+00
  2.38673473E+00  2.41361419E+00  2.44020681E+00  2.45401642E+00  2.46412049E+00
  2.47608088E+00  2.50316945E+00  2.58957010E+00  2.59734342E+00  2.62007177E+00
  2.62504221E+00  2.63575910E+00  2.66692548E+00  2.75522540E+00  2.82612557E+00
  2.85244378E+00  2.88700726E+00  2.89465131E+00  2.92198086E+00  2.95881090E+00
  3.02332338E+00  3.07106074E+00  3.12107554E+00  3.20464556E+00  3.22755457E+00
  3.31636919E+00  3.34133707E+00  3.51602766E+00  3.64482294E+00  3.83801968E+00
  3.84599164E+00  4.14337965E+00  4.16320337E+00  4.19125655E+00  4.25647088E+00
  4.34757486E+00  4.39367302E+00  4.46740398E+00  4.52070036E+00  4.65844260E+00
  4.71084517E+00  4.80483285E+00  4.82422912E+00  4.82792800E+00  4.89614064E+00
  5.02301668E+00  5.07570708E+00  5.10283413E+00  5.14494500E+00  5.18056280E+00
  5.24479945E+00  5.27193911E+00  5.30694123E+00  5.32972411E+00  5.35409585E+00
  5.60449839E+00  5.67360794E+00  5.76700733E+00  5.83007781E+00  5.95642338E+00
  6.16888861E+00  6.30983832E+00  6.33918039E+00  6.39371062E+00  6.49383799E+00
  6.50530335E+00  6.61633640E+00  6.66337978E+00  6.70212394E+00  6.75314777E+00
  6.76670411E+00  6.83341876E+00  6.89834303E+00  7.01291943E+00  7.05553764E+00
  7.05729347E+00  7.09151992E+00  7.12523543E+00  7.14843146E+00  7.18418410E+00
  7.22493473E+00  7.24063804E+00  7.30624358E+00  7.32395398E+00  7.35058444E+00
  7.39713328E+00  7.43032608E+00  7.48515205E+00  7.60740178E+00  7.61820832E+00
  7.62887399E+00  7.66838263E+00  7.78793828E+00  7.88598776E+00  8.09245153E+00
  8.31385011E+00  8.40603355E+00  8.54331771E+00  1.33891486E+01  1.43955385E+01
  1.51613878E+01  1.61517060E+01
Alpha MO coefficients                      R   N=       42849
  9.06497176E-05 -6.12426556E-04 -7.15220800E-04 -4.78208950E-06  3.34454322E-05
 -9.05796693E-06 -8.31548974E-06  6.96366311E-06  7.11178262E-05  1.58024478E-05
 -8.58165625E-05 -2.10533173E-05  2.15936264E-05  3.17197321E-05 -1.37968289E-06
  8.71338652E-08  6.16012242E-06 -5.44484561E-05 -4.46055697E-06 -5.35463427E-06
  9.53977893E-06  7.34475503E-05 -1.65044399E-04  4.58430092E-03 -2.81577877E-04
  1.47479841E-05  1.54181050E-03  1.81938714E-03 -8.99544025E-05 -5.70162581E-05
  1.70927715E-06  5.18488170E-04  3.36618121E-04 -8.77746540E-06  4.29809900E-04
  1.27755413E-03  3.31320338E-05  2.82591944E-04  2.91367579E-04  2.74119346E-06
  2.88112312E-05  1.04835468E-06 -3.47518153E-07 -1.04103259E-05 -5.35581724E-05
 -3.77732544E-04 -2.76549694E-06 -4.76296887E-06  1.86784880E-04  7.19138759E-04
 -4.41636208E-04 -3.54698736E-05  1.56277228E-05  6.06837775E-05  2.44013242E-04
  4.83468914E-06 -7.12217639E-05 -3.78438394E-05 -1.22780635E-06  3.66474397E-06
 -3.34981438E-05  1.04553635E-04 -1.21762355E-05 -1.91265151E-04 -1.72256982E-04
  8.64917879E-06 -8.70825068E-06 -1.65499715E-04  3.16301823E-04  9.76911480E-01
 -9.21576829E-03  4.33180389E-02  2.04098788E-03 -9.30201788E-04 -3.95341389E-04
 -1.97797945E-03  2.89037460E-05  3.31596396E-04  1.96648427E-03 -2.59092678E-05
  6.28193822E-04 -9.80575618E-04  1.08580086E-05  1.24953873E-04  7.19250618E-05
  4.50439342E-06  4.63805410E-05 -1.15635757E-06  6.60655472E-07  9.99680411E-06
 -3.98364634E-05  7.46636336E-04 -2.93439843E-06  9.47161953E-06 -4.40178395E-04
 -1.09283377E-04 -3.57236901E-04 -1.30140089E-05 -5.73952242E-07 -4.50602112E-04
 -1.88792248E-04  2.51319785E-06 -8.88116560E-06 -6.76799432E-05 -8.88178700E-07
  8.07202933E-07  1.63121765E-06  4.21136864E-05 -1.66781055E-06 -3.27909167E-05
  3.89698593E-06  3.39148515E-06 -1.89800886E-07  3.04120264E-05  3.34076342E-04
  3.89123854E-05  4.48924009E-05 -2.64576071E-04 -6.95105217E-04 -1.30983948E-04
  7.97325951E-05 -6.22705799E-05  1.53825585E-06 -6.39842782E-04  4.09387597E-04
 -1.02229472E-05  9.71249335E-04  1.13131734E-04  6.28561967E-06  1.11737892E-04
  5.45381846E-05 -4.93728724E-06 -1.81645874E-05  1.31295795E-06 -7.01527922E-07
  5.71738785E-06 -3.27797994E-05 -3.28381592E-04  3.78239280E-06 -1.10653511E-05
 -1.19142664E-04 -8.28880294E-04 -3.78689018E-05 -1.91755360E-05 -2.00103617E-06
 -8.12900051E-05  1.31727868E-04  3.38052932E-06  8.80228371E-05 -8.41092287E-05
  1.34765684E-07  4.07536295E-06  1.08853136E-04  1.05010214E-04  3.44471821E-06
  8.72872169E-05 -1.24179887E-04  4.57125189E-06  3.02561467E-06  4.09933548E-04
  9.79910605E-05 -2.55293287E-03  1.21807878E-04 -1.22523111E-04 -2.58060004E-04
  1.26578886E-04  2.28529791E-05 -1.76985095E-05  2.98893682E-07 -1.52613400E-04
  9.11886488E-05 -1.59159786E-06 -3.06245886E-04  2.55096233E-05  1.52800276E-05
 -1.12787833E-04 -5.85323754E-05  3.81334296E-06 -3.34644159E-06  5.84577402E-07
 -2.89940620E-07 -4.15645440E-06 -1.74525343E-05  6.85733244E-07 -2.84508640E-06
  1.46573834E-06  1.07929995E-04  5.08888595E-05 -1.01042462E-04 -4.91384323E-06
 -2.53496547E-06  2.04845302E-04  1.12074486E-04  8.90402963E-08 -1.06745210E-05
 -1.22849346E-05  2.15213181E-07  1.56943090E-07  9.87674148E-06  8.11609699E-06
 -2.19269820E-06  2.88686582E-07  5.65217764E-05  1.65927376E-06 -1.02610168E-06
 -5.72700625E-05 -1.09197954E-04  3.82965964E-05 -9.74982801E-04 -4.80600429E-04
 -1.09412458E-05  7.91881297E-06  2.56540877E-05 -9.35246659E-07 -1.59302769E-04
  2.15690513E-04  3.07656332E-05 -4.42875501E-05  1.30829871E-04  1.73293144E-05
  2.51913861E-05 -5.57276158E-07 -6.41215197E-06  1.35070892E-05  8.22407677E-06
 -2.75103444E-05  2.47899059E-06  1.68909702E-06  3.66078149E-05  4.15355264E-07
  1.12413919E-04  8.39522013E-05 -2.78724589E-05  7.40831483E-04  6.45729165E-04
 -9.89094235E-06 -3.91530525E-06 -1.27885989E-06  5.06012095E-05  5.46170185E-05
  9.88988100E-06 -7.95361449E-04  5.16547460E-04  6.30692622E-05 -5.19604110E-05
  6.22839730E-05  3.89052565E-06 -2.34439362E-06  5.97232559E-07 -5.72293119E-07
 -5.75086018E-06  1.66008565E-06 -3.42409072E-05 -8.66217829E-06  8.63969794E-06
  7.36531161E-05 -4.21290106E-05 -1.90243615E-05 -2.50519654E-05  2.63656960E-05
 -2.32106031E-04 -2.04779448E-04  5.58678724E-07 -1.09048409E-05 -6.57692590E-07
  3.17987748E-07  4.01952983E-07  1.84788225E-05  3.68943449E-06 -7.81060646E-06
  5.36685172E-05 -5.50406834E-06  1.40920979E-06 -7.44768386E-06 -4.43261027E-05
  6.47144003E-05  2.59194932E-03  3.97966808E-05  9.01339977E-05 -6.85685376E-05
 -4.69887780E-04 -1.51747994E-05  8.47334689E-06 -3.86488672E-07  8.25773737E-05
 -8.05820876E-06  1.52088251E-06 -7.78332093E-05 -2.89107492E-04 -1.39628000E-05
  1.88939965E-04  6.08831417E-05 -5.11072508E-06 -8.74581391E-06  2.82983625E-07
  6.13653182E-08  2.54809454E-05  1.55988734E-05  4.42940853E-06 -5.00749875E-07
 -6.22589217E-07 -7.88271263E-05 -9.85102565E-05 -4.51354537E-06  8.43403745E-06
  2.93398695E-06 -2.60852950E-04 -1.52160189E-04 -7.13800117E-08 -2.23203849E-06
 -2.38341091E-06 -2.70548276E-07  4.34047264E-07  1.33108355E-05  2.94952037E-06
  4.12805494E-07  3.50073851E-05  3.04014854E-05 -2.31863368E-07 -2.63011567E-06
 -2.02252130E-04  9.13344807E-06  2.58627044E-04  1.46469895E-03 -7.81974295E-05
 -1.53588841E-03  4.01003313E-04  1.16123427E-04  8.60232458E-05 -7.85028853E-08
  1.91938429E-03  9.17813536E-04 -1.80747565E-06 -1.28592362E-03 -2.20415801E-06
 -4.55677555E-06  1.03382614E-04  1.46989085E-04  5.97940674E-07 -1.23360339E-04
 -8.24837999E-08  3.64253836E-07  1.61051225E-04  2.04882795E-04 -4.42366797E-04
 -5.87938699E-06 -1.89976514E-06  2.00373513E-04  8.79210650E-04  1.13446771E-05
 -1.06777776E-05 -4.32032451E-06 -2.17485972E-04 -2.85574429E-04 -2.98183528E-07
 -8.02098436E-06  1.30508308E-05 -1.62750033E-07 -2.78886036E-07 -6.35744284E-06
 -2.21868965E-05  2.00607356E-06 -9.00080630E-05 -1.55549466E-04  1.82004611E-06
 -2.33647392E-06 -1.19671637E-04  2.13115900E-04  9.76649355E-01 -9.84814939E-03
  4.35679816E-02  4.49689854E-03 -4.47014848E-04 -2.01287415E-03 -8.90910452E-04
 -1.99561335E-07  2.27567871E-03  9.32882364E-04  5.67567953E-07 -9.12425289E-04
 -6.81796016E-04  1.06291818E-05  2.17447411E-05 -3.74196439E-05  2.40675238E-06
 -2.32330456E-04  1.13439209E-06 -2.80588551E-06  6.05248828E-05  8.88865493E-05
  3.90587257E-04 -4.44370993E-07 -1.85701548E-06 -6.44821284E-04 -6.74781170E-04
 -1.53845865E-04 -1.99229086E-06 -3.27213514E-06  9.06711188E-05  2.40665315E-04
 -3.54362740E-07 -5.25368368E-05 -1.68826888E-05  4.28667142E-07 -5.86387837E-07
  5.14493860E-06  2.53198742E-05  7.22757796E-07 -1.16667309E-04 -7.46695628E-05
 -9.23519027E-08  1.38773806E-06  6.94302687E-05  2.25550809E-04  4.73894094E-04
  2.07150992E-03  1.25449164E-04  1.47776997E-05  1.79578192E-04 -1.72526651E-04
 -2.80249060E-05  6.67026427E-04 -1.08795520E-03 -1.25369157E-04 -4.40922861E-05
 -4.54291269E-04 -1.81935580E-05 -2.57022897E-06  3.56585530E-06 -1.68531470E-06
  3.73449489E-05  6.72453646E-05 -1.53567750E-04 -5.01905229E-05  6.08685987E-05
 -1.77954985E-04 -5.02338536E-04  9.76830259E-01 -9.16314539E-03  4.34494807E-02
  1.57670768E-04 -1.14676797E-03  4.02400970E-04  2.08256498E-03  1.52946130E-04
 -5.04874566E-04 -1.96495053E-03 -1.41207780E-04  9.75491542E-04 -3.59198617E-04
 -5.92134869E-05 -3.06059364E-05 -5.72082147E-05  5.23250392E-07  3.00785317E-05
 -2.73300106E-06  5.45600544E-06 -3.72622196E-05 -1.11701095E-04  7.49426617E-04
  7.01257258E-05 -7.13007442E-05 -2.84557398E-04 -1.28770645E-04 -2.66150679E-04
  1.75968904E-05 -7.76461900E-07  1.72820967E-04  1.27884164E-04  3.17812462E-06
  5.08080276E-05  3.87047684E-05  4.17896099E-06  1.03846103E-06 -2.86338677E-06