 Entering Gaussian System, Link 0=g16
 Input=hoono_r1_0p976032.gjf
 Output=hoono_r1_0p976032.log
 Initial command:
 /sw/contrib/gaussian/g16/B01/g16/l1.exe "/scr/Gau-11175.inp" -scrdir="/scr/"
 Entering Link 1 = /sw/contrib/gaussian/g16/B01/g16/l1.exe PID=     11176.
  
 Copyright (c) 1988-2017, Gaussian, Inc.  All Rights Reserved.
  
 This is part of the Gaussian(R) 16 program.  It is based on
 the Gaussian(R) 09 system (copyright 2009, Gaussian, Inc.),
 the Gaussian(R) 03 system (copyright 2003, Gaussian, Inc.),
 the Gaussian(R) 98 system (copyright 1998, Gaussian, Inc.),
 the Gaussian(R) 94 system (copyright 1995, Gaussian, Inc.),
 the Gaussian 92(TM) system (copyright 1992, Gaussian, Inc.),
 the Gaussian 90(TM) system (copyright 1990, Gaussian, Inc.),
 the Gaussian 88(TM) system (copyright 1988, Gaussian, Inc.),
 the Gaussian 86(TM) system (copyright 1986, Carnegie Mellon
 University), and the Gaussian 82(TM) system (copyright 1983,
 Carnegie Mellon University). Gaussian is a federally registered
 trademark of Gaussian, Inc.
  
 This software contains proprietary and confidential information,
 including trade secrets, belonging to Gaussian, Inc.
  
 This software is provided under written license and may be
 used, copied, transmitted, or stored only in accord with that
 written license.
  
 The following legend is applicable only to US Government
 contracts under FAR:
  
                    RESTRICTED RIGHTS LEGEND
  
 Use, reproduction and disclosure by the US Government is
 subject to restrictions as set forth in subparagraphs (a)
 and (c) of the Commercial Computer Software - Restricted
 Rights clause in FAR 52.227-19.
  
 Gaussian, Inc.
 340 Quinnipiac St., Bldg. 40, Wallingford CT 06492
  
  
 ---------------------------------------------------------------
 Warning -- This program may not be used in any manner that
 competes with the business of Gaussian, Inc. or will provide
 assistance to any competitor of Gaussian, Inc.  The licensee
 of this program is prohibited from giving any competitor of
 Gaussian, Inc. access to this program.  By using this program,
 the user acknowledges that Gaussian, Inc. is engaged in the
 business of creating and licensing software in the field of
 computational chemistry and represents and warrants to the
 licensee that it is not a competitor of Gaussian, Inc. and that
 it will not use this program in any manner prohibited above.
 ---------------------------------------------------------------
  

 Cite this work as:
 Gaussian 16, Revision B.01,
 M. J. Frisch, G. W. Trucks, H. B. Schlegel, G. E. Scuseria, 
 M. A. Robb, J. R. Cheeseman, G. Scalmani, V. Barone, 
 G. A. Petersson, H. Nakatsuji, X. Li, M. Caricato, A. V. Marenich, 
 J. Bloino, B. G. Janesko, R. Gomperts, B. Mennucci, H. P. Hratchian, 
 J. V. Ortiz, A. F. Izmaylov, J. L. Sonnenberg, D. Williams-Young, 
 F. Ding, F. Lipparini, F. Egidi, J. Goings, B. Peng, A. Petrone, 
 T. Henderson, D. Ranasinghe, V. G. Zakrzewski, J. Gao, N. Rega, 
 G. Zheng, W. Liang, M. Hada, M. Ehara, K. Toyota, R. Fukuda, 
 J. Hasegawa, M. Ishida, T. Nakajima, Y. Honda, O. Kitao, H. Nakai, 
 T. Vreven, K. Throssell, J. A. Montgomery, Jr., J. E. Peralta, 
 F. Ogliaro, M. J. Bearpark, J. J. Heyd, E. N. Brothers, K. N. Kudin, 
 V. N. Staroverov, T. A. Keith, R. Kobayashi, J. Normand, 
 K. Raghavachari, A. P. Rendell, J. C. Burant, S. S. Iyengar, 
 J. Tomasi, M. Cossi, J. M. Millam, M. Klene, C. Adamo, R. Cammi, 
 J. W. Ochterski, R. L. Martin, K. Morokuma, O. Farkas, 
 J. B. Foresman, and D. J. Fox, Gaussian, Inc., Wallingford CT, 2016.
 
 ******************************************
 Gaussian 16:  ES64L-G16RevB.01 20-Dec-2017
                21-Feb-2022 
 ******************************************
 %nproc=28
 Will use up to   28 processors via shared memory.
 %mem=120GB
 %chk=hoono_r1_0p976032.chk
 ---------------------------------------
 #p freq mp2/aug-cc-pvtz density=current
 ---------------------------------------
 1/10=4,30=1,38=1/1,3;
 2/12=2,17=6,18=5,40=1/2;
 3/5=16,6=1,7=10,11=9,25=1,30=1,71=2,140=1/1,2,3;
 4//1;
 5/5=2,38=5,98=1/2;
 8/6=3,8=1,10=1,19=11,30=-1/1;
 9/15=3,16=-3/6;
 11/6=1,8=1,15=11,17=12,24=-1,27=1,28=-2,29=300,32=6,42=3/1,2,10;
 10/6=2,21=1/2;
 8/6=4,8=1,10=1,19=11,30=-1/11,4;
 10/5=1,20=4/2;
 11/12=2,14=11,16=1,17=2,28=-2,42=3,76=2/2,10,12;
 6/7=2,8=2,9=2,10=2,22=-1/1;
 7/8=1,10=1,12=2,25=1,44=2/1,2,3,16;
 1/10=4,30=1/3;
 99//99;
 Leave Link    1 at Mon Feb 21 19:55:16 2022, MaxMem= 16106127360 cpu:               2.9 elap:               0.1
 (Enter /sw/contrib/gaussian/g16/B01/g16/l101.exe)
 -----
 title
 -----
 Symbolic Z-matrix:
 Charge =  0 Multiplicity = 1
 H
 O                    1    r1
 O                    2    r2       1    a1
 N                    3    r3       2    a2       1    d1       0
 O                    4    r4       3    a3       2    d2       0
       Variables:
  r1                    0.97603                  
  r2                    1.45492                  
  r3                    1.45878                  
  r4                    1.17073                  
  a1                   97.59495                  
  a2                  102.29752                  
  a3                  109.06955                  
  d1                  180.                       
  d2                  180.                       
 
 ITRead=  0  0  0  0  0
 MicOpt= -1 -1 -1 -1 -1
 NAtoms=      5 NQM=        5 NQMF=       0 NMMI=      0 NMMIF=      0
                NMic=       0 NMicF=      0.
                    Isotopes and Nuclear Properties:
 (Nuclear quadrupole moments (NQMom) in fm**2, nuclear magnetic moments (NMagM)
  in nuclear magnetons)

  Atom         1           2           3           4           5
 IAtWgt=           1          16          16          14          16
 AtmWgt=   1.0078250  15.9949146  15.9949146  14.0030740  15.9949146
 NucSpn=           1           0           0           2           0
 AtZEff=  -0.0000000  -0.0000000  -0.0000000  -0.0000000  -0.0000000
 NQMom=    0.0000000   0.0000000   0.0000000   2.0440000   0.0000000
 NMagM=    2.7928460   0.0000000   0.0000000   0.4037610   0.0000000
 AtZNuc=   1.0000000   8.0000000   8.0000000   7.0000000   8.0000000
 Leave Link  101 at Mon Feb 21 19:55:16 2022, MaxMem= 16106127360 cpu:               2.8 elap:               0.2
 (Enter /sw/contrib/gaussian/g16/B01/g16/l103.exe)

 GradGradGradGradGradGradGradGradGradGradGradGradGradGradGradGradGradGrad
 Berny optimization.
 Initialization pass.
                       ----------------------------
                       !    Initial Parameters    !
                       ! (Angstroms and Degrees)  !
 ----------------------                            ----------------------
 !      Name          Value   Derivative information (Atomic Units)     !
 ------------------------------------------------------------------------
 !       r1          0.976    calculate D2E/DX2 analytically            !
 !       r2          1.4549   calculate D2E/DX2 analytically            !
 !       r3          1.4588   calculate D2E/DX2 analytically            !
 !       r4          1.1707   calculate D2E/DX2 analytically            !
 !       a1         97.5949   calculate D2E/DX2 analytically            !
 !       a2        102.2975   calculate D2E/DX2 analytically            !
 !       a3        109.0696   calculate D2E/DX2 analytically            !
 !       d1        180.0      calculate D2E/DX2 analytically            !
 !       d2        180.0      calculate D2E/DX2 analytically            !
 ------------------------------------------------------------------------
 Trust Radius=3.00D-01 FncErr=1.00D-07 GrdErr=1.00D-07 EigMax=2.50D+02 EigMin=1.00D-04
 Number of steps in this run=      2 maximum allowed number of steps=      2.
 GradGradGradGradGradGradGradGradGradGradGradGradGradGradGradGradGradGrad

 Leave Link  103 at Mon Feb 21 19:55:16 2022, MaxMem= 16106127360 cpu:               1.2 elap:               0.1
 (Enter /sw/contrib/gaussian/g16/B01/g16/l202.exe)
                          Input orientation:                          
 ---------------------------------------------------------------------
 Center     Atomic      Atomic             Coordinates (Angstroms)
 Number     Number       Type             X           Y           Z
 ---------------------------------------------------------------------
      1          1           0        0.000000    0.000000    0.000000
      2          8           0        0.000000    0.000000    0.976033
      3          8           0        1.442156    0.000000    1.168328
      4          7           0        1.561752    0.000000    2.622201
      5          8           0        2.695867    0.000000    2.912696
 ---------------------------------------------------------------------
                    Distance matrix (angstroms):
                    1          2          3          4          5
     1  H    0.000000
     2  O    0.976033   0.000000
     3  O    1.856018   1.454919   0.000000
     4  N    3.052050   2.269127   1.458784   0.000000
     5  O    3.968816   3.319392   2.148165   1.170729   0.000000
 Stoichiometry    HNO3
 Framework group  CS[SG(HNO3)]
 Deg. of freedom     7
 Full point group                 CS      NOp   2
 Largest Abelian subgroup         CS      NOp   2
 Largest concise Abelian subgroup C1      NOp   1
                         Standard orientation:                         
 ---------------------------------------------------------------------
 Center     Atomic      Atomic             Coordinates (Angstroms)
 Number     Number       Type             X           Y           Z
 ---------------------------------------------------------------------
      1          1           0        1.549837    1.693970    0.000000
      2          8           0        1.454065    0.722647    0.000000
      3          8           0       -0.000000    0.672790    0.000000
      4          7           0       -0.261678   -0.762333   -0.000000
      5          8           0       -1.418826   -0.940142   -0.000000
 ---------------------------------------------------------------------
 Rotational constants (GHZ):          54.9252219           5.0100604           4.5912636
 Leave Link  202 at Mon Feb 21 19:55:16 2022, MaxMem= 16106127360 cpu:               1.3 elap:               0.1
 (Enter /sw/contrib/gaussian/g16/B01/g16/l301.exe)
 Standard basis: Aug-CC-pVTZ (5D, 7F)
 Ernie: Thresh=  0.10000D-02 Tol=  0.10000D-05 Strict=F.
 Ernie:  12 primitive shells out of 131 were deleted.
 There are   166 symmetry adapted cartesian basis functions of A'  symmetry.
 There are    79 symmetry adapted cartesian basis functions of A"  symmetry.
 There are   136 symmetry adapted basis functions of A'  symmetry.
 There are    71 symmetry adapted basis functions of A"  symmetry.
   207 basis functions,   315 primitive gaussians,   245 cartesian basis functions
    16 alpha electrons       16 beta electrons
       nuclear repulsion energy       116.8311509407 Hartrees.
 IExCor=    0 DFT=F Ex=HF Corr=None ExCW=0 ScaHFX=  1.000000
 ScaDFX=  1.000000  1.000000  1.000000  1.000000 ScalE2=  1.000000  1.000000
 IRadAn=      5 IRanWt=     -1 IRanGd=            0 ICorTp=0 IEmpDi=  4
 NAtoms=    5 NActive=    5 NUniq=    5 SFac= 1.00D+00 NAtFMM=   60 NAOKFM=F Big=F
 Integral buffers will be    131072 words long.
 Raffenetti 1 integral format.
 Two-electron integral symmetry is turned on.
 Leave Link  301 at Mon Feb 21 19:55:16 2022, MaxMem= 16106127360 cpu:               1.6 elap:               0.1
 (Enter /sw/contrib/gaussian/g16/B01/g16/l302.exe)
 NPDir=0 NMtPBC=     1 NCelOv=     1 NCel=       1 NClECP=     1 NCelD=      1
         NCelK=      1 NCelE2=     1 NClLst=     1 CellRange=     0.0.
 One-electron integrals computed using PRISM.
 One-electron integral symmetry used in STVInt
 NBasis=   207 RedAO= T EigKep=  1.82D-04  NBF=   136    71
 NBsUse=   207 1.00D-06 EigRej= -1.00D+00 NBFU=   136    71
 Leave Link  302 at Mon Feb 21 19:55:17 2022, MaxMem= 16106127360 cpu:               4.3 elap:               0.2
 (Enter /sw/contrib/gaussian/g16/B01/g16/l303.exe)
 DipDrv:  MaxL=1.
 Leave Link  303 at Mon Feb 21 19:55:17 2022, MaxMem= 16106127360 cpu:               1.5 elap:               0.1
 (Enter /sw/contrib/gaussian/g16/B01/g16/l401.exe)
 ExpMin= 2.53D-02 ExpMax= 1.53D+04 ExpMxC= 5.22D+02 IAcc=3 IRadAn=         5 AccDes= 0.00D+00
 Harris functional with IExCor=  205 and IRadAn=       5 diagonalized for initial guess.
 HarFok:  IExCor=  205 AccDes= 0.00D+00 IRadAn=         5 IDoV= 1 UseB2=F ITyADJ=14
 ICtDFT=  3500011 ScaDFX=  1.000000  1.000000  1.000000  1.000000
 FoFCou: FMM=F IPFlag=           0 FMFlag=      100000 FMFlg1=           0
         NFxFlg=           0 DoJE=T BraDBF=F KetDBF=T FulRan=T
         wScrn=  0.000000 ICntrl=       500 IOpCl=  0 I1Cent=   200000004 NGrid=           0
         NMat0=    1 NMatS0=      1 NMatT0=    0 NMatD0=    1 NMtDS0=    0 NMtDT0=    0
 Petite list used in FoFCou.
 Harris En= -279.628584791141    
 JPrj=0 DoOrth=F DoCkMO=F.
 Initial guess orbital symmetries:
       Occupied  (A') (A') (A') (A') (A') (A') (A') (A') (A') (A')
                 (A") (A') (A') (A") (A") (A')
       Virtual   (A") (A') (A') (A') (A') (A') (A") (A') (A') (A')
                 (A") (A') (A") (A') (A') (A") (A') (A") (A') (A')
                 (A') (A') (A') (A') (A') (A") (A') (A") (A') (A')
                 (A") (A') (A") (A') (A') (A") (A') (A") (A') (A')
                 (A") (A') (A") (A') (A") (A') (A') (A') (A") (A")
                 (A') (A') (A') (A') (A") (A') (A") (A') (A") (A')
                 (A') (A') (A") (A') (A') (A") (A') (A") (A') (A')
                 (A") (A') (A') (A") (A") (A') (A') (A") (A') (A')
                 (A') (A") (A') (A") (A') (A") (A') (A") (A') (A')
                 (A') (A") (A') (A") (A') (A") (A") (A') (A') (A")
                 (A') (A') (A") (A') (A') (A') (A') (A") (A") (A')
                 (A") (A') (A') (A') (A") (A') (A') (A') (A") (A')
                 (A") (A') (A') (A") (A") (A') (A') (A") (A") (A')
                 (A') (A') (A') (A") (A") (A') (A") (A') (A') (A')
                 (A') (A") (A") (A') (A') (A") (A') (A') (A') (A')
                 (A") (A') (A') (A") (A') (A") (A') (A") (A') (A")
                 (A') (A") (A') (A") (A') (A") (A") (A") (A') (A')
                 (A") (A') (A") (A') (A") (A') (A") (A") (A') (A')
                 (A') (A') (A') (A') (A') (A') (A') (A') (A') (A')
                 (A')
 The electronic state of the initial guess is 1-A'.
 Leave Link  401 at Mon Feb 21 19:55:17 2022, MaxMem= 16106127360 cpu:               5.9 elap:               0.3
 (Enter /sw/contrib/gaussian/g16/B01/g16/l502.exe)
 Keep R1 ints in memory in symmetry-blocked form, NReq=348887737.
 FoFCou: FMM=F IPFlag=           0 FMFlag=           0 FMFlg1=           0
         NFxFlg=           0 DoJE=F BraDBF=F KetDBF=F FulRan=T
         wScrn=  0.000000 ICntrl=       600 IOpCl=  0 I1Cent=           0 NGrid=           0
         NMat0=    1 NMatS0=  21528 NMatT0=    0 NMatD0=    1 NMtDS0=    0 NMtDT0=    0
 Petite list used in FoFCou.
 Closed shell SCF:
 Using DIIS extrapolation, IDIIS=  1040.
 NGot= 16106127360 LenX= 15988850015 LenY= 15988789549
 Requested convergence on RMS density matrix=1.00D-08 within 128 cycles.
 Requested convergence on MAX density matrix=1.00D-06.
 Requested convergence on             energy=1.00D-06.
 No special actions if energy rises.

 Cycle   1  Pass 1  IDiag  1:
 E= -279.370511379549    
 DIIS: error= 2.74D-02 at cycle   1 NSaved=   1.
 NSaved= 1 IEnMin= 1 EnMin= -279.370511379549     IErMin= 1 ErrMin= 2.74D-02
 ErrMax= 2.74D-02  0.00D+00 EMaxC= 1.00D-01 BMatC= 4.38D-01 BMatP= 4.38D-01
 IDIUse=3 WtCom= 7.26D-01 WtEn= 2.74D-01
 Coeff-Com:  0.100D+01
 Coeff-En:   0.100D+01
 Coeff:      0.100D+01
 Gap=     0.513 Goal=   None    Shift=    0.000
 GapD=    0.513 DampG=2.000 DampE=0.500 DampFc=1.0000 IDamp=-1.
 RMSDP=1.62D-03 MaxDP=9.92D-02              OVMax= 1.13D-01

 Cycle   2  Pass 1  IDiag  1:
 E= -279.452345325539     Delta-E=       -0.081833945990 Rises=F Damp=F
 DIIS: error= 1.77D-02 at cycle   2 NSaved=   2.
 NSaved= 2 IEnMin= 2 EnMin= -279.452345325539     IErMin= 2 ErrMin= 1.77D-02
 ErrMax= 1.77D-02  0.00D+00 EMaxC= 1.00D-01 BMatC= 7.13D-02 BMatP= 4.38D-01
 IDIUse=3 WtCom= 8.23D-01 WtEn= 1.77D-01
 Coeff-Com:  0.194D+00 0.806D+00
 Coeff-En:   0.000D+00 0.100D+01
 Coeff:      0.159D+00 0.841D+00
 Gap=     0.529 Goal=   None    Shift=    0.000
 RMSDP=8.97D-04 MaxDP=3.74D-02 DE=-8.18D-02 OVMax= 6.94D-02

 Cycle   3  Pass 1  IDiag  1:
 E= -279.481207057806     Delta-E=       -0.028861732267 Rises=F Damp=F
 DIIS: error= 1.04D-02 at cycle   3 NSaved=   3.
 NSaved= 3 IEnMin= 3 EnMin= -279.481207057806     IErMin= 3 ErrMin= 1.04D-02
 ErrMax= 1.04D-02  0.00D+00 EMaxC= 1.00D-01 BMatC= 2.87D-02 BMatP= 7.13D-02
 IDIUse=3 WtCom= 8.96D-01 WtEn= 1.04D-01
 Coeff-Com: -0.331D-01 0.379D+00 0.654D+00
 Coeff-En:   0.000D+00 0.242D+00 0.758D+00
 Coeff:     -0.296D-01 0.365D+00 0.665D+00
 Gap=     0.510 Goal=   None    Shift=    0.000
 RMSDP=3.76D-04 MaxDP=1.54D-02 DE=-2.89D-02 OVMax= 3.80D-02

 Cycle   4  Pass 1  IDiag  1:
 E= -279.500231722717     Delta-E=       -0.019024664911 Rises=F Damp=F
 DIIS: error= 1.28D-03 at cycle   4 NSaved=   4.
 NSaved= 4 IEnMin= 4 EnMin= -279.500231722717     IErMin= 4 ErrMin= 1.28D-03
 ErrMax= 1.28D-03  0.00D+00 EMaxC= 1.00D-01 BMatC= 4.89D-04 BMatP= 2.87D-02
 IDIUse=3 WtCom= 9.87D-01 WtEn= 1.28D-02
 Coeff-Com: -0.116D-01 0.569D-01 0.157D+00 0.798D+00
 Coeff-En:   0.000D+00 0.000D+00 0.000D+00 0.100D+01
 Coeff:     -0.114D-01 0.561D-01 0.155D+00 0.800D+00
 Gap=     0.502 Goal=   None    Shift=    0.000
 RMSDP=9.03D-05 MaxDP=2.77D-03 DE=-1.90D-02 OVMax= 1.12D-02

 Cycle   5  Pass 1  IDiag  1:
 E= -279.500906365952     Delta-E=       -0.000674643235 Rises=F Damp=F
 DIIS: error= 7.39D-04 at cycle   5 NSaved=   5.
 NSaved= 5 IEnMin= 5 EnMin= -279.500906365952     IErMin= 5 ErrMin= 7.39D-04
 ErrMax= 7.39D-04  0.00D+00 EMaxC= 1.00D-01 BMatC= 8.74D-05 BMatP= 4.89D-04
 IDIUse=3 WtCom= 9.93D-01 WtEn= 7.39D-03
 Coeff-Com:  0.613D-02-0.726D-01-0.118D+00 0.239D-01 0.116D+01
 Coeff-En:   0.000D+00 0.000D+00 0.000D+00 0.000D+00 0.100D+01
 Coeff:      0.608D-02-0.721D-01-0.117D+00 0.237D-01 0.116D+01
 Gap=     0.502 Goal=   None    Shift=    0.000
 RMSDP=7.61D-05 MaxDP=2.10D-03 DE=-6.75D-04 OVMax= 1.11D-02

 Cycle   6  Pass 1  IDiag  1:
 E= -279.501221437495     Delta-E=       -0.000315071543 Rises=F Damp=F
 DIIS: error= 2.84D-04 at cycle   6 NSaved=   6.
 NSaved= 6 IEnMin= 6 EnMin= -279.501221437495     IErMin= 6 ErrMin= 2.84D-04
 ErrMax= 2.84D-04  0.00D+00 EMaxC= 1.00D-01 BMatC= 1.68D-05 BMatP= 8.74D-05
 IDIUse=3 WtCom= 9.97D-01 WtEn= 2.84D-03
 Coeff-Com:  0.613D-03 0.142D-02 0.415D-02-0.131D+00-0.226D+00 0.135D+01
 Coeff-En:   0.000D+00 0.000D+00 0.000D+00 0.000D+00 0.000D+00 0.100D+01
 Coeff:      0.611D-03 0.142D-02 0.414D-02-0.131D+00-0.225D+00 0.135D+01
 Gap=     0.502 Goal=   None    Shift=    0.000
 RMSDP=4.53D-05 MaxDP=1.25D-03 DE=-3.15D-04 OVMax= 5.56D-03

 Cycle   7  Pass 1  IDiag  1:
 E= -279.501294381474     Delta-E=       -0.000072943979 Rises=F Damp=F
 DIIS: error= 1.25D-04 at cycle   7 NSaved=   7.
 NSaved= 7 IEnMin= 7 EnMin= -279.501294381474     IErMin= 7 ErrMin= 1.25D-04
 ErrMax= 1.25D-04  0.00D+00 EMaxC= 1.00D-01 BMatC= 4.58D-06 BMatP= 1.68D-05
 IDIUse=3 WtCom= 9.99D-01 WtEn= 1.25D-03
 Coeff-Com: -0.937D-03 0.136D-01 0.265D-01-0.257D-01-0.287D+00 0.395D+00
 Coeff-Com:  0.879D+00
 Coeff-En:   0.000D+00 0.000D+00 0.000D+00 0.000D+00 0.000D+00 0.000D+00
 Coeff-En:   0.100D+01
 Coeff:     -0.936D-03 0.136D-01 0.265D-01-0.256D-01-0.287D+00 0.394D+00
 Coeff:      0.879D+00
 Gap=     0.502 Goal=   None    Shift=    0.000
 RMSDP=1.33D-05 MaxDP=3.78D-04 DE=-7.29D-05 OVMax= 1.56D-03

 Cycle   8  Pass 1  IDiag  1:
 E= -279.501303375200     Delta-E=       -0.000008993725 Rises=F Damp=F
 DIIS: error= 5.69D-05 at cycle   8 NSaved=   8.
 NSaved= 8 IEnMin= 8 EnMin= -279.501303375200     IErMin= 8 ErrMin= 5.69D-05
 ErrMax= 5.69D-05  0.00D+00 EMaxC= 1.00D-01 BMatC= 6.11D-07 BMatP= 4.58D-06
 IDIUse=1 WtCom= 1.00D+00 WtEn= 0.00D+00
 Coeff-Com: -0.450D-03 0.347D-02 0.764D-02 0.277D-01-0.414D-01-0.197D+00
 Coeff-Com:  0.167D+00 0.103D+01
 Coeff:     -0.450D-03 0.347D-02 0.764D-02 0.277D-01-0.414D-01-0.197D+00
 Coeff:      0.167D+00 0.103D+01
 Gap=     0.502 Goal=   None    Shift=    0.000
 RMSDP=6.95D-06 MaxDP=2.04D-04 DE=-8.99D-06 OVMax= 7.51D-04

 Cycle   9  Pass 1  IDiag  1:
 E= -279.501305172024     Delta-E=       -0.000001796824 Rises=F Damp=F
 DIIS: error= 1.58D-05 at cycle   9 NSaved=   9.
 NSaved= 9 IEnMin= 9 EnMin= -279.501305172024     IErMin= 9 ErrMin= 1.58D-05
 ErrMax= 1.58D-05  0.00D+00 EMaxC= 1.00D-01 BMatC= 6.92D-08 BMatP= 6.11D-07
 IDIUse=1 WtCom= 1.00D+00 WtEn= 0.00D+00
 Coeff-Com:  0.123D-03-0.172D-02-0.306D-02-0.198D-02 0.341D-01-0.176D-03
 Coeff-Com: -0.165D+00-0.105D+00 0.124D+01
 Coeff:      0.123D-03-0.172D-02-0.306D-02-0.198D-02 0.341D-01-0.176D-03
 Coeff:     -0.165D+00-0.105D+00 0.124D+01
 Gap=     0.502 Goal=   None    Shift=    0.000
 RMSDP=1.94D-06 MaxDP=6.64D-05 DE=-1.80D-06 OVMax= 1.76D-04

 Cycle  10  Pass 1  IDiag  1:
 E= -279.501305332738     Delta-E=       -0.000000160714 Rises=F Damp=F
 DIIS: error= 4.14D-06 at cycle  10 NSaved=  10.
 NSaved=10 IEnMin=10 EnMin= -279.501305332738     IErMin=10 ErrMin= 4.14D-06
 ErrMax= 4.14D-06  0.00D+00 EMaxC= 1.00D-01 BMatC= 5.59D-09 BMatP= 6.92D-08
 IDIUse=1 WtCom= 1.00D+00 WtEn= 0.00D+00
 Coeff-Com:  0.316D-04-0.250D-03-0.334D-03-0.273D-02 0.177D-02 0.197D-01
 Coeff-Com: -0.131D-01-0.753D-01-0.772D-01 0.115D+01
 Coeff:      0.316D-04-0.250D-03-0.334D-03-0.273D-02 0.177D-02 0.197D-01
 Coeff:     -0.131D-01-0.753D-01-0.772D-01 0.115D+01
 Gap=     0.502 Goal=   None    Shift=    0.000
 RMSDP=5.06D-07 MaxDP=2.11D-05 DE=-1.61D-07 OVMax= 4.18D-05

 Cycle  11  Pass 1  IDiag  1:
 E= -279.501305345321     Delta-E=       -0.000000012583 Rises=F Damp=F
 DIIS: error= 2.03D-06 at cycle  11 NSaved=  11.
 NSaved=11 IEnMin=11 EnMin= -279.501305345321     IErMin=11 ErrMin= 2.03D-06
 ErrMax= 2.03D-06  0.00D+00 EMaxC= 1.00D-01 BMatC= 6.64D-10 BMatP= 5.59D-09
 IDIUse=1 WtCom= 1.00D+00 WtEn= 0.00D+00
 Coeff-Com: -0.213D-04 0.245D-03 0.488D-03 0.529D-03-0.429D-02-0.354D-02
 Coeff-Com:  0.208D-01 0.314D-01-0.139D+00-0.179D+00 0.127D+01
 Coeff:     -0.213D-04 0.245D-03 0.488D-03 0.529D-03-0.429D-02-0.354D-02
 Coeff:      0.208D-01 0.314D-01-0.139D+00-0.179D+00 0.127D+01
 Gap=     0.502 Goal=   None    Shift=    0.000
 RMSDP=1.78D-07 MaxDP=6.53D-06 DE=-1.26D-08 OVMax= 1.75D-05

 Cycle  12  Pass 1  IDiag  1:
 E= -279.501305347135     Delta-E=       -0.000000001814 Rises=F Damp=F
 DIIS: error= 5.90D-07 at cycle  12 NSaved=  12.
 NSaved=12 IEnMin=12 EnMin= -279.501305347135     IErMin=12 ErrMin= 5.90D-07
 ErrMax= 5.90D-07  0.00D+00 EMaxC= 1.00D-01 BMatC= 7.18D-11 BMatP= 6.64D-10
 IDIUse=1 WtCom= 1.00D+00 WtEn= 0.00D+00
 Coeff-Com:  0.121D-05-0.289D-04-0.623D-04 0.187D-03 0.107D-02-0.230D-02
 Coeff-Com: -0.408D-02 0.545D-02 0.415D-01-0.113D+00-0.281D+00 0.135D+01
 Coeff:      0.121D-05-0.289D-04-0.623D-04 0.187D-03 0.107D-02-0.230D-02
 Coeff:     -0.408D-02 0.545D-02 0.415D-01-0.113D+00-0.281D+00 0.135D+01
 Gap=     0.502 Goal=   None    Shift=    0.000
 RMSDP=7.17D-08 MaxDP=2.82D-06 DE=-1.81D-09 OVMax= 6.75D-06

 Cycle  13  Pass 1  IDiag  1:
 E= -279.501305347364     Delta-E=       -0.000000000229 Rises=F Damp=F
 DIIS: error= 1.69D-07 at cycle  13 NSaved=  13.
 NSaved=13 IEnMin=13 EnMin= -279.501305347364     IErMin=13 ErrMin= 1.69D-07
 ErrMax= 1.69D-07  0.00D+00 EMaxC= 1.00D-01 BMatC= 4.03D-12 BMatP= 7.18D-11
 IDIUse=1 WtCom= 1.00D+00 WtEn= 0.00D+00
 Coeff-Com:  0.129D-05-0.141D-04-0.226D-04-0.896D-04 0.125D-03 0.757D-03
 Coeff-Com: -0.828D-03-0.328D-02 0.590D-03 0.409D-01-0.351D-01-0.327D+00
 Coeff-Com:  0.132D+01
 Coeff:      0.129D-05-0.141D-04-0.226D-04-0.896D-04 0.125D-03 0.757D-03
 Coeff:     -0.828D-03-0.328D-02 0.590D-03 0.409D-01-0.351D-01-0.327D+00
 Coeff:      0.132D+01
 Gap=     0.502 Goal=   None    Shift=    0.000
 RMSDP=1.91D-08 MaxDP=5.62D-07 DE=-2.29D-10 OVMax= 1.56D-06

 Cycle  14  Pass 1  IDiag  1:
 E= -279.501305347379     Delta-E=       -0.000000000014 Rises=F Damp=F
 DIIS: error= 2.44D-08 at cycle  14 NSaved=  14.
 NSaved=14 IEnMin=14 EnMin= -279.501305347379     IErMin=14 ErrMin= 2.44D-08
 ErrMax= 2.44D-08  0.00D+00 EMaxC= 1.00D-01 BMatC= 1.97D-13 BMatP= 4.03D-12
 IDIUse=1 WtCom= 1.00D+00 WtEn= 0.00D+00
 Coeff-Com: -0.190D-06 0.311D-05 0.556D-05 0.440D-05-0.821D-04 0.455D-04
 Coeff-Com:  0.278D-03 0.229D-03-0.243D-02 0.142D-02 0.170D-01-0.256D-01
 Coeff-Com: -0.200D+00 0.121D+01
 Coeff:     -0.190D-06 0.311D-05 0.556D-05 0.440D-05-0.821D-04 0.455D-04
 Coeff:      0.278D-03 0.229D-03-0.243D-02 0.142D-02 0.170D-01-0.256D-01
 Coeff:     -0.200D+00 0.121D+01
 Gap=     0.502 Goal=   None    Shift=    0.000
 RMSDP=3.79D-09 MaxDP=9.10D-08 DE=-1.42D-11 OVMax= 3.42D-07

 SCF Done:  E(RHF) =  -279.501305347     A.U. after   14 cycles
            NFock= 14  Conv=0.38D-08     -V/T= 2.0024
 KE= 2.788322693073D+02 PE=-8.949868992417D+02 EE= 2.198221736463D+02
 Leave Link  502 at Mon Feb 21 19:55:21 2022, MaxMem= 16106127360 cpu:              56.1 elap:               3.7
 (Enter /sw/contrib/gaussian/g16/B01/g16/l801.exe)
 ExpMin= 2.53D-02 ExpMax= 1.53D+04 ExpMxC= 5.22D+02 IAcc=3 IRadAn=         5 AccDes= 0.00D+00
 HarFok:  IExCor=  205 AccDes= 0.00D+00 IRadAn=         5 IDoV=-2 UseB2=F ITyADJ=14
 ICtDFT= 12500011 ScaDFX=  1.000000  1.000000  1.000000  1.000000
 DSYEVD-2 returned Info=          93 IAlg= 4 N=    46 NDim=    46 NE2=   350130240 trying  DSYEV.
 Largest valence mixing into a core orbital is  2.08D-04
 Largest core mixing into a valence orbital is  3.63D-05
 Range of M.O.s used for correlation:     5   207
 NBasis=   207 NAE=    16 NBE=    16 NFC=     4 NFV=     0
 NROrb=    203 NOA=    12 NOB=    12 NVA=   191 NVB=   191

 **** Warning!!: The largest alpha MO coefficient is  0.17522211D+02

 Leave Link  801 at Mon Feb 21 19:55:21 2022, MaxMem= 16106127360 cpu:               5.2 elap:               0.3
 (Enter /sw/contrib/gaussian/g16/B01/g16/l906.exe)
 Frozen-core derivative calculation, NFC=   4 NFV=   0.
 FulOut=F Deriv=T AODrv=T NAtomX=     5
   MMem=           0  MDisk=          12 MDiskD=          12
  W3Min=      811440 MinDsk=     2425030 NBas6D=         245
 NBas2D=       30762    NTT=       30135    LW2=     7400000
    MDV= 16105574283 MDiskM=      328644 NBas2p=       30702
 Disk-based method using ON**2 memory for 12 occupieds at a time.
 Permanent disk used for amplitudes=    11516536 words.
 Estimated scratch disk usage=   321251614 words.
 IMap=   1   2   3   4   5   6   7   8   9  10  11  12  13  14  15  16
 Actual    scratch disk usage=   310331678 words.
 JobTyp=1 Pass  1:  I=   5 to  16 NPSUse= 28 ParTrn=T ParDer=T DoDerP=T.
 (rs|ai) integrals will be sorted in core.
 Spin components of T(2) and E(2):
     alpha-alpha T2 =       0.3405929374D-01 E2=     -0.1224497274D+00
     alpha-beta  T2 =       0.1870560666D+00 E2=     -0.7004850907D+00
     beta-beta   T2 =       0.3405929374D-01 E2=     -0.1224497274D+00
 The integrals were generated   1 times.
 ANorm=    0.1120345774D+01
 E2 =    -0.9453845454D+00 EUMP2 =    -0.28044668989282D+03
 Leave Link  906 at Mon Feb 21 19:56:58 2022, MaxMem= 16106127360 cpu:            2707.8 elap:              96.9
 (Enter /sw/contrib/gaussian/g16/B01/g16/l1101.exe)
 Using compressed Sx but separate Hx and Fx, NAtomX=     5.
 Will process      6 centers per pass.
 Leave Link 1101 at Mon Feb 21 19:56:59 2022, MaxMem= 16106127360 cpu:               6.1 elap:               0.3
 (Enter /sw/contrib/gaussian/g16/B01/g16/l1102.exe)
 Leave Link 1102 at Mon Feb 21 19:56:59 2022, MaxMem= 16106127360 cpu:               1.4 elap:               0.1
 (Enter /sw/contrib/gaussian/g16/B01/g16/l1110.exe)
 Forming Gx(P) for the SCF density, NAtomX=     5.
 Integral derivatives from FoFJK, PRISM(SPDF).
 Do as many integral derivatives as possible in FoFJK.
 G2DrvN: MDV=   16106126844.
 G2DrvN: will do     6 centers at a time, making    1 passes.
 Calling FoFCou, ICntrl=  3107 FMM=F I1Cent=   0 AccDes= 0.00D+00.
 FoFJK:  IHMeth= 1 ICntrl=    3107 DoSepK=F KAlg= 0 I1Cent=           0 FoldK=F
 IRaf=         0 NMat=       1 IRICut=       1 DoRegI=T DoRafI=F ISym2E= 1 IDoP0=0 IntGTp=1.
 FoFCou: FMM=F IPFlag=           0 FMFlag=      100000 FMFlg1=           0
         NFxFlg=           0 DoJE=F BraDBF=F KetDBF=F FulRan=T
         wScrn=  0.000000 ICntrl=      3107 IOpCl=  0 I1Cent=           0 NGrid=           0
         NMat0=    1 NMatS0=      1 NMatT0=    0 NMatD0=    1 NMtDS0=    0 NMtDT0=    0
 Petite list used in FoFCou.
 End of G2Drv F.D. properties file   721 does not exist.
 End of G2Drv F.D. properties file   722 does not exist.
 End of G2Drv F.D. properties file   788 does not exist.
 Leave Link 1110 at Mon Feb 21 19:57:02 2022, MaxMem= 16106127360 cpu:              83.8 elap:               3.1
 (Enter /sw/contrib/gaussian/g16/B01/g16/l1002.exe)
 Minotr:  Closed shell wavefunction.
          IDoAtm=11111
          Frozen-core window.
          Direct CPHF calculation.
          Differentiating once with respect to electric field.
                with respect to dipole field.
          Differentiating once with respect to nuclear coordinates.
          Requested convergence is 1.0D-08 RMS, and 1.0D-07 maximum.
          Secondary convergence is 1.0D-12 RMS, and 1.0D-12 maximum.
          NewPWx=T KeepS1=T KeepF1=T KeepIn=T MapXYZ=F SortEE=F KeepMc=T.
 Keep R1 ints in memory in symmetry-blocked form, NReq=348888983.
 FoFCou: FMM=F IPFlag=           0 FMFlag=           0 FMFlg1=           0
         NFxFlg=           0 DoJE=F BraDBF=F KetDBF=F FulRan=T
         wScrn=  0.000000 ICntrl=       600 IOpCl=  0 I1Cent=           0 NGrid=           0
         NMat0=    1 NMatS0=  21528 NMatT0=    0 NMatD0=    1 NMtDS0=    0 NMtDT0=    0
 Petite list used in FoFCou.
          MDV=   16106127360 using IRadAn=       1.
          Solving linear equations simultaneously, MaxMat=       0.
          There are    18 degrees of freedom in the 1st order CPHF.  IDoFFX=6 NUNeed=    18.
     15 vectors produced by pass  0 Test12= 1.70D-14 5.56D-09 XBig12= 8.29D+00 1.07D+00.
 AX will form    15 AO Fock derivatives at one time.
     15 vectors produced by pass  1 Test12= 1.70D-14 5.56D-09 XBig12= 1.34D+00 2.62D-01.
     15 vectors produced by pass  2 Test12= 1.70D-14 5.56D-09 XBig12= 1.41D-01 9.74D-02.
     15 vectors produced by pass  3 Test12= 1.70D-14 5.56D-09 XBig12= 4.88D-03 1.07D-02.
     15 vectors produced by pass  4 Test12= 1.70D-14 5.56D-09 XBig12= 9.66D-05 1.89D-03.
     15 vectors produced by pass  5 Test12= 1.70D-14 5.56D-09 XBig12= 1.37D-06 1.74D-04.
     15 vectors produced by pass  6 Test12= 1.70D-14 5.56D-09 XBig12= 1.09D-08 1.52D-05.
     12 vectors produced by pass  7 Test12= 1.70D-14 5.56D-09 XBig12= 8.01D-11 1.32D-06.
      3 vectors produced by pass  8 Test12= 1.70D-14 5.56D-09 XBig12= 5.63D-13 1.17D-07.
      2 vectors produced by pass  9 Test12= 1.70D-14 5.56D-09 XBig12= 3.69D-15 1.02D-08.
 InvSVY:  IOpt=1 It=  1 EMax= 9.99D-16
 Solved reduced A of dimension   122 with    15 vectors.
 FullF1:  Do perturbations      1 to      18.
 Saving first derivative matrices.
 End of Minotr F.D. properties file   721 does not exist.
 End of Minotr F.D. properties file   722 does not exist.
 End of Minotr F.D. properties file   788 does not exist.
 Leave Link 1002 at Mon Feb 21 19:57:05 2022, MaxMem= 16106127360 cpu:              81.3 elap:               3.0
 (Enter /sw/contrib/gaussian/g16/B01/g16/l811.exe)
 MDV= 16106127360.
 Form MO integral derivatives with frozen-active canonical formalism.
 MOERI=1 MOERIx=1 NAtoms=     5 NAtomX=     5.
 Discarding MO integrals.
 MO basis two electron integral derivatives will not be stored on disk.
 IAlg= 3 DoFC=T DoPWx=T Debug=F.
 Frozen-core window:  NFC=   4 NFV=   0.
 Reordered first order wavefunction length =     18678272
 In DefCFB: NBatch=  1 ICI= 16 ICA=191 LFMax= 96
            Large arrays: LIAPS=   619940160 LIARS=   288257200 words.
 In StABat: MaxSiz= 55 MinSiz= 25 NAtomB=  5
 DoIAMN: NPSUse= 28.
 Leave Link  811 at Mon Feb 21 19:58:27 2022, MaxMem= 16106127360 cpu:            2291.6 elap:              82.0
 (Enter /sw/contrib/gaussian/g16/B01/g16/l804.exe)
 Frozen-core window:  NFC=   4 NFV=   0.
 Closed-shell transformation, MDV= 16106127360 ITran=4 ISComp=1.
 Semi-Direct transformation.
 ModeAB=           2 MOrb=            16 LenV=   16104923051
 LASXX=     67341636 LTotXX=    67341636 LenRXX=    67341636
 LTotAB=    68301760 MaxLAS=    99807120 LenRXY=    99807120
 NonZer=   134683272 LenScr=   202817536 LnRSAI=           0
 LnScr1=           0 LExtra=           0 Total=    369966292
 MaxDsk=          -1 SrtSym=           F ITran=            4
 DoSDTr:  NPSUse= 28
 JobTyp=0 Pass  1:  I=   1 to  16.
 (rs|ai) integrals will be sorted in core.
 Complete sort for first half transformation.
 First half transformation complete.
 Begin second half transformation for I=  10.
 Begin second half transformation for I=  10.
 Complete sort for second half transformation.
 Second half transformation complete.
 Spin components of T(2) and E(2):
     alpha-alpha T2 =       0.3405929374D-01 E2=     -0.1224497274D+00
     alpha-beta  T2 =       0.1870560666D+00 E2=     -0.7004850907D+00
     beta-beta   T2 =       0.3405929374D-01 E2=     -0.1224497274D+00
 ANorm=    0.1584408189D+01
 E2 =    -0.9453845454D+00 EUMP2 =    -0.28044668989282D+03
 Leave Link  804 at Mon Feb 21 19:58:42 2022, MaxMem= 16106127360 cpu:             428.2 elap:              15.4
 (Enter /sw/contrib/gaussian/g16/B01/g16/l1002.exe)
 Minotr:  Closed shell wavefunction.
          Computing MP2/KS-MP2 derivatives.
          Using Z-Vector for PSCF gradient.
          Skipping F1 and S1 gradient terms here.
          IDoAtm=11111
          Frozen-core window.
          Using MO integrals in the linear equations.
          Forming densities via direct SCF.
          Differentiating once with respect to electric field.
                with respect to dipole field.
          Differentiating once with respect to nuclear coordinates.
          Using symmetry in CPHF.
          Requested convergence is 1.0D-10 RMS, and 1.0D-09 maximum.
          NewPWx=F KeepS1=T KeepF1=T KeepIn=T MapXYZ=F SortEE=F KeepMc=T.
          MDV=   16106127360 using IRadAn=       5.
          Solving linear equations separately, MaxMat=       0.
          There are     1 degrees of freedom in the 1st order CPHF.  IDoFFX=0 NUNeed=     1.
 FoFJK:  IHMeth= 1 ICntrl=       0 DoSepK=F KAlg= 0 I1Cent=           0 FoldK=F
 IRaf=         0 NMat=       1 IRICut=       1 DoRegI=T DoRafI=F ISym2E= 0 IDoP0=0 IntGTp=1.
 FoFCou: FMM=F IPFlag=           0 FMFlag=      100000 FMFlg1=           0
         NFxFlg=           0 DoJE=F BraDBF=F KetDBF=F FulRan=T
         wScrn=  0.000000 ICntrl=         0 IOpCl=  0 I1Cent=           0 NGrid=           0
         NMat0=    1 NMatS0=      1 NMatT0=    0 NMatD0=    1 NMtDS0=    0 NMtDT0=    0
 Symmetry not used in FoFCou.
 LinEq1:  Iter=  0 NonCon=     1 RMS=5.96D-03 Max=1.33D-01 NDo=     1
 LinEq1:  Iter=  1 NonCon=     1 RMS=1.91D-03 Max=3.83D-02 NDo=     1
 LinEq1:  Iter=  2 NonCon=     1 RMS=8.69D-04 Max=1.40D-02 NDo=     1
 LinEq1:  Iter=  3 NonCon=     1 RMS=3.87D-04 Max=7.80D-03 NDo=     1
 LinEq1:  Iter=  4 NonCon=     1 RMS=1.20D-04 Max=1.91D-03 NDo=     1
 LinEq1:  Iter=  5 NonCon=     1 RMS=4.54D-05 Max=7.22D-04 NDo=     1
 LinEq1:  Iter=  6 NonCon=     1 RMS=2.03D-05 Max=2.39D-04 NDo=     1
 LinEq1:  Iter=  7 NonCon=     1 RMS=8.14D-06 Max=1.59D-04 NDo=     1
 LinEq1:  Iter=  8 NonCon=     1 RMS=3.49D-06 Max=3.43D-05 NDo=     1
 LinEq1:  Iter=  9 NonCon=     1 RMS=9.50D-07 Max=1.32D-05 NDo=     1
 LinEq1:  Iter= 10 NonCon=     1 RMS=1.87D-07 Max=2.02D-06 NDo=     1
 LinEq1:  Iter= 11 NonCon=     1 RMS=3.48D-08 Max=3.61D-07 NDo=     1
 LinEq1:  Iter= 12 NonCon=     1 RMS=8.38D-09 Max=1.31D-07 NDo=     1
 LinEq1:  Iter= 13 NonCon=     1 RMS=1.51D-09 Max=2.62D-08 NDo=     1
 LinEq1:  Iter= 14 NonCon=     1 RMS=2.74D-10 Max=3.84D-09 NDo=     1
 LinEq1:  Iter= 15 NonCon=     0 RMS=4.93D-11 Max=5.57D-10 NDo=     1
 Linear equations converged to 1.000D-10 1.000D-09 after    15 iterations.
 End of Minotr F.D. properties file   721 does not exist.
 End of Minotr F.D. properties file   722 does not exist.
 End of Minotr F.D. properties file   788 does not exist.
 Leave Link 1002 at Mon Feb 21 19:58:45 2022, MaxMem= 16106127360 cpu:              66.5 elap:               2.4
 (Enter /sw/contrib/gaussian/g16/B01/g16/l1102.exe)
 Use density number 2.
 Symmetrizing basis deriv contribution to polar:
 IMax=3 JMax=2 DiffMx= 0.00D+00
 Leave Link 1102 at Mon Feb 21 19:58:45 2022, MaxMem= 16106127360 cpu:               0.9 elap:               0.1
 (Enter /sw/contrib/gaussian/g16/B01/g16/l1110.exe)
 Forming Gx(P) for generalized density number  2 NAtomX=     5.
 Integral derivatives from FoFJK, PRISM(SPDF).
 Do as many integral derivatives as possible in FoFJK.
 G2DrvN: MDV=   16106126844.
 G2DrvN: will do     6 centers at a time, making    1 passes.
 Calling FoFCou, ICntrl=  3107 FMM=F I1Cent=   0 AccDes= 0.00D+00.
 FoFJK:  IHMeth= 1 ICntrl=    3107 DoSepK=F KAlg= 0 I1Cent=           0 FoldK=F
 IRaf=         0 NMat=       1 IRICut=       1 DoRegI=T DoRafI=F ISym2E= 1 IDoP0=0 IntGTp=1.
 FoFCou: FMM=F IPFlag=           0 FMFlag=      100000 FMFlg1=           0
         NFxFlg=           0 DoJE=F BraDBF=F KetDBF=F FulRan=T
         wScrn=  0.000000 ICntrl=      3107 IOpCl=  0 I1Cent=           0 NGrid=           0
         NMat0=    1 NMatS0=      1 NMatT0=    0 NMatD0=    1 NMtDS0=    0 NMtDT0=    0
 Petite list used in FoFCou.
 End of G2Drv F.D. properties file   721 does not exist.
 End of G2Drv F.D. properties file   722 does not exist.
 End of G2Drv F.D. properties file   788 does not exist.
 Leave Link 1110 at Mon Feb 21 19:58:48 2022, MaxMem= 16106127360 cpu:              84.8 elap:               3.1
 (Enter /sw/contrib/gaussian/g16/B01/g16/l1112.exe)
 MP22nd: MDV=   16106127360
 This link is doing NAtomX=     5 total of    18 degrees of freedom.
 Using ON3 I/O method in MakUI.
 Frozen-core window:  NFC=   4 NFV=   0.
 Using Ix for Sx.
 Use MO integrals over full window.
 Using OV2 memory method for fx*t*t/D, MaxI=    16 DoOO2=F NP=  28.
 R2 and R3 integrals will be kept in memory, NReq=   915591705.
 FoFCou: FMM=F IPFlag=           0 FMFlag=           0 FMFlg1=           0
         NFxFlg=           0 DoJE=F BraDBF=F KetDBF=F FulRan=T
         wScrn=  0.000000 ICntrl=       600 IOpCl=  0 I1Cent=           0 NGrid=           0
         NMat0=    1 NMatS0=      1 NMatT0=    0 NMatD0=    1 NMtDS0=    0 NMtDT0=    0
 Symmetry not used in FoFCou.
 DD1Dir will call FoFMem   1 times, MxPair=       272
 NAB=   136 NAA=     0 NBB=     0.
 Symmetry is being used.
 FoFJK:  IHMeth= 1 ICntrl=       0 DoSepK=F KAlg= 0 I1Cent=           0 FoldK=F
 IRaf=         0 NMat=      18 IRICut=      45 DoRegI=T DoRafI=T ISym2E= 2 IDoP0=3 IntGTp=3.
 Discarding MO integrals.
 Leave Link 1112 at Mon Feb 21 19:59:13 2022, MaxMem= 16106127360 cpu:             703.3 elap:              25.2
 (Enter /sw/contrib/gaussian/g16/B01/g16/l601.exe)
 Copying SCF densities to generalized density rwf, IOpCl= 0 IROHF=0.

 **********************************************************************

            Population analysis using the MP2 Density.

 **********************************************************************

 Orbital symmetries:
       Occupied  (A') (A') (A') (A') (A') (A') (A') (A') (A') (A')
                 (A") (A') (A") (A') (A") (A')
       Virtual   (A') (A") (A') (A') (A') (A") (A') (A') (A") (A')
                 (A") (A') (A') (A') (A") (A') (A') (A") (A') (A')
                 (A') (A') (A') (A') (A") (A') (A') (A") (A') (A')
                 (A") (A') (A") (A') (A') (A") (A') (A') (A") (A')
                 (A") (A') (A") (A') (A') (A") (A') (A') (A") (A')
                 (A") (A') (A') (A') (A") (A') (A") (A') (A") (A')
                 (A') (A') (A") (A') (A') (A") (A') (A") (A') (A')
                 (A") (A') (A') (A") (A") (A') (A') (A") (A') (A')
                 (A') (A") (A') (A") (A") (A') (A') (A") (A') (A')
                 (A") (A') (A') (A") (A') (A") (A') (A") (A') (A')
                 (A") (A') (A") (A') (A') (A") (A') (A') (A") (A')
                 (A") (A') (A') (A') (A") (A') (A') (A') (A') (A")
                 (A") (A') (A") (A') (A') (A") (A") (A') (A") (A')
                 (A') (A') (A') (A") (A") (A") (A') (A') (A') (A')
                 (A") (A') (A") (A') (A') (A") (A') (A') (A') (A')
                 (A") (A') (A') (A") (A') (A") (A') (A") (A') (A")
                 (A') (A") (A') (A') (A") (A") (A") (A') (A") (A')
                 (A") (A') (A") (A') (A") (A') (A") (A") (A') (A')
                 (A') (A') (A') (A') (A') (A') (A') (A') (A') (A')
                 (A')
 The electronic state is 1-A'.
 Alpha  occ. eigenvalues --  -20.69070 -20.68416 -20.66053 -15.81269  -1.62387
 Alpha  occ. eigenvalues --   -1.49489  -1.25304  -0.94790  -0.77222  -0.75861
 Alpha  occ. eigenvalues --   -0.71163  -0.67828  -0.62025  -0.58909  -0.48498
 Alpha  occ. eigenvalues --   -0.47231
 Alpha virt. eigenvalues --    0.02949   0.07178   0.08598   0.10174   0.13396
 Alpha virt. eigenvalues --    0.13401   0.14377   0.15427   0.17836   0.19419
 Alpha virt. eigenvalues --    0.19983   0.20636   0.22084   0.23562   0.23745
 Alpha virt. eigenvalues --    0.26587   0.29329   0.30357   0.31020   0.34350
 Alpha virt. eigenvalues --    0.35012   0.38711   0.42106   0.43079   0.52739
 Alpha virt. eigenvalues --    0.52934   0.55853   0.58176   0.62604   0.63831
 Alpha virt. eigenvalues --    0.67456   0.68381   0.70642   0.71085   0.72355
 Alpha virt. eigenvalues --    0.72940   0.74453   0.79174   0.79196   0.81021
 Alpha virt. eigenvalues --    0.81279   0.83050   0.86833   0.90834   0.92171
 Alpha virt. eigenvalues --    0.92621   0.95600   0.97835   0.98367   1.01515
 Alpha virt. eigenvalues --    1.05232   1.05482   1.08173   1.11659   1.14036
 Alpha virt. eigenvalues --    1.18973   1.22033   1.23130   1.33905   1.35086
 Alpha virt. eigenvalues --    1.38634   1.45153   1.48581   1.50781   1.53824
 Alpha virt. eigenvalues --    1.56691   1.58017   1.61248   1.66474   1.67012
 Alpha virt. eigenvalues --    1.70323   1.79288   1.83108   1.83487   1.87853
 Alpha virt. eigenvalues --    1.90926   1.95230   1.99192   2.00454   2.07764
 Alpha virt. eigenvalues --    2.12011   2.13211   2.15009   2.22407   2.26420
 Alpha virt. eigenvalues --    2.26535   2.28957   2.31366   2.34359   2.38489
 Alpha virt. eigenvalues --    2.42441   2.42823   2.45420   2.46271   2.47635
 Alpha virt. eigenvalues --    2.50083   2.59193   2.59632   2.62127   2.62396
 Alpha virt. eigenvalues --    2.63482   2.66884   2.75746   2.82741   2.85537
 Alpha virt. eigenvalues --    2.88391   2.89426   2.92343   2.95815   3.02390
 Alpha virt. eigenvalues --    3.06769   3.12275   3.20484   3.22611   3.31572
 Alpha virt. eigenvalues --    3.34096   3.51736   3.64048   3.83686   3.83834
 Alpha virt. eigenvalues --    4.14242   4.16058   4.18228   4.25693   4.34557
 Alpha virt. eigenvalues --    4.39167   4.46114   4.51651   4.66113   4.70781
 Alpha virt. eigenvalues --    4.80361   4.81661   4.82551   4.89564   5.02329
 Alpha virt. eigenvalues --    5.07747   5.09621   5.13921   5.17531   5.23381
 Alpha virt. eigenvalues --    5.26803   5.30710   5.31442   5.35365   5.60287
 Alpha virt. eigenvalues --    5.67367   5.76759   5.82538   5.95666   6.17020
 Alpha virt. eigenvalues --    6.30859   6.33956   6.39278   6.49363   6.50540
 Alpha virt. eigenvalues --    6.61265   6.66868   6.69940   6.75811   6.76358
 Alpha virt. eigenvalues --    6.83250   6.89836   7.00893   7.05533   7.05630
 Alpha virt. eigenvalues --    7.08911   7.12264   7.14820   7.18049   7.22329
 Alpha virt. eigenvalues --    7.23124   7.30027   7.32512   7.34578   7.39971
 Alpha virt. eigenvalues --    7.43019   7.48456   7.60745   7.61671   7.62557
 Alpha virt. eigenvalues --    7.66371   7.78206   7.88677   8.08960   8.31220
 Alpha virt. eigenvalues --    8.40043   8.54201  13.38911  14.38427  15.06307
 Alpha virt. eigenvalues --   16.15252
          Condensed to atoms (all electrons):
               1          2          3          4          5
     1  H    0.582092   0.131113   0.019241   0.012224  -0.000628
     2  O    0.131113   8.323375  -0.172734  -0.089897   0.015435
     3  O    0.019241  -0.172734   8.468920  -0.129878  -0.038858
     4  N    0.012224  -0.089897  -0.129878   6.972034  -0.055750
     5  O   -0.000628   0.015435  -0.038858  -0.055750   8.273045
 Mulliken charges:
               1
     1  H    0.255959
     2  O   -0.207292
     3  O   -0.146692
     4  N    0.291267
     5  O   -0.193243
 Sum of Mulliken charges =  -0.00000
 Mulliken charges with hydrogens summed into heavy atoms:
               1
     2  O    0.048667
     3  O   -0.146692
     4  N    0.291267
     5  O   -0.193243
 APT charges:
               1
     1  H    0.298789
     2  O   -0.287130
     3  O   -0.495979
     4  N    0.876804
     5  O   -0.392485
 Sum of APT charges =  -0.00000
 APT charges with hydrogens summed into heavy atoms:
               1
     2  O    0.011659
     3  O   -0.495979
     4  N    0.876804
     5  O   -0.392485
 Electronic spatial extent (au):  <R**2>=            252.9762
 Charge=              0.0000 electrons
 Dipole moment (field-independent basis, Debye):
    X=              0.5120    Y=              1.3698    Z=              0.0000  Tot=              1.4623
 Quadrupole moment (field-independent basis, Debye-Ang):
   XX=            -22.4722   YY=            -18.5883   ZZ=            -22.0192
   XY=              3.2699   XZ=              0.0000   YZ=             -0.0000
 Traceless Quadrupole moment (field-independent basis, Debye-Ang):
   XX=             -1.4456   YY=              2.4383   ZZ=             -0.9927
   XY=              3.2699   XZ=              0.0000   YZ=             -0.0000
 Octapole moment (field-independent basis, Debye-Ang**2):
  XXX=              2.8476  YYY=             11.3824  ZZZ=             -0.0000  XYY=              7.9605
  XXY=              6.5978  XXZ=              0.0000  XZZ=             -1.5903  YZZ=             -0.8639
  YYZ=              0.0000  XYZ=              0.0000
 Hexadecapole moment (field-independent basis, Debye-Ang**3):
 XXXX=           -158.5508 YYYY=            -89.6368 ZZZZ=            -18.2563 XXXY=            -36.7033
 XXXZ=             -0.0000 YYYX=            -30.6270 YYYZ=             -0.0000 ZZZX=             -0.0000
 ZZZY=             -0.0000 XXYY=            -33.9146 XXZZ=            -30.8977 YYZZ=            -20.7014
 XXYZ=             -0.0000 YYXZ=             -0.0000 ZZXY=            -15.0820
 N-N= 1.168311509407D+02 E-N=-8.957710844823D+02  KE= 2.801854251410D+02
 Symmetry A'   KE= 2.662145400490D+02
 Symmetry A"   KE= 1.397088509200D+01
  Exact polarizability:  34.034   9.505  30.351   0.000   0.000  17.945
 Approx polarizability:  29.026   5.115  23.595   0.000   0.000  15.533
 No NMR shielding tensors so no spin-rotation constants.
 Leave Link  601 at Mon Feb 21 19:59:13 2022, MaxMem= 16106127360 cpu:               5.0 elap:               0.2
 (Enter /sw/contrib/gaussian/g16/B01/g16/l701.exe)
 ... and contract with generalized density number  2.
 Compute integral second derivatives.
 Leave Link  701 at Mon Feb 21 19:59:14 2022, MaxMem= 16106127360 cpu:               7.3 elap:               0.3
 (Enter /sw/contrib/gaussian/g16/B01/g16/l702.exe)
 L702 exits ... SP integral derivatives will be done elsewhere.
 Leave Link  702 at Mon Feb 21 19:59:14 2022, MaxMem= 16106127360 cpu:               0.5 elap:               0.0
 (Enter /sw/contrib/gaussian/g16/B01/g16/l703.exe)
 Integral derivatives from FoFJK, PRISM(SPDF).
 Compute integral second derivatives, UseDBF=F ICtDFT=           0.
 Calling FoFJK, ICntrl=  10100127 FMM=F ISym2X=1 I1Cent= 0 IOpClX= 0 NMat=1 NMatS=1 NMatT=0.
 FoFJK:  IHMeth= 1 ICntrl=10100127 DoSepK=F KAlg= 0 I1Cent=           0 FoldK=F
 IRaf=         0 NMat=       1 IRICut=       1 DoRegI=T DoRafI=F ISym2E= 1 IDoP0=0 IntGTp=1.
 FoFCou: FMM=F IPFlag=           0 FMFlag=      100000 FMFlg1=         800
         NFxFlg=           0 DoJE=F BraDBF=F KetDBF=F FulRan=T
         wScrn=  0.000000 ICntrl=  10100127 IOpCl=  0 I1Cent=           0 NGrid=           0
         NMat0=    1 NMatS0=      1 NMatT0=    0 NMatD0=    1 NMtDS0=    0 NMtDT0=    0
 Petite list used in FoFCou.
 Leave Link  703 at Mon Feb 21 19:59:29 2022, MaxMem= 16106127360 cpu:             423.6 elap:              15.2
 (Enter /sw/contrib/gaussian/g16/B01/g16/l716.exe)
 Dipole        = 2.01426377D-01 5.38903708D-01 1.14931671D-32
 Polarizability= 3.40341486D+01 9.50483098D+00 3.03510858D+01
                 1.45501418D-31 7.61127711D-31 1.79448052D+01
 Full mass-weighted force constant matrix:
 Low frequencies --- -103.8003   -8.9835    0.0013    0.0016    0.0019   27.0784
 Low frequencies ---  189.1136  237.3576  347.1132
 Diagonal vibrational polarizability:
       14.0343958      25.1245029     152.8563570
 Harmonic frequencies (cm**-1), IR intensities (KM/Mole), Raman scattering
 activities (A**4/AMU), depolarization ratios for plane and unpolarized
 incident light, reduced masses (AMU), force constants (mDyne/A),
 and normal coordinates:
                      1                      2                      3
                     A"                     A"                     A'
 Frequencies --    143.6284               234.3580               347.0677
 Red. masses --      1.3097                 4.7870                 8.8870
 Frc consts  --      0.0159                 0.1549                 0.6307
 IR Inten    --    112.6212                12.1215                 4.0954
  Atom  AN      X      Y      Z        X      Y      Z        X      Y      Z
     1   1    -0.00  -0.00   0.99    -0.00   0.00  -0.86     0.52  -0.45  -0.00
     2   8    -0.00  -0.00  -0.09    -0.00   0.00  -0.17    -0.09  -0.38  -0.00
     3   8    -0.00  -0.00  -0.02     0.00  -0.00   0.23    -0.15   0.43   0.00
     4   7     0.00   0.00   0.10     0.00   0.00   0.32     0.05   0.27   0.00
     5   8     0.00   0.00  -0.04    -0.00   0.00  -0.29     0.17  -0.26  -0.00
                      4                      5                      6
                     A'                     A'                     A'
 Frequencies --    451.5422               787.6379               967.6298
 Red. masses --     12.3235                13.1957                15.2505
 Frc consts  --      1.4804                 4.8232                 8.4130
 IR Inten    --    200.1774               175.2972                21.3737
  Atom  AN      X      Y      Z        X      Y      Z        X      Y      Z
     1   1     0.41   0.19  -0.00    -0.31   0.19  -0.00    -0.20  -0.04   0.00
     2   8     0.32   0.20  -0.00     0.42   0.09   0.00    -0.52   0.03   0.00
     3   8     0.17   0.44   0.00    -0.06  -0.28  -0.00     0.75  -0.02  -0.00
     4   7    -0.35  -0.40   0.00    -0.14   0.63  -0.00    -0.12   0.24  -0.00
     5   8    -0.22  -0.30  -0.00    -0.22  -0.37   0.00    -0.11  -0.22   0.00
                      7                      8                      9
                     A'                     A'                     A'
 Frequencies --   1392.7902              1677.4878              3688.1808
 Red. masses --      1.1290                13.0427                 1.0676
 Frc consts  --      1.2903                21.6240                 8.5559
 IR Inten    --    152.2868               139.0816                81.6549
  Atom  AN      X      Y      Z        X      Y      Z        X      Y      Z
     1   1     0.99  -0.05  -0.00    -0.36   0.01   0.00     0.10   0.99   0.00
     2   8    -0.03   0.05  -0.00    -0.00  -0.04   0.00    -0.01  -0.06  -0.00
     3   8    -0.02  -0.05   0.00     0.00   0.15  -0.00     0.00   0.00  -0.00
     4   7     0.02   0.01   0.00     0.70  -0.05  -0.00    -0.00  -0.00   0.00
     5   8    -0.03  -0.01  -0.00    -0.59  -0.07   0.00     0.00   0.00   0.00

 -------------------
 - Thermochemistry -
 -------------------
 Temperature   298.150 Kelvin.  Pressure   1.00000 Atm.
 Atom     1 has atomic number  1 and mass   1.00783
 Atom     2 has atomic number  8 and mass  15.99491
 Atom     3 has atomic number  8 and mass  15.99491
 Atom     4 has atomic number  7 and mass  14.00307
 Atom     5 has atomic number  8 and mass  15.99491
 Molecular mass:    62.99564 amu.
 Principal axes and moments of inertia in atomic units:
                           1         2         3
     Eigenvalues --    32.85815 360.22344 393.08160
           X            0.81008  -0.58632   0.00000
           Y            0.58632   0.81008   0.00000
           Z            0.00000  -0.00000   1.00000
 This molecule is an asymmetric top.
 Rotational symmetry number  1.
 Rotational temperatures (Kelvin)      2.63600     0.24044     0.22035
 Rotational constants (GHZ):          54.92522     5.01006     4.59126
 Zero-point vibrational energy      57961.0 (Joules/Mol)
                                   13.85301 (Kcal/Mol)
 Warning -- explicit consideration of   4 degrees of freedom as
           vibrations may cause significant error
 Vibrational temperatures:    206.65   337.19   499.35   649.67  1133.24
          (Kelvin)           1392.20  2003.91  2413.53  5306.47
 
 Zero-point correction=                           0.022076 (Hartree/Particle)
 Thermal correction to Energy=                    0.026833
 Thermal correction to Enthalpy=                  0.027777
 Thermal correction to Gibbs Free Energy=        -0.004683
 Sum of electronic and zero-point Energies=           -280.424614
 Sum of electronic and thermal Energies=              -280.419857
 Sum of electronic and thermal Enthalpies=            -280.418913
 Sum of electronic and thermal Free Energies=         -280.451373
 
                     E (Thermal)             CV                S
                      KCal/Mol        Cal/Mol-Kelvin    Cal/Mol-Kelvin
 Total                   16.838             13.832             68.317
 Electronic               0.000              0.000              0.000
 Translational            0.889              2.981             38.341
 Rotational               0.889              2.981             23.058
 Vibrational             15.060              7.870              6.919
 Vibration     1          0.616              1.910              2.755
 Vibration     2          0.654              1.788              1.845
 Vibration     3          0.725              1.581              1.179
 Vibration     4          0.810              1.357              0.791
                       Q            Log10(Q)             Ln(Q)
 Total Bot       0.142521D+03          2.153880          4.959491
 Total V=0       0.203333D+13         12.308208         28.340697
 Vib (Bot)       0.297006D-09         -9.527235        -21.937268
 Vib (Bot)    1  0.141430D+01          0.150542          0.346637
 Vib (Bot)    2  0.838801D+00         -0.076341         -0.175782
 Vib (Bot)    3  0.532603D+00         -0.273596         -0.629978
 Vib (Bot)    4  0.379305D+00         -0.421011         -0.969415
 Vib (V=0)       0.423735D+01          0.627094          1.443938
 Vib (V=0)    1  0.200008D+01          0.301048          0.693189
 Vib (V=0)    2  0.147652D+01          0.169239          0.389686
 Vib (V=0)    3  0.123052D+01          0.090090          0.207441
 Vib (V=0)    4  0.112759D+01          0.052152          0.120085
 Electronic      0.100000D+01          0.000000          0.000000
 Translational   0.196526D+08          7.293420         16.793719
 Rotational      0.244171D+05          4.387694         10.103040
 
                                                                title
                                                             IR Spectrum
 
     3                                                                     1         1                                               
     6                                                                     6         3             9     7           4   3  2   1    
     8                                                                     7         9             6     8           5   4  3   4    
     8                                                                     7         3             8     8           2   7  4   4    
 
     X                                                                     X         X             X     X           X   X  X   X    
     X                                                                     X         X             X     X           X          X    
     X                                                                     X         X                   X           X          X    
     X                                                                     X         X                   X           X          X    
     X                                                                     X         X                   X           X          X    
     X                                                                     X         X                   X           X          X    
     X                                                                     X         X                   X           X          X    
     X                                                                     X         X                   X           X          X    
                                                                           X         X                   X           X          X    
                                                                           X         X                   X           X          X    
                                                                           X         X                   X           X          X    
                                                                           X         X                   X           X               
                                                                           X         X                   X           X               
                                                                           X         X                   X           X               
                                                                                     X                   X           X               
                                                                                                         X           X               
                                                                                                         X           X               
                                                                                                         X           X               
                                                                                                                     X               
                                                                                                                     X               
 
 ***** Axes restored to original set *****
 -------------------------------------------------------------------
 Center     Atomic                   Forces (Hartrees/Bohr)
 Number     Number              X              Y              Z
 -------------------------------------------------------------------
      1        1           0.000137790    0.000000000    0.006672214
      2        8          -0.000047672   -0.000000000   -0.006523761
      3        8          -0.000024182   -0.000000000   -0.000017872
      4        7          -0.000485188   -0.000000000   -0.000222129
      5        8           0.000419253    0.000000000    0.000091548
 -------------------------------------------------------------------
 Cartesian Forces:  Max     0.006672214 RMS     0.002416181
 -----------------------------------------------------------------------------------------------
                       Internal Coordinate Forces (Hartree/Bohr or radian)
  Cent   Atom   N1       Length/X         N2         Alpha/Y        N3         Beta/Z          J
 -----------------------------------------------------------------------------------------------
      1  H 
      2  O        1  -0.006672(     1)
      3  O        2  -0.000109(     2)      1  -0.000254(     5)
      4  N        3  -0.000136(     3)      2  -0.000118(     6)      1  -0.000000(     8)     0
      5  O        4   0.000429(     4)      3  -0.000034(     7)      2   0.000000(     9)     0
 -----------------------------------------------------------------------------------------------
 Internal  Forces:  Max     0.006672214 RMS     0.002231397
 Force constants in Cartesian coordinates: 
                1             2             3             4             5 
      1  0.671332D-01
      2  0.000000D+00  0.128331D-02
      3  0.523713D-02  0.000000D+00  0.488112D+00
      4 -0.386611D-01  0.000000D+00 -0.160703D-01  0.275920D+00
      5  0.000000D+00 -0.564602D-03  0.000000D+00  0.000000D+00  0.565685D-02
      6  0.477445D-01  0.000000D+00 -0.484260D+00  0.337030D-01  0.000000D+00
      7 -0.180853D-01  0.000000D+00  0.123777D-01 -0.220414D+00  0.000000D+00
      8  0.000000D+00  0.958330D-03  0.000000D+00  0.000000D+00 -0.649256D-02
      9 -0.526210D-01  0.000000D+00 -0.554411D-03 -0.197982D-01  0.000000D+00
     10 -0.916180D-02  0.000000D+00 -0.486554D-02 -0.171696D-01  0.000000D+00
     11  0.000000D+00 -0.270365D-02  0.000000D+00  0.000000D+00 -0.494967D-02
     12  0.534812D-02  0.000000D+00 -0.468054D-02  0.114839D-01  0.000000D+00
     13 -0.122493D-02  0.000000D+00  0.332106D-02  0.324264D-03  0.000000D+00
     14  0.000000D+00  0.102661D-02  0.000000D+00  0.000000D+00  0.634998D-02
     15 -0.570878D-02  0.000000D+00  0.138259D-02 -0.931839D-02  0.000000D+00
                6             7             8             9            10 
      6  0.570056D+00
      7 -0.209208D-01  0.341496D+00
      8  0.000000D+00  0.000000D+00  0.418422D-02
      9 -0.782998D-01  0.357569D-01  0.000000D+00  0.180898D+00
     10 -0.524421D-01 -0.781897D-01  0.000000D+00  0.174922D+00  0.828580D+00
     11  0.000000D+00  0.000000D+00  0.851854D-02  0.000000D+00  0.000000D+00
     12  0.171538D-01  0.631753D-01  0.000000D+00 -0.816942D-01 -0.179180D-01
     13 -0.808461D-02 -0.248070D-01  0.000000D+00 -0.138260D+00 -0.724059D+00
     14  0.000000D+00  0.000000D+00 -0.716853D-02  0.000000D+00  0.000000D+00
     15 -0.246499D-01 -0.903891D-01  0.000000D+00 -0.203499D-01 -0.996961D-01
               11            12            13            14            15 
     11  0.854899D-02
     12  0.000000D+00  0.186359D+00
     13  0.000000D+00 -0.620893D-01  0.749766D+00
     14 -0.941421D-02  0.000000D+00  0.000000D+00  0.920615D-02
     15  0.000000D+00 -0.117138D+00  0.205112D+00  0.000000D+00  0.160755D+00
 Force constants in internal coordinates: 
                1             2             3             4             5 
      1  0.488112D+00
      2 -0.102290D-01  0.281157D+00
      3  0.341347D-02  0.252445D-02  0.117107D+00
      4 -0.356026D-02  0.593382D-02  0.153056D+00  0.812108D+00
      5  0.979736D-02  0.649699D-01  0.223369D-02  0.480131D-02  0.216077D+00
      6  0.463802D-02  0.591048D-01  0.407951D-01  0.218367D-01  0.311568D-01
      7 -0.114002D-02  0.376782D-01  0.322804D-01  0.846900D-01  0.213274D-01
      8  0.000000D+00  0.000000D+00  0.000000D+00  0.000000D+00  0.000000D+00
      9  0.000000D+00  0.000000D+00  0.000000D+00  0.000000D+00  0.000000D+00
                6             7             8             9 
      6  0.282368D+00
      7  0.959210D-01  0.482635D+00
      8  0.000000D+00  0.000000D+00 -0.776805D-02
      9  0.000000D+00  0.000000D+00 -0.392393D-02  0.411079D-01
 Leave Link  716 at Mon Feb 21 19:59:29 2022, MaxMem= 16106127360 cpu:               4.2 elap:               0.2
 (Enter /sw/contrib/gaussian/g16/B01/g16/l103.exe)

 GradGradGradGradGradGradGradGradGradGradGradGradGradGradGradGradGradGrad
 Berny optimization.
 Search for a local minimum.
 Step number   1 out of a maximum of    2
 All quantities printed in internal units (Hartrees-Bohrs-Radians)
 Second derivative matrix not updated -- analytic derivatives used.
 The second derivative matrix:
                          r1        r2        r3        r4        a1
           r1           0.48811
           r2          -0.01023   0.28116
           r3           0.00341   0.00252   0.11711
           r4          -0.00356   0.00593   0.15306   0.81211
           a1           0.00980   0.06497   0.00223   0.00480   0.21608
           a2           0.00464   0.05910   0.04080   0.02184   0.03116
           a3          -0.00114   0.03768   0.03228   0.08469   0.02133
           d1           0.00000  -0.00000  -0.00000  -0.00000  -0.00000
           d2          -0.00000   0.00000   0.00000   0.00000   0.00000
                          a2        a3        d1        d2
           a2           0.28237
           a3           0.09592   0.48264
           d1          -0.00000  -0.00000  -0.00777
           d2          -0.00000  -0.00000  -0.00392   0.04111
 ITU=  0
     Eigenvalues ---   -0.00808   0.04142   0.07823   0.17507   0.22481
     Eigenvalues ---    0.32452   0.48886   0.51708   0.87099
 Eigenvalue     1 is  -8.08D-03 should be greater than     0.000000 Eigenvector:
                          d1        d2        a3        a2        r3
   1                    0.99683   0.07952   0.00000   0.00000  -0.00000
                          r4        a1        r2        r1
   1                    0.00000  -0.00000   0.00000  -0.00000
 Angle between quadratic step and forces=   7.53 degrees.
 Linear search not attempted -- first point.
 Variable       Old X    -DE/DX   Delta X   Delta X   Delta X     New X
                                 (Linear)    (Quad)   (Total)
    r1        1.84443  -0.00667   0.00000  -0.01366  -0.01366   1.83077
    r2        2.74940  -0.00011   0.00000  -0.00085  -0.00085   2.74855
    r3        2.75670  -0.00014   0.00000  -0.00189  -0.00189   2.75481
    r4        2.21236   0.00043   0.00000   0.00084   0.00084   2.21319
    a1        1.70335  -0.00025   0.00000  -0.00033  -0.00033   1.70303
    a2        1.78543  -0.00012   0.00000   0.00026   0.00026   1.78569
    a3        1.90362  -0.00003   0.00000  -0.00009  -0.00009   1.90353
    d1        3.14159  -0.00000   0.00000   0.00000   0.00000   3.14159
    d2        3.14159   0.00000   0.00000   0.00000   0.00000   3.14159
         Item               Value     Threshold  Converged?
 Maximum Force            0.006672     0.000450     NO 
 RMS     Force            0.002231     0.000300     NO 
 Maximum Displacement     0.013664     0.001800     NO 
 RMS     Displacement     0.004618     0.001200     NO 
 Predicted change in Energy=-4.596654D-05
                       ----------------------------
                       ! Non-Optimized Parameters !
                       ! (Angstroms and Degrees)  !
 ----------------------                            ----------------------
 !      Name          Value   Derivative information (Atomic Units)     !
 ------------------------------------------------------------------------
 !       r1          0.9688   -DE/DX =   -0.0067                        !
 !       r2          1.4545   -DE/DX =   -0.0001                        !
 !       r3          1.4578   -DE/DX =   -0.0001                        !
 !       r4          1.1712   -DE/DX =    0.0004                        !
 !       a1         97.5762   -DE/DX =   -0.0003                        !
 !       a2        102.3126   -DE/DX =   -0.0001                        !
 !       a3        109.0642   -DE/DX =    0.0                           !
 !       d1        180.0      -DE/DX =    0.0                           !
 !       d2        180.0      -DE/DX =    0.0                           !
 ------------------------------------------------------------------------
 GradGradGradGradGradGradGradGradGradGradGradGradGradGradGradGradGradGrad

 Leave Link  103 at Mon Feb 21 19:59:29 2022, MaxMem= 16106127360 cpu:               0.5 elap:               0.0
 (Enter /sw/contrib/gaussian/g16/B01/g16/l9999.exe)

 ----------------------------------------------------------------------

 Electric dipole moment (input orientation):
 (Debye = 10**-18 statcoulomb cm , SI units = C m)
                  (au)            (Debye)         (10**-30 SI)
   Tot        0.575317D+00      0.146231D+01      0.487774D+01
   x         -0.147575D+00     -0.375098D+00     -0.125119D+01
   y          0.000000D+00      0.000000D+00      0.000000D+00
   z         -0.556068D+00     -0.141338D+01     -0.471454D+01

 Dipole polarizability, Alpha (input orientation).
 (esu units = cm**3 , SI units = C**2 m**2 J**-1)
 Alpha(0;0):
               (au)            (10**-24 esu)      (10**-40 SI)
   iso        0.274433D+02      0.406668D+01      0.452480D+01
   aniso      0.220045D+02      0.326073D+01      0.362806D+01
   xx         0.321424D+02      0.476301D+01      0.529956D+01
   yx         0.000000D+00      0.000000D+00      0.000000D+00
   yy         0.179448D+02      0.265915D+01      0.295870D+01
   zx         0.968145D+01      0.143464D+01      0.159626D+01
   zy         0.000000D+00      0.000000D+00      0.000000D+00
   zz         0.322428D+02      0.477790D+01      0.531613D+01

 ----------------------------------------------------------------------

 Dipole orientation:
     1         -0.00000000          0.00000000         -0.00000000
     8         -0.47311735          0.00000000         -1.78272245
     8          2.06776540          0.00000000         -2.83301283
     7          1.58146377          0.00000000         -5.54648267
     8          3.51211168          0.00000000         -6.62681673

 Electric dipole moment (dipole orientation):
 (Debye = 10**-18 statcoulomb cm , SI units = C m)
                  (au)            (Debye)         (10**-30 SI)
   Tot        0.575317D+00      0.146231D+01      0.487774D+01
   x          0.000000D+00      0.000000D+00      0.000000D+00
   y          0.000000D+00      0.000000D+00      0.000000D+00
   z          0.575317D+00      0.146231D+01      0.487774D+01

 Dipole polarizability, Alpha (dipole orientation).
 (esu units = cm**3 , SI units = C**2 m**2 J**-1)
 Alpha(0;0):
               (au)            (10**-24 esu)      (10**-40 SI)
   iso        0.274433D+02      0.406668D+01      0.452480D+01
   aniso      0.220045D+02      0.326073D+01      0.362806D+01
   xx         0.273484D+02      0.405261D+01      0.450914D+01
   yx         0.000000D+00      0.000000D+00      0.000000D+00
   yy         0.179448D+02      0.265915D+01      0.295870D+01
   zx        -0.838251D+01     -0.124216D+01     -0.138209D+01
   zy         0.000000D+00      0.000000D+00      0.000000D+00
   zz         0.370368D+02      0.548829D+01      0.610655D+01

 ----------------------------------------------------------------------
 1\1\GINC-N2228\Freq\RMP2-FC\Aug-CC-pVTZ\H1N1O3\CGAVINH\21-Feb-2022\1\\
 #p freq mp2/aug-cc-pvtz density=current\\title\\0,1\H\O,1,r1\O,2,r2,1,
 a1\N,3,r3,2,a2,1,d1,0\O,4,r4,3,a3,2,d2,0\\r1=0.97603281\r2=1.45491931\
 r3=1.45878406\r4=1.17072885\a1=97.59494903\a2=102.29752444\a3=109.0695
 5123\d1=180.\d2=180.\\Version=ES64L-G16RevB.01\State=1-A'\HF=-279.5013
 053\MP2=-280.4466899\RMSD=3.792e-09\RMSF=2.416e-03\ZeroPoint=0.0220762
 \Thermal=0.0268329\Dipole=-0.147575,0.,-0.5560678\DipoleDeriv=0.267223
 3,0.,0.0480827,0.,0.3545779,0.,0.0807568,0.,0.2745662,-0.3280621,0.,-0
 .2077611,0.,-0.312913,0.,-0.1083783,0.,-0.2204143,-0.0463336,0.,0.1501
 811,0.,-0.0869455,0.,-0.7538256,0.,-1.3546574,0.8943158,0.,0.908949,0.
 ,0.0659323,0.,0.9234071,0.,1.6701646,-0.7871434,0.,-0.8994516,0.,-0.02
 06517,0.,-0.14196,0.,-0.3696591\Polar=32.1423875,0.,17.9448052,9.68145
 27,0.,32.2428469\Quadrupole=-1.5217734,-0.7380317,2.2598051,0.,2.10232
 75,0.\PG=CS [SG(H1N1O3)]\NImag=0\\0.06713318,0.,0.00128331,0.00523713,
 0.,0.48811226,-0.03866112,0.,-0.01607031,0.27592005,0.,-0.00056460,0.,
 0.,0.00565685,0.04774450,0.,-0.48425990,0.03370300,0.,0.57005593,-0.01
 808533,0.,0.01237767,-0.22041361,0.,-0.02092079,0.34149566,0.,0.000958
 33,0.,0.,-0.00649256,0.,0.,0.00418422,-0.05262097,0.,-0.00055441,-0.01
 979817,0.,-0.07829984,0.03575693,0.,0.18089835,-0.00916180,0.,-0.00486
 554,-0.01716959,0.,-0.05244211,-0.07818975,0.,0.17492175,0.82857987,0.
 ,-0.00270365,0.,0.,-0.00494967,0.,0.,0.00851854,0.,0.,0.00854899,0.005
 34812,0.,-0.00468054,0.01148387,0.,0.01715375,0.06317534,0.,-0.0816942
 2,-0.01791799,0.,0.18635855,-0.00122493,0.,0.00332106,0.00032426,0.,-0
 .00808461,-0.02480697,0.,-0.13825953,-0.72405873,0.,-0.06208934,0.7497
 6637,0.,0.00102661,0.,0.,0.00634998,0.,0.,-0.00716853,0.,0.,-0.0094142
 1,0.,0.,0.00920615,-0.00570878,0.,0.00138259,-0.00931839,0.,-0.0246499
 4,-0.09038915,0.,-0.02034987,-0.09969610,0.,-0.11713753,0.20511242,0.,
 0.16075475\\-0.00013779,0.,-0.00667221,0.00004767,0.,0.00652376,0.0000
 2418,0.,0.00001787,0.00048519,0.,0.00022213,-0.00041925,0.,-0.00009155
 \\\@


 HE THAT WALD REACHE THE SWEITE ROSE
 SULD NOW AND THEN BE SCRATCHED WT THE SCHARPE BREERES.
 -- PROVERBS AND REASONS OF THE YEAR 1585
           AS REPRINTED IN PAISLEY MAGAZINE 1828.
 Job cpu time:       0 days  1 hours 56 minutes 22.7 seconds.
 Elapsed time:       0 days  0 hours  4 minutes 12.7 seconds.
 File lengths (MBytes):  RWF=   7239 Int=      0 D2E=      0 Chk=      8 Scr=      1
 Normal termination of Gaussian 16 at Mon Feb 21 19:59:30 2022.
