title                                                                   
Freq      RMP2-FC                                                     Aug-CC-pVTZ         
Number of atoms                            I                5
Info1-9                                    I   N=           9
          33          24           0           0           0         100
           6           2           1
Full Title                                 C   N=           1
title       
Route                                      C   N=           4
#p freq mp2/aug-cc-pvtz density=current         
Charge                                     I                0
Multiplicity                               I                1
Number of electrons                        I               32
Number of alpha electrons                  I               16
Number of beta electrons                   I               16
Number of basis functions                  I              207
Number of independent functions            I              207
Number of point charges in /Mol/           I                0
Number of translation vectors              I                0
Atomic numbers                             I   N=           5
           1           8           8           7           8
Nuclear charges                            R   N=           5
  1.00000000E+00  8.00000000E+00  8.00000000E+00  7.00000000E+00  8.00000000E+00
Current cartesian coordinates              R   N=          15
  2.93018378E+00  3.18382919E+00 -9.31263621E-32  2.74791557E+00  1.36182486E+00
 -9.00836619E-33  9.54535039E-17  1.27151954E+00 -1.78885220E-32 -4.98360574E-01
 -1.43976144E+00  4.93563397E-32 -2.67812304E+00 -1.77153179E+00  1.77158673E-31
Number of symbols in /Mol/                 I                0
Force Field                                I                0
Atom Types                                 C   N=           5
                                                            
Int Atom Types                             I   N=           5
           0           0           0           0           0
MM charges                                 R   N=           5
  0.00000000E+00  0.00000000E+00  0.00000000E+00  0.00000000E+00  0.00000000E+00
Integer atomic weights                     I   N=           5
           1          16          16          14          16
Real atomic weights                        R   N=           5
  1.00782504E+00  1.59949146E+01  1.59949146E+01  1.40030740E+01  1.59949146E+01
Atom fragment info                         I   N=           5
           0           0           0           0           0
Atom residue num                           I   N=           5
           0           0           0           0           0
Nuclear spins                              I   N=           5
           1           0           0           2           0
Nuclear ZEff                               R   N=           5
 -1.00000000E+00 -5.60000000E+00 -5.60000000E+00 -4.55000000E+00 -5.60000000E+00
Nuclear ZNuc                               R   N=           5
  1.00000000E+00  8.00000000E+00  8.00000000E+00  7.00000000E+00  8.00000000E+00
Nuclear QMom                               R   N=           5
  0.00000000E+00  0.00000000E+00  0.00000000E+00  2.04400000E+00  0.00000000E+00
Nuclear GFac                               R   N=           5
  2.79284600E+00  0.00000000E+00  0.00000000E+00  4.03761000E-01  0.00000000E+00
MicOpt                                     I   N=           5
          -1          -1          -1          -1          -1
Number of residues                         I                0
Number of secondary structures             I                0
SymInf integers                            I   N=          26
           1           2           1           1           1           1
           1          -1           0           0           0           0
           0           0           0           0           0           0
           0           0           0           0           0           0
           0           0
RotTr to input orientation                 R   N=          12
 -9.95033525E-01 -9.85043470E-17 -9.95403668E-02  9.95403668E-02 -7.27632561E-17
 -9.95033525E-01  9.07722464E-17 -1.00000000E+00  8.22070381E-17  2.59871157E+00
  0.00000000E+00  3.45968834E+00
Number of contracted shells                I               65
Number of primitive shells                 I              119
Pure/Cartesian d shells                    I                0
Pure/Cartesian f shells                    I                0
Highest angular momentum                   I                3
Largest degree of contraction              I                7
Shell types                                I   N=          65
           0           0           0           0           1           1
           1          -2          -2           0           0           0
           0           0           1           1           1           1
          -2          -2          -2          -3          -3           0
           0           0           0           0           1           1
           1           1          -2          -2          -2          -3
          -3           0           0           0           0           0
           1           1           1           1          -2          -2
          -2          -3          -3           0           0           0
           0           0           1           1           1           1
          -2          -2          -2          -3          -3
Number of primitives per shell             I   N=          65
           3           1           1           1           1           1
           1           1           1           7           6           1
           1           1           3           1           1           1
           1           1           1           1           1           7
           6           1           1           1           3           1
           1           1           1           1           1           1
           1           7           6           1           1           1
           3           1           1           1           1           1
           1           1           1           7           6           1
           1           1           3           1           1           1
           1           1           1           1           1
Shell to atom map                          I   N=          65
           1           1           1           1           1           1
           1           1           1           2           2           2
           2           2           2           2           2           2
           2           2           2           2           2           3
           3           3           3           3           3           3
           3           3           3           3           3           3
           3           4           4           4           4           4
           4           4           4           4           4           4
           4           4           4           5           5           5
           5           5           5           5           5           5
           5           5           5           5           5
Primitive exponents                        R   N=         119
  3.38700000E+01  5.09500000E+00  1.15900000E+00  3.25800000E-01  1.02700000E-01
  2.52600000E-02  1.40700000E+00  3.88000000E-01  1.02000000E-01  1.05700000E+00
  2.47000000E-01  1.53300000E+04  2.29900000E+03  5.22400000E+02  1.47300000E+02
  4.75500000E+01  1.67600000E+01  6.20700000E+00  5.22400000E+02  1.47300000E+02
  4.75500000E+01  1.67600000E+01  6.20700000E+00  6.88200000E-01  1.75200000E+00
  2.38400000E-01  7.37600000E-02  3.44600000E+01  7.74900000E+00  2.28000000E+00
  7.15600000E-01  2.14000000E-01  5.97400000E-02  2.31400000E+00  6.45000000E-01
  2.14000000E-01  1.42800000E+00  5.00000000E-01  1.53300000E+04  2.29900000E+03
  5.22400000E+02  1.47300000E+02  4.75500000E+01  1.67600000E+01  6.20700000E+00
  5.22400000E+02  1.47300000E+02  4.75500000E+01  1.67600000E+01  6.20700000E+00
  6.88200000E-01  1.75200000E+00  2.38400000E-01  7.37600000E-02  3.44600000E+01
  7.74900000E+00  2.28000000E+00  7.15600000E-01  2.14000000E-01  5.97400000E-02
  2.31400000E+00  6.45000000E-01  2.14000000E-01  1.42800000E+00  5.00000000E-01
  1.14200000E+04  1.71200000E+03  3.89300000E+02  1.10000000E+02  3.55700000E+01
  1.25400000E+01  4.64400000E+00  3.89300000E+02  1.10000000E+02  3.55700000E+01
  1.25400000E+01  4.64400000E+00  5.11800000E-01  1.29300000E+00  1.78700000E-01
  5.76000000E-02  2.66300000E+01  5.94800000E+00  1.74200000E+00  5.55000000E-01
  1.72500000E-01  4.91000000E-02  1.65400000E+00  4.69000000E-01  1.51000000E-01
  1.09300000E+00  3.64000000E-01  1.53300000E+04  2.29900000E+03  5.22400000E+02
  1.47300000E+02  4.75500000E+01  1.67600000E+01  6.20700000E+00  5.22400000E+02
  1.47300000E+02  4.75500000E+01  1.67600000E+01  6.20700000E+00  6.88200000E-01
  1.75200000E+00  2.38400000E-01  7.37600000E-02  3.44600000E+01  7.74900000E+00
  2.28000000E+00  7.15600000E-01  2.14000000E-01  5.97400000E-02  2.31400000E+00
  6.45000000E-01  2.14000000E-01  1.42800000E+00  5.00000000E-01
Contraction coefficients                   R   N=         119
  2.54948632E-02  1.90362766E-01  8.52162022E-01  1.00000000E+00  1.00000000E+00
  1.00000000E+00  1.00000000E+00  1.00000000E+00  1.00000000E+00  1.00000000E+00
  1.00000000E+00  5.19808943E-04  4.02025621E-03  2.07128267E-02  8.10105536E-02
  2.35962985E-01  4.42653446E-01  3.57064423E-01 -4.42115008E-05 -1.22591041E-03
 -1.05517725E-02 -6.74452633E-02 -1.71198607E-01  1.07329856E+00  1.00000000E+00
  1.00000000E+00  1.00000000E+00  4.11634896E-02  2.57762836E-01  8.02419274E-01
  1.00000000E+00  1.00000000E+00  1.00000000E+00  1.00000000E+00  1.00000000E+00
  1.00000000E+00  1.00000000E+00  1.00000000E+00  5.19808943E-04  4.02025621E-03
  2.07128267E-02  8.10105536E-02  2.35962985E-01  4.42653446E-01  3.57064423E-01
 -4.42115008E-05 -1.22591041E-03 -1.05517725E-02 -6.74452633E-02 -1.71198607E-01
  1.07329856E+00  1.00000000E+00  1.00000000E+00  1.00000000E+00  4.11634896E-02
  2.57762836E-01  8.02419274E-01  1.00000000E+00  1.00000000E+00  1.00000000E+00
  1.00000000E+00  1.00000000E+00  1.00000000E+00  1.00000000E+00  1.00000000E+00
  5.34563860E-04  4.13435660E-03  2.12335358E-02  8.25006224E-02  2.38138871E-01
  4.42551547E-01  3.53757422E-01 -4.89867350E-05 -1.19527323E-03 -1.03490714E-02
 -6.48680190E-02 -1.71552477E-01  1.07289568E+00  1.00000000E+00  1.00000000E+00
  1.00000000E+00  3.98072123E-02  2.49002660E-01  8.10479727E-01  1.00000000E+00
  1.00000000E+00  1.00000000E+00  1.00000000E+00  1.00000000E+00  1.00000000E+00
  1.00000000E+00  1.00000000E+00  5.19808943E-04  4.02025621E-03  2.07128267E-02
  8.10105536E-02  2.35962985E-01  4.42653446E-01  3.57064423E-01 -4.42115008E-05
 -1.22591041E-03 -1.05517725E-02 -6.74452633E-02 -1.71198607E-01  1.07329856E+00
  1.00000000E+00  1.00000000E+00  1.00000000E+00  4.11634896E-02  2.57762836E-01
  8.02419274E-01  1.00000000E+00  1.00000000E+00  1.00000000E+00  1.00000000E+00
  1.00000000E+00  1.00000000E+00  1.00000000E+00  1.00000000E+00
Coordinates of each shell                  R   N=         195
  2.93018378E+00  3.18382919E+00 -2.45852995E-32  2.93018378E+00  3.18382919E+00
 -2.45852995E-32  2.93018378E+00  3.18382919E+00 -2.45852995E-32  2.93018378E+00
  3.18382919E+00 -2.45852995E-32  2.93018378E+00  3.18382919E+00 -2.45852995E-32
  2.93018378E+00  3.18382919E+00 -2.45852995E-32  2.93018378E+00  3.18382919E+00
 -2.45852995E-32  2.93018378E+00  3.18382919E+00 -2.45852995E-32  2.93018378E+00
  3.18382919E+00 -2.45852995E-32  2.74791557E+00  1.36182486E+00 -3.13858333E-33
  2.74791557E+00  1.36182486E+00 -3.13858333E-33  2.74791557E+00  1.36182486E+00
 -3.13858333E-33  2.74791557E+00  1.36182486E+00 -3.13858333E-33  2.74791557E+00
  1.36182486E+00 -3.13858333E-33  2.74791557E+00  1.36182486E+00 -3.13858333E-33
  2.74791557E+00  1.36182486E+00 -3.13858333E-33  2.74791557E+00  1.36182486E+00
 -3.13858333E-33  2.74791557E+00  1.36182486E+00 -3.13858333E-33  2.74791557E+00
  1.36182486E+00 -3.13858333E-33  2.74791557E+00  1.36182486E+00 -3.13858333E-33
  2.74791557E+00  1.36182486E+00 -3.13858333E-33  2.74791557E+00  1.36182486E+00
 -3.13858333E-33  2.74791557E+00  1.36182486E+00 -3.13858333E-33  2.36773209E-17
  1.27151954E+00 -1.55948504E-32  2.36773209E-17  1.27151954E+00 -1.55948504E-32
  2.36773209E-17  1.27151954E+00 -1.55948504E-32  2.36773209E-17  1.27151954E+00
 -1.55948504E-32  2.36773209E-17  1.27151954E+00 -1.55948504E-32  2.36773209E-17
  1.27151954E+00 -1.55948504E-32  2.36773209E-17  1.27151954E+00 -1.55948504E-32
  2.36773209E-17  1.27151954E+00 -1.55948504E-32  2.36773209E-17  1.27151954E+00
 -1.55948504E-32  2.36773209E-17  1.27151954E+00 -1.55948504E-32  2.36773209E-17
  1.27151954E+00 -1.55948504E-32  2.36773209E-17  1.27151954E+00 -1.55948504E-32
  2.36773209E-17  1.27151954E+00 -1.55948504E-32  2.36773209E-17  1.27151954E+00
 -1.55948504E-32 -4.98360574E-01 -1.43976144E+00  1.51983619E-32 -4.98360574E-01
 -1.43976144E+00  1.51983619E-32 -4.98360574E-01 -1.43976144E+00  1.51983619E-32
 -4.98360574E-01 -1.43976144E+00  1.51983619E-32 -4.98360574E-01 -1.43976144E+00
  1.51983619E-32 -4.98360574E-01 -1.43976144E+00  1.51983619E-32 -4.98360574E-01
 -1.43976144E+00  1.51983619E-32 -4.98360574E-01 -1.43976144E+00  1.51983619E-32
 -4.98360574E-01 -1.43976144E+00  1.51983619E-32 -4.98360574E-01 -1.43976144E+00
  1.51983619E-32 -4.98360574E-01 -1.43976144E+00  1.51983619E-32 -4.98360574E-01
 -1.43976144E+00  1.51983619E-32 -4.98360574E-01 -1.43976144E+00  1.51983619E-32
 -4.98360574E-01 -1.43976144E+00  1.51983619E-32 -2.67812304E+00 -1.77153179E+00
  8.50802945E-33 -2.67812304E+00 -1.77153179E+00  8.50802945E-33 -2.67812304E+00
 -1.77153179E+00  8.50802945E-33 -2.67812304E+00 -1.77153179E+00  8.50802945E-33
 -2.67812304E+00 -1.77153179E+00  8.50802945E-33 -2.67812304E+00 -1.77153179E+00
  8.50802945E-33 -2.67812304E+00 -1.77153179E+00  8.50802945E-33 -2.67812304E+00
 -1.77153179E+00  8.50802945E-33 -2.67812304E+00 -1.77153179E+00  8.50802945E-33
 -2.67812304E+00 -1.77153179E+00  8.50802945E-33 -2.67812304E+00 -1.77153179E+00
  8.50802945E-33 -2.67812304E+00 -1.77153179E+00  8.50802945E-33 -2.67812304E+00
 -1.77153179E+00  8.50802945E-33 -2.67812304E+00 -1.77153179E+00  8.50802945E-33
Num ILSW                                   I              100
ILSW                                       I   N=         100
           0           0           0           0           2           0
           0           0           0           0           0          -1
           5           0           0           0           2           0
           0           0           0           0           1           0
           1           0           0           0           0           0
           0           0      100000           0          -1           0
           0           0           0           0           0           0
           0           0           0           1           1           0
           0 -2000000000           1           0           0           0
           0           0           4          52           0           0
           0           0           0           0           0           0
           0           0           0           5           4           1
           0           0           0           0           0           0
           0           0           0           0           0           0
           0           0           0           0           0           0
           0           0           0           0           0           0
           0           0           0           0
Num RLSW                                   I               52
RLSW                                       R   N=          52
  1.00000000E+00  1.00000000E+00  1.00000000E+00  1.00000000E+00  1.00000000E+00
  0.00000000E+00  0.00000000E+00  1.00000000E+00  0.00000000E+00  0.00000000E+00
  0.00000000E+00  0.00000000E+00  1.00000000E+00  0.00000000E+00  0.00000000E+00
  0.00000000E+00  0.00000000E+00  1.00000000E+00  0.00000000E+00  0.00000000E+00
  0.00000000E+00  0.00000000E+00  1.00000000E+00  0.00000000E+00  0.00000000E+00
  0.00000000E+00  0.00000000E+00  1.00000000E+00  0.00000000E+00  0.00000000E+00
  0.00000000E+00  0.00000000E+00  1.00000000E+00  0.00000000E+00  0.00000000E+00
  0.00000000E+00  0.00000000E+00  0.00000000E+00  1.00000000E+00  1.00000000E+00
  0.00000000E+00  1.00000000E+00  0.00000000E+00  0.00000000E+00  0.00000000E+00
  0.00000000E+00  0.00000000E+00  0.00000000E+00  0.00000000E+00  0.00000000E+00
  0.00000000E+00  0.00000000E+00
MxBond                                     I                2
NBond                                      I   N=           5
           1           2           2           2           1
IBond                                      I   N=          10
           2           0           1           3           2           4
           3           5           4           0
RBond                                      R   N=          10
  1.00000000E+00  0.00000000E+00  1.00000000E+00  1.00000000E+00  1.00000000E+00
  1.00000000E+00  1.00000000E+00  2.00000000E+00  2.00000000E+00  0.00000000E+00
Virial Ratio                               R      2.002285937484002E+00
SCF Energy                                 R     -2.795023382309085E+02
MP2 Energy                                 R     -2.804467088772825E+02
Total Energy                               R     -2.804467088772825E+02
Post-SCF wavefunction norm                 R      1.583843197734025E+00
RMS Force                                  R      2.319574140118083E-03
RMS Density                                R      3.684331932709018E-09
NImag                                      I                1
Job Status                                 I                1
Nuclear derivative order                   I                2
External E-field                           R   N=          35
  0.00000000E+00  0.00000000E+00  0.00000000E+00  0.00000000E+00  0.00000000E+00
  0.00000000E+00  0.00000000E+00  0.00000000E+00  0.00000000E+00  0.00000000E+00
  0.00000000E+00  0.00000000E+00  0.00000000E+00  0.00000000E+00  0.00000000E+00
  0.00000000E+00  0.00000000E+00  0.00000000E+00  0.00000000E+00  0.00000000E+00
  0.00000000E+00  0.00000000E+00  0.00000000E+00  0.00000000E+00  0.00000000E+00
  0.00000000E+00  0.00000000E+00  0.00000000E+00  0.00000000E+00  0.00000000E+00
  0.00000000E+00  0.00000000E+00  0.00000000E+00  0.00000000E+00  0.00000000E+00
IOpCl                                      I                0
IROHF                                      I                0
Alpha Orbital Energies                     R   N=         207
 -2.06899523E+01 -2.06844624E+01 -2.06594734E+01 -1.58122566E+01 -1.62726934E+00
 -1.49578881E+00 -1.25400993E+00 -9.47527462E-01 -7.73254738E-01 -7.60232515E-01
 -7.12620924E-01 -6.79841360E-01 -6.21247584E-01 -5.89169216E-01 -4.84889594E-01
 -4.71725296E-01  2.97352575E-02  7.28961443E-02  8.58779219E-02  1.01717875E-01
  1.33881806E-01  1.34005419E-01  1.44163199E-01  1.54629518E-01  1.78329653E-01
  1.94128373E-01  1.99954524E-01  2.06369661E-01  2.20945726E-01  2.35760604E-01
  2.37407758E-01  2.66093369E-01  2.93834475E-01  3.04041315E-01  3.10647259E-01
  3.43393384E-01  3.49873517E-01  3.87375153E-01  4.22187684E-01  4.31698461E-01
  5.27258214E-01  5.29794592E-01  5.58731194E-01  5.81739879E-01  6.28095248E-01
  6.38132658E-01  6.73238642E-01  6.84759927E-01  7.06432003E-01  7.11241130E-01
  7.24245822E-01  7.29638809E-01  7.44660932E-01  7.91771415E-01  7.92297550E-01
  8.10180052E-01  8.13075866E-01  8.31644414E-01  8.68567544E-01  9.08668124E-01
  9.22320746E-01  9.26686308E-01  9.56822648E-01  9.78383642E-01  9.84974927E-01
  1.01666234E+00  1.05226088E+00  1.05516352E+00  1.08319363E+00  1.11821307E+00
  1.14158062E+00  1.18974056E+00  1.22134238E+00  1.23326103E+00  1.33914827E+00
  1.35072250E+00  1.38688097E+00  1.45369875E+00  1.48799851E+00  1.50947667E+00
  1.53815081E+00  1.56692885E+00  1.57963934E+00  1.61355776E+00  1.66513126E+00
  1.66984232E+00  1.70315213E+00  1.79336841E+00  1.83093757E+00  1.83485028E+00
  1.87937639E+00  1.91007336E+00  1.95514255E+00  1.99320208E+00  2.00566456E+00
  2.07790433E+00  2.12111580E+00  2.13242578E+00  2.15033871E+00  2.22466452E+00
  2.26490790E+00  2.26505815E+00  2.28995439E+00  2.31482251E+00  2.34533907E+00
  2.38650513E+00  2.42535281E+00  2.42979907E+00  2.45426894E+00  2.46336439E+00
  2.47734039E+00  2.50208001E+00  2.59005538E+00  2.59742505E+00  2.62171412E+00
  2.62633994E+00  2.63514985E+00  2.66879581E+00  2.75908745E+00  2.82669724E+00
  2.85728940E+00  2.88617277E+00  2.89502829E+00  2.92562788E+00  2.95906249E+00
  3.02605412E+00  3.06752211E+00  3.12298898E+00  3.20504911E+00  3.22773817E+00
  3.31746274E+00  3.34226795E+00  3.51880050E+00  3.64379756E+00  3.83897301E+00
  3.84574389E+00  4.14920439E+00  4.16367757E+00  4.18445125E+00  4.26712487E+00
  4.35212930E+00  4.39389395E+00  4.46440769E+00  4.52004936E+00  4.66675221E+00
  4.71138644E+00  4.80718306E+00  4.82562095E+00  4.82995554E+00  4.89556010E+00
  5.02264939E+00  5.07787690E+00  5.10505904E+00  5.14242658E+00  5.18033136E+00
  5.24401836E+00  5.27252917E+00  5.30786235E+00  5.33030299E+00  5.35908480E+00
  5.60728934E+00  5.68026658E+00  5.77334782E+00  5.83075527E+00  5.95616774E+00
  6.16967027E+00  6.30952102E+00  6.33870925E+00  6.39500157E+00  6.49362071E+00
  6.50546431E+00  6.61434232E+00  6.66853375E+00  6.70117513E+00  6.75843676E+00
  6.76412631E+00  6.83513252E+00  6.89980510E+00  7.01483194E+00  7.05761022E+00
  7.05769047E+00  7.09071273E+00  7.12640352E+00  7.15080833E+00  7.18213525E+00
  7.22799570E+00  7.24264340E+00  7.30929547E+00  7.33300323E+00  7.35026463E+00
  7.40319844E+00  7.43219467E+00  7.48505577E+00  7.60885042E+00  7.62462293E+00
  7.63179929E+00  7.66692741E+00  7.79272862E+00  7.89342953E+00  8.09467568E+00
  8.31631930E+00  8.40969377E+00  8.54529155E+00  1.33986553E+01  1.44253565E+01
  1.51637240E+01  1.62742913E+01
Alpha MO coefficients                      R   N=       42849
  9.21234840E-05 -6.35465507E-04 -7.27920462E-04 -4.22910619E-06 -2.13879170E-05
 -2.71072879E-05  0.00000000E+00 -4.33689791E-05  5.96913365E-05  0.00000000E+00
  8.78595998E-05  3.66234653E-05  0.00000000E+00  3.18948958E-05  0.00000000E+00
  0.00000000E+00 -4.97665827E-05  2.10428492E-05 -4.72357371E-06  0.00000000E+00
  0.00000000E+00 -1.38727208E-04  1.17846594E-04  4.64657942E-03 -2.82420391E-04
  1.73352605E-05  1.55262101E-03  1.82510895E-03  1.06232200E-04  7.44556816E-06
  0.00000000E+00 -6.17208613E-04 -3.51408861E-05  0.00000000E+00 -1.10193874E-03
  7.89760922E-04  0.00000000E+00 -4.03806396E-04  6.29792675E-05  0.00000000E+00
  2.88564516E-05  0.00000000E+00  0.00000000E+00 -5.42015978E-05  6.00906603E-06
 -3.78312837E-04  0.00000000E+00  0.00000000E+00  7.40816776E-04 -3.45695584E-05
 -4.46881540E-04  0.00000000E+00  0.00000000E+00  2.43722699E-04 -1.43430646E-05
  0.00000000E+00  8.01114405E-05  1.25990539E-05  0.00000000E+00  0.00000000E+00
 -1.09661515E-04 -2.85300585E-06  0.00000000E+00  2.55143980E-04 -2.78424498E-05
  0.00000000E+00  0.00000000E+00 -3.53110603E-04  5.17150210E-05  9.76908083E-01
 -9.21695423E-03  4.33200946E-02  2.05052827E-03 -9.14034375E-04  1.49286286E-03
 -1.35115201E-03  0.00000000E+00 -1.43538033E-03  1.37976365E-03  0.00000000E+00
  8.15456539E-05 -1.16192196E-03  0.00000000E+00 -1.34498545E-04 -1.22773598E-05
  0.00000000E+00  4.61656155E-05  0.00000000E+00  0.00000000E+00 -3.54458641E-05
  2.17034392E-05  7.46400003E-04  0.00000000E+00  0.00000000E+00 -2.35931490E-04
 -3.88727870E-04 -3.59682252E-04  0.00000000E+00  0.00000000E+00 -3.12778230E-04
 -3.72488306E-04  0.00000000E+00  4.74503997E-05 -4.87820903E-05  0.00000000E+00
  0.00000000E+00 -3.89986834E-05 -1.54468993E-05  0.00000000E+00  2.33843415E-05
  2.17850435E-05  0.00000000E+00  0.00000000E+00 -3.05932358E-04 -1.37927196E-04
  3.84432082E-05  4.23012061E-05 -2.64297743E-04 -7.14388307E-04 -1.51352127E-04
 -2.68432619E-05 -9.69872869E-05  0.00000000E+00  2.73255360E-04  7.07449754E-04
  0.00000000E+00 -8.41257900E-04 -4.88699428E-04  0.00000000E+00 -1.25983739E-04
 -2.91515088E-05  0.00000000E+00 -1.80747971E-05  0.00000000E+00  0.00000000E+00
 -2.99406870E-05  1.51794712E-05 -3.27356852E-04  0.00000000E+00  0.00000000E+00
 -8.26380922E-04  1.28951451E-04 -3.50502639E-05  0.00000000E+00  0.00000000E+00
  9.90221214E-05 -1.17112443E-04  0.00000000E+00 -2.06599839E-05 -1.19840430E-04
  0.00000000E+00  0.00000000E+00 -6.29801637E-05 -1.36958341E-04  0.00000000E+00
  3.14026035E-06 -1.51788241E-04  0.00000000E+00  0.00000000E+00  4.35118925E-05
 -4.17701630E-04 -3.10995901E-03  1.27432746E-04 -1.46827900E-04 -2.45535302E-04
  1.41755318E-04 -9.25386674E-06 -2.78379622E-05  0.00000000E+00  7.12214797E-05
  1.63796392E-04  0.00000000E+00  2.39224311E-04  2.03939141E-04  0.00000000E+00
  1.28445188E-04  2.49671953E-05  0.00000000E+00 -3.14520359E-06  0.00000000E+00
  0.00000000E+00 -1.82031850E-05  1.37971040E-06  6.70473885E-07  0.00000000E+00
  0.00000000E+00  8.23939063E-05  8.66532956E-05 -1.01466314E-04  0.00000000E+00
  0.00000000E+00  1.68155693E-04  1.63490420E-04  0.00000000E+00  1.58263792E-05
 -3.32680227E-06  0.00000000E+00  0.00000000E+00 -3.89968669E-06 -1.20914248E-05
  0.00000000E+00 -3.37761351E-05  4.54810788E-05  0.00000000E+00  0.00000000E+00
  8.41406943E-05  8.95339942E-05  3.95403734E-05 -9.86541235E-04 -4.81780530E-04
 -9.94813273E-06 -2.20078596E-05  1.57823173E-05  0.00000000E+00  1.61461148E-06
  2.73456750E-04  0.00000000E+00 -4.05479072E-05  1.32283838E-04  0.00000000E+00
  2.59794612E-05  0.00000000E+00  0.00000000E+00  1.23035545E-05  1.07094591E-05
 -2.75982949E-05  0.00000000E+00  0.00000000E+00  1.16211454E-05  3.41405057E-05
  1.12861692E-04  8.41345058E-05 -2.81894975E-05  7.53778095E-04  6.49274399E-04
  1.05477956E-05  2.35851543E-06  0.00000000E+00 -7.47640323E-05  1.64614572E-05
  0.00000000E+00  3.28741927E-04  9.02498229E-04  0.00000000E+00  1.90720725E-06
  7.92514231E-05  0.00000000E+00 -2.31009493E-06  0.00000000E+00  0.00000000E+00
 -3.00580554E-07 -5.85411113E-06 -3.60707108E-05  0.00000000E+00  0.00000000E+00
 -1.74497830E-05  8.19174078E-05 -2.43011371E-05  0.00000000E+00  0.00000000E+00
 -2.66883834E-04 -1.64609675E-04  0.00000000E+00  9.17994191E-06  5.90370852E-06
  0.00000000E+00  0.00000000E+00  2.27594400E-06 -1.85121945E-05  0.00000000E+00
 -3.95439515E-05 -3.77689198E-05  0.00000000E+00  0.00000000E+00 -7.67124906E-05
  2.07107127E-05  3.14893127E-03  3.37212476E-05  1.15496255E-04 -7.05187833E-05
 -4.65429968E-04  7.73793386E-06  1.50841805E-05  0.00000000E+00 -6.14828638E-05
 -5.37399718E-05  0.00000000E+00  2.38437019E-04 -1.99364537E-04  0.00000000E+00
 -1.85363930E-04 -6.40123188E-05  0.00000000E+00 -8.69180084E-06  0.00000000E+00
  0.00000000E+00  2.29033522E-05  2.05604192E-05  5.37048410E-06  0.00000000E+00
  0.00000000E+00 -1.20389652E-04 -5.16296145E-05 -4.93035301E-06  0.00000000E+00
  0.00000000E+00 -2.25713472E-04 -2.14729906E-04  0.00000000E+00  3.12660470E-06
 -7.54596747E-07  0.00000000E+00  0.00000000E+00  1.59992234E-06 -1.27119271E-05
  0.00000000E+00 -4.63722682E-05  4.83830383E-06  0.00000000E+00  0.00000000E+00
 -8.01684683E-05  1.87548464E-04  2.59563642E-04  1.47071261E-03 -6.04573319E-05
 -1.62594790E-03  3.74201890E-04 -1.54605313E-04 -1.48130247E-06  0.00000000E+00
 -2.07534950E-03 -3.95354639E-04  0.00000000E+00  1.08126342E-03  7.63722596E-04
  0.00000000E+00 -1.66659834E-04  5.60177716E-05  0.00000000E+00 -1.22180287E-04
  0.00000000E+00  0.00000000E+00  2.42063595E-04  9.35109587E-05 -4.30770461E-04
  0.00000000E+00  0.00000000E+00  8.76916143E-04 -8.19076510E-05  1.76115773E-05
  0.00000000E+00  0.00000000E+00 -3.50517201E-04 -1.27314014E-04  0.00000000E+00
 -7.78930437E-06  1.39824639E-05  0.00000000E+00  0.00000000E+00  2.66507581E-05
  1.75391131E-05  0.00000000E+00  1.62751963E-04 -7.17644706E-05  0.00000000E+00
  0.00000000E+00 -2.31069224E-04  4.12867930E-05  9.76641117E-01 -9.84255617E-03
  4.35792236E-02  4.58099676E-03 -4.17538575E-04  2.15272698E-03  4.78731805E-04
  0.00000000E+00 -2.36576684E-03 -5.98562896E-04  0.00000000E+00  1.15757331E-03
  2.95921113E-08  0.00000000E+00  7.64492026E-06 -4.12629490E-05  0.00000000E+00
 -2.35192174E-04  0.00000000E+00  0.00000000E+00  1.07675922E-04  3.31926258E-05
  3.87766459E-04  0.00000000E+00  0.00000000E+00 -8.28002457E-04 -4.15448604E-04
 -1.50154870E-04  0.00000000E+00  0.00000000E+00  2.51373336E-04  1.62915320E-05
  0.00000000E+00  4.99373584E-05  1.73632711E-05  0.00000000E+00  0.00000000E+00
 -1.92699472E-05 -1.19851966E-05  0.00000000E+00  1.40815783E-04  9.49642725E-06
  0.00000000E+00  0.00000000E+00 -1.91306490E-04 -1.40785619E-04  4.74851192E-04
  2.06246856E-03  1.16424407E-04  1.47621826E-05 -4.14840931E-05 -2.46786929E-04
  0.00000000E+00  1.09336321E-04 -1.27562452E-03  0.00000000E+00  3.09548867E-04
 -3.39347077E-04  0.00000000E+00 -2.66233869E-06  0.00000000E+00  0.00000000E+00
  7.60092271E-05  1.51610380E-05 -1.60170439E-04  0.00000000E+00  0.00000000E+00
 -5.37318151E-04 -2.19115018E-05  9.76829685E-01 -9.16313002E-03  4.34499314E-02
  1.64130687E-04 -1.14030101E-03 -1.55915450E-03  1.44477521E-03  0.00000000E+00
  1.57176024E-03 -1.28750658E-03  0.00000000E+00 -5.71452180E-04 -8.66896240E-04
  0.00000000E+00  5.59936981E-05 -3.06590126E-05  0.00000000E+00  2.94450087E-05
  0.00000000E+00  0.00000000E+00 -1.17986571E-04 -2.46469695E-06  7.57420264E-04
  0.00000000E+00  0.00000000E+00 -2.02498447E-04 -2.34755591E-04 -2.66110639E-04
  0.00000000E+00  0.00000000E+00  1.69489008E-04  1.27570409E-04  0.00000000E+00
 -6.41006387E-05  1.35285304E-06  0.00000000E+00  0.00000000E+00  1.88629379E-05