 Entering Gaussian System, Link 0=g16
 Input=hoono_a3_110p8299.gjf
 Output=hoono_a3_110p8299.log
 Initial command:
 /sw/contrib/gaussian/g16/B01/g16/l1.exe "/scr/Gau-2620.inp" -scrdir="/scr/"
 Entering Link 1 = /sw/contrib/gaussian/g16/B01/g16/l1.exe PID=      2621.
  
 Copyright (c) 1988-2017, Gaussian, Inc.  All Rights Reserved.
  
 This is part of the Gaussian(R) 16 program.  It is based on
 the Gaussian(R) 09 system (copyright 2009, Gaussian, Inc.),
 the Gaussian(R) 03 system (copyright 2003, Gaussian, Inc.),
 the Gaussian(R) 98 system (copyright 1998, Gaussian, Inc.),
 the Gaussian(R) 94 system (copyright 1995, Gaussian, Inc.),
 the Gaussian 92(TM) system (copyright 1992, Gaussian, Inc.),
 the Gaussian 90(TM) system (copyright 1990, Gaussian, Inc.),
 the Gaussian 88(TM) system (copyright 1988, Gaussian, Inc.),
 the Gaussian 86(TM) system (copyright 1986, Carnegie Mellon
 University), and the Gaussian 82(TM) system (copyright 1983,
 Carnegie Mellon University). Gaussian is a federally registered
 trademark of Gaussian, Inc.
  
 This software contains proprietary and confidential information,
 including trade secrets, belonging to Gaussian, Inc.
  
 This software is provided under written license and may be
 used, copied, transmitted, or stored only in accord with that
 written license.
  
 The following legend is applicable only to US Government
 contracts under FAR:
  
                    RESTRICTED RIGHTS LEGEND
  
 Use, reproduction and disclosure by the US Government is
 subject to restrictions as set forth in subparagraphs (a)
 and (c) of the Commercial Computer Software - Restricted
 Rights clause in FAR 52.227-19.
  
 Gaussian, Inc.
 340 Quinnipiac St., Bldg. 40, Wallingford CT 06492
  
  
 ---------------------------------------------------------------
 Warning -- This program may not be used in any manner that
 competes with the business of Gaussian, Inc. or will provide
 assistance to any competitor of Gaussian, Inc.  The licensee
 of this program is prohibited from giving any competitor of
 Gaussian, Inc. access to this program.  By using this program,
 the user acknowledges that Gaussian, Inc. is engaged in the
 business of creating and licensing software in the field of
 computational chemistry and represents and warrants to the
 licensee that it is not a competitor of Gaussian, Inc. and that
 it will not use this program in any manner prohibited above.
 ---------------------------------------------------------------
  

 Cite this work as:
 Gaussian 16, Revision B.01,
 M. J. Frisch, G. W. Trucks, H. B. Schlegel, G. E. Scuseria, 
 M. A. Robb, J. R. Cheeseman, G. Scalmani, V. Barone, 
 G. A. Petersson, H. Nakatsuji, X. Li, M. Caricato, A. V. Marenich, 
 J. Bloino, B. G. Janesko, R. Gomperts, B. Mennucci, H. P. Hratchian, 
 J. V. Ortiz, A. F. Izmaylov, J. L. Sonnenberg, D. Williams-Young, 
 F. Ding, F. Lipparini, F. Egidi, J. Goings, B. Peng, A. Petrone, 
 T. Henderson, D. Ranasinghe, V. G. Zakrzewski, J. Gao, N. Rega, 
 G. Zheng, W. Liang, M. Hada, M. Ehara, K. Toyota, R. Fukuda, 
 J. Hasegawa, M. Ishida, T. Nakajima, Y. Honda, O. Kitao, H. Nakai, 
 T. Vreven, K. Throssell, J. A. Montgomery, Jr., J. E. Peralta, 
 F. Ogliaro, M. J. Bearpark, J. J. Heyd, E. N. Brothers, K. N. Kudin, 
 V. N. Staroverov, T. A. Keith, R. Kobayashi, J. Normand, 
 K. Raghavachari, A. P. Rendell, J. C. Burant, S. S. Iyengar, 
 J. Tomasi, M. Cossi, J. M. Millam, M. Klene, C. Adamo, R. Cammi, 
 J. W. Ochterski, R. L. Martin, K. Morokuma, O. Farkas, 
 J. B. Foresman, and D. J. Fox, Gaussian, Inc., Wallingford CT, 2016.
 
 ******************************************
 Gaussian 16:  ES64L-G16RevB.01 20-Dec-2017
                21-Feb-2022 
 ******************************************
 %nproc=28
 Will use up to   28 processors via shared memory.
 %mem=120GB
 %chk=hoono_a3_110p8299.chk
 ---------------------------------------
 #p freq mp2/aug-cc-pvtz density=current
 ---------------------------------------
 1/10=4,30=1,38=1/1,3;
 2/12=2,17=6,18=5,40=1/2;
 3/5=16,6=1,7=10,11=9,25=1,30=1,71=2,140=1/1,2,3;
 4//1;
 5/5=2,38=5,98=1/2;
 8/6=3,8=1,10=1,19=11,30=-1/1;
 9/15=3,16=-3/6;
 11/6=1,8=1,15=11,17=12,24=-1,27=1,28=-2,29=300,32=6,42=3/1,2,10;
 10/6=2,21=1/2;
 8/6=4,8=1,10=1,19=11,30=-1/11,4;
 10/5=1,20=4/2;
 11/12=2,14=11,16=1,17=2,28=-2,42=3,76=2/2,10,12;
 6/7=2,8=2,9=2,10=2,22=-1/1;
 7/8=1,10=1,12=2,25=1,44=2/1,2,3,16;
 1/10=4,30=1/3;
 99//99;
 Leave Link    1 at Mon Feb 21 20:51:38 2022, MaxMem= 16106127360 cpu:               2.4 elap:               0.1
 (Enter /sw/contrib/gaussian/g16/B01/g16/l101.exe)
 -----
 title
 -----
 Symbolic Z-matrix:
 Charge =  0 Multiplicity = 1
 H
 O                    1    r1
 O                    2    r2       1    a1
 N                    3    r3       2    a2       1    d1       0
 O                    4    r4       3    a3       2    d2       0
       Variables:
  r1                    0.96898                  
  r2                    1.45492                  
  r3                    1.45878                  
  r4                    1.17073                  
  a1                   97.59495                  
  a2                  102.29752                  
  a3                  110.82991                  
  d1                  180.                       
  d2                  180.                       
 
 ITRead=  0  0  0  0  0
 MicOpt= -1 -1 -1 -1 -1
 NAtoms=      5 NQM=        5 NQMF=       0 NMMI=      0 NMMIF=      0
                NMic=       0 NMicF=      0.
                    Isotopes and Nuclear Properties:
 (Nuclear quadrupole moments (NQMom) in fm**2, nuclear magnetic moments (NMagM)
  in nuclear magnetons)

  Atom         1           2           3           4           5
 IAtWgt=           1          16          16          14          16
 AtmWgt=   1.0078250  15.9949146  15.9949146  14.0030740  15.9949146
 NucSpn=           1           0           0           2           0
 AtZEff=  -0.0000000  -0.0000000  -0.0000000  -0.0000000  -0.0000000
 NQMom=    0.0000000   0.0000000   0.0000000   2.0440000   0.0000000
 NMagM=    2.7928460   0.0000000   0.0000000   0.4037610   0.0000000
 AtZNuc=   1.0000000   8.0000000   8.0000000   7.0000000   8.0000000
 Leave Link  101 at Mon Feb 21 20:51:38 2022, MaxMem= 16106127360 cpu:               2.6 elap:               0.1
 (Enter /sw/contrib/gaussian/g16/B01/g16/l103.exe)

 GradGradGradGradGradGradGradGradGradGradGradGradGradGradGradGradGradGrad
 Berny optimization.
 Initialization pass.
                       ----------------------------
                       !    Initial Parameters    !
                       ! (Angstroms and Degrees)  !
 ----------------------                            ----------------------
 !      Name          Value   Derivative information (Atomic Units)     !
 ------------------------------------------------------------------------
 !       r1          0.969    calculate D2E/DX2 analytically            !
 !       r2          1.4549   calculate D2E/DX2 analytically            !
 !       r3          1.4588   calculate D2E/DX2 analytically            !
 !       r4          1.1707   calculate D2E/DX2 analytically            !
 !       a1         97.5949   calculate D2E/DX2 analytically            !
 !       a2        102.2975   calculate D2E/DX2 analytically            !
 !       a3        110.8299   calculate D2E/DX2 analytically            !
 !       d1        180.0      calculate D2E/DX2 analytically            !
 !       d2        180.0      calculate D2E/DX2 analytically            !
 ------------------------------------------------------------------------
 Trust Radius=3.00D-01 FncErr=1.00D-07 GrdErr=1.00D-07 EigMax=2.50D+02 EigMin=1.00D-04
 Number of steps in this run=      2 maximum allowed number of steps=      2.
 GradGradGradGradGradGradGradGradGradGradGradGradGradGradGradGradGradGrad

 Leave Link  103 at Mon Feb 21 20:51:38 2022, MaxMem= 16106127360 cpu:               0.6 elap:               0.1
 (Enter /sw/contrib/gaussian/g16/B01/g16/l202.exe)
                          Input orientation:                          
 ---------------------------------------------------------------------
 Center     Atomic      Atomic             Coordinates (Angstroms)
 Number     Number       Type             X           Y           Z
 ---------------------------------------------------------------------
      1          1           0        0.000000    0.000000    0.000000
      2          8           0        0.000000    0.000000    0.968976
      3          8           0        1.442156    0.000000    1.161271
      4          7           0        1.561752    0.000000    2.615144
      5          8           0        2.686408    0.000000    2.940341
 ---------------------------------------------------------------------
                    Distance matrix (angstroms):
                    1          2          3          4          5
     1  H    0.000000
     2  O    0.968976   0.000000
     3  O    1.851584   1.454919   0.000000
     4  N    3.045989   2.269127   1.458784   0.000000
     5  O    3.982762   3.332127   2.171003   1.170729   0.000000
 Stoichiometry    HNO3
 Framework group  CS[SG(HNO3)]
 Deg. of freedom     7
 Full point group                 CS      NOp   2
 Largest Abelian subgroup         CS      NOp   2
 Largest concise Abelian subgroup C1      NOp   1
                         Standard orientation:                         
 ---------------------------------------------------------------------
 Center     Atomic      Atomic             Coordinates (Angstroms)
 Number     Number       Type             X           Y           Z
 ---------------------------------------------------------------------
      1          1           0        1.551343    1.692667    0.000000
      2          8           0        1.454170    0.728577   -0.000000
      3          8           0       -0.000000    0.681876    0.000000
      4          7           0       -0.264794   -0.752674   -0.000000
      5          8           0       -1.416393   -0.963446    0.000000
 ---------------------------------------------------------------------
 Rotational constants (GHZ):          55.4083103           4.9688207           4.5599047
 Leave Link  202 at Mon Feb 21 20:51:38 2022, MaxMem= 16106127360 cpu:               0.3 elap:               0.0
 (Enter /sw/contrib/gaussian/g16/B01/g16/l301.exe)
 Standard basis: Aug-CC-pVTZ (5D, 7F)
 Ernie: Thresh=  0.10000D-02 Tol=  0.10000D-05 Strict=F.
 Ernie:  12 primitive shells out of 131 were deleted.
 There are   166 symmetry adapted cartesian basis functions of A'  symmetry.
 There are    79 symmetry adapted cartesian basis functions of A"  symmetry.
 There are   136 symmetry adapted basis functions of A'  symmetry.
 There are    71 symmetry adapted basis functions of A"  symmetry.
   207 basis functions,   315 primitive gaussians,   245 cartesian basis functions
    16 alpha electrons       16 beta electrons
       nuclear repulsion energy       116.6620392537 Hartrees.
 IExCor=    0 DFT=F Ex=HF Corr=None ExCW=0 ScaHFX=  1.000000
 ScaDFX=  1.000000  1.000000  1.000000  1.000000 ScalE2=  1.000000  1.000000
 IRadAn=      5 IRanWt=     -1 IRanGd=            0 ICorTp=0 IEmpDi=  4
 NAtoms=    5 NActive=    5 NUniq=    5 SFac= 1.00D+00 NAtFMM=   60 NAOKFM=F Big=F
 Integral buffers will be    131072 words long.
 Raffenetti 1 integral format.
 Two-electron integral symmetry is turned on.
 Leave Link  301 at Mon Feb 21 20:51:38 2022, MaxMem= 16106127360 cpu:               2.2 elap:               0.1
 (Enter /sw/contrib/gaussian/g16/B01/g16/l302.exe)
 NPDir=0 NMtPBC=     1 NCelOv=     1 NCel=       1 NClECP=     1 NCelD=      1
         NCelK=      1 NCelE2=     1 NClLst=     1 CellRange=     0.0.
 One-electron integrals computed using PRISM.
 One-electron integral symmetry used in STVInt
 NBasis=   207 RedAO= T EigKep=  1.82D-04  NBF=   136    71
 NBsUse=   207 1.00D-06 EigRej= -1.00D+00 NBFU=   136    71
 Leave Link  302 at Mon Feb 21 20:51:38 2022, MaxMem= 16106127360 cpu:               5.5 elap:               0.2
 (Enter /sw/contrib/gaussian/g16/B01/g16/l303.exe)
 DipDrv:  MaxL=1.
 Leave Link  303 at Mon Feb 21 20:51:38 2022, MaxMem= 16106127360 cpu:               0.8 elap:               0.1
 (Enter /sw/contrib/gaussian/g16/B01/g16/l401.exe)
 ExpMin= 2.53D-02 ExpMax= 1.53D+04 ExpMxC= 5.22D+02 IAcc=3 IRadAn=         5 AccDes= 0.00D+00
 Harris functional with IExCor=  205 and IRadAn=       5 diagonalized for initial guess.
 HarFok:  IExCor=  205 AccDes= 0.00D+00 IRadAn=         5 IDoV= 1 UseB2=F ITyADJ=14
 ICtDFT=  3500011 ScaDFX=  1.000000  1.000000  1.000000  1.000000
 FoFCou: FMM=F IPFlag=           0 FMFlag=      100000 FMFlg1=           0
         NFxFlg=           0 DoJE=T BraDBF=F KetDBF=T FulRan=T
         wScrn=  0.000000 ICntrl=       500 IOpCl=  0 I1Cent=   200000004 NGrid=           0
         NMat0=    1 NMatS0=      1 NMatT0=    0 NMatD0=    1 NMtDS0=    0 NMtDT0=    0
 Petite list used in FoFCou.
 Harris En= -279.628483785317    
 JPrj=0 DoOrth=F DoCkMO=F.
 Initial guess orbital symmetries:
       Occupied  (A') (A') (A') (A') (A') (A') (A') (A') (A') (A')
                 (A") (A') (A') (A") (A") (A')
       Virtual   (A") (A') (A') (A') (A') (A') (A") (A') (A') (A')
                 (A") (A') (A") (A') (A') (A") (A') (A") (A') (A')
                 (A') (A') (A') (A') (A') (A") (A') (A") (A') (A')
                 (A") (A') (A") (A') (A') (A") (A') (A") (A') (A')
                 (A") (A') (A") (A') (A") (A') (A') (A') (A") (A")
                 (A') (A') (A') (A') (A") (A') (A") (A') (A") (A')
                 (A') (A') (A") (A') (A') (A") (A') (A") (A') (A')
                 (A") (A') (A') (A") (A") (A') (A') (A") (A') (A')
                 (A') (A") (A') (A") (A') (A") (A') (A") (A') (A')
                 (A') (A") (A') (A") (A') (A") (A") (A') (A') (A")
                 (A') (A') (A") (A') (A') (A') (A") (A') (A") (A')
                 (A") (A') (A') (A') (A") (A') (A') (A') (A") (A')
                 (A") (A') (A') (A") (A") (A') (A') (A") (A") (A')
                 (A') (A') (A') (A") (A") (A') (A") (A') (A') (A')
                 (A') (A") (A") (A') (A') (A") (A') (A') (A') (A')
                 (A") (A') (A') (A") (A') (A") (A') (A") (A") (A')
                 (A') (A") (A') (A") (A') (A") (A") (A") (A') (A')
                 (A") (A') (A") (A') (A") (A') (A") (A") (A') (A')
                 (A') (A') (A') (A') (A') (A') (A') (A') (A') (A')
                 (A')
 The electronic state of the initial guess is 1-A'.
 Leave Link  401 at Mon Feb 21 20:51:39 2022, MaxMem= 16106127360 cpu:               6.9 elap:               0.3
 (Enter /sw/contrib/gaussian/g16/B01/g16/l502.exe)
 Keep R1 ints in memory in symmetry-blocked form, NReq=348887737.
 FoFCou: FMM=F IPFlag=           0 FMFlag=           0 FMFlg1=           0
         NFxFlg=           0 DoJE=F BraDBF=F KetDBF=F FulRan=T
         wScrn=  0.000000 ICntrl=       600 IOpCl=  0 I1Cent=           0 NGrid=           0
         NMat0=    1 NMatS0=  21528 NMatT0=    0 NMatD0=    1 NMtDS0=    0 NMtDT0=    0
 Petite list used in FoFCou.
 Closed shell SCF:
 Using DIIS extrapolation, IDIIS=  1040.
 NGot= 16106127360 LenX= 15988850015 LenY= 15988789549
 Requested convergence on RMS density matrix=1.00D-08 within 128 cycles.
 Requested convergence on MAX density matrix=1.00D-06.
 Requested convergence on             energy=1.00D-06.
 No special actions if energy rises.

 Cycle   1  Pass 1  IDiag  1:
 E= -279.370644321189    
 DIIS: error= 2.94D-02 at cycle   1 NSaved=   1.
 NSaved= 1 IEnMin= 1 EnMin= -279.370644321189     IErMin= 1 ErrMin= 2.94D-02
 ErrMax= 2.94D-02  0.00D+00 EMaxC= 1.00D-01 BMatC= 4.37D-01 BMatP= 4.37D-01
 IDIUse=3 WtCom= 7.06D-01 WtEn= 2.94D-01
 Coeff-Com:  0.100D+01
 Coeff-En:   0.100D+01
 Coeff:      0.100D+01
 Gap=     0.516 Goal=   None    Shift=    0.000
 GapD=    0.516 DampG=2.000 DampE=0.500 DampFc=1.0000 IDamp=-1.
 RMSDP=1.61D-03 MaxDP=9.71D-02              OVMax= 1.12D-01

 Cycle   2  Pass 1  IDiag  1:
 E= -279.452183343995     Delta-E=       -0.081539022806 Rises=F Damp=F
 DIIS: error= 1.76D-02 at cycle   2 NSaved=   2.
 NSaved= 2 IEnMin= 2 EnMin= -279.452183343995     IErMin= 2 ErrMin= 1.76D-02
 ErrMax= 1.76D-02  0.00D+00 EMaxC= 1.00D-01 BMatC= 7.15D-02 BMatP= 4.37D-01
 IDIUse=3 WtCom= 8.24D-01 WtEn= 1.76D-01
 Coeff-Com:  0.194D+00 0.806D+00
 Coeff-En:   0.000D+00 0.100D+01
 Coeff:      0.160D+00 0.840D+00
 Gap=     0.526 Goal=   None    Shift=    0.000
 RMSDP=9.01D-04 MaxDP=3.70D-02 DE=-8.15D-02 OVMax= 6.90D-02

 Cycle   3  Pass 1  IDiag  1:
 E= -279.480958883591     Delta-E=       -0.028775539596 Rises=F Damp=F
 DIIS: error= 1.02D-02 at cycle   3 NSaved=   3.
 NSaved= 3 IEnMin= 3 EnMin= -279.480958883591     IErMin= 3 ErrMin= 1.02D-02
 ErrMax= 1.02D-02  0.00D+00 EMaxC= 1.00D-01 BMatC= 2.90D-02 BMatP= 7.15D-02
 IDIUse=3 WtCom= 8.98D-01 WtEn= 1.02D-01
 Coeff-Com: -0.331D-01 0.380D+00 0.653D+00
 Coeff-En:   0.000D+00 0.245D+00 0.755D+00
 Coeff:     -0.297D-01 0.366D+00 0.663D+00
 Gap=     0.508 Goal=   None    Shift=    0.000
 RMSDP=3.77D-04 MaxDP=1.51D-02 DE=-2.88D-02 OVMax= 3.83D-02

 Cycle   4  Pass 1  IDiag  1:
 E= -279.500246332401     Delta-E=       -0.019287448811 Rises=F Damp=F
 DIIS: error= 1.31D-03 at cycle   4 NSaved=   4.
 NSaved= 4 IEnMin= 4 EnMin= -279.500246332401     IErMin= 4 ErrMin= 1.31D-03
 ErrMax= 1.31D-03  0.00D+00 EMaxC= 1.00D-01 BMatC= 4.89D-04 BMatP= 2.90D-02
 IDIUse=3 WtCom= 9.87D-01 WtEn= 1.31D-02
 Coeff-Com: -0.117D-01 0.578D-01 0.157D+00 0.797D+00
 Coeff-En:   0.000D+00 0.000D+00 0.000D+00 0.100D+01
 Coeff:     -0.115D-01 0.571D-01 0.155D+00 0.800D+00
 Gap=     0.500 Goal=   None    Shift=    0.000
 RMSDP=9.08D-05 MaxDP=2.80D-03 DE=-1.93D-02 OVMax= 1.12D-02

 Cycle   5  Pass 1  IDiag  1:
 E= -279.500921367805     Delta-E=       -0.000675035404 Rises=F Damp=F
 DIIS: error= 7.44D-04 at cycle   5 NSaved=   5.
 NSaved= 5 IEnMin= 5 EnMin= -279.500921367805     IErMin= 5 ErrMin= 7.44D-04
 ErrMax= 7.44D-04  0.00D+00 EMaxC= 1.00D-01 BMatC= 8.76D-05 BMatP= 4.89D-04
 IDIUse=3 WtCom= 9.93D-01 WtEn= 7.44D-03
 Coeff-Com:  0.607D-02-0.721D-01-0.117D+00 0.246D-01 0.116D+01
 Coeff-En:   0.000D+00 0.000D+00 0.000D+00 0.000D+00 0.100D+01
 Coeff:      0.603D-02-0.716D-01-0.116D+00 0.244D-01 0.116D+01
 Gap=     0.500 Goal=   None    Shift=    0.000
 RMSDP=7.60D-05 MaxDP=2.09D-03 DE=-6.75D-04 OVMax= 1.10D-02

 Cycle   6  Pass 1  IDiag  1:
 E= -279.501236522971     Delta-E=       -0.000315155165 Rises=F Damp=F
 DIIS: error= 2.96D-04 at cycle   6 NSaved=   6.
 NSaved= 6 IEnMin= 6 EnMin= -279.501236522971     IErMin= 6 ErrMin= 2.96D-04
 ErrMax= 2.96D-04  0.00D+00 EMaxC= 1.00D-01 BMatC= 1.68D-05 BMatP= 8.76D-05
 IDIUse=3 WtCom= 9.97D-01 WtEn= 2.96D-03
 Coeff-Com:  0.642D-03 0.111D-02 0.356D-02-0.131D+00-0.226D+00 0.135D+01
 Coeff-En:   0.000D+00 0.000D+00 0.000D+00 0.000D+00 0.000D+00 0.100D+01
 Coeff:      0.640D-03 0.111D-02 0.355D-02-0.130D+00-0.225D+00 0.135D+01
 Gap=     0.500 Goal=   None    Shift=    0.000
 RMSDP=4.57D-05 MaxDP=1.27D-03 DE=-3.15D-04 OVMax= 5.55D-03

 Cycle   7  Pass 1  IDiag  1:
 E= -279.501310234689     Delta-E=       -0.000073711718 Rises=F Damp=F
 DIIS: error= 1.24D-04 at cycle   7 NSaved=   7.
 NSaved= 7 IEnMin= 7 EnMin= -279.501310234689     IErMin= 7 ErrMin= 1.24D-04
 ErrMax= 1.24D-04  0.00D+00 EMaxC= 1.00D-01 BMatC= 4.68D-06 BMatP= 1.68D-05
 IDIUse=3 WtCom= 9.99D-01 WtEn= 1.24D-03
 Coeff-Com: -0.940D-03 0.137D-01 0.265D-01-0.255D-01-0.292D+00 0.401D+00
 Coeff-Com:  0.877D+00
 Coeff-En:   0.000D+00 0.000D+00 0.000D+00 0.000D+00 0.000D+00 0.000D+00
 Coeff-En:   0.100D+01
 Coeff:     -0.939D-03 0.137D-01 0.265D-01-0.255D-01-0.291D+00 0.401D+00
 Coeff:      0.877D+00
 Gap=     0.500 Goal=   None    Shift=    0.000
 RMSDP=1.35D-05 MaxDP=3.88D-04 DE=-7.37D-05 OVMax= 1.56D-03

 Cycle   8  Pass 1  IDiag  1:
 E= -279.501319426259     Delta-E=       -0.000009191570 Rises=F Damp=F
 DIIS: error= 5.94D-05 at cycle   8 NSaved=   8.
 NSaved= 8 IEnMin= 8 EnMin= -279.501319426259     IErMin= 8 ErrMin= 5.94D-05
 ErrMax= 5.94D-05  0.00D+00 EMaxC= 1.00D-01 BMatC= 6.10D-07 BMatP= 4.68D-06
 IDIUse=1 WtCom= 1.00D+00 WtEn= 0.00D+00
 Coeff-Com: -0.451D-03 0.349D-02 0.760D-02 0.278D-01-0.416D-01-0.196D+00
 Coeff-Com:  0.159D+00 0.104D+01
 Coeff:     -0.451D-03 0.349D-02 0.760D-02 0.278D-01-0.416D-01-0.196D+00
 Coeff:      0.159D+00 0.104D+01
 Gap=     0.500 Goal=   None    Shift=    0.000
 RMSDP=7.05D-06 MaxDP=2.04D-04 DE=-9.19D-06 OVMax= 7.70D-04

 Cycle   9  Pass 1  IDiag  1:
 E= -279.501321247810     Delta-E=       -0.000001821552 Rises=F Damp=F
 DIIS: error= 1.52D-05 at cycle   9 NSaved=   9.
 NSaved= 9 IEnMin= 9 EnMin= -279.501321247810     IErMin= 9 ErrMin= 1.52D-05
 ErrMax= 1.52D-05  0.00D+00 EMaxC= 1.00D-01 BMatC= 6.88D-08 BMatP= 6.10D-07
 IDIUse=1 WtCom= 1.00D+00 WtEn= 0.00D+00
 Coeff-Com:  0.121D-03-0.171D-02-0.303D-02-0.195D-02 0.340D-01-0.368D-03
 Coeff-Com: -0.162D+00-0.107D+00 0.124D+01
 Coeff:      0.121D-03-0.171D-02-0.303D-02-0.195D-02 0.340D-01-0.368D-03
 Coeff:     -0.162D+00-0.107D+00 0.124D+01
 Gap=     0.500 Goal=   None    Shift=    0.000
 RMSDP=1.95D-06 MaxDP=6.60D-05 DE=-1.82D-06 OVMax= 1.76D-04

 Cycle  10  Pass 1  IDiag  1:
 E= -279.501321408870     Delta-E=       -0.000000161060 Rises=F Damp=F
 DIIS: error= 4.14D-06 at cycle  10 NSaved=  10.
 NSaved=10 IEnMin=10 EnMin= -279.501321408870     IErMin=10 ErrMin= 4.14D-06
 ErrMax= 4.14D-06  0.00D+00 EMaxC= 1.00D-01 BMatC= 5.66D-09 BMatP= 6.88D-08
 IDIUse=1 WtCom= 1.00D+00 WtEn= 0.00D+00
 Coeff-Com:  0.319D-04-0.253D-03-0.335D-03-0.275D-02 0.174D-02 0.197D-01
 Coeff-Com: -0.127D-01-0.759D-01-0.788D-01 0.115D+01
 Coeff:      0.319D-04-0.253D-03-0.335D-03-0.275D-02 0.174D-02 0.197D-01
 Coeff:     -0.127D-01-0.759D-01-0.788D-01 0.115D+01
 Gap=     0.500 Goal=   None    Shift=    0.000
 RMSDP=5.17D-07 MaxDP=2.12D-05 DE=-1.61D-07 OVMax= 4.26D-05

 Cycle  11  Pass 1  IDiag  1:
 E= -279.501321421702     Delta-E=       -0.000000012832 Rises=F Damp=F
 DIIS: error= 2.06D-06 at cycle  11 NSaved=  11.
 NSaved=11 IEnMin=11 EnMin= -279.501321421702     IErMin=11 ErrMin= 2.06D-06
 ErrMax= 2.06D-06  0.00D+00 EMaxC= 1.00D-01 BMatC= 6.73D-10 BMatP= 5.66D-09
 IDIUse=1 WtCom= 1.00D+00 WtEn= 0.00D+00
 Coeff-Com: -0.213D-04 0.245D-03 0.486D-03 0.541D-03-0.430D-02-0.356D-02
 Coeff-Com:  0.204D-01 0.322D-01-0.139D+00-0.183D+00 0.128D+01
 Coeff:     -0.213D-04 0.245D-03 0.486D-03 0.541D-03-0.430D-02-0.356D-02
 Coeff:      0.204D-01 0.322D-01-0.139D+00-0.183D+00 0.128D+01
 Gap=     0.500 Goal=   None    Shift=    0.000
 RMSDP=1.82D-07 MaxDP=6.84D-06 DE=-1.28D-08 OVMax= 1.74D-05

 Cycle  12  Pass 1  IDiag  1:
 E= -279.501321423551     Delta-E=       -0.000000001849 Rises=F Damp=F
 DIIS: error= 6.04D-07 at cycle  12 NSaved=  12.
 NSaved=12 IEnMin=12 EnMin= -279.501321423551     IErMin=12 ErrMin= 6.04D-07
 ErrMax= 6.04D-07  0.00D+00 EMaxC= 1.00D-01 BMatC= 7.25D-11 BMatP= 6.73D-10
 IDIUse=1 WtCom= 1.00D+00 WtEn= 0.00D+00
 Coeff-Com:  0.121D-05-0.291D-04-0.623D-04 0.185D-03 0.108D-02-0.227D-02
 Coeff-Com: -0.413D-02 0.536D-02 0.420D-01-0.111D+00-0.284D+00 0.135D+01
 Coeff:      0.121D-05-0.291D-04-0.623D-04 0.185D-03 0.108D-02-0.227D-02
 Coeff:     -0.413D-02 0.536D-02 0.420D-01-0.111D+00-0.284D+00 0.135D+01
 Gap=     0.500 Goal=   None    Shift=    0.000
 RMSDP=7.25D-08 MaxDP=2.97D-06 DE=-1.85D-09 OVMax= 6.67D-06

 Cycle  13  Pass 1  IDiag  1:
 E= -279.501321423783     Delta-E=       -0.000000000232 Rises=F Damp=F
 DIIS: error= 1.74D-07 at cycle  13 NSaved=  13.
 NSaved=13 IEnMin=13 EnMin= -279.501321423783     IErMin=13 ErrMin= 1.74D-07
 ErrMax= 1.74D-07  0.00D+00 EMaxC= 1.00D-01 BMatC= 4.13D-12 BMatP= 7.25D-11
 IDIUse=1 WtCom= 1.00D+00 WtEn= 0.00D+00
 Coeff-Com:  0.128D-05-0.139D-04-0.221D-04-0.913D-04 0.117D-03 0.768D-03
 Coeff-Com: -0.779D-03-0.332D-02 0.311D-03 0.413D-01-0.337D-01-0.333D+00
 Coeff-Com:  0.133D+01
 Coeff:      0.128D-05-0.139D-04-0.221D-04-0.913D-04 0.117D-03 0.768D-03
 Coeff:     -0.779D-03-0.332D-02 0.311D-03 0.413D-01-0.337D-01-0.333D+00
 Coeff:      0.133D+01
 Gap=     0.500 Goal=   None    Shift=    0.000
 RMSDP=1.94D-08 MaxDP=5.65D-07 DE=-2.32D-10 OVMax= 1.58D-06

 Cycle  14  Pass 1  IDiag  1:
 E= -279.501321423796     Delta-E=       -0.000000000013 Rises=F Damp=F
 DIIS: error= 2.45D-08 at cycle  14 NSaved=  14.
 NSaved=14 IEnMin=14 EnMin= -279.501321423796     IErMin=14 ErrMin= 2.45D-08
 ErrMax= 2.45D-08  0.00D+00 EMaxC= 1.00D-01 BMatC= 2.04D-13 BMatP= 4.13D-12
 IDIUse=1 WtCom= 1.00D+00 WtEn= 0.00D+00
 Coeff-Com: -0.194D-06 0.319D-05 0.560D-05 0.480D-05-0.832D-04 0.428D-04
 Coeff-Com:  0.278D-03 0.245D-03-0.244D-02 0.124D-02 0.171D-01-0.246D-01
 Coeff-Com: -0.204D+00 0.121D+01
 Coeff:     -0.194D-06 0.319D-05 0.560D-05 0.480D-05-0.832D-04 0.428D-04
 Coeff:      0.278D-03 0.245D-03-0.244D-02 0.124D-02 0.171D-01-0.246D-01
 Coeff:     -0.204D+00 0.121D+01
 Gap=     0.500 Goal=   None    Shift=    0.000
 RMSDP=3.88D-09 MaxDP=9.37D-08 DE=-1.30D-11 OVMax= 3.50D-07

 SCF Done:  E(RHF) =  -279.501321424     A.U. after   14 cycles
            NFock= 14  Conv=0.39D-08     -V/T= 2.0024
 KE= 2.788340543518D+02 PE=-8.946311710507D+02 EE= 2.196337560214D+02
 Leave Link  502 at Mon Feb 21 20:51:42 2022, MaxMem= 16106127360 cpu:              59.0 elap:               3.7
 (Enter /sw/contrib/gaussian/g16/B01/g16/l801.exe)
 ExpMin= 2.53D-02 ExpMax= 1.53D+04 ExpMxC= 5.22D+02 IAcc=3 IRadAn=         5 AccDes= 0.00D+00
 HarFok:  IExCor=  205 AccDes= 0.00D+00 IRadAn=         5 IDoV=-2 UseB2=F ITyADJ=14
 ICtDFT= 12500011 ScaDFX=  1.000000  1.000000  1.000000  1.000000
 Largest valence mixing into a core orbital is  2.08D-04
 Largest core mixing into a valence orbital is  3.61D-05
 Range of M.O.s used for correlation:     5   207
 NBasis=   207 NAE=    16 NBE=    16 NFC=     4 NFV=     0
 NROrb=    203 NOA=    12 NOB=    12 NVA=   191 NVB=   191

 **** Warning!!: The largest alpha MO coefficient is  0.17776090D+02

 Leave Link  801 at Mon Feb 21 20:51:43 2022, MaxMem= 16106127360 cpu:               2.8 elap:               0.1
 (Enter /sw/contrib/gaussian/g16/B01/g16/l906.exe)
 Frozen-core derivative calculation, NFC=   4 NFV=   0.
 FulOut=F Deriv=T AODrv=T NAtomX=     5
   MMem=           0  MDisk=          12 MDiskD=          12
  W3Min=      811440 MinDsk=     2425030 NBas6D=         245
 NBas2D=       30762    NTT=       30135    LW2=     7400000
    MDV= 16105574311 MDiskM=      328644 NBas2p=       30702
 Disk-based method using ON**2 memory for 12 occupieds at a time.
 Permanent disk used for amplitudes=    11516536 words.
 Estimated scratch disk usage=   321251614 words.
 IMap=   1   2   3   4   5   6   7   8   9  10  11  12  13  14  15  16
 Actual    scratch disk usage=   310331678 words.
 JobTyp=1 Pass  1:  I=   5 to  16 NPSUse= 28 ParTrn=T ParDer=T DoDerP=T.
 (rs|ai) integrals will be sorted in core.
 Spin components of T(2) and E(2):
     alpha-alpha T2 =       0.3406874892D-01 E2=     -0.1224407203D+00
     alpha-beta  T2 =       0.1869506042D+00 E2=     -0.7003062590D+00
     beta-beta   T2 =       0.3406874892D-01 E2=     -0.1224407203D+00
 The integrals were generated   1 times.
 ANorm=    0.1120307146D+01
 E2 =    -0.9451876996D+00 EUMP2 =    -0.28044650912335D+03
 Leave Link  906 at Mon Feb 21 20:53:19 2022, MaxMem= 16106127360 cpu:            2701.5 elap:              96.6
 (Enter /sw/contrib/gaussian/g16/B01/g16/l1101.exe)
 Using compressed Sx but separate Hx and Fx, NAtomX=     5.
 Will process      6 centers per pass.
 Leave Link 1101 at Mon Feb 21 20:53:19 2022, MaxMem= 16106127360 cpu:               5.2 elap:               0.2
 (Enter /sw/contrib/gaussian/g16/B01/g16/l1102.exe)
 Leave Link 1102 at Mon Feb 21 20:53:20 2022, MaxMem= 16106127360 cpu:               0.5 elap:               0.0
 (Enter /sw/contrib/gaussian/g16/B01/g16/l1110.exe)
 Forming Gx(P) for the SCF density, NAtomX=     5.
 Integral derivatives from FoFJK, PRISM(SPDF).
 Do as many integral derivatives as possible in FoFJK.
 G2DrvN: MDV=   16106126844.
 G2DrvN: will do     6 centers at a time, making    1 passes.
 Calling FoFCou, ICntrl=  3107 FMM=F I1Cent=   0 AccDes= 0.00D+00.
 FoFJK:  IHMeth= 1 ICntrl=    3107 DoSepK=F KAlg= 0 I1Cent=           0 FoldK=F
 IRaf=         0 NMat=       1 IRICut=       1 DoRegI=T DoRafI=F ISym2E= 1 IDoP0=0 IntGTp=1.
 FoFCou: FMM=F IPFlag=           0 FMFlag=      100000 FMFlg1=           0
         NFxFlg=           0 DoJE=F BraDBF=F KetDBF=F FulRan=T
         wScrn=  0.000000 ICntrl=      3107 IOpCl=  0 I1Cent=           0 NGrid=           0
         NMat0=    1 NMatS0=      1 NMatT0=    0 NMatD0=    1 NMtDS0=    0 NMtDT0=    0
 Petite list used in FoFCou.
 End of G2Drv F.D. properties file   721 does not exist.
 End of G2Drv F.D. properties file   722 does not exist.
 End of G2Drv F.D. properties file   788 does not exist.
 Leave Link 1110 at Mon Feb 21 20:53:23 2022, MaxMem= 16106127360 cpu:              84.4 elap:               3.0
 (Enter /sw/contrib/gaussian/g16/B01/g16/l1002.exe)
 Minotr:  Closed shell wavefunction.
          IDoAtm=11111
          Frozen-core window.
          Direct CPHF calculation.
          Differentiating once with respect to electric field.
                with respect to dipole field.
          Differentiating once with respect to nuclear coordinates.
          Requested convergence is 1.0D-08 RMS, and 1.0D-07 maximum.
          Secondary convergence is 1.0D-12 RMS, and 1.0D-12 maximum.
          NewPWx=T KeepS1=T KeepF1=T KeepIn=T MapXYZ=F SortEE=F KeepMc=T.
 Keep R1 ints in memory in symmetry-blocked form, NReq=348888983.
 FoFCou: FMM=F IPFlag=           0 FMFlag=           0 FMFlg1=           0
         NFxFlg=           0 DoJE=F BraDBF=F KetDBF=F FulRan=T
         wScrn=  0.000000 ICntrl=       600 IOpCl=  0 I1Cent=           0 NGrid=           0
         NMat0=    1 NMatS0=  21528 NMatT0=    0 NMatD0=    1 NMtDS0=    0 NMtDT0=    0
 Petite list used in FoFCou.
          MDV=   16106127360 using IRadAn=       1.
          Solving linear equations simultaneously, MaxMat=       0.
          There are    18 degrees of freedom in the 1st order CPHF.  IDoFFX=6 NUNeed=    18.
     15 vectors produced by pass  0 Test12= 1.70D-14 5.56D-09 XBig12= 8.27D+00 1.03D+00.
 AX will form    15 AO Fock derivatives at one time.
     15 vectors produced by pass  1 Test12= 1.70D-14 5.56D-09 XBig12= 1.33D+00 2.61D-01.
     15 vectors produced by pass  2 Test12= 1.70D-14 5.56D-09 XBig12= 1.41D-01 9.67D-02.
     15 vectors produced by pass  3 Test12= 1.70D-14 5.56D-09 XBig12= 4.95D-03 1.11D-02.
     15 vectors produced by pass  4 Test12= 1.70D-14 5.56D-09 XBig12= 9.84D-05 1.85D-03.
     15 vectors produced by pass  5 Test12= 1.70D-14 5.56D-09 XBig12= 1.37D-06 1.64D-04.
     15 vectors produced by pass  6 Test12= 1.70D-14 5.56D-09 XBig12= 1.06D-08 1.44D-05.
     13 vectors produced by pass  7 Test12= 1.70D-14 5.56D-09 XBig12= 7.83D-11 1.25D-06.
      3 vectors produced by pass  8 Test12= 1.70D-14 5.56D-09 XBig12= 5.45D-13 1.21D-07.
      2 vectors produced by pass  9 Test12= 1.70D-14 5.56D-09 XBig12= 3.60D-15 9.76D-09.
 InvSVY:  IOpt=1 It=  1 EMax= 1.33D-15
 Solved reduced A of dimension   123 with    15 vectors.
 FullF1:  Do perturbations      1 to      18.
 Saving first derivative matrices.
 End of Minotr F.D. properties file   721 does not exist.
 End of Minotr F.D. properties file   722 does not exist.
 End of Minotr F.D. properties file   788 does not exist.
 Leave Link 1002 at Mon Feb 21 20:53:25 2022, MaxMem= 16106127360 cpu:              80.1 elap:               2.9
 (Enter /sw/contrib/gaussian/g16/B01/g16/l811.exe)
 MDV= 16106127360.
 Form MO integral derivatives with frozen-active canonical formalism.
 MOERI=1 MOERIx=1 NAtoms=     5 NAtomX=     5.
 Discarding MO integrals.
 MO basis two electron integral derivatives will not be stored on disk.
 IAlg= 3 DoFC=T DoPWx=T Debug=F.
 Frozen-core window:  NFC=   4 NFV=   0.
 Reordered first order wavefunction length =     18678272
 In DefCFB: NBatch=  1 ICI= 16 ICA=191 LFMax= 96
            Large arrays: LIAPS=   619940160 LIARS=   288257200 words.
 In StABat: MaxSiz= 55 MinSiz= 25 NAtomB=  5
 DoIAMN: NPSUse= 28.
 Leave Link  811 at Mon Feb 21 20:54:46 2022, MaxMem= 16106127360 cpu:            2251.7 elap:              80.6
 (Enter /sw/contrib/gaussian/g16/B01/g16/l804.exe)
 Frozen-core window:  NFC=   4 NFV=   0.
 Closed-shell transformation, MDV= 16106127360 ITran=4 ISComp=1.
 Semi-Direct transformation.
 ModeAB=           2 MOrb=            16 LenV=   16104923079
 LASXX=     67341636 LTotXX=    67341636 LenRXX=    67341636
 LTotAB=    68301760 MaxLAS=    99807120 LenRXY=    99807120
 NonZer=   134683272 LenScr=   202817536 LnRSAI=           0
 LnScr1=           0 LExtra=           0 Total=    369966292
 MaxDsk=          -1 SrtSym=           F ITran=            4
 DoSDTr:  NPSUse= 28
 JobTyp=0 Pass  1:  I=   1 to  16.
 (rs|ai) integrals will be sorted in core.
 Complete sort for first half transformation.
 First half transformation complete.
 Begin second half transformation for I=  10.
 Begin second half transformation for I=  10.
 Complete sort for second half transformation.
 Second half transformation complete.
 Spin components of T(2) and E(2):
     alpha-alpha T2 =       0.3406874892D-01 E2=     -0.1224407203D+00
     alpha-beta  T2 =       0.1869506042D+00 E2=     -0.7003062590D+00
     beta-beta   T2 =       0.3406874892D-01 E2=     -0.1224407203D+00
 ANorm=    0.1584353560D+01
 E2 =    -0.9451876996D+00 EUMP2 =    -0.28044650912335D+03
 Leave Link  804 at Mon Feb 21 20:55:03 2022, MaxMem= 16106127360 cpu:             473.1 elap:              17.0
 (Enter /sw/contrib/gaussian/g16/B01/g16/l1002.exe)
 Minotr:  Closed shell wavefunction.
          Computing MP2/KS-MP2 derivatives.
          Using Z-Vector for PSCF gradient.
          Skipping F1 and S1 gradient terms here.
          IDoAtm=11111
          Frozen-core window.
          Using MO integrals in the linear equations.
          Forming densities via direct SCF.
          Differentiating once with respect to electric field.
                with respect to dipole field.
          Differentiating once with respect to nuclear coordinates.
          Using symmetry in CPHF.
          Requested convergence is 1.0D-10 RMS, and 1.0D-09 maximum.
          NewPWx=F KeepS1=T KeepF1=T KeepIn=T MapXYZ=F SortEE=F KeepMc=T.
          MDV=   16106127360 using IRadAn=       5.
          Solving linear equations separately, MaxMat=       0.
          There are     1 degrees of freedom in the 1st order CPHF.  IDoFFX=0 NUNeed=     1.
 FoFJK:  IHMeth= 1 ICntrl=       0 DoSepK=F KAlg= 0 I1Cent=           0 FoldK=F
 IRaf=         0 NMat=       1 IRICut=       1 DoRegI=T DoRafI=F ISym2E= 0 IDoP0=0 IntGTp=1.
 FoFCou: FMM=F IPFlag=           0 FMFlag=      100000 FMFlg1=           0
         NFxFlg=           0 DoJE=F BraDBF=F KetDBF=F FulRan=T
         wScrn=  0.000000 ICntrl=         0 IOpCl=  0 I1Cent=           0 NGrid=           0
         NMat0=    1 NMatS0=      1 NMatT0=    0 NMatD0=    1 NMtDS0=    0 NMtDT0=    0
 Symmetry not used in FoFCou.
 LinEq1:  Iter=  0 NonCon=     1 RMS=5.99D-03 Max=1.34D-01 NDo=     1
 LinEq1:  Iter=  1 NonCon=     1 RMS=1.92D-03 Max=3.85D-02 NDo=     1
 LinEq1:  Iter=  2 NonCon=     1 RMS=8.75D-04 Max=1.41D-02 NDo=     1
 LinEq1:  Iter=  3 NonCon=     1 RMS=3.89D-04 Max=7.83D-03 NDo=     1
 LinEq1:  Iter=  4 NonCon=     1 RMS=1.21D-04 Max=1.96D-03 NDo=     1
 LinEq1:  Iter=  5 NonCon=     1 RMS=4.79D-05 Max=7.64D-04 NDo=     1
 LinEq1:  Iter=  6 NonCon=     1 RMS=2.12D-05 Max=2.39D-04 NDo=     1
 LinEq1:  Iter=  7 NonCon=     1 RMS=8.42D-06 Max=1.58D-04 NDo=     1
 LinEq1:  Iter=  8 NonCon=     1 RMS=3.54D-06 Max=3.46D-05 NDo=     1
 LinEq1:  Iter=  9 NonCon=     1 RMS=9.50D-07 Max=1.32D-05 NDo=     1
 LinEq1:  Iter= 10 NonCon=     1 RMS=1.86D-07 Max=2.01D-06 NDo=     1
 LinEq1:  Iter= 11 NonCon=     1 RMS=3.44D-08 Max=3.50D-07 NDo=     1
 LinEq1:  Iter= 12 NonCon=     1 RMS=8.32D-09 Max=1.23D-07 NDo=     1
 LinEq1:  Iter= 13 NonCon=     1 RMS=1.51D-09 Max=2.58D-08 NDo=     1
 LinEq1:  Iter= 14 NonCon=     1 RMS=2.74D-10 Max=3.83D-09 NDo=     1
 LinEq1:  Iter= 15 NonCon=     0 RMS=4.84D-11 Max=5.61D-10 NDo=     1
 Linear equations converged to 1.000D-10 1.000D-09 after    15 iterations.
 End of Minotr F.D. properties file   721 does not exist.
 End of Minotr F.D. properties file   722 does not exist.
 End of Minotr F.D. properties file   788 does not exist.
 Leave Link 1002 at Mon Feb 21 20:55:06 2022, MaxMem= 16106127360 cpu:              71.5 elap:               2.6
 (Enter /sw/contrib/gaussian/g16/B01/g16/l1102.exe)
 Use density number 2.
 Symmetrizing basis deriv contribution to polar:
 IMax=3 JMax=2 DiffMx= 0.00D+00
 Leave Link 1102 at Mon Feb 21 20:55:06 2022, MaxMem= 16106127360 cpu:               1.2 elap:               0.1
 (Enter /sw/contrib/gaussian/g16/B01/g16/l1110.exe)
 Forming Gx(P) for generalized density number  2 NAtomX=     5.
 Integral derivatives from FoFJK, PRISM(SPDF).
 Do as many integral derivatives as possible in FoFJK.
 G2DrvN: MDV=   16106126844.
 G2DrvN: will do     6 centers at a time, making    1 passes.
 Calling FoFCou, ICntrl=  3107 FMM=F I1Cent=   0 AccDes= 0.00D+00.
 FoFJK:  IHMeth= 1 ICntrl=    3107 DoSepK=F KAlg= 0 I1Cent=           0 FoldK=F
 IRaf=         0 NMat=       1 IRICut=       1 DoRegI=T DoRafI=F ISym2E= 1 IDoP0=0 IntGTp=1.
 FoFCou: FMM=F IPFlag=           0 FMFlag=      100000 FMFlg1=           0
         NFxFlg=           0 DoJE=F BraDBF=F KetDBF=F FulRan=T
         wScrn=  0.000000 ICntrl=      3107 IOpCl=  0 I1Cent=           0 NGrid=           0
         NMat0=    1 NMatS0=      1 NMatT0=    0 NMatD0=    1 NMtDS0=    0 NMtDT0=    0
 Petite list used in FoFCou.
 End of G2Drv F.D. properties file   721 does not exist.
 End of G2Drv F.D. properties file   722 does not exist.
 End of G2Drv F.D. properties file   788 does not exist.
 Leave Link 1110 at Mon Feb 21 20:55:09 2022, MaxMem= 16106127360 cpu:              83.6 elap:               3.0
 (Enter /sw/contrib/gaussian/g16/B01/g16/l1112.exe)
 MP22nd: MDV=   16106127360
 This link is doing NAtomX=     5 total of    18 degrees of freedom.
 Using ON3 I/O method in MakUI.
 Frozen-core window:  NFC=   4 NFV=   0.
 Using Ix for Sx.
 Use MO integrals over full window.
 Using OV2 memory method for fx*t*t/D, MaxI=    16 DoOO2=F NP=  28.
 R2 and R3 integrals will be kept in memory, NReq=   915591705.
 FoFCou: FMM=F IPFlag=           0 FMFlag=           0 FMFlg1=           0
         NFxFlg=           0 DoJE=F BraDBF=F KetDBF=F FulRan=T
         wScrn=  0.000000 ICntrl=       600 IOpCl=  0 I1Cent=           0 NGrid=           0
         NMat0=    1 NMatS0=      1 NMatT0=    0 NMatD0=    1 NMtDS0=    0 NMtDT0=    0
 Symmetry not used in FoFCou.
 DD1Dir will call FoFMem   1 times, MxPair=       272
 NAB=   136 NAA=     0 NBB=     0.
 Symmetry is being used.
 FoFJK:  IHMeth= 1 ICntrl=       0 DoSepK=F KAlg= 0 I1Cent=           0 FoldK=F
 IRaf=         0 NMat=      18 IRICut=      45 DoRegI=T DoRafI=T ISym2E= 2 IDoP0=3 IntGTp=3.
 Discarding MO integrals.
 Leave Link 1112 at Mon Feb 21 20:55:45 2022, MaxMem= 16106127360 cpu:             991.1 elap:              35.8
 (Enter /sw/contrib/gaussian/g16/B01/g16/l601.exe)
 Copying SCF densities to generalized density rwf, IOpCl= 0 IROHF=0.

 **********************************************************************

            Population analysis using the MP2 Density.

 **********************************************************************

 Orbital symmetries:
       Occupied  (A') (A') (A') (A') (A') (A') (A') (A') (A') (A')
                 (A") (A') (A") (A') (A") (A')
       Virtual   (A') (A") (A') (A') (A') (A") (A') (A') (A") (A')
                 (A") (A') (A') (A') (A") (A') (A') (A") (A') (A')
                 (A') (A') (A') (A') (A") (A') (A') (A") (A') (A')
                 (A") (A') (A") (A') (A') (A") (A') (A') (A") (A')
                 (A") (A') (A") (A') (A') (A") (A') (A') (A") (A')
                 (A") (A') (A') (A') (A") (A') (A") (A') (A") (A')
                 (A') (A') (A") (A') (A') (A") (A') (A") (A') (A')
                 (A") (A') (A") (A') (A") (A') (A') (A") (A') (A')
                 (A') (A") (A') (A") (A') (A") (A') (A") (A') (A')
                 (A") (A') (A') (A") (A') (A") (A') (A") (A') (A')
                 (A") (A') (A") (A') (A') (A") (A') (A') (A") (A')
                 (A") (A') (A') (A') (A") (A') (A') (A') (A") (A')
                 (A") (A') (A") (A') (A') (A") (A") (A') (A") (A')
                 (A') (A') (A') (A") (A") (A") (A') (A') (A') (A')
                 (A") (A') (A") (A') (A') (A") (A') (A') (A') (A')
                 (A") (A') (A') (A") (A') (A") (A') (A") (A') (A")
                 (A') (A") (A') (A') (A") (A") (A") (A') (A") (A')
                 (A") (A') (A") (A') (A") (A') (A") (A") (A') (A')
                 (A') (A') (A') (A') (A') (A') (A') (A') (A') (A')
                 (A')
 The electronic state is 1-A'.
 Alpha  occ. eigenvalues --  -20.69162 -20.68490 -20.66107 -15.81221  -1.62261
 Alpha  occ. eigenvalues --   -1.49701  -1.25580  -0.94762  -0.77370  -0.75861
 Alpha  occ. eigenvalues --   -0.71147  -0.67982  -0.62113  -0.59091  -0.48604
 Alpha  occ. eigenvalues --   -0.47029
 Alpha virt. eigenvalues --    0.02949   0.07241   0.08559   0.10173   0.13405
 Alpha virt. eigenvalues --    0.13406   0.14402   0.15464   0.17807   0.19424
 Alpha virt. eigenvalues --    0.19974   0.20600   0.22080   0.23370   0.23715
 Alpha virt. eigenvalues --    0.26481   0.29471   0.30445   0.31077   0.34284
 Alpha virt. eigenvalues --    0.35000   0.38660   0.42126   0.43107   0.52569
 Alpha virt. eigenvalues --    0.53065   0.55924   0.58341   0.62698   0.63444
 Alpha virt. eigenvalues --    0.67396   0.68412   0.70908   0.71061   0.72466
 Alpha virt. eigenvalues --    0.72988   0.74645   0.78875   0.79119   0.80942
 Alpha virt. eigenvalues --    0.81206   0.82987   0.86830   0.90710   0.92154
 Alpha virt. eigenvalues --    0.92262   0.95680   0.98072   0.98426   1.01578
 Alpha virt. eigenvalues --    1.05224   1.05458   1.08143   1.11851   1.14013
 Alpha virt. eigenvalues --    1.18854   1.22440   1.23185   1.33800   1.34817
 Alpha virt. eigenvalues --    1.38307   1.45083   1.48812   1.51073   1.53938
 Alpha virt. eigenvalues --    1.56514   1.58020   1.61436   1.66320   1.66730
 Alpha virt. eigenvalues --    1.70485   1.79352   1.83365   1.83371   1.87530
 Alpha virt. eigenvalues --    1.91261   1.95532   1.99028   2.01075   2.07320
 Alpha virt. eigenvalues --    2.11829   2.13400   2.14809   2.22230   2.26003
 Alpha virt. eigenvalues --    2.26330   2.28995   2.31415   2.33922   2.38600
 Alpha virt. eigenvalues --    2.42104   2.42853   2.45758   2.46810   2.47585
 Alpha virt. eigenvalues --    2.50245   2.58980   2.59360   2.61531   2.62794
 Alpha virt. eigenvalues --    2.63505   2.66344   2.76305   2.83573   2.86580
 Alpha virt. eigenvalues --    2.87324   2.89469   2.90350   2.96629   3.02210
 Alpha virt. eigenvalues --    3.07419   3.11502   3.20497   3.23138   3.31325
 Alpha virt. eigenvalues --    3.34741   3.50450   3.65065   3.83862   3.84491
 Alpha virt. eigenvalues --    4.14747   4.15673   4.18260   4.25719   4.35658
 Alpha virt. eigenvalues --    4.39278   4.46333   4.51777   4.66948   4.70873
 Alpha virt. eigenvalues --    4.80875   4.81804   4.82645   4.89461   5.02109
 Alpha virt. eigenvalues --    5.07888   5.09793   5.14160   5.18648   5.24002
 Alpha virt. eigenvalues --    5.26893   5.31296   5.32813   5.35975   5.61057
 Alpha virt. eigenvalues --    5.67348   5.74927   5.82941   5.95823   6.16719
 Alpha virt. eigenvalues --    6.30602   6.34050   6.39352   6.49014   6.50065
 Alpha virt. eigenvalues --    6.61187   6.66746   6.69233   6.75643   6.76092
 Alpha virt. eigenvalues --    6.82379   6.90472   7.01254   7.05439   7.05685
 Alpha virt. eigenvalues --    7.08752   7.12658   7.14625   7.18038   7.22401
 Alpha virt. eigenvalues --    7.24048   7.30681   7.32458   7.34861   7.40048
 Alpha virt. eigenvalues --    7.43306   7.48696   7.60589   7.61382   7.63167
 Alpha virt. eigenvalues --    7.65963   7.77846   7.89646   8.09144   8.31393
 Alpha virt. eigenvalues --    8.40914   8.54552  13.37413  14.41449  15.15163
 Alpha virt. eigenvalues --   16.15057
          Condensed to atoms (all electrons):
               1          2          3          4          5
     1  H    0.589410   0.128880   0.019853   0.012258  -0.000699
     2  O    0.128880   8.316601  -0.170606  -0.092153   0.015119
     3  O    0.019853  -0.170606   8.470058  -0.137190  -0.032575
     4  N    0.012258  -0.092153  -0.137190   6.986040  -0.058667
     5  O   -0.000699   0.015119  -0.032575  -0.058667   8.269453
 Mulliken charges:
               1
     1  H    0.250299
     2  O   -0.197840
     3  O   -0.149540
     4  N    0.289711
     5  O   -0.192630
 Sum of Mulliken charges =  -0.00000
 Mulliken charges with hydrogens summed into heavy atoms:
               1
     2  O    0.052458
     3  O   -0.149540
     4  N    0.289711
     5  O   -0.192630
 APT charges:
               1
     1  H    0.300472
     2  O   -0.286230
     3  O   -0.508357
     4  N    0.888967
     5  O   -0.394853
 Sum of APT charges =  -0.00000
 APT charges with hydrogens summed into heavy atoms:
               1
     2  O    0.014242
     3  O   -0.508357
     4  N    0.888967
     5  O   -0.394853
 Electronic spatial extent (au):  <R**2>=            254.3139
 Charge=             -0.0000 electrons
 Dipole moment (field-independent basis, Debye):
    X=              0.5024    Y=              1.3829    Z=              0.0000  Tot=              1.4714
 Quadrupole moment (field-independent basis, Debye-Ang):
   XX=            -22.4129   YY=            -18.6273   ZZ=            -22.0192
   XY=              3.2989   XZ=              0.0000   YZ=             -0.0000
 Traceless Quadrupole moment (field-independent basis, Debye-Ang):
   XX=             -1.3931   YY=              2.3925   ZZ=             -0.9994
   XY=              3.2989   XZ=              0.0000   YZ=             -0.0000
 Octapole moment (field-independent basis, Debye-Ang**2):
  XXX=              2.9528  YYY=             11.3242  ZZZ=              0.0000  XYY=              7.9614
  XXY=              6.6018  XXZ=              0.0000  XZZ=             -1.5674  YZZ=             -0.8636
  YYZ=              0.0000  XYZ=              0.0000
 Hexadecapole moment (field-independent basis, Debye-Ang**3):
 XXXX=           -158.1963 YYYY=            -91.2242 ZZZZ=            -18.2676 XXXY=            -37.0775
 XXXZ=              0.0000 YYYX=            -31.1193 YYYZ=             -0.0000 ZZZX=              0.0000
 ZZZY=             -0.0000 XXYY=            -33.9691 XXZZ=            -30.8516 YYZZ=            -20.9491
 XXYZ=              0.0000 YYXZ=              0.0000 ZZXY=            -15.2486
 N-N= 1.166620392537D+02 E-N=-8.954174631773D+02  KE= 2.801865544848D+02
 Symmetry A'   KE= 2.662195920985D+02
 Symmetry A"   KE= 1.396696238628D+01
  Exact polarizability:  34.046   9.634  30.521  -0.000  -0.000  17.961
 Approx polarizability:  28.955   5.331  23.707  -0.000   0.000  15.537
 No NMR shielding tensors so no spin-rotation constants.
 Leave Link  601 at Mon Feb 21 20:55:45 2022, MaxMem= 16106127360 cpu:               4.6 elap:               0.2
 (Enter /sw/contrib/gaussian/g16/B01/g16/l701.exe)
 ... and contract with generalized density number  2.
 Compute integral second derivatives.
 Leave Link  701 at Mon Feb 21 20:55:45 2022, MaxMem= 16106127360 cpu:               5.7 elap:               0.2
 (Enter /sw/contrib/gaussian/g16/B01/g16/l702.exe)
 L702 exits ... SP integral derivatives will be done elsewhere.
 Leave Link  702 at Mon Feb 21 20:55:45 2022, MaxMem= 16106127360 cpu:               0.5 elap:               0.0
 (Enter /sw/contrib/gaussian/g16/B01/g16/l703.exe)
 Integral derivatives from FoFJK, PRISM(SPDF).
 Compute integral second derivatives, UseDBF=F ICtDFT=           0.
 Calling FoFJK, ICntrl=  10100127 FMM=F ISym2X=1 I1Cent= 0 IOpClX= 0 NMat=1 NMatS=1 NMatT=0.
 FoFJK:  IHMeth= 1 ICntrl=10100127 DoSepK=F KAlg= 0 I1Cent=           0 FoldK=F
 IRaf=         0 NMat=       1 IRICut=       1 DoRegI=T DoRafI=F ISym2E= 1 IDoP0=0 IntGTp=1.
 FoFCou: FMM=F IPFlag=           0 FMFlag=      100000 FMFlg1=         800
         NFxFlg=           0 DoJE=F BraDBF=F KetDBF=F FulRan=T
         wScrn=  0.000000 ICntrl=  10100127 IOpCl=  0 I1Cent=           0 NGrid=           0
         NMat0=    1 NMatS0=      1 NMatT0=    0 NMatD0=    1 NMtDS0=    0 NMtDT0=    0
 Petite list used in FoFCou.
 Leave Link  703 at Mon Feb 21 20:56:00 2022, MaxMem= 16106127360 cpu:             420.5 elap:              15.1
 (Enter /sw/contrib/gaussian/g16/B01/g16/l716.exe)
 Dipole        = 1.97674016D-01 5.44079518D-01 1.45580837D-31
 Polarizability= 3.40456609D+01 9.63444070D+00 3.05207779D+01
                -6.78983109D-31-3.78252560D-31 1.79606156D+01
 Full mass-weighted force constant matrix:
 Low frequencies --- -275.1058 -108.7336   -0.0015   -0.0011   -0.0005   26.0414
 Low frequencies ---   41.7889  228.3880  340.3184
 ******    1 imaginary frequencies (negative Signs) ****** 
 Diagonal vibrational polarizability:
       14.8114638      27.2780726      44.8729632
 Harmonic frequencies (cm**-1), IR intensities (KM/Mole), Raman scattering
 activities (A**4/AMU), depolarization ratios for plane and unpolarized
 incident light, reduced masses (AMU), force constants (mDyne/A),
 and normal coordinates:
                      1                      2                      3
                     A"                     A"                     A'
 Frequencies --   -275.0164               226.0803               340.3125
 Red. masses --      1.1460                 9.8309                 8.5559
 Frc consts  --      0.0511                 0.2961                 0.5838
 IR Inten    --    124.2070                 1.2898                 7.8890
  Atom  AN      X      Y      Z        X      Y      Z        X      Y      Z
     1   1     0.00  -0.00   1.00     0.00  -0.00  -0.61     0.55  -0.43   0.00
     2   8     0.00  -0.00  -0.07     0.00  -0.00  -0.29    -0.08  -0.37   0.00
     3   8    -0.00   0.00  -0.04    -0.00   0.00   0.30    -0.14   0.44  -0.00
     4   7    -0.00   0.00   0.06    -0.00   0.00   0.52     0.02   0.24  -0.00
     5   8    -0.00  -0.00  -0.01     0.00  -0.00  -0.43     0.16  -0.26   0.00
                      4                      5                      6
                     A'                     A'                     A'
 Frequencies --    436.7625               787.5696               965.7501
 Red. masses --     12.5436                12.9023                15.2613
 Frc consts  --      1.4098                 4.7152                 8.3863
 IR Inten    --    198.5995               177.5573                25.8833
  Atom  AN      X      Y      Z        X      Y      Z        X      Y      Z
     1   1     0.38   0.22   0.00    -0.34   0.19   0.00    -0.19  -0.03  -0.00
     2   8     0.33   0.23   0.00     0.42   0.08   0.00    -0.52   0.03   0.00
     3   8     0.19   0.42  -0.00    -0.07  -0.27  -0.00     0.74  -0.03  -0.00
     4   7    -0.36  -0.41  -0.00    -0.15   0.62  -0.00    -0.12   0.26  -0.00
     5   8    -0.23  -0.30   0.00    -0.20  -0.37   0.00    -0.11  -0.22   0.00
                      7                      8                      9
                     A'                     A'                     A'
 Frequencies --   1370.8581              1676.7535              3779.0030
 Red. masses --      1.1338                13.1289                 1.0676
 Frc consts  --      1.2554                21.7479                 8.9824
 IR Inten    --    156.2694               145.5393                83.9178
  Atom  AN      X      Y      Z        X      Y      Z        X      Y      Z
     1   1     0.99  -0.05   0.00    -0.35   0.01  -0.00     0.10   0.99  -0.00
     2   8    -0.03   0.05  -0.00    -0.00  -0.04   0.00    -0.01  -0.06   0.00
     3   8    -0.02  -0.05  -0.00    -0.00   0.15   0.00     0.00   0.00   0.00
     4   7     0.02   0.01   0.00     0.70  -0.04  -0.00    -0.00  -0.00  -0.00
     5   8    -0.03  -0.01   0.00    -0.59  -0.08  -0.00     0.00   0.00  -0.00

 -------------------
 - Thermochemistry -
 -------------------
 Temperature   298.150 Kelvin.  Pressure   1.00000 Atm.
 Atom     1 has atomic number  1 and mass   1.00783
 Atom     2 has atomic number  8 and mass  15.99491
 Atom     3 has atomic number  8 and mass  15.99491
 Atom     4 has atomic number  7 and mass  14.00307
 Atom     5 has atomic number  8 and mass  15.99491
 Molecular mass:    62.99564 amu.
 Principal axes and moments of inertia in atomic units:
                           1         2         3
     Eigenvalues --    32.57167 363.21319 395.78486
           X            0.80607  -0.59182   0.00000
           Y            0.59182   0.80607   0.00000
           Z            0.00000  -0.00000   1.00000
 This molecule is an asymmetric top.
 Rotational symmetry number  1.
 Rotational temperatures (Kelvin)      2.65918     0.23847     0.21884
 Rotational constants (GHZ):          55.40831     4.96882     4.55990
    1 imaginary frequencies ignored.
 Zero-point vibrational energy      57319.6 (Joules/Mol)
                                   13.69971 (Kcal/Mol)
 Warning -- explicit consideration of   3 degrees of freedom as
           vibrations may cause significant error
 Vibrational temperatures:    325.28   489.63   628.40  1133.14  1389.50
          (Kelvin)           1972.36  2412.47  5437.14
 
 Zero-point correction=                           0.021832 (Hartree/Particle)
 Thermal correction to Energy=                    0.025968
 Thermal correction to Enthalpy=                  0.026912
 Thermal correction to Gibbs Free Energy=        -0.004310
 Sum of electronic and zero-point Energies=           -280.424677
 Sum of electronic and thermal Energies=              -280.420541
 Sum of electronic and thermal Enthalpies=            -280.419597
 Sum of electronic and thermal Free Energies=         -280.450820
 
                     E (Thermal)             CV                S
                      KCal/Mol        Cal/Mol-Kelvin    Cal/Mol-Kelvin
 Total                   16.295             11.992             65.713
 Electronic               0.000              0.000              0.000
 Translational            0.889              2.981             38.341
 Rotational               0.889              2.981             23.064
 Vibrational             14.517              6.031              4.308
 Vibration     1          0.650              1.801              1.910
 Vibration     2          0.720              1.595              1.211
 Vibration     3          0.797              1.390              0.837
                       Q            Log10(Q)             Ln(Q)
 Total Bot       0.960823D+02          1.982644          4.565205
 Total V=0       0.105829D+13         12.024604         27.687675
 Vib (Bot)       0.199594D-09         -9.699852        -22.334735
 Vib (Bot)    1  0.872669D+00         -0.059150         -0.136198
 Vib (Bot)    2  0.545523D+00         -0.263187         -0.606011
 Vib (Bot)    3  0.396819D+00         -0.401408         -0.924276
 Vib (V=0)       0.219841D+01          0.342109          0.787734
 Vib (V=0)    1  0.150576D+01          0.177756          0.409297
 Vib (V=0)    2  0.124000D+01          0.093420          0.215109
 Vib (V=0)    3  0.113833D+01          0.056268          0.129562
 Electronic      0.100000D+01          0.000000          0.000000
 Translational   0.196526D+08          7.293420         16.793719
 Rotational      0.244949D+05          4.389076         10.106221
 
                                                                title
                                                             IR Spectrum
 
     3                                                                      1         1                                              
     7                                                                      6         3             9     7           4  3   2       
     7                                                                      7         7             6     8           3  4   2       
     9                                                                      7         1             6     8           7  0   6       
 
     X                                                                      X         X             X     X           X  X   X       
     X                                                                      X         X             X     X           X              
     X                                                                      X         X             X     X           X              
     X                                                                      X         X                   X           X              
     X                                                                      X         X                   X           X              
     X                                                                      X         X                   X           X              
     X                                                                      X         X                   X           X              
     X                                                                      X         X                   X           X              
                                                                            X         X                   X           X              
                                                                            X         X                   X           X              
                                                                            X         X                   X           X              
                                                                            X         X                   X           X              
                                                                            X         X                   X           X              
                                                                            X         X                   X           X              
                                                                            X         X                   X           X              
                                                                                      X                   X           X              
                                                                                                          X           X              
                                                                                                          X           X              
                                                                                                                      X              
                                                                                                                      X              
 
 ***** Axes restored to original set *****
 -------------------------------------------------------------------
 Center     Atomic                   Forces (Hartrees/Bohr)
 Number     Number              X              Y              Z
 -------------------------------------------------------------------
      1        1           0.000421469    0.000000000   -0.000035539
      2        8           0.000748785   -0.000000000    0.001561164
      3        8           0.005224470    0.000000000   -0.001139021
      4        7          -0.006242024   -0.000000000    0.006489960
      5        8          -0.000152700    0.000000000   -0.006876564
 -------------------------------------------------------------------
 Cartesian Forces:  Max     0.006876564 RMS     0.003267641
 -----------------------------------------------------------------------------------------------
                       Internal Coordinate Forces (Hartree/Bohr or radian)
  Cent   Atom   N1       Length/X         N2         Alpha/Y        N3         Beta/Z          J
 -----------------------------------------------------------------------------------------------
      1  H 
      2  O        1   0.000036(     1)
      3  O        2  -0.001362(     2)      1  -0.000772(     5)
      4  N        3  -0.000910(     3)      2  -0.002961(     6)      1   0.000000(     8)     0
      5  O        4  -0.002057(     4)      3  -0.014521(     7)      2   0.000000(     9)     0
 -----------------------------------------------------------------------------------------------
 Internal  Forces:  Max     0.014520877 RMS     0.005023618
 Force constants in Cartesian coordinates: 
                1             2             3             4             5 
      1  0.646379D-01
      2  0.000000D+00 -0.244207D-02
      3  0.511455D-02  0.000000D+00  0.512448D+00
      4 -0.358941D-01  0.000000D+00 -0.162507D-01  0.272108D+00
      5  0.000000D+00  0.325042D-02  0.000000D+00  0.000000D+00  0.208521D-02
      6  0.484186D-01  0.000000D+00 -0.508586D+00  0.323645D-01  0.000000D+00
      7 -0.183547D-01  0.000000D+00  0.127069D-01 -0.220793D+00  0.000000D+00
      8  0.000000D+00  0.928188D-03  0.000000D+00  0.000000D+00 -0.620874D-02
      9 -0.531362D-01  0.000000D+00 -0.304455D-03 -0.192564D-01  0.000000D+00
     10 -0.952228D-02  0.000000D+00 -0.491259D-02 -0.161126D-01  0.000000D+00
     11  0.000000D+00 -0.275956D-02  0.000000D+00  0.000000D+00 -0.552368D-02
     12  0.521745D-02  0.000000D+00 -0.512190D-02  0.112769D-01  0.000000D+00
     13 -0.866838D-03  0.000000D+00  0.334188D-02  0.691874D-03  0.000000D+00
     14  0.000000D+00  0.102303D-02  0.000000D+00  0.000000D+00  0.639678D-02
     15 -0.561449D-02  0.000000D+00  0.156487D-02 -0.813424D-02  0.000000D+00
                6             7             8             9            10 
      6  0.594777D+00
      7 -0.207756D-01  0.339234D+00
      8  0.000000D+00  0.000000D+00  0.282310D-02
      9 -0.786575D-01  0.303634D-01  0.000000D+00  0.177787D+00
     10 -0.534707D-01 -0.812343D-01  0.000000D+00  0.179377D+00  0.826621D+00
     11  0.000000D+00  0.000000D+00  0.119483D-01  0.000000D+00  0.000000D+00
     12  0.164880D-01  0.643483D-01  0.000000D+00 -0.783988D-01 -0.467066D-02
     13 -0.653690D-02 -0.188518D-01  0.000000D+00 -0.137348D+00 -0.719752D+00
     14  0.000000D+00  0.000000D+00 -0.949088D-02  0.000000D+00  0.000000D+00
     15 -0.240209D-01 -0.866430D-01  0.000000D+00 -0.204263D-01 -0.116323D+00
               11            12            13            14            15 
     11  0.362962D-02
     12  0.000000D+00  0.190497D+00
     13  0.000000D+00 -0.761720D-01  0.738779D+00
     14 -0.729472D-02  0.000000D+00  0.000000D+00  0.936579D-02
     15  0.000000D+00 -0.123465D+00  0.216715D+00  0.000000D+00  0.166347D+00
 Force constants in internal coordinates: 
                1             2             3             4             5 
      1  0.512448D+00
      2 -0.105281D-01  0.280151D+00
      3  0.367383D-02  0.151311D-02  0.113217D+00
      4 -0.364504D-02  0.518222D-02  0.150214D+00  0.810268D+00
      5  0.978675D-02  0.651269D-01  0.228434D-02  0.438048D-02  0.216792D+00
      6  0.478361D-02  0.580274D-01  0.418207D-01  0.195347D-01  0.312263D-01
      7 -0.127211D-02  0.349055D-01  0.212869D-01  0.740924D-01  0.208753D-01
      8  0.000000D+00  0.000000D+00  0.000000D+00  0.000000D+00  0.000000D+00
      9  0.000000D+00  0.000000D+00  0.000000D+00  0.000000D+00  0.000000D+00
                6             7             8             9 
      6  0.282881D+00
      7  0.932604D-01  0.459732D+00
      8  0.000000D+00  0.000000D+00 -0.787938D-02
      9  0.000000D+00  0.000000D+00 -0.383885D-02  0.408956D-01
 Leave Link  716 at Mon Feb 21 20:56:00 2022, MaxMem= 16106127360 cpu:               1.8 elap:               0.1
 (Enter /sw/contrib/gaussian/g16/B01/g16/l103.exe)

 GradGradGradGradGradGradGradGradGradGradGradGradGradGradGradGradGradGrad
 Berny optimization.
 Search for a local minimum.
 Step number   1 out of a maximum of    2
 All quantities printed in internal units (Hartrees-Bohrs-Radians)
 Second derivative matrix not updated -- analytic derivatives used.
 The second derivative matrix:
                          r1        r2        r3        r4        a1
           r1           0.51245
           r2          -0.01053   0.28015
           r3           0.00367   0.00151   0.11322
           r4          -0.00365   0.00518   0.15021   0.81027
           a1           0.00979   0.06513   0.00228   0.00438   0.21679
           a2           0.00478   0.05803   0.04182   0.01953   0.03123
           a3          -0.00127   0.03491   0.02129   0.07409   0.02088
           d1           0.00000  -0.00000   0.00000  -0.00000  -0.00000
           d2          -0.00000  -0.00000   0.00000   0.00000  -0.00000
                          a2        a3        d1        d2
           a2           0.28288
           a3           0.09326   0.45973
           d1          -0.00000  -0.00000  -0.00788
           d2          -0.00000  -0.00000  -0.00384   0.04090
 ITU=  0
     Eigenvalues ---   -0.00818   0.04120   0.07478   0.17524   0.22612
     Eigenvalues ---    0.32230   0.50323   0.51321   0.86061
 Eigenvalue     1 is  -8.18D-03 should be greater than     0.000000 Eigenvector:
                          d1        d2        r3        a2        a3
   1                    0.99695   0.07799  -0.00000   0.00000   0.00000
                          r4        a1        r1        r2
   1                    0.00000  -0.00000   0.00000   0.00000
 Angle between quadratic step and forces=  16.75 degrees.
 Linear search not attempted -- first point.
 Variable       Old X    -DE/DX   Delta X   Delta X   Delta X     New X
                                 (Linear)    (Quad)   (Total)
    r1        1.83110   0.00004   0.00000   0.00000   0.00000   1.83110
    r2        2.74940  -0.00136   0.00000  -0.00099  -0.00099   2.74841
    r3        2.75670  -0.00091   0.00000  -0.00368  -0.00368   2.75302
    r4        2.21236  -0.00206   0.00000   0.00103   0.00103   2.21338
    a1        1.70335  -0.00077   0.00000  -0.00030  -0.00030   1.70306
    a2        1.78543  -0.00296   0.00000   0.00067   0.00067   1.78610
    a3        1.93435  -0.01452   0.00000  -0.03163  -0.03163   1.90272
    d1        3.14159   0.00000   0.00000   0.00000   0.00000   3.14159
    d2        3.14159   0.00000   0.00000   0.00000   0.00000   3.14159
         Item               Value     Threshold  Converged?
 Maximum Force            0.014521     0.000450     NO 
 RMS     Force            0.005024     0.000300     NO 
 Maximum Displacement     0.031628     0.001800     NO 
 RMS     Displacement     0.010627     0.001200     NO 
 Predicted change in Energy=-2.300460D-04
                       ----------------------------
                       ! Non-Optimized Parameters !
                       ! (Angstroms and Degrees)  !
 ----------------------                            ----------------------
 !      Name          Value   Derivative information (Atomic Units)     !
 ------------------------------------------------------------------------
 !       r1          0.969    -DE/DX =    0.0                           !
 !       r2          1.4544   -DE/DX =   -0.0014                        !
 !       r3          1.4568   -DE/DX =   -0.0009                        !
 !       r4          1.1713   -DE/DX =   -0.0021                        !
 !       a1         97.578    -DE/DX =   -0.0008                        !
 !       a2        102.3358   -DE/DX =   -0.003                         !
 !       a3        109.0178   -DE/DX =   -0.0145                        !
 !       d1        180.0      -DE/DX =    0.0                           !
 !       d2        180.0      -DE/DX =    0.0                           !
 ------------------------------------------------------------------------
 GradGradGradGradGradGradGradGradGradGradGradGradGradGradGradGradGradGrad

 Leave Link  103 at Mon Feb 21 20:56:00 2022, MaxMem= 16106127360 cpu:               1.3 elap:               0.1
 (Enter /sw/contrib/gaussian/g16/B01/g16/l9999.exe)

 ----------------------------------------------------------------------

 Electric dipole moment (input orientation):
 (Debye = 10**-18 statcoulomb cm , SI units = C m)
                  (au)            (Debye)         (10**-30 SI)
   Tot        0.578876D+00      0.147136D+01      0.490792D+01
   x         -0.142115D+00     -0.361220D+00     -0.120490D+01
   y          0.000000D+00      0.000000D+00      0.000000D+00
   z         -0.561160D+00     -0.142633D+01     -0.475772D+01

 Dipole polarizability, Alpha (input orientation).
 (esu units = cm**3 , SI units = C**2 m**2 J**-1)
 Alpha(0;0):
               (au)            (10**-24 esu)      (10**-40 SI)
   iso        0.275090D+02      0.407642D+01      0.453562D+01
   aniso      0.222019D+02      0.328998D+01      0.366059D+01
   xx         0.320876D+02      0.475489D+01      0.529053D+01
   yx         0.000000D+00      0.000000D+00      0.000000D+00
   yy         0.179606D+02      0.266149D+01      0.296131D+01
   zx         0.979236D+01      0.145108D+01      0.161454D+01
   zy         0.000000D+00      0.000000D+00      0.000000D+00
   zz         0.324789D+02      0.481287D+01      0.535504D+01

 ----------------------------------------------------------------------

 Dipole orientation:
     1         -0.00000000          0.00000000          0.00000000
     8         -0.44953725          0.00000000         -1.77505992
     8          2.10312641         -0.00000000         -2.79638417
     7          1.64771732         -0.00000000         -5.51520936
     8          3.55709999         -0.00000000         -6.63269800

 Electric dipole moment (dipole orientation):
 (Debye = 10**-18 statcoulomb cm , SI units = C m)
                  (au)            (Debye)         (10**-30 SI)
   Tot        0.578876D+00      0.147136D+01      0.490792D+01
   x          0.000000D+00      0.000000D+00      0.000000D+00
   y          0.000000D+00      0.000000D+00      0.000000D+00
   z          0.578876D+00      0.147136D+01      0.490792D+01

 Dipole polarizability, Alpha (dipole orientation).
 (esu units = cm**3 , SI units = C**2 m**2 J**-1)
 Alpha(0;0):
               (au)            (10**-24 esu)      (10**-40 SI)
   iso        0.275090D+02      0.407642D+01      0.453562D+01
   aniso      0.222019D+02      0.328998D+01      0.366059D+01
   xx         0.274502D+02      0.406771D+01      0.452593D+01
   yx         0.000000D+00      0.000000D+00      0.000000D+00
   yy         0.179606D+02      0.266149D+01      0.296131D+01
   zx        -0.851886D+01     -0.126236D+01     -0.140457D+01
   zy         0.000000D+00      0.000000D+00      0.000000D+00
   zz         0.371162D+02      0.550005D+01      0.611964D+01

 ----------------------------------------------------------------------
 1\1\GINC-N2129\Freq\RMP2-FC\Aug-CC-pVTZ\H1N1O3\CGAVINH\21-Feb-2022\1\\
 #p freq mp2/aug-cc-pvtz density=current\\title\\0,1\H\O,1,r1\O,2,r2,1,
 a1\N,3,r3,2,a2,1,d1,0\O,4,r4,3,a3,2,d2,0\\r1=0.96897556\r2=1.45491931\
 r3=1.45878406\r4=1.17072885\a1=97.59494903\a2=102.29752444\a3=110.8299
 1396\d1=180.\d2=180.\\Version=ES64L-G16RevB.01\State=1-A'\HF=-279.5013
 214\MP2=-280.4465091\RMSD=3.879e-09\RMSF=3.268e-03\ZeroPoint=0.0218319
 \Thermal=0.0259677\Dipole=-0.1421149,0.,-0.5611603\DipoleDeriv=0.26732
 67,0.,0.0487996,0.,0.3558712,0.,0.0835772,0.,0.2782193,-0.3246546,0.,-
 0.2060115,0.,-0.3139181,0.,-0.1087876,0.,-0.220117,-0.0552932,0.,0.141
 5728,0.,-0.0843653,0.,-0.7598341,0.,-1.3854121,0.8902824,0.,0.9177887,
 0.,0.0599939,0.,0.9366083,0.,1.7166249,-0.7776613,0.,-0.9021497,0.,-0.
 0175817,0.,-0.1515638,0.,-0.3893151\Polar=32.0875875,0.,17.9606156,9.7
 923631,0.,32.4788513\Quadrupole=-1.496853,-0.74304,2.239893,0.,2.12250
 68,0.\PG=CS [SG(H1N1O3)]\NImag=1\\0.06463792,0.,-0.00244207,0.00511455
 ,0.,0.51244778,-0.03589409,0.,-0.01625074,0.27210760,0.,0.00325042,0.,
 0.,0.00208521,0.04841864,0.,-0.50858629,0.03236449,0.,0.59477663,-0.01
 835471,0.,0.01270689,-0.22079275,0.,-0.02077558,0.33923355,0.,0.000928
 19,0.,0.,-0.00620874,0.,0.,0.00282310,-0.05313615,0.,-0.00030445,-0.01
 925640,0.,-0.07865747,0.03036338,0.,0.17778704,-0.00952228,0.,-0.00491
 259,-0.01611264,0.,-0.05347065,-0.08123427,0.,0.17937681,0.82662101,0.
 ,-0.00275956,0.,0.,-0.00552368,0.,0.,0.01194833,0.,0.,0.00362962,0.005
 21745,0.,-0.00512190,0.01127689,0.,0.01648803,0.06434831,0.,-0.0783987
 9,-0.00467066,0.,0.19049736,-0.00086684,0.,0.00334188,0.00069187,0.,-0
 .00653690,-0.01885182,0.,-0.13734764,-0.71975183,0.,-0.07617198,0.7387
 7861,0.,0.00102303,0.,0.,0.00639678,0.,0.,-0.00949088,0.,0.,-0.0072947
 2,0.,0.,0.00936579,-0.00561449,0.,0.00156487,-0.00813424,0.,-0.0240209
 0,-0.08664300,0.,-0.02042633,-0.11632291,0.,-0.12346470,0.21671464,0.,
 0.16634706\\-0.00042147,0.,0.00003554,-0.00074878,0.,-0.00156116,-0.00
 522447,0.,0.00113902,0.00624202,0.,-0.00648996,0.00015270,0.,0.0068765
 6\\\@


 TO ERR IS HUMAN - AND TO BLAME IT ON A COMPUTER IS EVEN MORE SO.
 Job cpu time:       0 days  2 hours  1 minutes  4.1 seconds.
 Elapsed time:       0 days  0 hours  4 minutes 22.5 seconds.
 File lengths (MBytes):  RWF=   7239 Int=      0 D2E=      0 Chk=      8 Scr=      1
 Normal termination of Gaussian 16 at Mon Feb 21 20:56:02 2022.
