 Entering Gaussian System, Link 0=g16
 Input=hoono_a1_95p10282.gjf
 Output=hoono_a1_95p10282.log
 Initial command:
 /sw/contrib/gaussian/g16/B01/g16/l1.exe "/scr/Gau-7314.inp" -scrdir="/scr/"
 Entering Link 1 = /sw/contrib/gaussian/g16/B01/g16/l1.exe PID=      7315.
  
 Copyright (c) 1988-2017, Gaussian, Inc.  All Rights Reserved.
  
 This is part of the Gaussian(R) 16 program.  It is based on
 the Gaussian(R) 09 system (copyright 2009, Gaussian, Inc.),
 the Gaussian(R) 03 system (copyright 2003, Gaussian, Inc.),
 the Gaussian(R) 98 system (copyright 1998, Gaussian, Inc.),
 the Gaussian(R) 94 system (copyright 1995, Gaussian, Inc.),
 the Gaussian 92(TM) system (copyright 1992, Gaussian, Inc.),
 the Gaussian 90(TM) system (copyright 1990, Gaussian, Inc.),
 the Gaussian 88(TM) system (copyright 1988, Gaussian, Inc.),
 the Gaussian 86(TM) system (copyright 1986, Carnegie Mellon
 University), and the Gaussian 82(TM) system (copyright 1983,
 Carnegie Mellon University). Gaussian is a federally registered
 trademark of Gaussian, Inc.
  
 This software contains proprietary and confidential information,
 including trade secrets, belonging to Gaussian, Inc.
  
 This software is provided under written license and may be
 used, copied, transmitted, or stored only in accord with that
 written license.
  
 The following legend is applicable only to US Government
 contracts under FAR:
  
                    RESTRICTED RIGHTS LEGEND
  
 Use, reproduction and disclosure by the US Government is
 subject to restrictions as set forth in subparagraphs (a)
 and (c) of the Commercial Computer Software - Restricted
 Rights clause in FAR 52.227-19.
  
 Gaussian, Inc.
 340 Quinnipiac St., Bldg. 40, Wallingford CT 06492
  
  
 ---------------------------------------------------------------
 Warning -- This program may not be used in any manner that
 competes with the business of Gaussian, Inc. or will provide
 assistance to any competitor of Gaussian, Inc.  The licensee
 of this program is prohibited from giving any competitor of
 Gaussian, Inc. access to this program.  By using this program,
 the user acknowledges that Gaussian, Inc. is engaged in the
 business of creating and licensing software in the field of
 computational chemistry and represents and warrants to the
 licensee that it is not a competitor of Gaussian, Inc. and that
 it will not use this program in any manner prohibited above.
 ---------------------------------------------------------------
  

 Cite this work as:
 Gaussian 16, Revision B.01,
 M. J. Frisch, G. W. Trucks, H. B. Schlegel, G. E. Scuseria, 
 M. A. Robb, J. R. Cheeseman, G. Scalmani, V. Barone, 
 G. A. Petersson, H. Nakatsuji, X. Li, M. Caricato, A. V. Marenich, 
 J. Bloino, B. G. Janesko, R. Gomperts, B. Mennucci, H. P. Hratchian, 
 J. V. Ortiz, A. F. Izmaylov, J. L. Sonnenberg, D. Williams-Young, 
 F. Ding, F. Lipparini, F. Egidi, J. Goings, B. Peng, A. Petrone, 
 T. Henderson, D. Ranasinghe, V. G. Zakrzewski, J. Gao, N. Rega, 
 G. Zheng, W. Liang, M. Hada, M. Ehara, K. Toyota, R. Fukuda, 
 J. Hasegawa, M. Ishida, T. Nakajima, Y. Honda, O. Kitao, H. Nakai, 
 T. Vreven, K. Throssell, J. A. Montgomery, Jr., J. E. Peralta, 
 F. Ogliaro, M. J. Bearpark, J. J. Heyd, E. N. Brothers, K. N. Kudin, 
 V. N. Staroverov, T. A. Keith, R. Kobayashi, J. Normand, 
 K. Raghavachari, A. P. Rendell, J. C. Burant, S. S. Iyengar, 
 J. Tomasi, M. Cossi, J. M. Millam, M. Klene, C. Adamo, R. Cammi, 
 J. W. Ochterski, R. L. Martin, K. Morokuma, O. Farkas, 
 J. B. Foresman, and D. J. Fox, Gaussian, Inc., Wallingford CT, 2016.
 
 ******************************************
 Gaussian 16:  ES64L-G16RevB.01 20-Dec-2017
                21-Feb-2022 
 ******************************************
 %nproc=28
 Will use up to   28 processors via shared memory.
 %mem=120GB
 %chk=hoono_a1_95p10282.chk
 ---------------------------------------
 #p freq mp2/aug-cc-pvtz density=current
 ---------------------------------------
 1/10=4,30=1,38=1/1,3;
 2/12=2,17=6,18=5,40=1/2;
 3/5=16,6=1,7=10,11=9,25=1,30=1,71=2,140=1/1,2,3;
 4//1;
 5/5=2,38=5,98=1/2;
 8/6=3,8=1,10=1,19=11,30=-1/1;
 9/15=3,16=-3/6;
 11/6=1,8=1,15=11,17=12,24=-1,27=1,28=-2,29=300,32=6,42=3/1,2,10;
 10/6=2,21=1/2;
 8/6=4,8=1,10=1,19=11,30=-1/11,4;
 10/5=1,20=4/2;
 11/12=2,14=11,16=1,17=2,28=-2,42=3,76=2/2,10,12;
 6/7=2,8=2,9=2,10=2,22=-1/1;
 7/8=1,10=1,12=2,25=1,44=2/1,2,3,16;
 1/10=4,30=1/3;
 99//99;
 Leave Link    1 at Mon Feb 21 20:38:39 2022, MaxMem= 16106127360 cpu:               2.9 elap:               0.1
 (Enter /sw/contrib/gaussian/g16/B01/g16/l101.exe)
 -----
 title
 -----
 Symbolic Z-matrix:
 Charge =  0 Multiplicity = 1
 H
 O                    1    r1
 O                    2    r2       1    a1
 N                    3    r3       2    a2       1    d1       0
 O                    4    r4       3    a3       2    d2       0
       Variables:
  r1                    0.96898                  
  r2                    1.45492                  
  r3                    1.45878                  
  r4                    1.17073                  
  a1                   95.10283                  
  a2                  102.29752                  
  a3                  109.06955                  
  d1                  180.                       
  d2                  180.                       
 
 ITRead=  0  0  0  0  0
 MicOpt= -1 -1 -1 -1 -1
 NAtoms=      5 NQM=        5 NQMF=       0 NMMI=      0 NMMIF=      0
                NMic=       0 NMicF=      0.
                    Isotopes and Nuclear Properties:
 (Nuclear quadrupole moments (NQMom) in fm**2, nuclear magnetic moments (NMagM)
  in nuclear magnetons)

  Atom         1           2           3           4           5
 IAtWgt=           1          16          16          14          16
 AtmWgt=   1.0078250  15.9949146  15.9949146  14.0030740  15.9949146
 NucSpn=           1           0           0           2           0
 AtZEff=  -0.0000000  -0.0000000  -0.0000000  -0.0000000  -0.0000000
 NQMom=    0.0000000   0.0000000   0.0000000   2.0440000   0.0000000
 NMagM=    2.7928460   0.0000000   0.0000000   0.4037610   0.0000000
 AtZNuc=   1.0000000   8.0000000   8.0000000   7.0000000   8.0000000
 Leave Link  101 at Mon Feb 21 20:38:39 2022, MaxMem= 16106127360 cpu:               2.5 elap:               0.1
 (Enter /sw/contrib/gaussian/g16/B01/g16/l103.exe)

 GradGradGradGradGradGradGradGradGradGradGradGradGradGradGradGradGradGrad
 Berny optimization.
 Initialization pass.
                       ----------------------------
                       !    Initial Parameters    !
                       ! (Angstroms and Degrees)  !
 ----------------------                            ----------------------
 !      Name          Value   Derivative information (Atomic Units)     !
 ------------------------------------------------------------------------
 !       r1          0.969    calculate D2E/DX2 analytically            !
 !       r2          1.4549   calculate D2E/DX2 analytically            !
 !       r3          1.4588   calculate D2E/DX2 analytically            !
 !       r4          1.1707   calculate D2E/DX2 analytically            !
 !       a1         95.1028   calculate D2E/DX2 analytically            !
 !       a2        102.2975   calculate D2E/DX2 analytically            !
 !       a3        109.0696   calculate D2E/DX2 analytically            !
 !       d1        180.0      calculate D2E/DX2 analytically            !
 !       d2        180.0      calculate D2E/DX2 analytically            !
 ------------------------------------------------------------------------
 Trust Radius=3.00D-01 FncErr=1.00D-07 GrdErr=1.00D-07 EigMax=2.50D+02 EigMin=1.00D-04
 Number of steps in this run=      2 maximum allowed number of steps=      2.
 GradGradGradGradGradGradGradGradGradGradGradGradGradGradGradGradGradGrad

 Leave Link  103 at Mon Feb 21 20:38:39 2022, MaxMem= 16106127360 cpu:               0.6 elap:               0.0
 (Enter /sw/contrib/gaussian/g16/B01/g16/l202.exe)
                          Input orientation:                          
 ---------------------------------------------------------------------
 Center     Atomic      Atomic             Coordinates (Angstroms)
 Number     Number       Type             X           Y           Z
 ---------------------------------------------------------------------
      1          1           0        0.000000    0.000000    0.000000
      2          8           0        0.000000    0.000000    0.968976
      3          8           0        1.449153    0.000000    1.098381
      4          7           0        1.631853    0.000000    2.545679
      5          8           0        2.777528    0.000000    2.786586
 ---------------------------------------------------------------------
                    Distance matrix (angstroms):
                    1          2          3          4          5
     1  H    0.000000
     2  O    0.968976   0.000000
     3  O    1.818374   1.454919   0.000000
     4  N    3.023810   2.269127   1.458784   0.000000
     5  O    3.934427   3.319392   2.148165   1.170729   0.000000
 Stoichiometry    HNO3
 Framework group  CS[SG(HNO3)]
 Deg. of freedom     7
 Full point group                 CS      NOp   2
 Largest Abelian subgroup         CS      NOp   2
 Largest concise Abelian subgroup C1      NOp   1
                         Standard orientation:                         
 ---------------------------------------------------------------------
 Center     Atomic      Atomic             Coordinates (Angstroms)
 Number     Number       Type             X           Y           Z
 ---------------------------------------------------------------------
      1          1           0        1.505104    1.693276    0.000000
      2          8           0        1.453963    0.725651    0.000000
      3          8           0        0.000000    0.672910    0.000000
      4          7           0       -0.258831   -0.762729    0.000000
      5          8           0       -1.415624   -0.942833    0.000000
 ---------------------------------------------------------------------
 Rotational constants (GHZ):          54.7982813           5.0184287           4.5973987
 Leave Link  202 at Mon Feb 21 20:38:39 2022, MaxMem= 16106127360 cpu:               0.9 elap:               0.1
 (Enter /sw/contrib/gaussian/g16/B01/g16/l301.exe)
 Standard basis: Aug-CC-pVTZ (5D, 7F)
 Ernie: Thresh=  0.10000D-02 Tol=  0.10000D-05 Strict=F.
 Ernie:  12 primitive shells out of 131 were deleted.
 There are   166 symmetry adapted cartesian basis functions of A'  symmetry.
 There are    79 symmetry adapted cartesian basis functions of A"  symmetry.
 There are   136 symmetry adapted basis functions of A'  symmetry.
 There are    71 symmetry adapted basis functions of A"  symmetry.
   207 basis functions,   315 primitive gaussians,   245 cartesian basis functions
    16 alpha electrons       16 beta electrons
       nuclear repulsion energy       116.9306180075 Hartrees.
 IExCor=    0 DFT=F Ex=HF Corr=None ExCW=0 ScaHFX=  1.000000
 ScaDFX=  1.000000  1.000000  1.000000  1.000000 ScalE2=  1.000000  1.000000
 IRadAn=      5 IRanWt=     -1 IRanGd=            0 ICorTp=0 IEmpDi=  4
 NAtoms=    5 NActive=    5 NUniq=    5 SFac= 1.00D+00 NAtFMM=   60 NAOKFM=F Big=F
 Integral buffers will be    131072 words long.
 Raffenetti 1 integral format.
 Two-electron integral symmetry is turned on.
 Leave Link  301 at Mon Feb 21 20:38:39 2022, MaxMem= 16106127360 cpu:               1.7 elap:               0.1
 (Enter /sw/contrib/gaussian/g16/B01/g16/l302.exe)
 NPDir=0 NMtPBC=     1 NCelOv=     1 NCel=       1 NClECP=     1 NCelD=      1
         NCelK=      1 NCelE2=     1 NClLst=     1 CellRange=     0.0.
 One-electron integrals computed using PRISM.
 One-electron integral symmetry used in STVInt
 NBasis=   207 RedAO= T EigKep=  1.81D-04  NBF=   136    71
 NBsUse=   207 1.00D-06 EigRej= -1.00D+00 NBFU=   136    71
 Leave Link  302 at Mon Feb 21 20:38:39 2022, MaxMem= 16106127360 cpu:               4.7 elap:               0.2
 (Enter /sw/contrib/gaussian/g16/B01/g16/l303.exe)
 DipDrv:  MaxL=1.
 Leave Link  303 at Mon Feb 21 20:38:39 2022, MaxMem= 16106127360 cpu:               1.4 elap:               0.1
 (Enter /sw/contrib/gaussian/g16/B01/g16/l401.exe)
 ExpMin= 2.53D-02 ExpMax= 1.53D+04 ExpMxC= 5.22D+02 IAcc=3 IRadAn=         5 AccDes= 0.00D+00
 Harris functional with IExCor=  205 and IRadAn=       5 diagonalized for initial guess.
 HarFok:  IExCor=  205 AccDes= 0.00D+00 IRadAn=         5 IDoV= 1 UseB2=F ITyADJ=14
 ICtDFT=  3500011 ScaDFX=  1.000000  1.000000  1.000000  1.000000
 FoFCou: FMM=F IPFlag=           0 FMFlag=      100000 FMFlg1=           0
         NFxFlg=           0 DoJE=T BraDBF=F KetDBF=T FulRan=T
         wScrn=  0.000000 ICntrl=       500 IOpCl=  0 I1Cent=   200000004 NGrid=           0
         NMat0=    1 NMatS0=      1 NMatT0=    0 NMatD0=    1 NMtDS0=    0 NMtDT0=    0
 Petite list used in FoFCou.
 Harris En= -279.627984199155    
 JPrj=0 DoOrth=F DoCkMO=F.
 Initial guess orbital symmetries:
       Occupied  (A') (A') (A') (A') (A') (A') (A') (A') (A') (A')
                 (A") (A') (A') (A") (A") (A')
       Virtual   (A") (A') (A') (A') (A') (A') (A") (A') (A') (A')
                 (A") (A') (A") (A') (A') (A") (A') (A") (A') (A')
                 (A') (A') (A') (A') (A') (A") (A') (A") (A') (A')
                 (A") (A') (A") (A') (A') (A") (A') (A") (A') (A')
                 (A") (A') (A") (A') (A") (A') (A') (A') (A") (A")
                 (A') (A') (A') (A') (A") (A') (A") (A') (A") (A')
                 (A') (A') (A") (A') (A') (A") (A') (A") (A') (A')
                 (A") (A') (A') (A") (A") (A') (A') (A") (A') (A')
                 (A') (A") (A') (A") (A') (A") (A') (A") (A') (A')
                 (A') (A") (A') (A") (A') (A") (A") (A') (A') (A")
                 (A') (A') (A") (A') (A') (A') (A") (A') (A") (A')
                 (A") (A') (A') (A') (A") (A') (A') (A') (A") (A')
                 (A") (A') (A') (A") (A") (A') (A") (A') (A") (A')
                 (A') (A') (A') (A") (A") (A') (A") (A') (A') (A')
                 (A') (A") (A") (A') (A') (A") (A') (A') (A') (A')
                 (A') (A") (A') (A") (A') (A") (A') (A") (A") (A')
                 (A') (A") (A') (A") (A') (A") (A") (A") (A') (A')
                 (A") (A') (A") (A') (A") (A') (A") (A") (A') (A')
                 (A') (A') (A') (A') (A') (A') (A') (A') (A') (A')
                 (A')
 The electronic state of the initial guess is 1-A'.
 Leave Link  401 at Mon Feb 21 20:38:40 2022, MaxMem= 16106127360 cpu:               7.0 elap:               0.3
 (Enter /sw/contrib/gaussian/g16/B01/g16/l502.exe)
 Keep R1 ints in memory in symmetry-blocked form, NReq=348887737.
 FoFCou: FMM=F IPFlag=           0 FMFlag=           0 FMFlg1=           0
         NFxFlg=           0 DoJE=F BraDBF=F KetDBF=F FulRan=T
         wScrn=  0.000000 ICntrl=       600 IOpCl=  0 I1Cent=           0 NGrid=           0
         NMat0=    1 NMatS0=  21528 NMatT0=    0 NMatD0=    1 NMtDS0=    0 NMtDT0=    0
 Petite list used in FoFCou.
 Closed shell SCF:
 Using DIIS extrapolation, IDIIS=  1040.
 NGot= 16106127360 LenX= 15988850015 LenY= 15988789549
 Requested convergence on RMS density matrix=1.00D-08 within 128 cycles.
 Requested convergence on MAX density matrix=1.00D-06.
 Requested convergence on             energy=1.00D-06.
 No special actions if energy rises.

 Cycle   1  Pass 1  IDiag  1:
 E= -279.369903309904    
 DIIS: error= 2.82D-02 at cycle   1 NSaved=   1.
 NSaved= 1 IEnMin= 1 EnMin= -279.369903309904     IErMin= 1 ErrMin= 2.82D-02
 ErrMax= 2.82D-02  0.00D+00 EMaxC= 1.00D-01 BMatC= 4.38D-01 BMatP= 4.38D-01
 IDIUse=3 WtCom= 7.18D-01 WtEn= 2.82D-01
 Coeff-Com:  0.100D+01
 Coeff-En:   0.100D+01
 Coeff:      0.100D+01
 Gap=     0.513 Goal=   None    Shift=    0.000
 GapD=    0.513 DampG=2.000 DampE=0.500 DampFc=1.0000 IDamp=-1.
 RMSDP=1.63D-03 MaxDP=9.95D-02              OVMax= 1.13D-01

 Cycle   2  Pass 1  IDiag  1:
 E= -279.451723809343     Delta-E=       -0.081820499439 Rises=F Damp=F
 DIIS: error= 1.79D-02 at cycle   2 NSaved=   2.
 NSaved= 2 IEnMin= 2 EnMin= -279.451723809343     IErMin= 2 ErrMin= 1.79D-02
 ErrMax= 1.79D-02  0.00D+00 EMaxC= 1.00D-01 BMatC= 7.20D-02 BMatP= 4.38D-01
 IDIUse=3 WtCom= 8.21D-01 WtEn= 1.79D-01
 Coeff-Com:  0.195D+00 0.805D+00
 Coeff-En:   0.000D+00 0.100D+01
 Coeff:      0.160D+00 0.840D+00
 Gap=     0.530 Goal=   None    Shift=    0.000
 RMSDP=9.01D-04 MaxDP=3.74D-02 DE=-8.18D-02 OVMax= 6.92D-02

 Cycle   3  Pass 1  IDiag  1:
 E= -279.480885435909     Delta-E=       -0.029161626566 Rises=F Damp=F
 DIIS: error= 1.04D-02 at cycle   3 NSaved=   3.
 NSaved= 3 IEnMin= 3 EnMin= -279.480885435909     IErMin= 3 ErrMin= 1.04D-02
 ErrMax= 1.04D-02  0.00D+00 EMaxC= 1.00D-01 BMatC= 2.88D-02 BMatP= 7.20D-02
 IDIUse=3 WtCom= 8.96D-01 WtEn= 1.04D-01
 Coeff-Com: -0.331D-01 0.378D+00 0.655D+00
 Coeff-En:   0.000D+00 0.241D+00 0.759D+00
 Coeff:     -0.296D-01 0.364D+00 0.665D+00
 Gap=     0.511 Goal=   None    Shift=    0.000
 RMSDP=3.77D-04 MaxDP=1.55D-02 DE=-2.92D-02 OVMax= 3.82D-02

 Cycle   4  Pass 1  IDiag  1:
 E= -279.500035661612     Delta-E=       -0.019150225703 Rises=F Damp=F
 DIIS: error= 1.28D-03 at cycle   4 NSaved=   4.
 NSaved= 4 IEnMin= 4 EnMin= -279.500035661612     IErMin= 4 ErrMin= 1.28D-03
 ErrMax= 1.28D-03  0.00D+00 EMaxC= 1.00D-01 BMatC= 4.95D-04 BMatP= 2.88D-02
 IDIUse=3 WtCom= 9.87D-01 WtEn= 1.28D-02
 Coeff-Com: -0.117D-01 0.573D-01 0.158D+00 0.796D+00
 Coeff-En:   0.000D+00 0.000D+00 0.000D+00 0.100D+01
 Coeff:     -0.115D-01 0.566D-01 0.156D+00 0.799D+00
 Gap=     0.502 Goal=   None    Shift=    0.000
 RMSDP=9.06D-05 MaxDP=2.79D-03 DE=-1.92D-02 OVMax= 1.12D-02

 Cycle   5  Pass 1  IDiag  1:
 E= -279.500714103580     Delta-E=       -0.000678441969 Rises=F Damp=F
 DIIS: error= 7.16D-04 at cycle   5 NSaved=   5.
 NSaved= 5 IEnMin= 5 EnMin= -279.500714103580     IErMin= 5 ErrMin= 7.16D-04
 ErrMax= 7.16D-04  0.00D+00 EMaxC= 1.00D-01 BMatC= 8.76D-05 BMatP= 4.95D-04
 IDIUse=3 WtCom= 9.93D-01 WtEn= 7.16D-03
 Coeff-Com:  0.615D-02-0.725D-01-0.118D+00 0.213D-01 0.116D+01
 Coeff-En:   0.000D+00 0.000D+00 0.000D+00 0.000D+00 0.100D+01
 Coeff:      0.611D-02-0.720D-01-0.117D+00 0.212D-01 0.116D+01
 Gap=     0.502 Goal=   None    Shift=    0.000
 RMSDP=7.64D-05 MaxDP=2.10D-03 DE=-6.78D-04 OVMax= 1.11D-02

 Cycle   6  Pass 1  IDiag  1:
 E= -279.501030358660     Delta-E=       -0.000316255080 Rises=F Damp=F
 DIIS: error= 2.94D-04 at cycle   6 NSaved=   6.
 NSaved= 6 IEnMin= 6 EnMin= -279.501030358660     IErMin= 6 ErrMin= 2.94D-04
 ErrMax= 2.94D-04  0.00D+00 EMaxC= 1.00D-01 BMatC= 1.68D-05 BMatP= 8.76D-05
 IDIUse=3 WtCom= 9.97D-01 WtEn= 2.94D-03
 Coeff-Com:  0.661D-03 0.764D-03 0.308D-02-0.129D+00-0.218D+00 0.134D+01
 Coeff-En:   0.000D+00 0.000D+00 0.000D+00 0.000D+00 0.000D+00 0.100D+01
 Coeff:      0.659D-03 0.762D-03 0.307D-02-0.128D+00-0.218D+00 0.134D+01
 Gap=     0.503 Goal=   None    Shift=    0.000
 RMSDP=4.52D-05 MaxDP=1.25D-03 DE=-3.16D-04 OVMax= 5.53D-03

 Cycle   7  Pass 1  IDiag  1:
 E= -279.501103094811     Delta-E=       -0.000072736151 Rises=F Damp=F
 DIIS: error= 1.28D-04 at cycle   7 NSaved=   7.
 NSaved= 7 IEnMin= 7 EnMin= -279.501103094811     IErMin= 7 ErrMin= 1.28D-04
 ErrMax= 1.28D-04  0.00D+00 EMaxC= 1.00D-01 BMatC= 4.78D-06 BMatP= 1.68D-05
 IDIUse=3 WtCom= 9.99D-01 WtEn= 1.28D-03
 Coeff-Com: -0.944D-03 0.137D-01 0.268D-01-0.266D-01-0.294D+00 0.415D+00
 Coeff-Com:  0.866D+00
 Coeff-En:   0.000D+00 0.000D+00 0.000D+00 0.000D+00 0.000D+00 0.000D+00
 Coeff-En:   0.100D+01
 Coeff:     -0.943D-03 0.137D-01 0.267D-01-0.265D-01-0.294D+00 0.414D+00
 Coeff:      0.866D+00
 Gap=     0.503 Goal=   None    Shift=    0.000
 RMSDP=1.34D-05 MaxDP=3.79D-04 DE=-7.27D-05 OVMax= 1.57D-03

 Cycle   8  Pass 1  IDiag  1:
 E= -279.501112306196     Delta-E=       -0.000009211385 Rises=F Damp=F
 DIIS: error= 5.66D-05 at cycle   8 NSaved=   8.
 NSaved= 8 IEnMin= 8 EnMin= -279.501112306196     IErMin= 8 ErrMin= 5.66D-05
 ErrMax= 5.66D-05  0.00D+00 EMaxC= 1.00D-01 BMatC= 6.07D-07 BMatP= 4.78D-06
 IDIUse=1 WtCom= 1.00D+00 WtEn= 0.00D+00
 Coeff-Com: -0.451D-03 0.347D-02 0.763D-02 0.275D-01-0.414D-01-0.195D+00
 Coeff-Com:  0.146D+00 0.105D+01
 Coeff:     -0.451D-03 0.347D-02 0.763D-02 0.275D-01-0.414D-01-0.195D+00
 Coeff:      0.146D+00 0.105D+01
 Gap=     0.502 Goal=   None    Shift=    0.000
 RMSDP=7.06D-06 MaxDP=2.06D-04 DE=-9.21D-06 OVMax= 7.61D-04

 Cycle   9  Pass 1  IDiag  1:
 E= -279.501114136081     Delta-E=       -0.000001829885 Rises=F Damp=F
 DIIS: error= 1.52D-05 at cycle   9 NSaved=   9.
 NSaved= 9 IEnMin= 9 EnMin= -279.501114136081     IErMin= 9 ErrMin= 1.52D-05
 ErrMax= 1.52D-05  0.00D+00 EMaxC= 1.00D-01 BMatC= 6.85D-08 BMatP= 6.07D-07
 IDIUse=1 WtCom= 1.00D+00 WtEn= 0.00D+00
 Coeff-Com:  0.123D-03-0.173D-02-0.307D-02-0.202D-02 0.343D-01-0.443D-03
 Coeff-Com: -0.159D+00-0.114D+00 0.125D+01
 Coeff:      0.123D-03-0.173D-02-0.307D-02-0.202D-02 0.343D-01-0.443D-03
 Coeff:     -0.159D+00-0.114D+00 0.125D+01
 Gap=     0.502 Goal=   None    Shift=    0.000
 RMSDP=1.94D-06 MaxDP=6.63D-05 DE=-1.83D-06 OVMax= 1.76D-04

 Cycle  10  Pass 1  IDiag  1:
 E= -279.501114296203     Delta-E=       -0.000000160122 Rises=F Damp=F
 DIIS: error= 4.44D-06 at cycle  10 NSaved=  10.
 NSaved=10 IEnMin=10 EnMin= -279.501114296203     IErMin=10 ErrMin= 4.44D-06
 ErrMax= 4.44D-06  0.00D+00 EMaxC= 1.00D-01 BMatC= 5.58D-09 BMatP= 6.85D-08
 IDIUse=1 WtCom= 1.00D+00 WtEn= 0.00D+00
 Coeff-Com:  0.308D-04-0.241D-03-0.318D-03-0.270D-02 0.160D-02 0.195D-01
 Coeff-Com: -0.111D-01-0.756D-01-0.812D-01 0.115D+01
 Coeff:      0.308D-04-0.241D-03-0.318D-03-0.270D-02 0.160D-02 0.195D-01
 Coeff:     -0.111D-01-0.756D-01-0.812D-01 0.115D+01
 Gap=     0.502 Goal=   None    Shift=    0.000
 RMSDP=5.05D-07 MaxDP=2.11D-05 DE=-1.60D-07 OVMax= 4.20D-05

 Cycle  11  Pass 1  IDiag  1:
 E= -279.501114308791     Delta-E=       -0.000000012587 Rises=F Damp=F
 DIIS: error= 2.05D-06 at cycle  11 NSaved=  11.
 NSaved=11 IEnMin=11 EnMin= -279.501114308791     IErMin=11 ErrMin= 2.05D-06
 ErrMax= 2.05D-06  0.00D+00 EMaxC= 1.00D-01 BMatC= 6.64D-10 BMatP= 5.58D-09
 IDIUse=1 WtCom= 1.00D+00 WtEn= 0.00D+00
 Coeff-Com: -0.213D-04 0.245D-03 0.488D-03 0.525D-03-0.431D-02-0.341D-02
 Coeff-Com:  0.197D-01 0.327D-01-0.139D+00-0.179D+00 0.127D+01
 Coeff:     -0.213D-04 0.245D-03 0.488D-03 0.525D-03-0.431D-02-0.341D-02
 Coeff:      0.197D-01 0.327D-01-0.139D+00-0.179D+00 0.127D+01
 Gap=     0.502 Goal=   None    Shift=    0.000
 RMSDP=1.79D-07 MaxDP=6.56D-06 DE=-1.26D-08 OVMax= 1.74D-05

 Cycle  12  Pass 1  IDiag  1:
 E= -279.501114310608     Delta-E=       -0.000000001818 Rises=F Damp=F
 DIIS: error= 5.91D-07 at cycle  12 NSaved=  12.
 NSaved=12 IEnMin=12 EnMin= -279.501114310608     IErMin=12 ErrMin= 5.91D-07
 ErrMax= 5.91D-07  0.00D+00 EMaxC= 1.00D-01 BMatC= 7.16D-11 BMatP= 6.64D-10
 IDIUse=1 WtCom= 1.00D+00 WtEn= 0.00D+00
 Coeff-Com:  0.125D-05-0.292D-04-0.631D-04 0.185D-03 0.108D-02-0.229D-02
 Coeff-Com: -0.408D-02 0.533D-02 0.417D-01-0.114D+00-0.278D+00 0.135D+01
 Coeff:      0.125D-05-0.292D-04-0.631D-04 0.185D-03 0.108D-02-0.229D-02
 Coeff:     -0.408D-02 0.533D-02 0.417D-01-0.114D+00-0.278D+00 0.135D+01
 Gap=     0.502 Goal=   None    Shift=    0.000
 RMSDP=7.17D-08 MaxDP=2.84D-06 DE=-1.82D-09 OVMax= 6.68D-06

 Cycle  13  Pass 1  IDiag  1:
 E= -279.501114310837     Delta-E=       -0.000000000229 Rises=F Damp=F
 DIIS: error= 1.66D-07 at cycle  13 NSaved=  13.
 NSaved=13 IEnMin=13 EnMin= -279.501114310837     IErMin=13 ErrMin= 1.66D-07
 ErrMax= 1.66D-07  0.00D+00 EMaxC= 1.00D-01 BMatC= 4.00D-12 BMatP= 7.16D-11
 IDIUse=1 WtCom= 1.00D+00 WtEn= 0.00D+00
 Coeff-Com:  0.127D-05-0.139D-04-0.223D-04-0.884D-04 0.122D-03 0.743D-03
 Coeff-Com: -0.733D-03-0.333D-02 0.500D-03 0.411D-01-0.354D-01-0.326D+00
 Coeff-Com:  0.132D+01
 Coeff:      0.127D-05-0.139D-04-0.223D-04-0.884D-04 0.122D-03 0.743D-03
 Coeff:     -0.733D-03-0.333D-02 0.500D-03 0.411D-01-0.354D-01-0.326D+00
 Coeff:      0.132D+01
 Gap=     0.502 Goal=   None    Shift=    0.000
 RMSDP=1.91D-08 MaxDP=5.60D-07 DE=-2.29D-10 OVMax= 1.55D-06

 Cycle  14  Pass 1  IDiag  1:
 E= -279.501114310850     Delta-E=       -0.000000000013 Rises=F Damp=F
 DIIS: error= 2.43D-08 at cycle  14 NSaved=  14.
 NSaved=14 IEnMin=14 EnMin= -279.501114310850     IErMin=14 ErrMin= 2.43D-08
 ErrMax= 2.43D-08  0.00D+00 EMaxC= 1.00D-01 BMatC= 1.94D-13 BMatP= 4.00D-12
 IDIUse=1 WtCom= 1.00D+00 WtEn= 0.00D+00
 Coeff-Com: -0.187D-06 0.308D-05 0.551D-05 0.441D-05-0.819D-04 0.466D-04
 Coeff-Com:  0.265D-03 0.237D-03-0.242D-02 0.145D-02 0.169D-01-0.257D-01
 Coeff-Com: -0.198D+00 0.121D+01
 Coeff:     -0.187D-06 0.308D-05 0.551D-05 0.441D-05-0.819D-04 0.466D-04
 Coeff:      0.265D-03 0.237D-03-0.242D-02 0.145D-02 0.169D-01-0.257D-01
 Coeff:     -0.198D+00 0.121D+01
 Gap=     0.502 Goal=   None    Shift=    0.000
 RMSDP=3.77D-09 MaxDP=9.09D-08 DE=-1.27D-11 OVMax= 3.38D-07

 SCF Done:  E(RHF) =  -279.501114311     A.U. after   14 cycles
            NFock= 14  Conv=0.38D-08     -V/T= 2.0023
 KE= 2.788547879443D+02 PE=-8.951874475336D+02 EE= 2.199009272711D+02
 Leave Link  502 at Mon Feb 21 20:38:43 2022, MaxMem= 16106127360 cpu:              58.4 elap:               3.7
 (Enter /sw/contrib/gaussian/g16/B01/g16/l801.exe)
 ExpMin= 2.53D-02 ExpMax= 1.53D+04 ExpMxC= 5.22D+02 IAcc=3 IRadAn=         5 AccDes= 0.00D+00
 HarFok:  IExCor=  205 AccDes= 0.00D+00 IRadAn=         5 IDoV=-2 UseB2=F ITyADJ=14
 ICtDFT= 12500011 ScaDFX=  1.000000  1.000000  1.000000  1.000000
 Largest valence mixing into a core orbital is  2.08D-04
 Largest core mixing into a valence orbital is  3.63D-05
 Range of M.O.s used for correlation:     5   207
 NBasis=   207 NAE=    16 NBE=    16 NFC=     4 NFV=     0
 NROrb=    203 NOA=    12 NOB=    12 NVA=   191 NVB=   191

 **** Warning!!: The largest alpha MO coefficient is  0.17136301D+02

 Leave Link  801 at Mon Feb 21 20:38:43 2022, MaxMem= 16106127360 cpu:               3.9 elap:               0.2
 (Enter /sw/contrib/gaussian/g16/B01/g16/l906.exe)
 Frozen-core derivative calculation, NFC=   4 NFV=   0.
 FulOut=F Deriv=T AODrv=T NAtomX=     5
   MMem=           0  MDisk=          12 MDiskD=          12
  W3Min=      811440 MinDsk=     2425030 NBas6D=         245
 NBas2D=       30762    NTT=       30135    LW2=     7400000
    MDV= 16105574269 MDiskM=      328644 NBas2p=       30702
 Disk-based method using ON**2 memory for 12 occupieds at a time.
 Permanent disk used for amplitudes=    11516536 words.
 Estimated scratch disk usage=   321251614 words.
 IMap=   1   2   3   4   5   6   7   8   9  10  11  12  13  14  15  16
 Actual    scratch disk usage=   310331678 words.
 JobTyp=1 Pass  1:  I=   5 to  16 NPSUse= 28 ParTrn=T ParDer=T DoDerP=T.
 (rs|ai) integrals will be sorted in core.
 Spin components of T(2) and E(2):
     alpha-alpha T2 =       0.3405212626D-01 E2=     -0.1224733835D+00
     alpha-beta  T2 =       0.1869628359D+00 E2=     -0.7004716902D+00
     beta-beta   T2 =       0.3405212626D-01 E2=     -0.1224733835D+00
 The integrals were generated   1 times.
 ANorm=    0.1120297768D+01
 E2 =    -0.9454184573D+00 EUMP2 =    -0.28044653276811D+03
 Leave Link  906 at Mon Feb 21 20:40:20 2022, MaxMem= 16106127360 cpu:            2711.3 elap:              97.0
 (Enter /sw/contrib/gaussian/g16/B01/g16/l1101.exe)
 Using compressed Sx but separate Hx and Fx, NAtomX=     5.
 Will process      6 centers per pass.
 Leave Link 1101 at Mon Feb 21 20:40:21 2022, MaxMem= 16106127360 cpu:               5.5 elap:               0.2
 (Enter /sw/contrib/gaussian/g16/B01/g16/l1102.exe)
 Leave Link 1102 at Mon Feb 21 20:40:21 2022, MaxMem= 16106127360 cpu:               0.5 elap:               0.0
 (Enter /sw/contrib/gaussian/g16/B01/g16/l1110.exe)
 Forming Gx(P) for the SCF density, NAtomX=     5.
 Integral derivatives from FoFJK, PRISM(SPDF).
 Do as many integral derivatives as possible in FoFJK.
 G2DrvN: MDV=   16106126844.
 G2DrvN: will do     6 centers at a time, making    1 passes.
 Calling FoFCou, ICntrl=  3107 FMM=F I1Cent=   0 AccDes= 0.00D+00.
 FoFJK:  IHMeth= 1 ICntrl=    3107 DoSepK=F KAlg= 0 I1Cent=           0 FoldK=F
 IRaf=         0 NMat=       1 IRICut=       1 DoRegI=T DoRafI=F ISym2E= 1 IDoP0=0 IntGTp=1.
 FoFCou: FMM=F IPFlag=           0 FMFlag=      100000 FMFlg1=           0
         NFxFlg=           0 DoJE=F BraDBF=F KetDBF=F FulRan=T
         wScrn=  0.000000 ICntrl=      3107 IOpCl=  0 I1Cent=           0 NGrid=           0
         NMat0=    1 NMatS0=      1 NMatT0=    0 NMatD0=    1 NMtDS0=    0 NMtDT0=    0
 Petite list used in FoFCou.
 End of G2Drv F.D. properties file   721 does not exist.
 End of G2Drv F.D. properties file   722 does not exist.
 End of G2Drv F.D. properties file   788 does not exist.
 Leave Link 1110 at Mon Feb 21 20:40:24 2022, MaxMem= 16106127360 cpu:              83.4 elap:               3.0
 (Enter /sw/contrib/gaussian/g16/B01/g16/l1002.exe)
 Minotr:  Closed shell wavefunction.
          IDoAtm=11111
          Frozen-core window.
          Direct CPHF calculation.
          Differentiating once with respect to electric field.
                with respect to dipole field.
          Differentiating once with respect to nuclear coordinates.
          Requested convergence is 1.0D-08 RMS, and 1.0D-07 maximum.
          Secondary convergence is 1.0D-12 RMS, and 1.0D-12 maximum.
          NewPWx=T KeepS1=T KeepF1=T KeepIn=T MapXYZ=F SortEE=F KeepMc=T.
 Keep R1 ints in memory in symmetry-blocked form, NReq=348888983.
 FoFCou: FMM=F IPFlag=           0 FMFlag=           0 FMFlg1=           0
         NFxFlg=           0 DoJE=F BraDBF=F KetDBF=F FulRan=T
         wScrn=  0.000000 ICntrl=       600 IOpCl=  0 I1Cent=           0 NGrid=           0
         NMat0=    1 NMatS0=  21528 NMatT0=    0 NMatD0=    1 NMtDS0=    0 NMtDT0=    0
 Petite list used in FoFCou.
          MDV=   16106127360 using IRadAn=       1.
          Solving linear equations simultaneously, MaxMat=       0.
          There are    18 degrees of freedom in the 1st order CPHF.  IDoFFX=6 NUNeed=    18.
     15 vectors produced by pass  0 Test12= 1.70D-14 5.56D-09 XBig12= 8.28D+00 1.07D+00.
 AX will form    15 AO Fock derivatives at one time.
     15 vectors produced by pass  1 Test12= 1.70D-14 5.56D-09 XBig12= 1.34D+00 2.68D-01.
     15 vectors produced by pass  2 Test12= 1.70D-14 5.56D-09 XBig12= 1.40D-01 9.67D-02.
     15 vectors produced by pass  3 Test12= 1.70D-14 5.56D-09 XBig12= 4.90D-03 1.10D-02.
     15 vectors produced by pass  4 Test12= 1.70D-14 5.56D-09 XBig12= 9.96D-05 1.96D-03.
     15 vectors produced by pass  5 Test12= 1.70D-14 5.56D-09 XBig12= 1.44D-06 1.89D-04.
     15 vectors produced by pass  6 Test12= 1.70D-14 5.56D-09 XBig12= 1.14D-08 1.44D-05.
     12 vectors produced by pass  7 Test12= 1.70D-14 5.56D-09 XBig12= 8.27D-11 1.32D-06.
      3 vectors produced by pass  8 Test12= 1.70D-14 5.56D-09 XBig12= 5.68D-13 1.21D-07.
      2 vectors produced by pass  9 Test12= 1.70D-14 5.56D-09 XBig12= 3.70D-15 1.07D-08.
 InvSVY:  IOpt=1 It=  1 EMax= 6.66D-16
 Solved reduced A of dimension   122 with    15 vectors.
 FullF1:  Do perturbations      1 to      18.
 Saving first derivative matrices.
 End of Minotr F.D. properties file   721 does not exist.
 End of Minotr F.D. properties file   722 does not exist.
 End of Minotr F.D. properties file   788 does not exist.
 Leave Link 1002 at Mon Feb 21 20:40:27 2022, MaxMem= 16106127360 cpu:              80.2 elap:               2.9
 (Enter /sw/contrib/gaussian/g16/B01/g16/l811.exe)
 MDV= 16106127360.
 Form MO integral derivatives with frozen-active canonical formalism.
 MOERI=1 MOERIx=1 NAtoms=     5 NAtomX=     5.
 Discarding MO integrals.
 MO basis two electron integral derivatives will not be stored on disk.
 IAlg= 3 DoFC=T DoPWx=T Debug=F.
 Frozen-core window:  NFC=   4 NFV=   0.
 Reordered first order wavefunction length =     18678272
 In DefCFB: NBatch=  1 ICI= 16 ICA=191 LFMax= 96
            Large arrays: LIAPS=   619940160 LIARS=   288257200 words.
 In StABat: MaxSiz= 55 MinSiz= 25 NAtomB=  5
 DoIAMN: NPSUse= 28.
 Leave Link  811 at Mon Feb 21 20:41:47 2022, MaxMem= 16106127360 cpu:            2247.9 elap:              80.4
 (Enter /sw/contrib/gaussian/g16/B01/g16/l804.exe)
 Frozen-core window:  NFC=   4 NFV=   0.
 Closed-shell transformation, MDV= 16106127360 ITran=4 ISComp=1.
 Semi-Direct transformation.
 ModeAB=           2 MOrb=            16 LenV=   16104923023
 LASXX=     67341636 LTotXX=    67341636 LenRXX=    67341636
 LTotAB=    68301760 MaxLAS=    99807120 LenRXY=    99807120
 NonZer=   134683272 LenScr=   202817536 LnRSAI=           0
 LnScr1=           0 LExtra=           0 Total=    369966292
 MaxDsk=          -1 SrtSym=           F ITran=            4
 DoSDTr:  NPSUse= 28
 JobTyp=0 Pass  1:  I=   1 to  16.
 (rs|ai) integrals will be sorted in core.
 Complete sort for first half transformation.
 First half transformation complete.
 Begin second half transformation for I=  10.
 Begin second half transformation for I=  10.
 Complete sort for second half transformation.
 Second half transformation complete.
 Spin components of T(2) and E(2):
     alpha-alpha T2 =       0.3405212626D-01 E2=     -0.1224733835D+00
     alpha-beta  T2 =       0.1869628359D+00 E2=     -0.7004716902D+00
     beta-beta   T2 =       0.3405212626D-01 E2=     -0.1224733835D+00
 ANorm=    0.1584340297D+01
 E2 =    -0.9454184573D+00 EUMP2 =    -0.28044653276811D+03
 Leave Link  804 at Mon Feb 21 20:42:02 2022, MaxMem= 16106127360 cpu:             428.4 elap:              15.4
 (Enter /sw/contrib/gaussian/g16/B01/g16/l1002.exe)
 Minotr:  Closed shell wavefunction.
          Computing MP2/KS-MP2 derivatives.
          Using Z-Vector for PSCF gradient.
          Skipping F1 and S1 gradient terms here.
          IDoAtm=11111
          Frozen-core window.
          Using MO integrals in the linear equations.
          Forming densities via direct SCF.
          Differentiating once with respect to electric field.
                with respect to dipole field.
          Differentiating once with respect to nuclear coordinates.
          Using symmetry in CPHF.
          Requested convergence is 1.0D-10 RMS, and 1.0D-09 maximum.
          NewPWx=F KeepS1=T KeepF1=T KeepIn=T MapXYZ=F SortEE=F KeepMc=T.
          MDV=   16106127360 using IRadAn=       5.
          Solving linear equations separately, MaxMat=       0.
          There are     1 degrees of freedom in the 1st order CPHF.  IDoFFX=0 NUNeed=     1.
 FoFJK:  IHMeth= 1 ICntrl=       0 DoSepK=F KAlg= 0 I1Cent=           0 FoldK=F
 IRaf=         0 NMat=       1 IRICut=       1 DoRegI=T DoRafI=F ISym2E= 0 IDoP0=0 IntGTp=1.
 FoFCou: FMM=F IPFlag=           0 FMFlag=      100000 FMFlg1=           0
         NFxFlg=           0 DoJE=F BraDBF=F KetDBF=F FulRan=T
         wScrn=  0.000000 ICntrl=         0 IOpCl=  0 I1Cent=           0 NGrid=           0
         NMat0=    1 NMatS0=      1 NMatT0=    0 NMatD0=    1 NMtDS0=    0 NMtDT0=    0
 Symmetry not used in FoFCou.
 LinEq1:  Iter=  0 NonCon=     1 RMS=5.96D-03 Max=1.32D-01 NDo=     1
 LinEq1:  Iter=  1 NonCon=     1 RMS=1.90D-03 Max=3.82D-02 NDo=     1
 LinEq1:  Iter=  2 NonCon=     1 RMS=8.68D-04 Max=1.44D-02 NDo=     1
 LinEq1:  Iter=  3 NonCon=     1 RMS=3.86D-04 Max=7.75D-03 NDo=     1
 LinEq1:  Iter=  4 NonCon=     1 RMS=1.19D-04 Max=1.92D-03 NDo=     1
 LinEq1:  Iter=  5 NonCon=     1 RMS=4.46D-05 Max=7.15D-04 NDo=     1
 LinEq1:  Iter=  6 NonCon=     1 RMS=2.00D-05 Max=2.34D-04 NDo=     1
 LinEq1:  Iter=  7 NonCon=     1 RMS=8.10D-06 Max=1.59D-04 NDo=     1
 LinEq1:  Iter=  8 NonCon=     1 RMS=3.46D-06 Max=3.38D-05 NDo=     1
 LinEq1:  Iter=  9 NonCon=     1 RMS=9.46D-07 Max=1.31D-05 NDo=     1
 LinEq1:  Iter= 10 NonCon=     1 RMS=1.86D-07 Max=2.04D-06 NDo=     1
 LinEq1:  Iter= 11 NonCon=     1 RMS=3.48D-08 Max=3.52D-07 NDo=     1
 LinEq1:  Iter= 12 NonCon=     1 RMS=8.37D-09 Max=1.28D-07 NDo=     1
 LinEq1:  Iter= 13 NonCon=     1 RMS=1.50D-09 Max=2.52D-08 NDo=     1
 LinEq1:  Iter= 14 NonCon=     1 RMS=2.72D-10 Max=3.83D-09 NDo=     1
 LinEq1:  Iter= 15 NonCon=     0 RMS=4.95D-11 Max=5.55D-10 NDo=     1
 Linear equations converged to 1.000D-10 1.000D-09 after    15 iterations.
 End of Minotr F.D. properties file   721 does not exist.
 End of Minotr F.D. properties file   722 does not exist.
 End of Minotr F.D. properties file   788 does not exist.
 Leave Link 1002 at Mon Feb 21 20:42:05 2022, MaxMem= 16106127360 cpu:              65.7 elap:               2.4
 (Enter /sw/contrib/gaussian/g16/B01/g16/l1102.exe)
 Use density number 2.
 Symmetrizing basis deriv contribution to polar:
 IMax=3 JMax=2 DiffMx= 0.00D+00
 Leave Link 1102 at Mon Feb 21 20:42:05 2022, MaxMem= 16106127360 cpu:               1.2 elap:               0.1
 (Enter /sw/contrib/gaussian/g16/B01/g16/l1110.exe)
 Forming Gx(P) for generalized density number  2 NAtomX=     5.
 Integral derivatives from FoFJK, PRISM(SPDF).
 Do as many integral derivatives as possible in FoFJK.
 G2DrvN: MDV=   16106126844.
 G2DrvN: will do     6 centers at a time, making    1 passes.
 Calling FoFCou, ICntrl=  3107 FMM=F I1Cent=   0 AccDes= 0.00D+00.
 FoFJK:  IHMeth= 1 ICntrl=    3107 DoSepK=F KAlg= 0 I1Cent=           0 FoldK=F
 IRaf=         0 NMat=       1 IRICut=       1 DoRegI=T DoRafI=F ISym2E= 1 IDoP0=0 IntGTp=1.
 FoFCou: FMM=F IPFlag=           0 FMFlag=      100000 FMFlg1=           0
         NFxFlg=           0 DoJE=F BraDBF=F KetDBF=F FulRan=T
         wScrn=  0.000000 ICntrl=      3107 IOpCl=  0 I1Cent=           0 NGrid=           0
         NMat0=    1 NMatS0=      1 NMatT0=    0 NMatD0=    1 NMtDS0=    0 NMtDT0=    0
 Petite list used in FoFCou.
 End of G2Drv F.D. properties file   721 does not exist.
 End of G2Drv F.D. properties file   722 does not exist.
 End of G2Drv F.D. properties file   788 does not exist.
 Leave Link 1110 at Mon Feb 21 20:42:08 2022, MaxMem= 16106127360 cpu:              83.4 elap:               3.0
 (Enter /sw/contrib/gaussian/g16/B01/g16/l1112.exe)
 MP22nd: MDV=   16106127360
 This link is doing NAtomX=     5 total of    18 degrees of freedom.
 Using ON3 I/O method in MakUI.
 Frozen-core window:  NFC=   4 NFV=   0.
 Using Ix for Sx.
 Use MO integrals over full window.
 Using OV2 memory method for fx*t*t/D, MaxI=    16 DoOO2=F NP=  28.
 R2 and R3 integrals will be kept in memory, NReq=   915591705.
 FoFCou: FMM=F IPFlag=           0 FMFlag=           0 FMFlg1=           0
         NFxFlg=           0 DoJE=F BraDBF=F KetDBF=F FulRan=T
         wScrn=  0.000000 ICntrl=       600 IOpCl=  0 I1Cent=           0 NGrid=           0
         NMat0=    1 NMatS0=      1 NMatT0=    0 NMatD0=    1 NMtDS0=    0 NMtDT0=    0
 Symmetry not used in FoFCou.
 DD1Dir will call FoFMem   1 times, MxPair=       272
 NAB=   136 NAA=     0 NBB=     0.
 Symmetry is being used.
 FoFJK:  IHMeth= 1 ICntrl=       0 DoSepK=F KAlg= 0 I1Cent=           0 FoldK=F
 IRaf=         0 NMat=      18 IRICut=      45 DoRegI=T DoRafI=T ISym2E= 2 IDoP0=3 IntGTp=3.
 Discarding MO integrals.
 Leave Link 1112 at Mon Feb 21 20:42:41 2022, MaxMem= 16106127360 cpu:             922.4 elap:              33.2
 (Enter /sw/contrib/gaussian/g16/B01/g16/l601.exe)
 Copying SCF densities to generalized density rwf, IOpCl= 0 IROHF=0.

 **********************************************************************

            Population analysis using the MP2 Density.

 **********************************************************************

 Orbital symmetries:
       Occupied  (A') (A') (A') (A') (A') (A') (A') (A') (A') (A')
                 (A") (A') (A") (A') (A") (A')
       Virtual   (A') (A") (A') (A') (A") (A') (A') (A') (A") (A')
                 (A") (A') (A') (A') (A") (A') (A') (A") (A') (A')
                 (A') (A') (A') (A') (A") (A') (A') (A") (A') (A')
                 (A") (A') (A") (A') (A") (A') (A') (A') (A") (A")
                 (A') (A') (A") (A') (A') (A") (A') (A') (A") (A')
                 (A") (A') (A') (A') (A") (A') (A") (A') (A") (A')
                 (A') (A') (A") (A') (A') (A") (A') (A") (A') (A')
                 (A") (A') (A') (A") (A") (A') (A') (A") (A') (A')
                 (A') (A") (A') (A") (A') (A") (A') (A") (A') (A')
                 (A") (A') (A') (A") (A') (A") (A') (A") (A') (A')
                 (A") (A') (A") (A') (A') (A") (A') (A') (A") (A')
                 (A") (A') (A') (A') (A") (A') (A') (A') (A") (A')
                 (A") (A') (A") (A') (A') (A") (A") (A') (A") (A')
                 (A') (A') (A') (A") (A") (A") (A') (A') (A') (A')
                 (A") (A') (A") (A') (A') (A") (A') (A') (A') (A')
                 (A") (A') (A') (A") (A') (A") (A') (A") (A") (A')
                 (A') (A") (A') (A') (A") (A") (A") (A') (A") (A')
                 (A") (A') (A") (A') (A") (A') (A") (A") (A') (A')
                 (A') (A') (A') (A') (A') (A') (A') (A') (A') (A')
                 (A')
 The electronic state is 1-A'.
 Alpha  occ. eigenvalues --  -20.69062 -20.68427 -20.66091 -15.81279  -1.62416
 Alpha  occ. eigenvalues --   -1.49732  -1.25402  -0.94822  -0.77408  -0.75757
 Alpha  occ. eigenvalues --   -0.71209  -0.67864  -0.62090  -0.59171  -0.48554
 Alpha  occ. eigenvalues --   -0.47254
 Alpha virt. eigenvalues --    0.02991   0.07156   0.08592   0.10162   0.13382
 Alpha virt. eigenvalues --    0.13409   0.14414   0.15467   0.17818   0.19391
 Alpha virt. eigenvalues --    0.19958   0.20641   0.22067   0.23529   0.23735
 Alpha virt. eigenvalues --    0.26497   0.29344   0.30368   0.31120   0.34321
 Alpha virt. eigenvalues --    0.35011   0.38732   0.42397   0.43094   0.52774
 Alpha virt. eigenvalues --    0.52944   0.55797   0.58099   0.62615   0.63805
 Alpha virt. eigenvalues --    0.67468   0.68492   0.70653   0.70958   0.72820
 Alpha virt. eigenvalues --    0.72907   0.74437   0.79389   0.79514   0.81204
 Alpha virt. eigenvalues --    0.81219   0.82903   0.86757   0.90860   0.92065
 Alpha virt. eigenvalues --    0.92781   0.95422   0.97608   0.98650   1.01772
 Alpha virt. eigenvalues --    1.05142   1.05436   1.08274   1.11725   1.14459
 Alpha virt. eigenvalues --    1.19042   1.22101   1.23638   1.33970   1.35193
 Alpha virt. eigenvalues --    1.38565   1.45807   1.48692   1.50529   1.53706
 Alpha virt. eigenvalues --    1.56639   1.57949   1.60969   1.66182   1.67108
 Alpha virt. eigenvalues --    1.70309   1.79870   1.83048   1.83644   1.87708
 Alpha virt. eigenvalues --    1.91147   1.95450   1.99461   2.00332   2.07948
 Alpha virt. eigenvalues --    2.12805   2.13209   2.14966   2.22719   2.26197
 Alpha virt. eigenvalues --    2.26400   2.29138   2.31360   2.34209   2.38668
 Alpha virt. eigenvalues --    2.42854   2.43516   2.45301   2.46235   2.48074
 Alpha virt. eigenvalues --    2.49892   2.59107   2.59973   2.61887   2.62711
 Alpha virt. eigenvalues --    2.63531   2.66488   2.75802   2.82746   2.84380
 Alpha virt. eigenvalues --    2.87793   2.89154   2.92920   2.95267   3.02406
 Alpha virt. eigenvalues --    3.06943   3.11980   3.20976   3.22301   3.31355
 Alpha virt. eigenvalues --    3.34317   3.51898   3.63735   3.83674   3.83994
 Alpha virt. eigenvalues --    4.14564   4.17427   4.18332   4.25884   4.34375
 Alpha virt. eigenvalues --    4.39710   4.46116   4.52983   4.65804   4.73729
 Alpha virt. eigenvalues --    4.80179   4.82351   4.82853   4.89553   5.02527
 Alpha virt. eigenvalues --    5.07682   5.10135   5.13446   5.17246   5.25302
 Alpha virt. eigenvalues --    5.26956   5.30624   5.32837   5.35884   5.60074
 Alpha virt. eigenvalues --    5.67347   5.76365   5.84566   5.95830   6.17654
 Alpha virt. eigenvalues --    6.31216   6.33032   6.39353   6.49386   6.50518
 Alpha virt. eigenvalues --    6.61541   6.66779   6.70376   6.76041   6.76248
 Alpha virt. eigenvalues --    6.83527   6.89942   7.02776   7.04730   7.05678
 Alpha virt. eigenvalues --    7.08886   7.12554   7.14000   7.18243   7.22751
 Alpha virt. eigenvalues --    7.24147   7.30127   7.32419   7.35127   7.39982
 Alpha virt. eigenvalues --    7.45411   7.48486   7.60685   7.62143   7.62633
 Alpha virt. eigenvalues --    7.66751   7.79910   7.88714   8.09443   8.31977
 Alpha virt. eigenvalues --    8.39026   8.54221  13.38935  14.38739  15.19134
 Alpha virt. eigenvalues --   16.15458
          Condensed to atoms (all electrons):
               1          2          3          4          5
     1  H    0.585489   0.130151   0.019002   0.011975  -0.000506
     2  O    0.130151   8.322934  -0.177494  -0.088960   0.015356
     3  O    0.019002  -0.177494   8.477850  -0.131779  -0.038401
     4  N    0.011975  -0.088960  -0.131779   6.973324  -0.055300
     5  O   -0.000506   0.015356  -0.038401  -0.055300   8.272316
 Mulliken charges:
               1
     1  H    0.253889
     2  O   -0.201987
     3  O   -0.149177
     4  N    0.290740
     5  O   -0.193465
 Sum of Mulliken charges =  -0.00000
 Mulliken charges with hydrogens summed into heavy atoms:
               1
     2  O    0.051902
     3  O   -0.149177
     4  N    0.290740
     5  O   -0.193465
 APT charges:
               1
     1  H    0.300087
     2  O   -0.285583
     3  O   -0.497395
     4  N    0.874926
     5  O   -0.392035
 Sum of APT charges =  -0.00000
 APT charges with hydrogens summed into heavy atoms:
               1
     2  O    0.014504
     3  O   -0.497395
     4  N    0.874926
     5  O   -0.392035
 Electronic spatial extent (au):  <R**2>=            252.6087
 Charge=             -0.0000 electrons
 Dipole moment (field-independent basis, Debye):
    X=              0.4501    Y=              1.3552    Z=             -0.0000  Tot=              1.4280
 Quadrupole moment (field-independent basis, Debye-Ang):
   XX=            -22.6751   YY=            -18.5934   ZZ=            -22.0061
   XY=              3.1059   XZ=             -0.0000   YZ=              0.0000
 Traceless Quadrupole moment (field-independent basis, Debye-Ang):
   XX=             -1.5836   YY=              2.4981   ZZ=             -0.9146
   XY=              3.1059   XZ=             -0.0000   YZ=              0.0000
 Octapole moment (field-independent basis, Debye-Ang**2):
  XXX=              2.3356  YYY=             11.3989  ZZZ=              0.0000  XYY=              7.6829
  XXY=              6.1365  XXZ=             -0.0000  XZZ=             -1.5742  YZZ=             -0.8556
  YYZ=             -0.0000  XYZ=             -0.0000
 Hexadecapole moment (field-independent basis, Debye-Ang**3):
 XXXX=           -158.7644 YYYY=            -89.8613 ZZZZ=            -18.2292 XXXY=            -37.7028
 XXXZ=             -0.0000 YYYX=            -31.0504 YYYZ=              0.0000 ZZZX=             -0.0000
 ZZZY=              0.0000 XXYY=            -34.6702 XXZZ=            -30.7306 YYZZ=            -20.7279
 XXYZ=              0.0000 YYXZ=              0.0000 ZZXY=            -15.0452
 N-N= 1.169306180075D+02 E-N=-8.959715145680D+02  KE= 2.802070088989D+02
 Symmetry A'   KE= 2.662341341605D+02
 Symmetry A"   KE= 1.397287473842D+01
  Exact polarizability:  33.864   9.391  30.250   0.000  -0.000  17.905
 Approx polarizability:  28.994   5.041  23.545  -0.000  -0.000  15.509
 No NMR shielding tensors so no spin-rotation constants.
 Leave Link  601 at Mon Feb 21 20:42:42 2022, MaxMem= 16106127360 cpu:              10.2 elap:               0.4
 (Enter /sw/contrib/gaussian/g16/B01/g16/l701.exe)
 ... and contract with generalized density number  2.
 Compute integral second derivatives.
 Leave Link  701 at Mon Feb 21 20:42:42 2022, MaxMem= 16106127360 cpu:               6.1 elap:               0.2
 (Enter /sw/contrib/gaussian/g16/B01/g16/l702.exe)
 L702 exits ... SP integral derivatives will be done elsewhere.
 Leave Link  702 at Mon Feb 21 20:42:42 2022, MaxMem= 16106127360 cpu:               0.5 elap:               0.0
 (Enter /sw/contrib/gaussian/g16/B01/g16/l703.exe)
 Integral derivatives from FoFJK, PRISM(SPDF).
 Compute integral second derivatives, UseDBF=F ICtDFT=           0.
 Calling FoFJK, ICntrl=  10100127 FMM=F ISym2X=1 I1Cent= 0 IOpClX= 0 NMat=1 NMatS=1 NMatT=0.
 FoFJK:  IHMeth= 1 ICntrl=10100127 DoSepK=F KAlg= 0 I1Cent=           0 FoldK=F
 IRaf=         0 NMat=       1 IRICut=       1 DoRegI=T DoRafI=F ISym2E= 1 IDoP0=0 IntGTp=1.
 FoFCou: FMM=F IPFlag=           0 FMFlag=      100000 FMFlg1=         800
         NFxFlg=           0 DoJE=F BraDBF=F KetDBF=F FulRan=T
         wScrn=  0.000000 ICntrl=  10100127 IOpCl=  0 I1Cent=           0 NGrid=           0
         NMat0=    1 NMatS0=      1 NMatT0=    0 NMatD0=    1 NMtDS0=    0 NMtDT0=    0
 Petite list used in FoFCou.
 Leave Link  703 at Mon Feb 21 20:42:57 2022, MaxMem= 16106127360 cpu:             421.6 elap:              15.1
 (Enter /sw/contrib/gaussian/g16/B01/g16/l716.exe)
 Dipole        = 1.77070617D-01 5.33167101D-01-1.43411731D-32
 Polarizability= 3.38644521D+01 9.39142108D+00 3.02499597D+01
                 1.47904134D-31-1.88098683D-30 1.79050727D+01
 Full mass-weighted force constant matrix:
 Low frequencies --- -259.6030  -30.0046  -26.0439   -0.0013   -0.0009   -0.0006
 Low frequencies ---   93.1661  225.4252  337.0481
 ******    1 imaginary frequencies (negative Signs) ****** 
 Diagonal vibrational polarizability:
       13.9282094      25.0568080      51.3417145
 Harmonic frequencies (cm**-1), IR intensities (KM/Mole), Raman scattering
 activities (A**4/AMU), depolarization ratios for plane and unpolarized
 incident light, reduced masses (AMU), force constants (mDyne/A),
 and normal coordinates:
                      1                      2                      3
                     A"                     A"                     A'
 Frequencies --   -254.0949               225.2793               337.0346
 Red. masses --      1.1120                13.7719                 8.7423
 Frc consts  --      0.0423                 0.4118                 0.5851
 IR Inten    --    123.1213                 0.0436                 5.6847
  Atom  AN      X      Y      Z        X      Y      Z        X      Y      Z
     1   1    -0.00  -0.00   1.00    -0.00   0.00  -0.31     0.55  -0.42  -0.00
     2   8     0.00  -0.00  -0.05    -0.00   0.00  -0.37    -0.08  -0.38  -0.00
     3   8    -0.00  -0.00  -0.05     0.00  -0.00   0.36    -0.15   0.44   0.00
     4   7     0.00   0.00   0.04     0.00  -0.00   0.62     0.04   0.25   0.00
     5   8     0.00   0.00   0.01    -0.00   0.00  -0.50     0.16  -0.26  -0.00
                      4                      5                      6
                     A'                     A'                     A'
 Frequencies --    453.3059               787.5678               970.5193
 Red. masses --     12.5510                12.9148                15.8206
 Frc consts  --      1.5195                 4.7197                 8.7797
 IR Inten    --    197.4939               169.0678                24.4365
  Atom  AN      X      Y      Z        X      Y      Z        X      Y      Z
     1   1     0.38   0.21   0.00    -0.36   0.16   0.00    -0.03  -0.03  -0.00
     2   8     0.33   0.22  -0.00     0.42   0.08  -0.00    -0.53   0.03  -0.00
     3   8     0.18   0.43   0.00    -0.05  -0.27   0.00     0.76  -0.02   0.00
     4   7    -0.35  -0.41   0.00    -0.14   0.62   0.00    -0.12   0.24   0.00
     5   8    -0.22  -0.30  -0.00    -0.21  -0.37  -0.00    -0.12  -0.22  -0.00
                      7                      8                      9
                     A'                     A'                     A'
 Frequencies --   1386.3992              1677.9041              3777.8196
 Red. masses --      1.1290                12.8927                 1.0669
 Frc consts  --      1.2786                21.3859                 8.9709
 IR Inten    --    163.2021               136.5388                79.6332
  Atom  AN      X      Y      Z        X      Y      Z        X      Y      Z
     1   1     1.00  -0.02  -0.00    -0.38  -0.01   0.00     0.07   1.00   0.00
     2   8    -0.02   0.05  -0.00    -0.00  -0.04   0.00    -0.01  -0.06  -0.00
     3   8    -0.03  -0.05   0.00     0.00   0.15  -0.00     0.00   0.00  -0.00
     4   7     0.02   0.01   0.00     0.70  -0.05  -0.00    -0.00  -0.00   0.00
     5   8    -0.03  -0.01  -0.00    -0.59  -0.07   0.00     0.00   0.00   0.00

 -------------------
 - Thermochemistry -
 -------------------
 Temperature   298.150 Kelvin.  Pressure   1.00000 Atm.
 Atom     1 has atomic number  1 and mass   1.00783
 Atom     2 has atomic number  8 and mass  15.99491
 Atom     3 has atomic number  8 and mass  15.99491
 Atom     4 has atomic number  7 and mass  14.00307
 Atom     5 has atomic number  8 and mass  15.99491
 Molecular mass:    62.99564 amu.
 Principal axes and moments of inertia in atomic units:
                           1         2         3
     Eigenvalues --    32.93427 359.62277 392.55703
           X            0.80871  -0.58821   0.00000
           Y            0.58821   0.80871   0.00000
           Z            0.00000   0.00000   1.00000
 This molecule is an asymmetric top.
 Rotational symmetry number  1.
 Rotational temperatures (Kelvin)      2.62990     0.24085     0.22064
 Rotational constants (GHZ):          54.79828     5.01843     4.59740
    1 imaginary frequencies ignored.
 Zero-point vibrational energy      57515.4 (Joules/Mol)
                                   13.74652 (Kcal/Mol)
 Warning -- explicit consideration of   3 degrees of freedom as
           vibrations may cause significant error
 Vibrational temperatures:    324.13   484.92   652.21  1133.13  1396.36
          (Kelvin)           1994.72  2414.13  5435.44
 
 Zero-point correction=                           0.021906 (Hartree/Particle)
 Thermal correction to Energy=                    0.026032
 Thermal correction to Enthalpy=                  0.026976
 Thermal correction to Gibbs Free Energy=        -0.004228
 Sum of electronic and zero-point Energies=           -280.424626
 Sum of electronic and thermal Energies=              -280.420501
 Sum of electronic and thermal Enthalpies=            -280.419557
 Sum of electronic and thermal Free Energies=         -280.450760
 
                     E (Thermal)             CV                S
                      KCal/Mol        Cal/Mol-Kelvin    Cal/Mol-Kelvin
 Total                   16.335             11.952             65.673
 Electronic               0.000              0.000              0.000
 Translational            0.889              2.981             38.341
 Rotational               0.889              2.981             23.057
 Vibrational             14.558              5.990              4.276
 Vibration     1          0.650              1.803              1.916
 Vibration     2          0.718              1.602              1.226
 Vibration     3          0.812              1.354              0.786
                       Q            Log10(Q)             Ln(Q)
 Total Bot       0.880234D+02          1.944598          4.477603
 Total V=0       0.104922D+13         12.020867         27.679069
 Vib (Bot)       0.183499D-09         -9.736366        -22.418811
 Vib (Bot)    1  0.876074D+00         -0.057459         -0.132305
 Vib (Bot)    2  0.551966D+00         -0.258088         -0.594268
 Vib (Bot)    3  0.377286D+00         -0.423329         -0.974751
 Vib (V=0)       0.218727D+01          0.339903          0.782655
 Vib (V=0)    1  0.150871D+01          0.178607          0.411258
 Vib (V=0)    2  0.124476D+01          0.095085          0.218942
 Vib (V=0)    3  0.112637D+01          0.051683          0.119004
 Electronic      0.100000D+01          0.000000          0.000000
 Translational   0.196526D+08          7.293420         16.793719
 Rotational      0.244087D+05          4.387545         10.102695
 
                                                                title
                                                             IR Spectrum
 
     3                                                                      1         1                                              
     7                                                                      6         3             9     7          4   3   2       
     7                                                                      7         8             7     8          5   3   2       
     8                                                                      8         6             1     8          3   7   5       
 
     X                                                                      X         X             X     X          X   X           
     X                                                                      X         X             X     X          X               
     X                                                                      X         X                   X          X               
     X                                                                      X         X                   X          X               
     X                                                                      X         X                   X          X               
     X                                                                      X         X                   X          X               
     X                                                                      X         X                   X          X               
     X                                                                      X         X                   X          X               
                                                                            X         X                   X          X               
                                                                            X         X                   X          X               
                                                                            X         X                   X          X               
                                                                            X         X                   X          X               
                                                                            X         X                   X          X               
                                                                            X         X                   X          X               
                                                                                      X                   X          X               
                                                                                      X                   X          X               
                                                                                      X                   X          X               
                                                                                                                     X               
                                                                                                                     X               
                                                                                                                     X               
 
 ***** Axes restored to original set *****
 -------------------------------------------------------------------
 Center     Atomic                   Forces (Hartrees/Bohr)
 Number     Number              X              Y              Z
 -------------------------------------------------------------------
      1        1          -0.005169012    0.000000000   -0.000472750
      2        8           0.002771642   -0.000000000   -0.003680769
      3        8           0.001600288    0.000000000    0.004209869
      4        7           0.000315054   -0.000000000   -0.000562455
      5        8           0.000482028   -0.000000000    0.000506106
 -------------------------------------------------------------------
 Cartesian Forces:  Max     0.005169012 RMS     0.002150353
 -----------------------------------------------------------------------------------------------
                       Internal Coordinate Forces (Hartree/Bohr or radian)
  Cent   Atom   N1       Length/X         N2         Alpha/Y        N3         Beta/Z          J
 -----------------------------------------------------------------------------------------------
      1  H 
      2  O        1   0.000473(     1)
      3  O        2   0.002757(     2)      1   0.009465(     5)
      4  N        3   0.000044(     3)      2   0.001323(     6)      1   0.000000(     8)     0
      5  O        4   0.000576(     4)      3   0.000876(     7)      2  -0.000000(     9)     0
 -----------------------------------------------------------------------------------------------
 Internal  Forces:  Max     0.009464979 RMS     0.003337734
 Force constants in Cartesian coordinates: 
                1             2             3             4             5 
      1  0.665929D-01
      2  0.000000D+00 -0.214436D-02
      3  0.942519D-02  0.000000D+00  0.512253D+00
      4 -0.314851D-01  0.000000D+00 -0.191447D-01  0.272913D+00
      5  0.000000D+00  0.779960D-03  0.000000D+00  0.000000D+00  0.551244D-02
      6  0.448058D-01  0.000000D+00 -0.506807D+00  0.324295D-01  0.000000D+00
      7 -0.243636D-01  0.000000D+00  0.116158D-01 -0.222239D+00  0.000000D+00
      8  0.000000D+00  0.290008D-02  0.000000D+00  0.000000D+00 -0.764729D-02
      9 -0.534438D-01  0.000000D+00 -0.205177D-02 -0.170651D-01  0.000000D+00
     10 -0.962338D-02  0.000000D+00 -0.523843D-02 -0.182398D-01  0.000000D+00
     11  0.000000D+00 -0.244241D-02  0.000000D+00  0.000000D+00 -0.510805D-02
     12  0.480574D-02  0.000000D+00 -0.464444D-02  0.143603D-01  0.000000D+00
     13 -0.112086D-02  0.000000D+00  0.334213D-02 -0.949104D-03  0.000000D+00
     14  0.000000D+00  0.906735D-03  0.000000D+00  0.000000D+00  0.646295D-02
     15 -0.559287D-02  0.000000D+00  0.125049D-02 -0.105800D-01  0.000000D+00
                6             7             8             9            10 
      6  0.586388D+00
      7 -0.175195D-01  0.349428D+00
      8  0.000000D+00  0.000000D+00  0.361697D-02
      9 -0.736592D-01  0.343455D-01  0.000000D+00  0.177702D+00
     10 -0.511474D-01 -0.684289D-01  0.000000D+00  0.174076D+00  0.826158D+00
     11  0.000000D+00  0.000000D+00  0.805435D-02  0.000000D+00  0.000000D+00
     12  0.176102D-01  0.612142D-01  0.000000D+00 -0.916000D-01 -0.443335D-01
     13 -0.856839D-02 -0.343961D-01  0.000000D+00 -0.137912D+00 -0.729866D+00
     14  0.000000D+00  0.000000D+00 -0.692410D-02  0.000000D+00  0.000000D+00
     15 -0.235323D-01 -0.896559D-01  0.000000D+00 -0.103909D-01 -0.733566D-01
               11            12            13            14            15 
     11  0.911178D-02
     12  0.000000D+00  0.190271D+00
     13  0.000000D+00 -0.360467D-01  0.766332D+00
     14 -0.961567D-02  0.000000D+00  0.000000D+00  0.917008D-02
     15  0.000000D+00 -0.111636D+00  0.179185D+00  0.000000D+00  0.144309D+00
 Force constants in internal coordinates: 
                1             2             3             4             5 
      1  0.512253D+00
      2 -0.919662D-02  0.286983D+00
      3  0.360472D-02  0.228463D-02  0.117968D+00
      4 -0.352792D-02  0.619513D-02  0.152839D+00  0.812159D+00
      5  0.120895D-01  0.728633D-01  0.389409D-02  0.411582D-02  0.224147D+00
      6  0.520045D-02  0.592575D-01  0.423578D-01  0.211370D-01  0.320713D-01
      7 -0.118584D-02  0.380162D-01  0.321456D-01  0.853403D-01  0.212391D-01
      8  0.000000D+00  0.000000D+00  0.000000D+00  0.000000D+00  0.000000D+00
      9  0.000000D+00  0.000000D+00  0.000000D+00  0.000000D+00  0.000000D+00
                6             7             8             9 
      6  0.283051D+00
      7  0.960194D-01  0.483297D+00
      8  0.000000D+00  0.000000D+00 -0.711200D-02
      9  0.000000D+00  0.000000D+00 -0.345708D-02  0.409596D-01
 Leave Link  716 at Mon Feb 21 20:42:57 2022, MaxMem= 16106127360 cpu:               1.1 elap:               0.1
 (Enter /sw/contrib/gaussian/g16/B01/g16/l103.exe)

 GradGradGradGradGradGradGradGradGradGradGradGradGradGradGradGradGradGrad
 Berny optimization.
 Search for a local minimum.
 Step number   1 out of a maximum of    2
 All quantities printed in internal units (Hartrees-Bohrs-Radians)
 Second derivative matrix not updated -- analytic derivatives used.
 The second derivative matrix:
                          r1        r2        r3        r4        a1
           r1           0.51225
           r2          -0.00920   0.28698
           r3           0.00360   0.00228   0.11797
           r4          -0.00353   0.00620   0.15284   0.81216
           a1           0.01209   0.07286   0.00389   0.00412   0.22415
           a2           0.00520   0.05926   0.04236   0.02114   0.03207
           a3          -0.00119   0.03802   0.03215   0.08534   0.02124
           d1           0.00000   0.00000  -0.00000  -0.00000   0.00000
           d2           0.00000   0.00000  -0.00000  -0.00000   0.00000
                          a2        a3        d1        d2
           a2           0.28305
           a3           0.09602   0.48330
           d1           0.00000   0.00000  -0.00711
           d2           0.00000   0.00000  -0.00346   0.04096
 ITU=  0
     Eigenvalues ---   -0.00736   0.04121   0.07850   0.17525   0.22825
     Eigenvalues ---    0.33430   0.51270   0.51955   0.87131
 Eigenvalue     1 is  -7.36D-03 should be greater than     0.000000 Eigenvector:
                          d1        d2        r3        a2        a3
   1                    0.99745   0.07136   0.00000  -0.00000  -0.00000
                          r4        a1        r2        r1
   1                   -0.00000   0.00000  -0.00000  -0.00000
 Angle between quadratic step and forces=  20.47 degrees.
 Linear search not attempted -- first point.
 Variable       Old X    -DE/DX   Delta X   Delta X   Delta X     New X
                                 (Linear)    (Quad)   (Total)
    r1        1.83110   0.00047   0.00000  -0.00009  -0.00009   1.83101
    r2        2.74940   0.00276   0.00000  -0.00130  -0.00130   2.74810
    r3        2.75670   0.00004   0.00000  -0.00236  -0.00236   2.75434
    r4        2.21236   0.00058   0.00000   0.00094   0.00094   2.21330
    a1        1.65986   0.00946   0.00000   0.04262   0.04262   1.70248
    a2        1.78543   0.00132   0.00000   0.00042   0.00042   1.78585
    a3        1.90362   0.00088   0.00000  -0.00005  -0.00005   1.90357
    d1        3.14159   0.00000   0.00000   0.00000   0.00000   3.14159
    d2        3.14159  -0.00000   0.00000   0.00000   0.00000   3.14159
         Item               Value     Threshold  Converged?
 Maximum Force            0.009465     0.000450     NO 
 RMS     Force            0.003338     0.000300     NO 
 Maximum Displacement     0.042622     0.001800     NO 
 RMS     Displacement     0.014240     0.001200     NO 
 Predicted change in Energy=-2.003716D-04
                       ----------------------------
                       ! Non-Optimized Parameters !
                       ! (Angstroms and Degrees)  !
 ----------------------                            ----------------------
 !      Name          Value   Derivative information (Atomic Units)     !
 ------------------------------------------------------------------------
 !       r1          0.9689   -DE/DX =    0.0005                        !
 !       r2          1.4542   -DE/DX =    0.0028                        !
 !       r3          1.4575   -DE/DX =    0.0                           !
 !       r4          1.1712   -DE/DX =    0.0006                        !
 !       a1         97.5449   -DE/DX =    0.0095                        !
 !       a2        102.3215   -DE/DX =    0.0013                        !
 !       a3        109.0667   -DE/DX =    0.0009                        !
 !       d1        180.0      -DE/DX =    0.0                           !
 !       d2        180.0      -DE/DX =    0.0                           !
 ------------------------------------------------------------------------
 GradGradGradGradGradGradGradGradGradGradGradGradGradGradGradGradGradGrad

 Leave Link  103 at Mon Feb 21 20:42:57 2022, MaxMem= 16106127360 cpu:               0.6 elap:               0.0
 (Enter /sw/contrib/gaussian/g16/B01/g16/l9999.exe)

 ----------------------------------------------------------------------

 Electric dipole moment (input orientation):
 (Debye = 10**-18 statcoulomb cm , SI units = C m)
                  (au)            (Debye)         (10**-30 SI)
   Tot        0.561802D+00      0.142796D+01      0.476315D+01
   x         -0.148684D+00     -0.377918D+00     -0.126060D+01
   y          0.000000D+00      0.000000D+00      0.000000D+00
   z         -0.541769D+00     -0.137704D+01     -0.459331D+01

 Dipole polarizability, Alpha (input orientation).
 (esu units = cm**3 , SI units = C**2 m**2 J**-1)
 Alpha(0;0):
               (au)            (10**-24 esu)      (10**-40 SI)
   iso        0.273398D+02      0.405134D+01      0.450773D+01
   aniso      0.217871D+02      0.322851D+01      0.359221D+01
   xx         0.328644D+02      0.487001D+01      0.541861D+01
   yx         0.000000D+00      0.000000D+00      0.000000D+00
   yy         0.179051D+02      0.265326D+01      0.295215D+01
   zx         0.952960D+01      0.141214D+01      0.157122D+01
   zy         0.000000D+00      0.000000D+00      0.000000D+00
   zz         0.312500D+02      0.463077D+01      0.515242D+01

 ----------------------------------------------------------------------

 Dipole orientation:
     1          0.00000000          0.00000000          0.00000000
     8         -0.48461133         -0.00000000         -1.76580671
     8          2.09152452          0.00000000         -2.72638939
     7          1.70063350          0.00000000         -5.45523751
     8          3.66796258          0.00000000         -6.46723518

 Electric dipole moment (dipole orientation):
 (Debye = 10**-18 statcoulomb cm , SI units = C m)
                  (au)            (Debye)         (10**-30 SI)
   Tot        0.561802D+00      0.142796D+01      0.476315D+01
   x          0.000000D+00      0.000000D+00      0.000000D+00
   y          0.000000D+00      0.000000D+00      0.000000D+00
   z          0.561802D+00      0.142796D+01      0.476315D+01

 Dipole polarizability, Alpha (dipole orientation).
 (esu units = cm**3 , SI units = C**2 m**2 J**-1)
 Alpha(0;0):
               (au)            (10**-24 esu)      (10**-40 SI)
   iso        0.273398D+02      0.405134D+01      0.450773D+01
   aniso      0.217871D+02      0.322851D+01      0.359221D+01
   xx         0.278871D+02      0.413244D+01      0.459796D+01
   yx         0.000000D+00      0.000000D+00      0.000000D+00
   yy         0.179051D+02      0.265326D+01      0.295215D+01
   zx        -0.860668D+01     -0.127538D+01     -0.141905D+01
   zy         0.000000D+00      0.000000D+00      0.000000D+00
   zz         0.362273D+02      0.536834D+01      0.597308D+01

 ----------------------------------------------------------------------
 1\1\GINC-N2128\Freq\RMP2-FC\Aug-CC-pVTZ\H1N1O3\CGAVINH\21-Feb-2022\1\\
 #p freq mp2/aug-cc-pvtz density=current\\title\\0,1\H\O,1,r1\O,2,r2,1,
 a1\N,3,r3,2,a2,1,d1,0\O,4,r4,3,a3,2,d2,0\\r1=0.96897556\r2=1.45491931\
 r3=1.45878406\r4=1.17072885\a1=95.1028278\a2=102.29752444\a3=109.06955
 123\d1=180.\d2=180.\\Version=ES64L-G16RevB.01\State=1-A'\HF=-279.50111
 43\MP2=-280.4465328\RMSD=3.766e-09\RMSF=2.150e-03\ZeroPoint=0.0219065\
 Thermal=0.0260316\Dipole=-0.1486842,0.,-0.5417695\DipoleDeriv=0.276388
 3,0.,0.0572994,0.,0.3525967,0.,0.0774101,0.,0.2712771,-0.3455577,0.,-0
 .2089218,0.,-0.309091,0.,-0.0920647,0.,-0.2021013,-0.0739581,0.,0.0928
 226,0.,-0.0888485,0.,-0.8134224,0.,-1.3293791,0.9745032,0.,0.9369695,0
 .,0.0662196,0.,0.9483833,0.,1.5840562,-0.8313757,0.,-0.8781696,0.,-0.0
 208768,0.,-0.1203064,0.,-0.3238529\Polar=32.8644412,0.,17.9050727,9.52
 96012,0.,31.2499706\Quadrupole=-1.4122994,-0.6799568,2.0922562,0.,2.13
 63508,0.\PG=CS [SG(H1N1O3)]\NImag=1\\0.06659290,0.,-0.00214436,0.00942
 519,0.,0.51225263,-0.03148509,0.,-0.01914469,0.27291307,0.,0.00077996,
 0.,0.,0.00551244,0.04480575,0.,-0.50680690,0.03242954,0.,0.58638817,-0
 .02436356,0.,0.01161580,-0.22223902,0.,-0.01751950,0.34942755,0.,0.002
 90008,0.,0.,-0.00764729,0.,0.,0.00361697,-0.05344381,0.,-0.00205177,-0
 .01706510,0.,-0.07365916,0.03434546,0.,0.17770187,-0.00962338,0.,-0.00
 523843,-0.01823985,0.,-0.05114740,-0.06842885,0.,0.17407586,0.82615796
 ,0.,-0.00244241,0.,0.,-0.00510805,0.,0.,0.00805435,0.,0.,0.00911178,0.
 00480574,0.,-0.00464444,0.01436028,0.,0.01761017,0.06121419,0.,-0.0916
 0004,-0.04433348,0.,0.19027073,-0.00112086,0.,0.00334213,-0.00094910,0
 .,-0.00856839,-0.03439612,0.,-0.13791241,-0.72986589,0.,-0.03604673,0.
 76633197,0.,0.00090674,0.,0.,0.00646295,0.,0.,-0.00692410,0.,0.,-0.009
 61567,0.,0.,0.00917008,-0.00559287,0.,0.00125049,-0.01058002,0.,-0.023
 53228,-0.08965595,0.,-0.01039089,-0.07335655,0.,-0.11163641,0.17918540
 ,0.,0.14430909\\0.00516901,0.,0.00047275,-0.00277164,0.,0.00368077,-0.
 00160029,0.,-0.00420987,-0.00031505,0.,0.00056245,-0.00048203,0.,-0.00
 050611\\\@


 WOE UNTO THEM THAT CALL EVIL GOOD, AND GOOD EVIL      
 Job cpu time:       0 days  1 hours 59 minutes 15.1 seconds.
 Elapsed time:       0 days  0 hours  4 minutes 18.5 seconds.
 File lengths (MBytes):  RWF=   7239 Int=      0 D2E=      0 Chk=      8 Scr=      1
 Normal termination of Gaussian 16 at Mon Feb 21 20:42:58 2022.
