title                                                                   
Freq      RMP2-FC                                                     Aug-CC-pVTZ         
Number of atoms                            I                5
Info1-9                                    I   N=           9
          33          24           0           0           0         100
           6           2           1
Full Title                                 C   N=           1
title       
Route                                      C   N=           4
#p freq mp2/aug-cc-pvtz density=current         
Charge                                     I                0
Multiplicity                               I                1
Number of electrons                        I               32
Number of alpha electrons                  I               16
Number of beta electrons                   I               16
Number of basis functions                  I              207
Number of independent functions            I              207
Number of point charges in /Mol/           I                0
Number of translation vectors              I                0
Atomic numbers                             I   N=           5
           1           8           8           7           8
Nuclear charges                            R   N=           5
  1.00000000E+00  8.00000000E+00  8.00000000E+00  7.00000000E+00  8.00000000E+00
Current cartesian coordinates              R   N=          15
  2.93031139E+00  3.19577402E+00  2.01982594E-31  2.74792159E+00  1.37378187E+00
  1.30377413E-31  5.06764511E-17  1.28365993E+00  1.35000153E-32 -4.98541512E-01
 -1.42758779E+00 -7.62015731E-33 -2.67798669E+00 -1.80777424E+00 -1.26561822E-31
Number of symbols in /Mol/                 I                0
Force Field                                I                0
Atom Types                                 C   N=           5
                                                            
Int Atom Types                             I   N=           5
           0           0           0           0           0
MM charges                                 R   N=           5
  0.00000000E+00  0.00000000E+00  0.00000000E+00  0.00000000E+00  0.00000000E+00
Integer atomic weights                     I   N=           5
           1          16          16          14          16
Real atomic weights                        R   N=           5
  1.00782504E+00  1.59949146E+01  1.59949146E+01  1.40030740E+01  1.59949146E+01
Atom fragment info                         I   N=           5
           0           0           0           0           0
Atom residue num                           I   N=           5
           0           0           0           0           0
Nuclear spins                              I   N=           5
           1           0           0           2           0
Nuclear ZEff                               R   N=           5
 -1.00000000E+00 -5.60000000E+00 -5.60000000E+00 -4.55000000E+00 -5.60000000E+00
Nuclear ZNuc                               R   N=           5
  1.00000000E+00  8.00000000E+00  8.00000000E+00  7.00000000E+00  8.00000000E+00
Nuclear QMom                               R   N=           5
  0.00000000E+00  0.00000000E+00  0.00000000E+00  2.04400000E+00  0.00000000E+00
Nuclear GFac                               R   N=           5
  2.79284600E+00  0.00000000E+00  0.00000000E+00  4.03761000E-01  0.00000000E+00
MicOpt                                     I   N=           5
          -1          -1          -1          -1          -1
Number of residues                         I                0
Number of secondary structures             I                0
SymInf integers                            I   N=          26
           1           2           1           1           1           1
           1          -1           0           0           0           0
           0           0           0           0           0           0
           0           0           0           0           0           0
           0           0
RotTr to input orientation                 R   N=          12
 -9.95026880E-01  1.22841586E-16 -9.96067709E-02  9.96067709E-02 -9.54262879E-17
 -9.95026880E-01 -1.31735785E-16 -1.00000000E+00  8.27158678E-17  2.59741787E+00
  0.00000000E+00  3.47175991E+00
Number of contracted shells                I               65
Number of primitive shells                 I              119
Pure/Cartesian d shells                    I                0
Pure/Cartesian f shells                    I                0
Highest angular momentum                   I                3
Largest degree of contraction              I                7
Shell types                                I   N=          65
           0           0           0           0           1           1
           1          -2          -2           0           0           0
           0           0           1           1           1           1
          -2          -2          -2          -3          -3           0
           0           0           0           0           1           1
           1           1          -2          -2          -2          -3
          -3           0           0           0           0           0
           1           1           1           1          -2          -2
          -2          -3          -3           0           0           0
           0           0           1           1           1           1
          -2          -2          -2          -3          -3
Number of primitives per shell             I   N=          65
           3           1           1           1           1           1
           1           1           1           7           6           1
           1           1           3           1           1           1
           1           1           1           1           1           7
           6           1           1           1           3           1
           1           1           1           1           1           1
           1           7           6           1           1           1
           3           1           1           1           1           1
           1           1           1           7           6           1
           1           1           3           1           1           1
           1           1           1           1           1
Shell to atom map                          I   N=          65
           1           1           1           1           1           1
           1           1           1           2           2           2
           2           2           2           2           2           2
           2           2           2           2           2           3
           3           3           3           3           3           3
           3           3           3           3           3           3
           3           4           4           4           4           4
           4           4           4           4           4           4
           4           4           4           5           5           5
           5           5           5           5           5           5
           5           5           5           5           5
Primitive exponents                        R   N=         119
  3.38700000E+01  5.09500000E+00  1.15900000E+00  3.25800000E-01  1.02700000E-01
  2.52600000E-02  1.40700000E+00  3.88000000E-01  1.02000000E-01  1.05700000E+00
  2.47000000E-01  1.53300000E+04  2.29900000E+03  5.22400000E+02  1.47300000E+02
  4.75500000E+01  1.67600000E+01  6.20700000E+00  5.22400000E+02  1.47300000E+02
  4.75500000E+01  1.67600000E+01  6.20700000E+00  6.88200000E-01  1.75200000E+00
  2.38400000E-01  7.37600000E-02  3.44600000E+01  7.74900000E+00  2.28000000E+00
  7.15600000E-01  2.14000000E-01  5.97400000E-02  2.31400000E+00  6.45000000E-01
  2.14000000E-01  1.42800000E+00  5.00000000E-01  1.53300000E+04  2.29900000E+03
  5.22400000E+02  1.47300000E+02  4.75500000E+01  1.67600000E+01  6.20700000E+00
  5.22400000E+02  1.47300000E+02  4.75500000E+01  1.67600000E+01  6.20700000E+00
  6.88200000E-01  1.75200000E+00  2.38400000E-01  7.37600000E-02  3.44600000E+01
  7.74900000E+00  2.28000000E+00  7.15600000E-01  2.14000000E-01  5.97400000E-02
  2.31400000E+00  6.45000000E-01  2.14000000E-01  1.42800000E+00  5.00000000E-01
  1.14200000E+04  1.71200000E+03  3.89300000E+02  1.10000000E+02  3.55700000E+01
  1.25400000E+01  4.64400000E+00  3.89300000E+02  1.10000000E+02  3.55700000E+01
  1.25400000E+01  4.64400000E+00  5.11800000E-01  1.29300000E+00  1.78700000E-01
  5.76000000E-02  2.66300000E+01  5.94800000E+00  1.74200000E+00  5.55000000E-01
  1.72500000E-01  4.91000000E-02  1.65400000E+00  4.69000000E-01  1.51000000E-01
  1.09300000E+00  3.64000000E-01  1.53300000E+04  2.29900000E+03  5.22400000E+02
  1.47300000E+02  4.75500000E+01  1.67600000E+01  6.20700000E+00  5.22400000E+02
  1.47300000E+02  4.75500000E+01  1.67600000E+01  6.20700000E+00  6.88200000E-01
  1.75200000E+00  2.38400000E-01  7.37600000E-02  3.44600000E+01  7.74900000E+00
  2.28000000E+00  7.15600000E-01  2.14000000E-01  5.97400000E-02  2.31400000E+00
  6.45000000E-01  2.14000000E-01  1.42800000E+00  5.00000000E-01
Contraction coefficients                   R   N=         119
  2.54948632E-02  1.90362766E-01  8.52162022E-01  1.00000000E+00  1.00000000E+00
  1.00000000E+00  1.00000000E+00  1.00000000E+00  1.00000000E+00  1.00000000E+00
  1.00000000E+00  5.19808943E-04  4.02025621E-03  2.07128267E-02  8.10105536E-02
  2.35962985E-01  4.42653446E-01  3.57064423E-01 -4.42115008E-05 -1.22591041E-03
 -1.05517725E-02 -6.74452633E-02 -1.71198607E-01  1.07329856E+00  1.00000000E+00
  1.00000000E+00  1.00000000E+00  4.11634896E-02  2.57762836E-01  8.02419274E-01
  1.00000000E+00  1.00000000E+00  1.00000000E+00  1.00000000E+00  1.00000000E+00
  1.00000000E+00  1.00000000E+00  1.00000000E+00  5.19808943E-04  4.02025621E-03
  2.07128267E-02  8.10105536E-02  2.35962985E-01  4.42653446E-01  3.57064423E-01
 -4.42115008E-05 -1.22591041E-03 -1.05517725E-02 -6.74452633E-02 -1.71198607E-01
  1.07329856E+00  1.00000000E+00  1.00000000E+00  1.00000000E+00  4.11634896E-02
  2.57762836E-01  8.02419274E-01  1.00000000E+00  1.00000000E+00  1.00000000E+00
  1.00000000E+00  1.00000000E+00  1.00000000E+00  1.00000000E+00  1.00000000E+00
  5.34563860E-04  4.13435660E-03  2.12335358E-02  8.25006224E-02  2.38138871E-01
  4.42551547E-01  3.53757422E-01 -4.89867350E-05 -1.19527323E-03 -1.03490714E-02
 -6.48680190E-02 -1.71552477E-01  1.07289568E+00  1.00000000E+00  1.00000000E+00
  1.00000000E+00  3.98072123E-02  2.49002660E-01  8.10479727E-01  1.00000000E+00
  1.00000000E+00  1.00000000E+00  1.00000000E+00  1.00000000E+00  1.00000000E+00
  1.00000000E+00  1.00000000E+00  5.19808943E-04  4.02025621E-03  2.07128267E-02
  8.10105536E-02  2.35962985E-01  4.42653446E-01  3.57064423E-01 -4.42115008E-05
 -1.22591041E-03 -1.05517725E-02 -6.74452633E-02 -1.71198607E-01  1.07329856E+00
  1.00000000E+00  1.00000000E+00  1.00000000E+00  4.11634896E-02  2.57762836E-01
  8.02419274E-01  1.00000000E+00  1.00000000E+00  1.00000000E+00  1.00000000E+00
  1.00000000E+00  1.00000000E+00  1.00000000E+00  1.00000000E+00
Coordinates of each shell                  R   N=         195
  2.93031139E+00  3.19577402E+00  1.08356630E-31  2.93031139E+00  3.19577402E+00
  1.08356630E-31  2.93031139E+00  3.19577402E+00  1.08356630E-31  2.93031139E+00
  3.19577402E+00  1.08356630E-31  2.93031139E+00  3.19577402E+00  1.08356630E-31
  2.93031139E+00  3.19577402E+00  1.08356630E-31  2.93031139E+00  3.19577402E+00
  1.08356630E-31  2.93031139E+00  3.19577402E+00  1.08356630E-31  2.93031139E+00
  3.19577402E+00  1.08356630E-31  2.74792159E+00  1.37378187E+00  1.01612246E-31
  2.74792159E+00  1.37378187E+00  1.01612246E-31  2.74792159E+00  1.37378187E+00
  1.01612246E-31  2.74792159E+00  1.37378187E+00  1.01612246E-31  2.74792159E+00
  1.37378187E+00  1.01612246E-31  2.74792159E+00  1.37378187E+00  1.01612246E-31
  2.74792159E+00  1.37378187E+00  1.01612246E-31  2.74792159E+00  1.37378187E+00
  1.01612246E-31  2.74792159E+00  1.37378187E+00  1.01612246E-31  2.74792159E+00
  1.37378187E+00  1.01612246E-31  2.74792159E+00  1.37378187E+00  1.01612246E-31
  2.74792159E+00  1.37378187E+00  1.01612246E-31  2.74792159E+00  1.37378187E+00
  1.01612246E-31  2.74792159E+00  1.37378187E+00  1.01612246E-31 -3.57084430E-17
  1.28365993E+00  0.00000000E+00 -3.57084430E-17  1.28365993E+00  0.00000000E+00
 -3.57084430E-17  1.28365993E+00  0.00000000E+00 -3.57084430E-17  1.28365993E+00
  0.00000000E+00 -3.57084430E-17  1.28365993E+00  0.00000000E+00 -3.57084430E-17
  1.28365993E+00  0.00000000E+00 -3.57084430E-17  1.28365993E+00  0.00000000E+00
 -3.57084430E-17  1.28365993E+00  0.00000000E+00 -3.57084430E-17  1.28365993E+00
  0.00000000E+00 -3.57084430E-17  1.28365993E+00  0.00000000E+00 -3.57084430E-17
  1.28365993E+00  0.00000000E+00 -3.57084430E-17  1.28365993E+00  0.00000000E+00
 -3.57084430E-17  1.28365993E+00  0.00000000E+00 -3.57084430E-17  1.28365993E+00
  0.00000000E+00 -4.98541512E-01 -1.42758779E+00 -1.84349957E-32 -4.98541512E-01
 -1.42758779E+00 -1.84349957E-32 -4.98541512E-01 -1.42758779E+00 -1.84349957E-32
 -4.98541512E-01 -1.42758779E+00 -1.84349957E-32 -4.98541512E-01 -1.42758779E+00
 -1.84349957E-32 -4.98541512E-01 -1.42758779E+00 -1.84349957E-32 -4.98541512E-01
 -1.42758779E+00 -1.84349957E-32 -4.98541512E-01 -1.42758779E+00 -1.84349957E-32
 -4.98541512E-01 -1.42758779E+00 -1.84349957E-32 -4.98541512E-01 -1.42758779E+00
 -1.84349957E-32 -4.98541512E-01 -1.42758779E+00 -1.84349957E-32 -4.98541512E-01
 -1.42758779E+00 -1.84349957E-32 -4.98541512E-01 -1.42758779E+00 -1.84349957E-32
 -4.98541512E-01 -1.42758779E+00 -1.84349957E-32 -2.67798669E+00 -1.80777424E+00
 -9.90262033E-32 -2.67798669E+00 -1.80777424E+00 -9.90262033E-32 -2.67798669E+00
 -1.80777424E+00 -9.90262033E-32 -2.67798669E+00 -1.80777424E+00 -9.90262033E-32
 -2.67798669E+00 -1.80777424E+00 -9.90262033E-32 -2.67798669E+00 -1.80777424E+00
 -9.90262033E-32 -2.67798669E+00 -1.80777424E+00 -9.90262033E-32 -2.67798669E+00
 -1.80777424E+00 -9.90262033E-32 -2.67798669E+00 -1.80777424E+00 -9.90262033E-32
 -2.67798669E+00 -1.80777424E+00 -9.90262033E-32 -2.67798669E+00 -1.80777424E+00
 -9.90262033E-32 -2.67798669E+00 -1.80777424E+00 -9.90262033E-32 -2.67798669E+00
 -1.80777424E+00 -9.90262033E-32 -2.67798669E+00 -1.80777424E+00 -9.90262033E-32
Num ILSW                                   I              100
ILSW                                       I   N=         100
           0           0           0           0           2           0
           0           0           0           0           0          -1
           5           0           0           0           2           0
           0           0           0           0           1           0
           1           0           0           0           0           0
           0           0      100000           0          -1           0
           0           0           0           0           0           0
           0           0           0           1           1           0
           0 -2000000000           1           0           0           0
           0           0           4          52           0           0
           0           0           0           0           0           0
           0           0           0           5           4           1
           0           0           0           0           0           0
           0           0           0           0           0           0
           0           0           0           0           0           0
           0           0           0           0           0           0
           0           0           0           0
Num RLSW                                   I               52
RLSW                                       R   N=          52
  1.00000000E+00  1.00000000E+00  1.00000000E+00  1.00000000E+00  1.00000000E+00
  0.00000000E+00  0.00000000E+00  1.00000000E+00  0.00000000E+00  0.00000000E+00
  0.00000000E+00  0.00000000E+00  1.00000000E+00  0.00000000E+00  0.00000000E+00
  0.00000000E+00  0.00000000E+00  1.00000000E+00  0.00000000E+00  0.00000000E+00
  0.00000000E+00  0.00000000E+00  1.00000000E+00  0.00000000E+00  0.00000000E+00
  0.00000000E+00  0.00000000E+00  1.00000000E+00  0.00000000E+00  0.00000000E+00
  0.00000000E+00  0.00000000E+00  1.00000000E+00  0.00000000E+00  0.00000000E+00
  0.00000000E+00  0.00000000E+00  0.00000000E+00  1.00000000E+00  1.00000000E+00
  0.00000000E+00  1.00000000E+00  0.00000000E+00  0.00000000E+00  0.00000000E+00
  0.00000000E+00  0.00000000E+00  0.00000000E+00  0.00000000E+00  0.00000000E+00
  0.00000000E+00  0.00000000E+00
MxBond                                     I                2
NBond                                      I   N=           5
           1           2           2           2           1
IBond                                      I   N=          10
           2           0           1           3           2           4
           3           5           4           0
RBond                                      R   N=          10
  1.00000000E+00  0.00000000E+00  1.00000000E+00  1.00000000E+00  1.00000000E+00
  1.00000000E+00  1.00000000E+00  2.00000000E+00  2.00000000E+00  0.00000000E+00
Virial Ratio                               R      2.002382267000649E+00
SCF Energy                                 R     -2.795014793840814E+02
MP2 Energy                                 R     -2.804466210937649E+02
Total Energy                               R     -2.804466210937649E+02
Post-SCF wavefunction norm                 R      1.584316895343754E+00
RMS Force                                  R      2.316581349966815E-03
RMS Density                                R      3.851502920255627E-09
NImag                                      I                1
Job Status                                 I                1
Nuclear derivative order                   I                2
External E-field                           R   N=          35
  0.00000000E+00  0.00000000E+00  0.00000000E+00  0.00000000E+00  0.00000000E+00
  0.00000000E+00  0.00000000E+00  0.00000000E+00  0.00000000E+00  0.00000000E+00
  0.00000000E+00  0.00000000E+00  0.00000000E+00  0.00000000E+00  0.00000000E+00
  0.00000000E+00  0.00000000E+00  0.00000000E+00  0.00000000E+00  0.00000000E+00
  0.00000000E+00  0.00000000E+00  0.00000000E+00  0.00000000E+00  0.00000000E+00
  0.00000000E+00  0.00000000E+00  0.00000000E+00  0.00000000E+00  0.00000000E+00
  0.00000000E+00  0.00000000E+00  0.00000000E+00  0.00000000E+00  0.00000000E+00
IOpCl                                      I                0
IROHF                                      I                0
Alpha Orbital Energies                     R   N=         207
 -2.06914041E+01 -2.06847280E+01 -2.06607574E+01 -1.58123936E+01 -1.62301587E+00
 -1.49664609E+00 -1.25539880E+00 -9.47750962E-01 -7.73439568E-01 -7.58770493E-01
 -7.11563986E-01 -6.79689531E-01 -6.20935032E-01 -5.90488764E-01 -4.85802547E-01
 -4.70955772E-01  2.95325276E-02  7.21966988E-02  8.56984790E-02  1.01732023E-01
  1.34023360E-01  1.34028050E-01  1.44032191E-01  1.54613248E-01  1.78127097E-01
  1.94222262E-01  1.99761790E-01  2.06115440E-01  2.20813244E-01  2.34202045E-01
  2.37215029E-01  2.65170332E-01  2.94358701E-01  3.04277388E-01  3.10679497E-01
  3.43023007E-01  3.49920422E-01  3.86786146E-01  4.21474162E-01  4.31230389E-01
  5.26179614E-01  5.30228381E-01  5.59017605E-01  5.82890711E-01  6.26680385E-01
  6.35591550E-01  6.74114380E-01  6.84229195E-01  7.08275798E-01  7.10739684E-01
  7.24527052E-01  7.29712290E-01  7.45916231E-01  7.89535133E-01  7.91436293E-01
  8.09667761E-01  8.12246157E-01  8.30075294E-01  8.68285127E-01  9.07452284E-01
  9.21642288E-01  9.23695813E-01  9.56752373E-01  9.79813575E-01  9.84362407E-01
  1.01598030E+00  1.05214816E+00  1.05464900E+00  1.08170848E+00  1.11822129E+00
  1.14044633E+00  1.18879391E+00  1.22330741E+00  1.23207706E+00  1.33824449E+00
  1.34879186E+00  1.38406755E+00  1.45158334E+00  1.48802340E+00  1.51023986E+00
  1.53889428E+00  1.56567345E+00  1.58004520E+00  1.61402466E+00  1.66354305E+00
  1.66795844E+00  1.70443230E+00  1.79351858E+00  1.83295469E+00  1.83401173E+00
  1.87610986E+00  1.91197024E+00  1.95560061E+00  1.99082090E+00  2.00914229E+00
  2.07453562E+00  2.11907345E+00  2.13343217E+00  2.14857647E+00  2.22287087E+00
  2.26137664E+00  2.26370296E+00  2.28983129E+00  2.31418099E+00  2.34069149E+00
  2.38602802E+00  2.42203908E+00  2.42874090E+00  2.45670085E+00  2.46657131E+00
  2.47583520E+00  2.50208380E+00  2.58980010E+00  2.59444755E+00  2.61716260E+00
  2.62691707E+00  2.63493306E+00  2.66448427E+00  2.76151349E+00  2.83286491E+00
  2.86257611E+00  2.87634300E+00  2.89455103E+00  2.90926941E+00  2.96380941E+00
  3.02302624E+00  3.07235521E+00  3.11688073E+00  3.20479242E+00  3.22989414E+00
  3.31422444E+00  3.34570810E+00  3.50814430E+00  3.64855165E+00  3.83852946E+00
  3.84481252E+00  4.14782333E+00  4.15853699E+00  4.18291510E+00  4.25728055E+00
  4.35506537E+00  4.39292137E+00  4.46330569E+00  4.51814227E+00  4.66720828E+00
  4.70925559E+00  4.80786159E+00  4.82004428E+00  4.82706391E+00  4.89496458E+00
  5.02173770E+00  5.07850211E+00  5.09960424E+00  5.14243875E+00  5.18434169E+00
  5.24072973E+00  5.26989399E+00  5.31169607E+00  5.32853541E+00  5.35840372E+00
  5.60950779E+00  5.67357484E+00  5.75509191E+00  5.82919884E+00  5.95801406E+00
  6.16760102E+00  6.30677304E+00  6.33995160E+00  6.39380643E+00  6.49112674E+00
  6.50200709E+00  6.61239157E+00  6.66765347E+00  6.69431596E+00  6.75692995E+00
  6.76164872E+00  6.82679482E+00  6.90294852E+00  7.01236304E+00  7.05476530E+00
  7.05688331E+00  7.08825616E+00  7.12590702E+00  7.14734773E+00  7.18069721E+00
  7.22424272E+00  7.24085272E+00  7.30690729E+00  7.32476015E+00  7.34809820E+00
  7.40014120E+00  7.43246421E+00  7.48622358E+00  7.60648107E+00  7.61626910E+00
  7.62918516E+00  7.66149853E+00  7.78125687E+00  7.89360324E+00  8.09179224E+00
  8.31409033E+00  8.40915372E+00  8.54518800E+00  1.33794386E+01  1.44082602E+01
  1.51546192E+01  1.61503641E+01
Alpha MO coefficients                      R   N=       42849
  9.16698297E-05 -6.56233062E-04 -7.26328654E-04 -5.25424623E-06 -2.11694591E-05
 -2.64687283E-05  0.00000000E+00 -4.37237597E-05  6.51585039E-05  0.00000000E+00
  8.70442365E-05  3.54152586E-05  0.00000000E+00  3.19427001E-05  0.00000000E+00
  0.00000000E+00 -4.90364576E-05  2.14120270E-05 -6.42761818E-06  0.00000000E+00
  0.00000000E+00 -1.36493513E-04  1.17489447E-04  4.61981561E-03 -2.82825383E-04
  1.66333599E-05  1.57875920E-03  1.82263012E-03  1.05737451E-04  7.24660422E-06
  0.00000000E+00 -6.15605083E-04 -3.35701315E-05  0.00000000E+00 -1.10249867E-03
  8.14529080E-04  0.00000000E+00 -4.02597703E-04  6.54076756E-05  0.00000000E+00
  2.87295373E-05  0.00000000E+00  0.00000000E+00 -5.38236282E-05  5.81211648E-06
 -3.77892406E-04  0.00000000E+00  0.00000000E+00  7.37166714E-04 -3.31296362E-05
 -4.47383177E-04  0.00000000E+00  0.00000000E+00  2.37378111E-04 -2.26646256E-05
  0.00000000E+00  7.98480807E-05  1.25706445E-05  0.00000000E+00  0.00000000E+00
 -1.09550342E-04 -3.10455405E-06  0.00000000E+00  2.53718370E-04 -2.83249552E-05
  0.00000000E+00  0.00000000E+00 -3.51963650E-04  5.12392293E-05  9.76911332E-01
 -9.21561934E-03  4.33182454E-02  2.05080972E-03 -9.34226336E-04  1.48706256E-03
 -1.36807106E-03  0.00000000E+00 -1.42818047E-03  1.39754395E-03  0.00000000E+00
  7.81598632E-05 -1.17928672E-03  0.00000000E+00 -1.34481938E-04 -9.89289587E-06
  0.00000000E+00  4.57568192E-05  0.00000000E+00  0.00000000E+00 -3.65045154E-05
  2.06221895E-05  7.45779156E-04  0.00000000E+00  0.00000000E+00 -2.28395761E-04
 -3.88545852E-04 -3.52808285E-04  0.00000000E+00  0.00000000E+00 -3.24050444E-04
 -3.89893579E-04  0.00000000E+00  4.76541372E-05 -4.94028832E-05  0.00000000E+00
  0.00000000E+00 -3.85307754E-05 -1.66852681E-05  0.00000000E+00  2.17574055E-05
  2.15238996E-05  0.00000000E+00  0.00000000E+00 -3.07324238E-04 -1.37749898E-04
  3.92692721E-05  4.64626646E-05 -2.66221309E-04 -6.80948076E-04 -1.18926478E-04
 -2.78163670E-05 -9.84322736E-05  0.00000000E+00  2.67959743E-04  7.17432574E-04
  0.00000000E+00 -8.62872421E-04 -5.00656168E-04  0.00000000E+00 -1.26250916E-04
 -2.31791495E-05  0.00000000E+00 -1.79677476E-05  0.00000000E+00  0.00000000E+00
 -2.92487665E-05  1.37317144E-05 -3.30629685E-04  0.00000000E+00  0.00000000E+00
 -8.33054164E-04  1.32701355E-04 -3.66121182E-05  0.00000000E+00  0.00000000E+00
  1.03192642E-04 -1.09539524E-04  0.00000000E+00 -2.10646884E-05 -1.20556816E-04
  0.00000000E+00  0.00000000E+00 -6.30361019E-05 -1.38465212E-04  0.00000000E+00
  1.13021518E-06 -1.51916188E-04  0.00000000E+00  0.00000000E+00  4.43718214E-05
 -4.24236180E-04 -2.49874592E-03  1.12334146E-04 -1.23291185E-04 -2.66809380E-04
  1.16290230E-04 -8.23316353E-06 -3.01444490E-05  0.00000000E+00  6.41480793E-05
  1.74706558E-04  0.00000000E+00  2.20185248E-04  2.12813617E-04  0.00000000E+00
  1.22328601E-04  2.23132249E-05  0.00000000E+00 -2.62658150E-06  0.00000000E+00
  0.00000000E+00 -1.73736627E-05  3.41472328E-07 -5.07576297E-06  0.00000000E+00
  0.00000000E+00  6.98926506E-05  9.72766632E-05 -1.04752662E-04  0.00000000E+00
  0.00000000E+00  1.54709401E-04  1.65964061E-04  0.00000000E+00  1.51314298E-05
 -4.60691214E-06  0.00000000E+00  0.00000000E+00 -5.96021387E-06 -1.17314619E-05
  0.00000000E+00 -3.66360917E-05  4.66579162E-05  0.00000000E+00  0.00000000E+00
  7.65571266E-05  9.10572333E-05  3.86247908E-05 -1.00159323E-03 -4.96721603E-04
 -1.10505789E-05 -2.40101173E-05  1.72174170E-05  0.00000000E+00  4.67197742E-06
  2.84339379E-04  0.00000000E+00 -3.84027855E-05  1.36347176E-04  0.00000000E+00
  2.64969074E-05  0.00000000E+00  0.00000000E+00  1.38742469E-05  1.10225044E-05
 -2.48437335E-05  0.00000000E+00  0.00000000E+00  1.04451227E-05  3.42741917E-05
  1.11382695E-04  8.41448884E-05 -2.86274193E-05  7.78105767E-04  6.45396709E-04
  1.00788355E-05  2.44801234E-06  0.00000000E+00 -7.08919755E-05  1.95819732E-05
  0.00000000E+00  3.27604139E-04  8.87687248E-04  0.00000000E+00  6.16712597E-06
  7.83271523E-05  0.00000000E+00 -2.20698643E-06  0.00000000E+00  0.00000000E+00
 -3.14351820E-08 -7.22967267E-06 -3.72234516E-05  0.00000000E+00  0.00000000E+00
 -2.34680900E-05  9.05949587E-05 -2.26445833E-05  0.00000000E+00  0.00000000E+00
 -2.63079309E-04 -1.52198077E-04  0.00000000E+00  9.49122148E-06  5.83551714E-06
  0.00000000E+00  0.00000000E+00  2.99724055E-06 -1.92020592E-05  0.00000000E+00
 -4.20906523E-05 -3.72854717E-05  0.00000000E+00  0.00000000E+00 -7.81973162E-05
  1.57820243E-05  2.53639398E-03  3.74372706E-05  8.29650060E-05 -4.71886887E-05
 -4.37085152E-04  9.17631054E-06  1.89078519E-05  0.00000000E+00 -6.83549530E-05
 -6.77196842E-05  0.00000000E+00  1.95776512E-04 -1.90434735E-04  0.00000000E+00
 -1.78249694E-04 -5.98589640E-05  0.00000000E+00 -8.23680441E-06  0.00000000E+00
  0.00000000E+00  2.24882909E-05  1.75582169E-05 -1.99108654E-06  0.00000000E+00
  0.00000000E+00 -1.20980901E-04 -3.08918655E-05 -1.18324057E-05  0.00000000E+00
  0.00000000E+00 -2.22228170E-04 -1.71880432E-04  0.00000000E+00  5.10247320E-06
  2.19610286E-06  0.00000000E+00  0.00000000E+00  4.35786367E-06 -1.56534332E-05
  0.00000000E+00 -4.79610830E-05  5.33378721E-07  0.00000000E+00  0.00000000E+00
 -7.27070040E-05  1.94995363E-04  2.59428972E-04  1.47240599E-03 -7.52973427E-05
 -1.60091028E-03  3.79793023E-04 -1.43457107E-04 -4.06506598E-07  0.00000000E+00
 -2.09395282E-03 -4.49623857E-04  0.00000000E+00  1.08044746E-03  7.86004991E-04
  0.00000000E+00 -1.76551622E-04  4.40099982E-05  0.00000000E+00 -1.24288783E-04
  0.00000000E+00  0.00000000E+00  2.38406518E-04  1.02514646E-04 -4.36864870E-04
  0.00000000E+00  0.00000000E+00  9.12939664E-04 -3.69775689E-05  1.83043944E-05
  0.00000000E+00  0.00000000E+00 -3.36900720E-04 -1.27557848E-04  0.00000000E+00
 -2.47260583E-07  1.61767886E-05  0.00000000E+00  0.00000000E+00  1.79636341E-05
  1.56433092E-05  0.00000000E+00  1.61322041E-04 -6.87282264E-05  0.00000000E+00
  0.00000000E+00 -2.48187808E-04  3.74032727E-05  9.76651541E-01 -9.84646202E-03
  4.35651679E-02  4.53323648E-03 -4.39243737E-04  2.13679305E-03  5.36611309E-04
  0.00000000E+00 -2.37225845E-03 -6.62559252E-04  0.00000000E+00  1.14427849E-03
 -2.54955356E-06  0.00000000E+00  6.26574995E-06 -3.87888691E-05  0.00000000E+00
 -2.31401362E-04  0.00000000E+00  0.00000000E+00  1.02449472E-04  3.50218437E-05
  3.92203523E-04  0.00000000E+00  0.00000000E+00 -8.16562625E-04 -4.62053486E-04
 -1.47962388E-04  0.00000000E+00  0.00000000E+00  2.61620355E-04  1.45649866E-05
  0.00000000E+00  5.19073347E-05  1.80922582E-05  0.00000000E+00  0.00000000E+00
 -2.21542227E-05 -1.51679398E-05  0.00000000E+00  1.38826575E-04  1.51997399E-05
  0.00000000E+00  0.00000000E+00 -1.78513379E-04 -1.54451955E-04  4.74614079E-04
  2.06836471E-03  1.22770572E-04  1.50781861E-05 -4.15408550E-05 -2.46696029E-04
  0.00000000E+00  1.08668616E-04 -1.27807006E-03  0.00000000E+00  3.04114831E-04
 -3.42091240E-04  0.00000000E+00 -2.79765300E-06  0.00000000E+00  0.00000000E+00
  7.57823826E-05  1.53437388E-05 -1.60593118E-04  0.00000000E+00  0.00000000E+00
 -5.37050574E-04 -2.03415755E-05  9.76830685E-01 -9.16312120E-03  4.34487208E-02
  1.57598583E-04 -1.12406040E-03 -1.56283894E-03  1.44495567E-03  0.00000000E+00
  1.57459515E-03 -1.28793366E-03  0.00000000E+00 -5.74166573E-04 -8.72360650E-04
  0.00000000E+00  5.43905049E-05 -2.57551230E-05  0.00000000E+00  2.97849911E-05
  0.00000000E+00  0.00000000E+00 -1.18370536E-04 -2.90457614E-06  7.58193197E-04
  0.00000000E+00  0.00000000E+00 -2.03227910E-04 -2.35451814E-04 -2.65558330E-04
  0.00000000E+00  0.00000000E+00  1.71947500E-04  1.27891804E-04  0.00000000E+00
 -6.41481658E-05  1.36482168E-06  0.00000000E+00  0.00000000E+00  1.90017847E-05