 Entering Gaussian System, Link 0=g16
 Input=hoono_r2_1p471415.gjf
 Output=hoono_r2_1p471415.log
 Initial command:
 /sw/contrib/gaussian/g16/B01/g16/l1.exe "/scr/Gau-10769.inp" -scrdir="/scr/"
 Entering Link 1 = /sw/contrib/gaussian/g16/B01/g16/l1.exe PID=     10770.
  
 Copyright (c) 1988-2017, Gaussian, Inc.  All Rights Reserved.
  
 This is part of the Gaussian(R) 16 program.  It is based on
 the Gaussian(R) 09 system (copyright 2009, Gaussian, Inc.),
 the Gaussian(R) 03 system (copyright 2003, Gaussian, Inc.),
 the Gaussian(R) 98 system (copyright 1998, Gaussian, Inc.),
 the Gaussian(R) 94 system (copyright 1995, Gaussian, Inc.),
 the Gaussian 92(TM) system (copyright 1992, Gaussian, Inc.),
 the Gaussian 90(TM) system (copyright 1990, Gaussian, Inc.),
 the Gaussian 88(TM) system (copyright 1988, Gaussian, Inc.),
 the Gaussian 86(TM) system (copyright 1986, Carnegie Mellon
 University), and the Gaussian 82(TM) system (copyright 1983,
 Carnegie Mellon University). Gaussian is a federally registered
 trademark of Gaussian, Inc.
  
 This software contains proprietary and confidential information,
 including trade secrets, belonging to Gaussian, Inc.
  
 This software is provided under written license and may be
 used, copied, transmitted, or stored only in accord with that
 written license.
  
 The following legend is applicable only to US Government
 contracts under FAR:
  
                    RESTRICTED RIGHTS LEGEND
  
 Use, reproduction and disclosure by the US Government is
 subject to restrictions as set forth in subparagraphs (a)
 and (c) of the Commercial Computer Software - Restricted
 Rights clause in FAR 52.227-19.
  
 Gaussian, Inc.
 340 Quinnipiac St., Bldg. 40, Wallingford CT 06492
  
  
 ---------------------------------------------------------------
 Warning -- This program may not be used in any manner that
 competes with the business of Gaussian, Inc. or will provide
 assistance to any competitor of Gaussian, Inc.  The licensee
 of this program is prohibited from giving any competitor of
 Gaussian, Inc. access to this program.  By using this program,
 the user acknowledges that Gaussian, Inc. is engaged in the
 business of creating and licensing software in the field of
 computational chemistry and represents and warrants to the
 licensee that it is not a competitor of Gaussian, Inc. and that
 it will not use this program in any manner prohibited above.
 ---------------------------------------------------------------
  

 Cite this work as:
 Gaussian 16, Revision B.01,
 M. J. Frisch, G. W. Trucks, H. B. Schlegel, G. E. Scuseria, 
 M. A. Robb, J. R. Cheeseman, G. Scalmani, V. Barone, 
 G. A. Petersson, H. Nakatsuji, X. Li, M. Caricato, A. V. Marenich, 
 J. Bloino, B. G. Janesko, R. Gomperts, B. Mennucci, H. P. Hratchian, 
 J. V. Ortiz, A. F. Izmaylov, J. L. Sonnenberg, D. Williams-Young, 
 F. Ding, F. Lipparini, F. Egidi, J. Goings, B. Peng, A. Petrone, 
 T. Henderson, D. Ranasinghe, V. G. Zakrzewski, J. Gao, N. Rega, 
 G. Zheng, W. Liang, M. Hada, M. Ehara, K. Toyota, R. Fukuda, 
 J. Hasegawa, M. Ishida, T. Nakajima, Y. Honda, O. Kitao, H. Nakai, 
 T. Vreven, K. Throssell, J. A. Montgomery, Jr., J. E. Peralta, 
 F. Ogliaro, M. J. Bearpark, J. J. Heyd, E. N. Brothers, K. N. Kudin, 
 V. N. Staroverov, T. A. Keith, R. Kobayashi, J. Normand, 
 K. Raghavachari, A. P. Rendell, J. C. Burant, S. S. Iyengar, 
 J. Tomasi, M. Cossi, J. M. Millam, M. Klene, C. Adamo, R. Cammi, 
 J. W. Ochterski, R. L. Martin, K. Morokuma, O. Farkas, 
 J. B. Foresman, and D. J. Fox, Gaussian, Inc., Wallingford CT, 2016.
 
 ******************************************
 Gaussian 16:  ES64L-G16RevB.01 20-Dec-2017
                21-Feb-2022 
 ******************************************
 %nproc=28
 Will use up to   28 processors via shared memory.
 %mem=120GB
 %chk=hoono_r2_1p471415.chk
 ---------------------------------------
 #p freq mp2/aug-cc-pvtz density=current
 ---------------------------------------
 1/10=4,30=1,38=1/1,3;
 2/12=2,17=6,18=5,40=1/2;
 3/5=16,6=1,7=10,11=9,25=1,30=1,71=2,140=1/1,2,3;
 4//1;
 5/5=2,38=5,98=1/2;
 8/6=3,8=1,10=1,19=11,30=-1/1;
 9/15=3,16=-3/6;
 11/6=1,8=1,15=11,17=12,24=-1,27=1,28=-2,29=300,32=6,42=3/1,2,10;
 10/6=2,21=1/2;
 8/6=4,8=1,10=1,19=11,30=-1/11,4;
 10/5=1,20=4/2;
 11/12=2,14=11,16=1,17=2,28=-2,42=3,76=2/2,10,12;
 6/7=2,8=2,9=2,10=2,22=-1/1;
 7/8=1,10=1,12=2,25=1,44=2/1,2,3,16;
 1/10=4,30=1/3;
 99//99;
 Leave Link    1 at Mon Feb 21 20:06:49 2022, MaxMem= 16106127360 cpu:               4.1 elap:               0.2
 (Enter /sw/contrib/gaussian/g16/B01/g16/l101.exe)
 -----
 title
 -----
 Symbolic Z-matrix:
 Charge =  0 Multiplicity = 1
 H
 O                    1    r1
 O                    2    r2       1    a1
 N                    3    r3       2    a2       1    d1       0
 O                    4    r4       3    a3       2    d2       0
       Variables:
  r1                    0.96898                  
  r2                    1.47142                  
  r3                    1.45878                  
  r4                    1.17073                  
  a1                   97.59495                  
  a2                  102.29752                  
  a3                  109.06955                  
  d1                  180.                       
  d2                  180.                       
 
 ITRead=  0  0  0  0  0
 MicOpt= -1 -1 -1 -1 -1
 NAtoms=      5 NQM=        5 NQMF=       0 NMMI=      0 NMMIF=      0
                NMic=       0 NMicF=      0.
                    Isotopes and Nuclear Properties:
 (Nuclear quadrupole moments (NQMom) in fm**2, nuclear magnetic moments (NMagM)
  in nuclear magnetons)

  Atom         1           2           3           4           5
 IAtWgt=           1          16          16          14          16
 AtmWgt=   1.0078250  15.9949146  15.9949146  14.0030740  15.9949146
 NucSpn=           1           0           0           2           0
 AtZEff=  -0.0000000  -0.0000000  -0.0000000  -0.0000000  -0.0000000
 NQMom=    0.0000000   0.0000000   0.0000000   2.0440000   0.0000000
 NMagM=    2.7928460   0.0000000   0.0000000   0.4037610   0.0000000
 AtZNuc=   1.0000000   8.0000000   8.0000000   7.0000000   8.0000000
 Leave Link  101 at Mon Feb 21 20:06:49 2022, MaxMem= 16106127360 cpu:               2.9 elap:               0.1
 (Enter /sw/contrib/gaussian/g16/B01/g16/l103.exe)

 GradGradGradGradGradGradGradGradGradGradGradGradGradGradGradGradGradGrad
 Berny optimization.
 Initialization pass.
                       ----------------------------
                       !    Initial Parameters    !
                       ! (Angstroms and Degrees)  !
 ----------------------                            ----------------------
 !      Name          Value   Derivative information (Atomic Units)     !
 ------------------------------------------------------------------------
 !       r1          0.969    calculate D2E/DX2 analytically            !
 !       r2          1.4714   calculate D2E/DX2 analytically            !
 !       r3          1.4588   calculate D2E/DX2 analytically            !
 !       r4          1.1707   calculate D2E/DX2 analytically            !
 !       a1         97.5949   calculate D2E/DX2 analytically            !
 !       a2        102.2975   calculate D2E/DX2 analytically            !
 !       a3        109.0696   calculate D2E/DX2 analytically            !
 !       d1        180.0      calculate D2E/DX2 analytically            !
 !       d2        180.0      calculate D2E/DX2 analytically            !
 ------------------------------------------------------------------------
 Trust Radius=3.00D-01 FncErr=1.00D-07 GrdErr=1.00D-07 EigMax=2.50D+02 EigMin=1.00D-04
 Number of steps in this run=      2 maximum allowed number of steps=      2.
 GradGradGradGradGradGradGradGradGradGradGradGradGradGradGradGradGradGrad

 Leave Link  103 at Mon Feb 21 20:06:49 2022, MaxMem= 16106127360 cpu:               1.0 elap:               0.1
 (Enter /sw/contrib/gaussian/g16/B01/g16/l202.exe)
                          Input orientation:                          
 ---------------------------------------------------------------------
 Center     Atomic      Atomic             Coordinates (Angstroms)
 Number     Number       Type             X           Y           Z
 ---------------------------------------------------------------------
      1          1           0        0.000000    0.000000    0.000000
      2          8           0        0.000000    0.000000    0.968976
      3          8           0        1.458507    0.000000    1.163451
      4          7           0        1.578103    0.000000    2.617324
      5          8           0        2.712219    0.000000    2.907819
 ---------------------------------------------------------------------
                    Distance matrix (angstroms):
                    1          2          3          4          5
     1  H    0.000000
     2  O    0.968976   0.000000
     3  O    1.865706   1.471415   0.000000
     4  N    3.056271   2.281986   1.458784   0.000000
     5  O    3.976373   3.333953   2.148165   1.170729   0.000000
 Stoichiometry    HNO3
 Framework group  CS[SG(HNO3)]
 Deg. of freedom     7
 Full point group                 CS      NOp   2
 Largest Abelian subgroup         CS      NOp   2
 Largest concise Abelian subgroup C1      NOp   1
                         Standard orientation:                         
 ---------------------------------------------------------------------
 Center     Atomic      Atomic             Coordinates (Angstroms)
 Number     Number       Type             X           Y           Z
 ---------------------------------------------------------------------
      1          1           0        1.572554    1.676826    0.000000
      2          8           0        1.470862    0.713201    0.000000
      3          8           0        0.000000    0.672866    0.000000
      4          7           0       -0.271516   -0.760428   -0.000000
      5          8           0       -1.429855   -0.930296   -0.000000
 ---------------------------------------------------------------------
 Rotational constants (GHZ):          54.5531606           4.9725142           4.5571321
 Leave Link  202 at Mon Feb 21 20:06:50 2022, MaxMem= 16106127360 cpu:               0.3 elap:               0.0
 (Enter /sw/contrib/gaussian/g16/B01/g16/l301.exe)
 Standard basis: Aug-CC-pVTZ (5D, 7F)
 Ernie: Thresh=  0.10000D-02 Tol=  0.10000D-05 Strict=F.
 Ernie:  12 primitive shells out of 131 were deleted.
 There are   166 symmetry adapted cartesian basis functions of A'  symmetry.
 There are    79 symmetry adapted cartesian basis functions of A"  symmetry.
 There are   136 symmetry adapted basis functions of A'  symmetry.
 There are    71 symmetry adapted basis functions of A"  symmetry.
   207 basis functions,   315 primitive gaussians,   245 cartesian basis functions
    16 alpha electrons       16 beta electrons
       nuclear repulsion energy       116.4680743481 Hartrees.
 IExCor=    0 DFT=F Ex=HF Corr=None ExCW=0 ScaHFX=  1.000000
 ScaDFX=  1.000000  1.000000  1.000000  1.000000 ScalE2=  1.000000  1.000000
 IRadAn=      5 IRanWt=     -1 IRanGd=            0 ICorTp=0 IEmpDi=  4
 NAtoms=    5 NActive=    5 NUniq=    5 SFac= 1.00D+00 NAtFMM=   60 NAOKFM=F Big=F
 Integral buffers will be    131072 words long.
 Raffenetti 1 integral format.
 Two-electron integral symmetry is turned on.
 Leave Link  301 at Mon Feb 21 20:06:50 2022, MaxMem= 16106127360 cpu:               2.0 elap:               0.1
 (Enter /sw/contrib/gaussian/g16/B01/g16/l302.exe)
 NPDir=0 NMtPBC=     1 NCelOv=     1 NCel=       1 NClECP=     1 NCelD=      1
         NCelK=      1 NCelE2=     1 NClLst=     1 CellRange=     0.0.
 One-electron integrals computed using PRISM.
 One-electron integral symmetry used in STVInt
 NBasis=   207 RedAO= T EigKep=  1.83D-04  NBF=   136    71
 NBsUse=   207 1.00D-06 EigRej= -1.00D+00 NBFU=   136    71
 Leave Link  302 at Mon Feb 21 20:06:50 2022, MaxMem= 16106127360 cpu:               5.0 elap:               0.2
 (Enter /sw/contrib/gaussian/g16/B01/g16/l303.exe)
 DipDrv:  MaxL=1.
 Leave Link  303 at Mon Feb 21 20:06:50 2022, MaxMem= 16106127360 cpu:               1.5 elap:               0.1
 (Enter /sw/contrib/gaussian/g16/B01/g16/l401.exe)
 ExpMin= 2.53D-02 ExpMax= 1.53D+04 ExpMxC= 5.22D+02 IAcc=3 IRadAn=         5 AccDes= 0.00D+00
 Harris functional with IExCor=  205 and IRadAn=       5 diagonalized for initial guess.
 HarFok:  IExCor=  205 AccDes= 0.00D+00 IRadAn=         5 IDoV= 1 UseB2=F ITyADJ=14
 ICtDFT=  3500011 ScaDFX=  1.000000  1.000000  1.000000  1.000000
 FoFCou: FMM=F IPFlag=           0 FMFlag=      100000 FMFlg1=           0
         NFxFlg=           0 DoJE=T BraDBF=F KetDBF=T FulRan=T
         wScrn=  0.000000 ICntrl=       500 IOpCl=  0 I1Cent=   200000004 NGrid=           0
         NMat0=    1 NMatS0=      1 NMatT0=    0 NMatD0=    1 NMtDS0=    0 NMtDT0=    0
 Petite list used in FoFCou.
 Harris En= -279.627887625613    
 JPrj=0 DoOrth=F DoCkMO=F.
 Initial guess orbital symmetries:
       Occupied  (A') (A') (A') (A') (A') (A') (A') (A') (A') (A')
                 (A") (A') (A') (A") (A") (A')
       Virtual   (A") (A') (A') (A') (A') (A') (A") (A') (A') (A')
                 (A") (A') (A") (A') (A') (A") (A') (A") (A') (A')
                 (A') (A') (A') (A') (A') (A") (A') (A") (A') (A')
                 (A") (A') (A") (A') (A') (A") (A') (A") (A') (A')
                 (A") (A') (A") (A') (A") (A') (A') (A') (A") (A")
                 (A') (A') (A') (A') (A") (A') (A") (A') (A") (A')
                 (A') (A') (A") (A') (A') (A") (A') (A") (A') (A')
                 (A") (A') (A') (A") (A") (A') (A') (A") (A') (A')
                 (A') (A") (A') (A") (A') (A") (A') (A") (A') (A')
                 (A') (A") (A') (A") (A') (A") (A") (A') (A') (A")
                 (A') (A') (A") (A') (A') (A') (A') (A") (A") (A')
                 (A") (A') (A') (A') (A") (A') (A') (A') (A") (A')
                 (A") (A') (A') (A") (A") (A') (A") (A') (A") (A')
                 (A') (A') (A') (A") (A") (A') (A") (A') (A') (A')
                 (A') (A") (A") (A') (A') (A") (A') (A') (A') (A')
                 (A') (A") (A') (A") (A') (A") (A') (A") (A") (A')
                 (A') (A") (A') (A") (A') (A") (A") (A") (A') (A')
                 (A") (A') (A") (A') (A') (A") (A") (A") (A') (A')
                 (A') (A') (A') (A') (A') (A') (A') (A') (A') (A')
                 (A')
 The electronic state of the initial guess is 1-A'.
 Leave Link  401 at Mon Feb 21 20:06:50 2022, MaxMem= 16106127360 cpu:               6.8 elap:               0.3
 (Enter /sw/contrib/gaussian/g16/B01/g16/l502.exe)
 Keep R1 ints in memory in symmetry-blocked form, NReq=348887737.
 FoFCou: FMM=F IPFlag=           0 FMFlag=           0 FMFlg1=           0
         NFxFlg=           0 DoJE=F BraDBF=F KetDBF=F FulRan=T
         wScrn=  0.000000 ICntrl=       600 IOpCl=  0 I1Cent=           0 NGrid=           0
         NMat0=    1 NMatS0=  21528 NMatT0=    0 NMatD0=    1 NMtDS0=    0 NMtDT0=    0
 Petite list used in FoFCou.
 Closed shell SCF:
 Using DIIS extrapolation, IDIIS=  1040.
 NGot= 16106127360 LenX= 15988850015 LenY= 15988789549
 Requested convergence on RMS density matrix=1.00D-08 within 128 cycles.
 Requested convergence on MAX density matrix=1.00D-06.
 Requested convergence on             energy=1.00D-06.
 No special actions if energy rises.

 Cycle   1  Pass 1  IDiag  1:
 E= -279.368500614934    
 DIIS: error= 2.93D-02 at cycle   1 NSaved=   1.
 NSaved= 1 IEnMin= 1 EnMin= -279.368500614934     IErMin= 1 ErrMin= 2.93D-02
 ErrMax= 2.93D-02  0.00D+00 EMaxC= 1.00D-01 BMatC= 4.38D-01 BMatP= 4.38D-01
 IDIUse=3 WtCom= 7.07D-01 WtEn= 2.93D-01
 Coeff-Com:  0.100D+01
 Coeff-En:   0.100D+01
 Coeff:      0.100D+01
 Gap=     0.516 Goal=   None    Shift=    0.000
 GapD=    0.516 DampG=2.000 DampE=0.500 DampFc=1.0000 IDamp=-1.
 RMSDP=1.62D-03 MaxDP=9.92D-02              OVMax= 1.14D-01

 Cycle   2  Pass 1  IDiag  1:
 E= -279.449930870783     Delta-E=       -0.081430255849 Rises=F Damp=F
 DIIS: error= 1.82D-02 at cycle   2 NSaved=   2.
 NSaved= 2 IEnMin= 2 EnMin= -279.449930870783     IErMin= 2 ErrMin= 1.82D-02
 ErrMax= 1.82D-02  0.00D+00 EMaxC= 1.00D-01 BMatC= 7.33D-02 BMatP= 4.38D-01
 IDIUse=3 WtCom= 8.18D-01 WtEn= 1.82D-01
 Coeff-Com:  0.198D+00 0.802D+00
 Coeff-En:   0.446D-02 0.996D+00
 Coeff:      0.162D+00 0.838D+00
 Gap=     0.530 Goal=   None    Shift=    0.000
 RMSDP=9.07D-04 MaxDP=3.72D-02 DE=-8.14D-02 OVMax= 7.00D-02

 Cycle   3  Pass 1  IDiag  1:
 E= -279.479616255024     Delta-E=       -0.029685384241 Rises=F Damp=F
 DIIS: error= 1.06D-02 at cycle   3 NSaved=   3.
 NSaved= 3 IEnMin= 3 EnMin= -279.479616255024     IErMin= 3 ErrMin= 1.06D-02
 ErrMax= 1.06D-02  0.00D+00 EMaxC= 1.00D-01 BMatC= 2.93D-02 BMatP= 7.33D-02
 IDIUse=3 WtCom= 8.94D-01 WtEn= 1.06D-01
 Coeff-Com: -0.332D-01 0.378D+00 0.655D+00
 Coeff-En:   0.000D+00 0.243D+00 0.757D+00
 Coeff:     -0.297D-01 0.364D+00 0.666D+00
 Gap=     0.511 Goal=   None    Shift=    0.000
 RMSDP=3.79D-04 MaxDP=1.51D-02 DE=-2.97D-02 OVMax= 3.85D-02

 Cycle   4  Pass 1  IDiag  1:
 E= -279.499113290559     Delta-E=       -0.019497035535 Rises=F Damp=F
 DIIS: error= 1.31D-03 at cycle   4 NSaved=   4.
 NSaved= 4 IEnMin= 4 EnMin= -279.499113290559     IErMin= 4 ErrMin= 1.31D-03
 ErrMax= 1.31D-03  0.00D+00 EMaxC= 1.00D-01 BMatC= 5.06D-04 BMatP= 2.93D-02
 IDIUse=3 WtCom= 9.87D-01 WtEn= 1.31D-02
 Coeff-Com: -0.119D-01 0.588D-01 0.161D+00 0.792D+00
 Coeff-En:   0.000D+00 0.000D+00 0.000D+00 0.100D+01
 Coeff:     -0.118D-01 0.580D-01 0.159D+00 0.795D+00
 Gap=     0.503 Goal=   None    Shift=    0.000
 RMSDP=9.03D-05 MaxDP=2.83D-03 DE=-1.95D-02 OVMax= 1.13D-02

 Cycle   5  Pass 1  IDiag  1:
 E= -279.499792012887     Delta-E=       -0.000678722329 Rises=F Damp=F
 DIIS: error= 7.45D-04 at cycle   5 NSaved=   5.
 NSaved= 5 IEnMin= 5 EnMin= -279.499792012887     IErMin= 5 ErrMin= 7.45D-04
 ErrMax= 7.45D-04  0.00D+00 EMaxC= 1.00D-01 BMatC= 8.79D-05 BMatP= 5.06D-04
 IDIUse=3 WtCom= 9.93D-01 WtEn= 7.45D-03
 Coeff-Com:  0.611D-02-0.720D-01-0.117D+00 0.255D-01 0.116D+01
 Coeff-En:   0.000D+00 0.000D+00 0.000D+00 0.000D+00 0.100D+01
 Coeff:      0.606D-02-0.714D-01-0.116D+00 0.253D-01 0.116D+01
 Gap=     0.502 Goal=   None    Shift=    0.000
 RMSDP=7.53D-05 MaxDP=2.08D-03 DE=-6.79D-04 OVMax= 1.09D-02

 Cycle   6  Pass 1  IDiag  1:
 E= -279.500104379756     Delta-E=       -0.000312366869 Rises=F Damp=F
 DIIS: error= 2.96D-04 at cycle   6 NSaved=   6.
 NSaved= 6 IEnMin= 6 EnMin= -279.500104379756     IErMin= 6 ErrMin= 2.96D-04
 ErrMax= 2.96D-04  0.00D+00 EMaxC= 1.00D-01 BMatC= 1.70D-05 BMatP= 8.79D-05
 IDIUse=3 WtCom= 9.97D-01 WtEn= 2.96D-03
 Coeff-Com:  0.817D-03-0.115D-02-0.317D-03-0.125D+00-0.193D+00 0.132D+01
 Coeff-En:   0.000D+00 0.000D+00 0.000D+00 0.000D+00 0.000D+00 0.100D+01
 Coeff:      0.815D-03-0.115D-02-0.316D-03-0.125D+00-0.192D+00 0.132D+01
 Gap=     0.503 Goal=   None    Shift=    0.000
 RMSDP=4.43D-05 MaxDP=1.23D-03 DE=-3.12D-04 OVMax= 5.38D-03

 Cycle   7  Pass 1  IDiag  1:
 E= -279.500176192270     Delta-E=       -0.000071812514 Rises=F Damp=F
 DIIS: error= 1.30D-04 at cycle   7 NSaved=   7.
 NSaved= 7 IEnMin= 7 EnMin= -279.500176192270     IErMin= 7 ErrMin= 1.30D-04
 ErrMax= 1.30D-04  0.00D+00 EMaxC= 1.00D-01 BMatC= 5.32D-06 BMatP= 1.70D-05
 IDIUse=3 WtCom= 9.99D-01 WtEn= 1.30D-03
 Coeff-Com: -0.946D-03 0.139D-01 0.270D-01-0.301D-01-0.307D+00 0.453D+00
 Coeff-Com:  0.844D+00
 Coeff-En:   0.000D+00 0.000D+00 0.000D+00 0.000D+00 0.000D+00 0.000D+00
 Coeff-En:   0.100D+01
 Coeff:     -0.944D-03 0.139D-01 0.270D-01-0.301D-01-0.306D+00 0.452D+00
 Coeff:      0.844D+00
 Gap=     0.503 Goal=   None    Shift=    0.000
 RMSDP=1.38D-05 MaxDP=3.86D-04 DE=-7.18D-05 OVMax= 1.59D-03

 Cycle   8  Pass 1  IDiag  1:
 E= -279.500186135133     Delta-E=       -0.000009942863 Rises=F Damp=F
 DIIS: error= 5.37D-05 at cycle   8 NSaved=   8.
 NSaved= 8 IEnMin= 8 EnMin= -279.500186135133     IErMin= 8 ErrMin= 5.37D-05
 ErrMax= 5.37D-05  0.00D+00 EMaxC= 1.00D-01 BMatC= 6.08D-07 BMatP= 5.32D-06
 IDIUse=1 WtCom= 1.00D+00 WtEn= 0.00D+00
 Coeff-Com: -0.447D-03 0.341D-02 0.751D-02 0.275D-01-0.407D-01-0.192D+00
 Coeff-Com:  0.973D-01 0.110D+01
 Coeff:     -0.447D-03 0.341D-02 0.751D-02 0.275D-01-0.407D-01-0.192D+00
 Coeff:      0.973D-01 0.110D+01
 Gap=     0.502 Goal=   None    Shift=    0.000
 RMSDP=7.36D-06 MaxDP=2.13D-04 DE=-9.94D-06 OVMax= 7.95D-04

 Cycle   9  Pass 1  IDiag  1:
 E= -279.500188069238     Delta-E=       -0.000001934105 Rises=F Damp=F
 DIIS: error= 1.59D-05 at cycle   9 NSaved=   9.
 NSaved= 9 IEnMin= 9 EnMin= -279.500188069238     IErMin= 9 ErrMin= 1.59D-05
 ErrMax= 1.59D-05  0.00D+00 EMaxC= 1.00D-01 BMatC= 6.66D-08 BMatP= 6.08D-07
 IDIUse=1 WtCom= 1.00D+00 WtEn= 0.00D+00
 Coeff-Com:  0.124D-03-0.172D-02-0.306D-02-0.193D-02 0.342D-01 0.379D-03
 Coeff-Com: -0.145D+00-0.139D+00 0.126D+01
 Coeff:      0.124D-03-0.172D-02-0.306D-02-0.193D-02 0.342D-01 0.379D-03
 Coeff:     -0.145D+00-0.139D+00 0.126D+01
 Gap=     0.502 Goal=   None    Shift=    0.000
 RMSDP=1.94D-06 MaxDP=6.62D-05 DE=-1.93D-06 OVMax= 1.73D-04

 Cycle  10  Pass 1  IDiag  1:
 E= -279.500188228883     Delta-E=       -0.000000159645 Rises=F Damp=F
 DIIS: error= 4.09D-06 at cycle  10 NSaved=  10.
 NSaved=10 IEnMin=10 EnMin= -279.500188228883     IErMin=10 ErrMin= 4.09D-06
 ErrMax= 4.09D-06  0.00D+00 EMaxC= 1.00D-01 BMatC= 5.54D-09 BMatP= 6.66D-08
 IDIUse=1 WtCom= 1.00D+00 WtEn= 0.00D+00
 Coeff-Com:  0.300D-04-0.230D-03-0.301D-03-0.266D-02 0.132D-02 0.193D-01
 Coeff-Com: -0.731D-02-0.783D-01-0.847D-01 0.115D+01
 Coeff:      0.300D-04-0.230D-03-0.301D-03-0.266D-02 0.132D-02 0.193D-01
 Coeff:     -0.731D-02-0.783D-01-0.847D-01 0.115D+01
 Gap=     0.502 Goal=   None    Shift=    0.000
 RMSDP=5.08D-07 MaxDP=2.11D-05 DE=-1.60D-07 OVMax= 4.11D-05

 Cycle  11  Pass 1  IDiag  1:
 E= -279.500188241448     Delta-E=       -0.000000012566 Rises=F Damp=F
 DIIS: error= 2.01D-06 at cycle  11 NSaved=  11.
 NSaved=11 IEnMin=11 EnMin= -279.500188241448     IErMin=11 ErrMin= 2.01D-06
 ErrMax= 2.01D-06  0.00D+00 EMaxC= 1.00D-01 BMatC= 6.50D-10 BMatP= 5.54D-09
 IDIUse=1 WtCom= 1.00D+00 WtEn= 0.00D+00
 Coeff-Com: -0.213D-04 0.243D-03 0.481D-03 0.508D-03-0.428D-02-0.331D-02
 Coeff-Com:  0.169D-01 0.360D-01-0.138D+00-0.179D+00 0.127D+01
 Coeff:     -0.213D-04 0.243D-03 0.481D-03 0.508D-03-0.428D-02-0.331D-02
 Coeff:      0.169D-01 0.360D-01-0.138D+00-0.179D+00 0.127D+01
 Gap=     0.502 Goal=   None    Shift=    0.000
 RMSDP=1.77D-07 MaxDP=6.45D-06 DE=-1.26D-08 OVMax= 1.74D-05

 Cycle  12  Pass 1  IDiag  1:
 E= -279.500188243234     Delta-E=       -0.000000001786 Rises=F Damp=F
 DIIS: error= 5.81D-07 at cycle  12 NSaved=  12.
 NSaved=12 IEnMin=12 EnMin= -279.500188243234     IErMin=12 ErrMin= 5.81D-07
 ErrMax= 5.81D-07  0.00D+00 EMaxC= 1.00D-01 BMatC= 7.15D-11 BMatP= 6.50D-10
 IDIUse=1 WtCom= 1.00D+00 WtEn= 0.00D+00
 Coeff-Com:  0.123D-05-0.292D-04-0.625D-04 0.188D-03 0.109D-02-0.225D-02
 Coeff-Com: -0.408D-02 0.509D-02 0.419D-01-0.115D+00-0.275D+00 0.135D+01
 Coeff:      0.123D-05-0.292D-04-0.625D-04 0.188D-03 0.109D-02-0.225D-02
 Coeff:     -0.408D-02 0.509D-02 0.419D-01-0.115D+00-0.275D+00 0.135D+01
 Gap=     0.502 Goal=   None    Shift=    0.000
 RMSDP=7.16D-08 MaxDP=2.83D-06 DE=-1.79D-09 OVMax= 6.74D-06

 Cycle  13  Pass 1  IDiag  1:
 E= -279.500188243466     Delta-E=       -0.000000000231 Rises=F Damp=F
 DIIS: error= 1.75D-07 at cycle  13 NSaved=  13.
 NSaved=13 IEnMin=13 EnMin= -279.500188243466     IErMin=13 ErrMin= 1.75D-07
 ErrMax= 1.75D-07  0.00D+00 EMaxC= 1.00D-01 BMatC= 4.11D-12 BMatP= 7.15D-11
 IDIUse=1 WtCom= 1.00D+00 WtEn= 0.00D+00
 Coeff-Com:  0.130D-05-0.141D-04-0.227D-04-0.875D-04 0.121D-03 0.733D-03
 Coeff-Com: -0.575D-03-0.353D-02 0.578D-03 0.416D-01-0.385D-01-0.324D+00
 Coeff-Com:  0.132D+01
 Coeff:      0.130D-05-0.141D-04-0.227D-04-0.875D-04 0.121D-03 0.733D-03
 Coeff:     -0.575D-03-0.353D-02 0.578D-03 0.416D-01-0.385D-01-0.324D+00
 Coeff:      0.132D+01
 Gap=     0.502 Goal=   None    Shift=    0.000
 RMSDP=1.93D-08 MaxDP=5.64D-07 DE=-2.31D-10 OVMax= 1.61D-06

 Cycle  14  Pass 1  IDiag  1:
 E= -279.500188243477     Delta-E=       -0.000000000011 Rises=F Damp=F
 DIIS: error= 2.58D-08 at cycle  14 NSaved=  14.
 NSaved=14 IEnMin=14 EnMin= -279.500188243477     IErMin=14 ErrMin= 2.58D-08
 ErrMax= 2.58D-08  0.00D+00 EMaxC= 1.00D-01 BMatC= 2.15D-13 BMatP= 4.11D-12
 IDIUse=1 WtCom= 1.00D+00 WtEn= 0.00D+00
 Coeff-Com: -0.197D-06 0.323D-05 0.570D-05 0.449D-05-0.855D-04 0.475D-04
 Coeff-Com:  0.251D-03 0.283D-03-0.252D-02 0.148D-02 0.177D-01-0.260D-01
 Coeff-Com: -0.208D+00 0.122D+01
 Coeff:     -0.197D-06 0.323D-05 0.570D-05 0.449D-05-0.855D-04 0.475D-04
 Coeff:      0.251D-03 0.283D-03-0.252D-02 0.148D-02 0.177D-01-0.260D-01
 Coeff:     -0.208D+00 0.122D+01
 Gap=     0.502 Goal=   None    Shift=    0.000
 RMSDP=3.96D-09 MaxDP=9.25D-08 DE=-1.13D-11 OVMax= 3.66D-07

 SCF Done:  E(RHF) =  -279.500188243     A.U. after   14 cycles
            NFock= 14  Conv=0.40D-08     -V/T= 2.0024
 KE= 2.788178105739D+02 PE=-8.942449460010D+02 EE= 2.194588728356D+02
 Leave Link  502 at Mon Feb 21 20:06:54 2022, MaxMem= 16106127360 cpu:              56.0 elap:               3.5
 (Enter /sw/contrib/gaussian/g16/B01/g16/l801.exe)
 ExpMin= 2.53D-02 ExpMax= 1.53D+04 ExpMxC= 5.22D+02 IAcc=3 IRadAn=         5 AccDes= 0.00D+00
 HarFok:  IExCor=  205 AccDes= 0.00D+00 IRadAn=         5 IDoV=-2 UseB2=F ITyADJ=14
 ICtDFT= 12500011 ScaDFX=  1.000000  1.000000  1.000000  1.000000
 Largest valence mixing into a core orbital is  2.08D-04
 Largest core mixing into a valence orbital is  3.64D-05
 Range of M.O.s used for correlation:     5   207
 NBasis=   207 NAE=    16 NBE=    16 NFC=     4 NFV=     0
 NROrb=    203 NOA=    12 NOB=    12 NVA=   191 NVB=   191

 **** Warning!!: The largest alpha MO coefficient is  0.17547789D+02

 Leave Link  801 at Mon Feb 21 20:06:54 2022, MaxMem= 16106127360 cpu:               2.0 elap:               0.1
 (Enter /sw/contrib/gaussian/g16/B01/g16/l906.exe)
 Frozen-core derivative calculation, NFC=   4 NFV=   0.
 FulOut=F Deriv=T AODrv=T NAtomX=     5
   MMem=           0  MDisk=          12 MDiskD=          12
  W3Min=      811440 MinDsk=     2425030 NBas6D=         245
 NBas2D=       30762    NTT=       30135    LW2=     7400000
    MDV= 16105574339 MDiskM=      328644 NBas2p=       30702
 Disk-based method using ON**2 memory for 12 occupieds at a time.
 Permanent disk used for amplitudes=    11516536 words.
 Estimated scratch disk usage=   321251614 words.
 IMap=   1   2   3   4   5   6   7   8   9  10  11  12  13  14  15  16
 Actual    scratch disk usage=   310331678 words.
 JobTyp=1 Pass  1:  I=   5 to  16 NPSUse= 28 ParTrn=T ParDer=T DoDerP=T.
 (rs|ai) integrals will be sorted in core.
 Spin components of T(2) and E(2):
     alpha-alpha T2 =       0.3418028321D-01 E2=     -0.1225092010D+00
     alpha-beta  T2 =       0.1880573221D+00 E2=     -0.7013880331D+00
     beta-beta   T2 =       0.3418028321D-01 E2=     -0.1225092010D+00
 The integrals were generated   1 times.
 ANorm=    0.1120900481D+01
 E2 =    -0.9464064350D+00 EUMP2 =    -0.28044659467848D+03
 Leave Link  906 at Mon Feb 21 20:08:31 2022, MaxMem= 16106127360 cpu:            2713.0 elap:              97.0
 (Enter /sw/contrib/gaussian/g16/B01/g16/l1101.exe)
 Using compressed Sx but separate Hx and Fx, NAtomX=     5.
 Will process      6 centers per pass.
 Leave Link 1101 at Mon Feb 21 20:08:31 2022, MaxMem= 16106127360 cpu:               5.1 elap:               0.2
 (Enter /sw/contrib/gaussian/g16/B01/g16/l1102.exe)
 Leave Link 1102 at Mon Feb 21 20:08:31 2022, MaxMem= 16106127360 cpu:               0.8 elap:               0.1
 (Enter /sw/contrib/gaussian/g16/B01/g16/l1110.exe)
 Forming Gx(P) for the SCF density, NAtomX=     5.
 Integral derivatives from FoFJK, PRISM(SPDF).
 Do as many integral derivatives as possible in FoFJK.
 G2DrvN: MDV=   16106126844.
 G2DrvN: will do     6 centers at a time, making    1 passes.
 Calling FoFCou, ICntrl=  3107 FMM=F I1Cent=   0 AccDes= 0.00D+00.
 FoFJK:  IHMeth= 1 ICntrl=    3107 DoSepK=F KAlg= 0 I1Cent=           0 FoldK=F
 IRaf=         0 NMat=       1 IRICut=       1 DoRegI=T DoRafI=F ISym2E= 1 IDoP0=0 IntGTp=1.
 FoFCou: FMM=F IPFlag=           0 FMFlag=      100000 FMFlg1=           0
         NFxFlg=           0 DoJE=F BraDBF=F KetDBF=F FulRan=T
         wScrn=  0.000000 ICntrl=      3107 IOpCl=  0 I1Cent=           0 NGrid=           0
         NMat0=    1 NMatS0=      1 NMatT0=    0 NMatD0=    1 NMtDS0=    0 NMtDT0=    0
 Petite list used in FoFCou.
 End of G2Drv F.D. properties file   721 does not exist.
 End of G2Drv F.D. properties file   722 does not exist.
 End of G2Drv F.D. properties file   788 does not exist.
 Leave Link 1110 at Mon Feb 21 20:08:34 2022, MaxMem= 16106127360 cpu:              83.7 elap:               3.0
 (Enter /sw/contrib/gaussian/g16/B01/g16/l1002.exe)
 Minotr:  Closed shell wavefunction.
          IDoAtm=11111
          Frozen-core window.
          Direct CPHF calculation.
          Differentiating once with respect to electric field.
                with respect to dipole field.
          Differentiating once with respect to nuclear coordinates.
          Requested convergence is 1.0D-08 RMS, and 1.0D-07 maximum.
          Secondary convergence is 1.0D-12 RMS, and 1.0D-12 maximum.
          NewPWx=T KeepS1=T KeepF1=T KeepIn=T MapXYZ=F SortEE=F KeepMc=T.
 Keep R1 ints in memory in symmetry-blocked form, NReq=348888983.
 FoFCou: FMM=F IPFlag=           0 FMFlag=           0 FMFlg1=           0
         NFxFlg=           0 DoJE=F BraDBF=F KetDBF=F FulRan=T
         wScrn=  0.000000 ICntrl=       600 IOpCl=  0 I1Cent=           0 NGrid=           0
         NMat0=    1 NMatS0=  21528 NMatT0=    0 NMatD0=    1 NMtDS0=    0 NMtDT0=    0
 Petite list used in FoFCou.
          MDV=   16106127360 using IRadAn=       1.
          Solving linear equations simultaneously, MaxMat=       0.
          There are    18 degrees of freedom in the 1st order CPHF.  IDoFFX=6 NUNeed=    18.
     15 vectors produced by pass  0 Test12= 1.70D-14 5.56D-09 XBig12= 8.50D+00 9.75D-01.
 AX will form    15 AO Fock derivatives at one time.
     15 vectors produced by pass  1 Test12= 1.70D-14 5.56D-09 XBig12= 1.37D+00 2.67D-01.
     15 vectors produced by pass  2 Test12= 1.70D-14 5.56D-09 XBig12= 1.45D-01 9.53D-02.
     15 vectors produced by pass  3 Test12= 1.70D-14 5.56D-09 XBig12= 5.03D-03 1.06D-02.
     15 vectors produced by pass  4 Test12= 1.70D-14 5.56D-09 XBig12= 9.98D-05 1.89D-03.
     15 vectors produced by pass  5 Test12= 1.70D-14 5.56D-09 XBig12= 1.42D-06 1.77D-04.
     15 vectors produced by pass  6 Test12= 1.70D-14 5.56D-09 XBig12= 1.12D-08 1.50D-05.
     12 vectors produced by pass  7 Test12= 1.70D-14 5.56D-09 XBig12= 8.26D-11 1.28D-06.
      3 vectors produced by pass  8 Test12= 1.70D-14 5.56D-09 XBig12= 5.87D-13 1.23D-07.
      2 vectors produced by pass  9 Test12= 1.70D-14 5.56D-09 XBig12= 3.87D-15 1.05D-08.
 InvSVY:  IOpt=1 It=  1 EMax= 8.88D-16
 Solved reduced A of dimension   122 with    15 vectors.
 FullF1:  Do perturbations      1 to      18.
 Saving first derivative matrices.
 End of Minotr F.D. properties file   721 does not exist.
 End of Minotr F.D. properties file   722 does not exist.
 End of Minotr F.D. properties file   788 does not exist.
 Leave Link 1002 at Mon Feb 21 20:08:37 2022, MaxMem= 16106127360 cpu:              81.1 elap:               2.9
 (Enter /sw/contrib/gaussian/g16/B01/g16/l811.exe)
 MDV= 16106127360.
 Form MO integral derivatives with frozen-active canonical formalism.
 MOERI=1 MOERIx=1 NAtoms=     5 NAtomX=     5.
 Discarding MO integrals.
 MO basis two electron integral derivatives will not be stored on disk.
 IAlg= 3 DoFC=T DoPWx=T Debug=F.
 Frozen-core window:  NFC=   4 NFV=   0.
 Reordered first order wavefunction length =     18678272
 In DefCFB: NBatch=  1 ICI= 16 ICA=191 LFMax= 96
            Large arrays: LIAPS=   619940160 LIARS=   288257200 words.
 In StABat: MaxSiz= 55 MinSiz= 25 NAtomB=  5
 DoIAMN: NPSUse= 28.
 Leave Link  811 at Mon Feb 21 20:09:57 2022, MaxMem= 16106127360 cpu:            2237.7 elap:              80.1
 (Enter /sw/contrib/gaussian/g16/B01/g16/l804.exe)
 Frozen-core window:  NFC=   4 NFV=   0.
 Closed-shell transformation, MDV= 16106127360 ITran=4 ISComp=1.
 Semi-Direct transformation.
 ModeAB=           2 MOrb=            16 LenV=   16104923065
 LASXX=     67341636 LTotXX=    67341636 LenRXX=    67341636
 LTotAB=    68301760 MaxLAS=    99807120 LenRXY=    99807120
 NonZer=   134683272 LenScr=   202817536 LnRSAI=           0
 LnScr1=           0 LExtra=           0 Total=    369966292
 MaxDsk=          -1 SrtSym=           F ITran=            4
 DoSDTr:  NPSUse= 28
 JobTyp=0 Pass  1:  I=   1 to  16.
 (rs|ai) integrals will be sorted in core.
 Complete sort for first half transformation.
 First half transformation complete.
 Begin second half transformation for I=  10.
 Begin second half transformation for I=  10.
 Complete sort for second half transformation.
 Second half transformation complete.
 Spin components of T(2) and E(2):
     alpha-alpha T2 =       0.3418028321D-01 E2=     -0.1225092010D+00
     alpha-beta  T2 =       0.1880573221D+00 E2=     -0.7013880331D+00
     beta-beta   T2 =       0.3418028321D-01 E2=     -0.1225092010D+00
 ANorm=    0.1585192662D+01
 E2 =    -0.9464064350D+00 EUMP2 =    -0.28044659467848D+03
 Leave Link  804 at Mon Feb 21 20:10:13 2022, MaxMem= 16106127360 cpu:             428.9 elap:              15.4
 (Enter /sw/contrib/gaussian/g16/B01/g16/l1002.exe)
 Minotr:  Closed shell wavefunction.
          Computing MP2/KS-MP2 derivatives.
          Using Z-Vector for PSCF gradient.
          Skipping F1 and S1 gradient terms here.
          IDoAtm=11111
          Frozen-core window.
          Using MO integrals in the linear equations.
          Forming densities via direct SCF.
          Differentiating once with respect to electric field.
                with respect to dipole field.
          Differentiating once with respect to nuclear coordinates.
          Using symmetry in CPHF.
          Requested convergence is 1.0D-10 RMS, and 1.0D-09 maximum.
          NewPWx=F KeepS1=T KeepF1=T KeepIn=T MapXYZ=F SortEE=F KeepMc=T.
          MDV=   16106127360 using IRadAn=       5.
          Solving linear equations separately, MaxMat=       0.
          There are     1 degrees of freedom in the 1st order CPHF.  IDoFFX=0 NUNeed=     1.
 FoFJK:  IHMeth= 1 ICntrl=       0 DoSepK=F KAlg= 0 I1Cent=           0 FoldK=F
 IRaf=         0 NMat=       1 IRICut=       1 DoRegI=T DoRafI=F ISym2E= 0 IDoP0=0 IntGTp=1.
 FoFCou: FMM=F IPFlag=           0 FMFlag=      100000 FMFlg1=           0
         NFxFlg=           0 DoJE=F BraDBF=F KetDBF=F FulRan=T
         wScrn=  0.000000 ICntrl=         0 IOpCl=  0 I1Cent=           0 NGrid=           0
         NMat0=    1 NMatS0=      1 NMatT0=    0 NMatD0=    1 NMtDS0=    0 NMtDT0=    0
 Symmetry not used in FoFCou.
 LinEq1:  Iter=  0 NonCon=     1 RMS=5.99D-03 Max=1.34D-01 NDo=     1
 LinEq1:  Iter=  1 NonCon=     1 RMS=1.91D-03 Max=3.80D-02 NDo=     1
 LinEq1:  Iter=  2 NonCon=     1 RMS=8.71D-04 Max=1.43D-02 NDo=     1
 LinEq1:  Iter=  3 NonCon=     1 RMS=3.87D-04 Max=7.73D-03 NDo=     1
 LinEq1:  Iter=  4 NonCon=     1 RMS=1.19D-04 Max=1.87D-03 NDo=     1
 LinEq1:  Iter=  5 NonCon=     1 RMS=4.39D-05 Max=6.95D-04 NDo=     1
 LinEq1:  Iter=  6 NonCon=     1 RMS=2.00D-05 Max=2.13D-04 NDo=     1
 LinEq1:  Iter=  7 NonCon=     1 RMS=8.17D-06 Max=1.40D-04 NDo=     1
 LinEq1:  Iter=  8 NonCon=     1 RMS=3.51D-06 Max=3.40D-05 NDo=     1
 LinEq1:  Iter=  9 NonCon=     1 RMS=9.56D-07 Max=1.33D-05 NDo=     1
 LinEq1:  Iter= 10 NonCon=     1 RMS=1.88D-07 Max=2.07D-06 NDo=     1
 LinEq1:  Iter= 11 NonCon=     1 RMS=3.50D-08 Max=3.47D-07 NDo=     1
 LinEq1:  Iter= 12 NonCon=     1 RMS=8.52D-09 Max=1.05D-07 NDo=     1
 LinEq1:  Iter= 13 NonCon=     1 RMS=1.58D-09 Max=2.16D-08 NDo=     1
 LinEq1:  Iter= 14 NonCon=     1 RMS=2.87D-10 Max=4.02D-09 NDo=     1
 LinEq1:  Iter= 15 NonCon=     0 RMS=5.20D-11 Max=5.09D-10 NDo=     1
 Linear equations converged to 1.000D-10 1.000D-09 after    15 iterations.
 End of Minotr F.D. properties file   721 does not exist.
 End of Minotr F.D. properties file   722 does not exist.
 End of Minotr F.D. properties file   788 does not exist.
 Leave Link 1002 at Mon Feb 21 20:10:15 2022, MaxMem= 16106127360 cpu:              66.5 elap:               2.5
 (Enter /sw/contrib/gaussian/g16/B01/g16/l1102.exe)
 Use density number 2.
 Symmetrizing basis deriv contribution to polar:
 IMax=3 JMax=2 DiffMx= 0.00D+00
 Leave Link 1102 at Mon Feb 21 20:10:15 2022, MaxMem= 16106127360 cpu:               2.6 elap:               0.1
 (Enter /sw/contrib/gaussian/g16/B01/g16/l1110.exe)
 Forming Gx(P) for generalized density number  2 NAtomX=     5.
 Integral derivatives from FoFJK, PRISM(SPDF).
 Do as many integral derivatives as possible in FoFJK.
 G2DrvN: MDV=   16106126844.
 G2DrvN: will do     6 centers at a time, making    1 passes.
 Calling FoFCou, ICntrl=  3107 FMM=F I1Cent=   0 AccDes= 0.00D+00.
 FoFJK:  IHMeth= 1 ICntrl=    3107 DoSepK=F KAlg= 0 I1Cent=           0 FoldK=F
 IRaf=         0 NMat=       1 IRICut=       1 DoRegI=T DoRafI=F ISym2E= 1 IDoP0=0 IntGTp=1.
 FoFCou: FMM=F IPFlag=           0 FMFlag=      100000 FMFlg1=           0
         NFxFlg=           0 DoJE=F BraDBF=F KetDBF=F FulRan=T
         wScrn=  0.000000 ICntrl=      3107 IOpCl=  0 I1Cent=           0 NGrid=           0
         NMat0=    1 NMatS0=      1 NMatT0=    0 NMatD0=    1 NMtDS0=    0 NMtDT0=    0
 Petite list used in FoFCou.
 End of G2Drv F.D. properties file   721 does not exist.
 End of G2Drv F.D. properties file   722 does not exist.
 End of G2Drv F.D. properties file   788 does not exist.
 Leave Link 1110 at Mon Feb 21 20:10:18 2022, MaxMem= 16106127360 cpu:              84.0 elap:               3.0
 (Enter /sw/contrib/gaussian/g16/B01/g16/l1112.exe)
 MP22nd: MDV=   16106127360
 This link is doing NAtomX=     5 total of    18 degrees of freedom.
 Using ON3 I/O method in MakUI.
 Frozen-core window:  NFC=   4 NFV=   0.
 Using Ix for Sx.
 Use MO integrals over full window.
 Using OV2 memory method for fx*t*t/D, MaxI=    16 DoOO2=F NP=  28.
 R2 and R3 integrals will be kept in memory, NReq=   915591705.
 FoFCou: FMM=F IPFlag=           0 FMFlag=           0 FMFlg1=           0
         NFxFlg=           0 DoJE=F BraDBF=F KetDBF=F FulRan=T
         wScrn=  0.000000 ICntrl=       600 IOpCl=  0 I1Cent=           0 NGrid=           0
         NMat0=    1 NMatS0=      1 NMatT0=    0 NMatD0=    1 NMtDS0=    0 NMtDT0=    0
 Symmetry not used in FoFCou.
 DD1Dir will call FoFMem   1 times, MxPair=       272
 NAB=   136 NAA=     0 NBB=     0.
 Symmetry is being used.
 FoFJK:  IHMeth= 1 ICntrl=       0 DoSepK=F KAlg= 0 I1Cent=           0 FoldK=F
 IRaf=         0 NMat=      18 IRICut=      45 DoRegI=T DoRafI=T ISym2E= 2 IDoP0=3 IntGTp=3.
 Discarding MO integrals.
 Leave Link 1112 at Mon Feb 21 20:11:03 2022, MaxMem= 16106127360 cpu:            1234.6 elap:              44.8
 (Enter /sw/contrib/gaussian/g16/B01/g16/l601.exe)
 Copying SCF densities to generalized density rwf, IOpCl= 0 IROHF=0.

 **********************************************************************

            Population analysis using the MP2 Density.

 **********************************************************************

 Orbital symmetries:
       Occupied  (A') (A') (A') (A') (A') (A') (A') (A') (A') (A')
                 (A") (A') (A") (A') (A") (A')
       Virtual   (A') (A") (A') (A') (A') (A") (A') (A') (A") (A')
                 (A") (A') (A') (A') (A") (A') (A') (A") (A') (A')
                 (A') (A') (A') (A') (A") (A') (A') (A") (A') (A')
                 (A") (A') (A") (A') (A') (A") (A') (A') (A") (A')
                 (A") (A') (A") (A') (A') (A") (A') (A') (A") (A')
                 (A") (A') (A') (A') (A") (A') (A") (A') (A") (A')
                 (A') (A') (A") (A') (A') (A") (A') (A") (A') (A')
                 (A") (A') (A') (A") (A") (A') (A') (A") (A') (A')
                 (A') (A") (A') (A") (A') (A") (A') (A") (A') (A')
                 (A") (A') (A') (A") (A') (A") (A') (A") (A') (A')
                 (A") (A') (A") (A') (A') (A") (A') (A') (A") (A')
                 (A") (A') (A') (A') (A") (A') (A') (A') (A") (A')
                 (A") (A') (A") (A') (A') (A") (A") (A') (A") (A')
                 (A') (A') (A') (A") (A") (A") (A') (A') (A') (A')
                 (A") (A') (A") (A') (A') (A") (A') (A') (A') (A')
                 (A") (A') (A') (A") (A') (A") (A') (A") (A") (A')
                 (A') (A") (A') (A") (A') (A") (A") (A') (A") (A')
                 (A") (A') (A") (A') (A") (A') (A") (A") (A') (A')
                 (A') (A') (A') (A') (A') (A') (A') (A') (A') (A')
                 (A')
 The electronic state is 1-A'.
 Alpha  occ. eigenvalues --  -20.69181 -20.68458 -20.66140 -15.81315  -1.62358
 Alpha  occ. eigenvalues --   -1.48930  -1.25733  -0.94784  -0.77109  -0.75788
 Alpha  occ. eigenvalues --   -0.71037  -0.67938  -0.61889  -0.58710  -0.48813
 Alpha  occ. eigenvalues --   -0.47286
 Alpha virt. eigenvalues --    0.02959   0.07165   0.08551   0.10164   0.13308
 Alpha virt. eigenvalues --    0.13397   0.14399   0.15446   0.17829   0.19433
 Alpha virt. eigenvalues --    0.19987   0.20616   0.21752   0.22982   0.23725
 Alpha virt. eigenvalues --    0.26594   0.29330   0.30374   0.31008   0.34250
 Alpha virt. eigenvalues --    0.34911   0.38699   0.42122   0.43137   0.52707
 Alpha virt. eigenvalues --    0.52892   0.55823   0.58118   0.62564   0.63841
 Alpha virt. eigenvalues --    0.67456   0.68464   0.70505   0.71162   0.72323
 Alpha virt. eigenvalues --    0.72981   0.74482   0.79039   0.79186   0.81033
 Alpha virt. eigenvalues --    0.81243   0.82946   0.86806   0.90663   0.92166
 Alpha virt. eigenvalues --    0.92493   0.95725   0.97667   0.98355   1.01640
 Alpha virt. eigenvalues --    1.05082   1.05519   1.08083   1.11588   1.13875
 Alpha virt. eigenvalues --    1.18836   1.22076   1.23147   1.33838   1.34943
 Alpha virt. eigenvalues --    1.38605   1.45295   1.48807   1.51009   1.53705
 Alpha virt. eigenvalues --    1.56562   1.57870   1.61224   1.66119   1.66885
 Alpha virt. eigenvalues --    1.70302   1.79106   1.83015   1.83436   1.87666
 Alpha virt. eigenvalues --    1.90871   1.95593   1.99015   2.00744   2.07677
 Alpha virt. eigenvalues --    2.11721   2.13176   2.14672   2.22366   2.26101
 Alpha virt. eigenvalues --    2.26356   2.28857   2.31255   2.33938   2.38800
 Alpha virt. eigenvalues --    2.42173   2.42620   2.45294   2.46307   2.47477
 Alpha virt. eigenvalues --    2.49962   2.58735   2.59432   2.61543   2.62227
 Alpha virt. eigenvalues --    2.63000   2.66265   2.75647   2.82364   2.85109
 Alpha virt. eigenvalues --    2.87612   2.88573   2.91877   2.95403   3.01380
 Alpha virt. eigenvalues --    3.06834   3.12505   3.18452   3.22185   3.31060
 Alpha virt. eigenvalues --    3.34749   3.51133   3.64074   3.83824   3.84051
 Alpha virt. eigenvalues --    4.14578   4.15769   4.18119   4.25560   4.34777
 Alpha virt. eigenvalues --    4.38949   4.44803   4.52173   4.65939   4.70192
 Alpha virt. eigenvalues --    4.80337   4.82360   4.83080   4.89435   5.02197
 Alpha virt. eigenvalues --    5.07688   5.09995   5.14478   5.17844   5.24029
 Alpha virt. eigenvalues --    5.27202   5.30772   5.32734   5.35121   5.59679
 Alpha virt. eigenvalues --    5.67337   5.76479   5.79975   5.95177   6.16518
 Alpha virt. eigenvalues --    6.33462   6.33575   6.39826   6.49497   6.50562
 Alpha virt. eigenvalues --    6.61738   6.67869   6.70150   6.75632   6.75884
 Alpha virt. eigenvalues --    6.83205   6.89682   7.00031   7.03312   7.04389
 Alpha virt. eigenvalues --    7.07858   7.12243   7.13918   7.17651   7.22077
 Alpha virt. eigenvalues --    7.23762   7.30422   7.32457   7.34749   7.39540
 Alpha virt. eigenvalues --    7.41143   7.48289   7.59576   7.61202   7.61884
 Alpha virt. eigenvalues --    7.65973   7.77292   7.88291   8.06569   8.29286
 Alpha virt. eigenvalues --    8.39109   8.54486  13.34311  14.37362  15.14442
 Alpha virt. eigenvalues --   16.15036
          Condensed to atoms (all electrons):
               1          2          3          4          5
     1  H    0.588466   0.127997   0.020869   0.012053  -0.000585
     2  O    0.127997   8.302089  -0.153749  -0.087748   0.014984
     3  O    0.020869  -0.153749   8.450681  -0.131713  -0.038115
     4  N    0.012053  -0.087748  -0.131713   6.969543  -0.055201
     5  O   -0.000585   0.014984  -0.038115  -0.055201   8.271635
 Mulliken charges:
               1
     1  H    0.251201
     2  O   -0.203574
     3  O   -0.147974
     4  N    0.293066
     5  O   -0.192719
 Sum of Mulliken charges =   0.00000
 Mulliken charges with hydrogens summed into heavy atoms:
               1
     2  O    0.047627
     3  O   -0.147974
     4  N    0.293066
     5  O   -0.192719
 APT charges:
               1
     1  H    0.298093
     2  O   -0.289134
     3  O   -0.495647
     4  N    0.877421
     5  O   -0.390733
 Sum of APT charges =   0.00000
 APT charges with hydrogens summed into heavy atoms:
               1
     2  O    0.008959
     3  O   -0.495647
     4  N    0.877421
     5  O   -0.390733
 Electronic spatial extent (au):  <R**2>=            254.4785
 Charge=              0.0000 electrons
 Dipole moment (field-independent basis, Debye):
    X=              0.5113    Y=              1.3462    Z=             -0.0000  Tot=              1.4400
 Quadrupole moment (field-independent basis, Debye-Ang):
   XX=            -22.3783   YY=            -18.6764   ZZ=            -22.0332
   XY=              3.3072   XZ=             -0.0000   YZ=              0.0000
 Traceless Quadrupole moment (field-independent basis, Debye-Ang):
   XX=             -1.3490   YY=              2.3529   ZZ=             -1.0039
   XY=              3.3072   XZ=             -0.0000   YZ=              0.0000
 Octapole moment (field-independent basis, Debye-Ang**2):
  XXX=              3.1027  YYY=             11.0744  ZZZ=             -0.0000  XYY=              7.9269
  XXY=              6.7429  XXZ=              0.0000  XZZ=             -1.6112  YZZ=             -0.8657
  YYZ=              0.0000  XYZ=              0.0000
 Hexadecapole moment (field-independent basis, Debye-Ang**3):
 XXXX=           -160.9307 YYYY=            -89.0024 ZZZZ=            -18.2859 XXXY=            -36.3041
 XXXZ=             -0.0000 YYYX=            -30.8202 YYYZ=             -0.0000 ZZZX=             -0.0000
 ZZZY=             -0.0000 XXYY=            -33.9887 XXZZ=            -31.3965 YYZZ=            -20.4924
 XXYZ=             -0.0000 YYXZ=             -0.0000 ZZXY=            -15.0855
 N-N= 1.164680743481D+02 E-N=-8.950360895702D+02  KE= 2.801750724577D+02
 Symmetry A'   KE= 2.662129133264D+02
 Symmetry A"   KE= 1.396215913132D+01
  Exact polarizability:  34.404   9.497  30.187   0.000  -0.000  17.982
 Approx polarizability:  29.497   5.093  23.484   0.000   0.000  15.549
 No NMR shielding tensors so no spin-rotation constants.
 Leave Link  601 at Mon Feb 21 20:11:04 2022, MaxMem= 16106127360 cpu:               4.3 elap:               0.2
 (Enter /sw/contrib/gaussian/g16/B01/g16/l701.exe)
 ... and contract with generalized density number  2.
 Compute integral second derivatives.
 Leave Link  701 at Mon Feb 21 20:11:04 2022, MaxMem= 16106127360 cpu:               6.1 elap:               0.2
 (Enter /sw/contrib/gaussian/g16/B01/g16/l702.exe)
 L702 exits ... SP integral derivatives will be done elsewhere.
 Leave Link  702 at Mon Feb 21 20:11:04 2022, MaxMem= 16106127360 cpu:               0.5 elap:               0.0
 (Enter /sw/contrib/gaussian/g16/B01/g16/l703.exe)
 Integral derivatives from FoFJK, PRISM(SPDF).
 Compute integral second derivatives, UseDBF=F ICtDFT=           0.
 Calling FoFJK, ICntrl=  10100127 FMM=F ISym2X=1 I1Cent= 0 IOpClX= 0 NMat=1 NMatS=1 NMatT=0.
 FoFJK:  IHMeth= 1 ICntrl=10100127 DoSepK=F KAlg= 0 I1Cent=           0 FoldK=F
 IRaf=         0 NMat=       1 IRICut=       1 DoRegI=T DoRafI=F ISym2E= 1 IDoP0=0 IntGTp=1.
 FoFCou: FMM=F IPFlag=           0 FMFlag=      100000 FMFlg1=         800
         NFxFlg=           0 DoJE=F BraDBF=F KetDBF=F FulRan=T
         wScrn=  0.000000 ICntrl=  10100127 IOpCl=  0 I1Cent=           0 NGrid=           0
         NMat0=    1 NMatS0=      1 NMatT0=    0 NMatD0=    1 NMtDS0=    0 NMtDT0=    0
 Petite list used in FoFCou.
 Leave Link  703 at Mon Feb 21 20:11:19 2022, MaxMem= 16106127360 cpu:             425.5 elap:              15.3
 (Enter /sw/contrib/gaussian/g16/B01/g16/l716.exe)
 Dipole        = 2.01148639D-01 5.29620403D-01-8.15747356D-34
 Polarizability= 3.44039527D+01 9.49743343D+00 3.01866800D+01
                 1.51243961D-31-1.08943170D-31 1.79823254D+01
 Full mass-weighted force constant matrix:
 Low frequencies --- -275.7879  -25.6138   -0.0012   -0.0011    0.0014   38.3898
 Low frequencies ---   60.6783  235.3387  343.4920
 ******    1 imaginary frequencies (negative Signs) ****** 
 Diagonal vibrational polarizability:
       14.5922727      24.9157370      44.4800194
 Harmonic frequencies (cm**-1), IR intensities (KM/Mole), Raman scattering
 activities (A**4/AMU), depolarization ratios for plane and unpolarized
 incident light, reduced masses (AMU), force constants (mDyne/A),
 and normal coordinates:
                      1                      2                      3
                     A"                     A"                     A'
 Frequencies --   -275.4591               234.2489               343.3795
 Red. masses --      1.1413                10.3067                 8.7226
 Frc consts  --      0.0510                 0.3332                 0.6060
 IR Inten    --    124.1503                 0.9139                 2.6695
  Atom  AN      X      Y      Z        X      Y      Z        X      Y      Z
     1   1     0.00   0.00   1.00     0.00  -0.00  -0.59     0.52  -0.45  -0.00
     2   8     0.00   0.00  -0.07     0.00  -0.00  -0.30    -0.11  -0.38   0.00
     3   8    -0.00  -0.00  -0.04    -0.00   0.00   0.32    -0.15   0.42  -0.00
     4   7     0.00  -0.00   0.06     0.00   0.00   0.52     0.06   0.27  -0.00
     5   8    -0.00   0.00  -0.01     0.00  -0.00  -0.44     0.17  -0.24   0.00
                      4                      5                      6
                     A'                     A'                     A'
 Frequencies --    446.8362               773.7767               935.5367
 Red. masses --     12.1630                13.1780                14.8571
 Frc consts  --      1.4308                 4.6487                 7.6614
 IR Inten    --    198.9830               162.9628                33.1595
  Atom  AN      X      Y      Z        X      Y      Z        X      Y      Z
     1   1     0.44   0.17   0.00    -0.32   0.19   0.00    -0.25  -0.01  -0.00
     2   8     0.32   0.18  -0.00     0.47   0.08   0.00    -0.46   0.04  -0.00
     3   8     0.16   0.46   0.00    -0.14  -0.27  -0.00     0.73  -0.05   0.00
     4   7    -0.35  -0.38   0.00    -0.12   0.61  -0.00    -0.14   0.30   0.00
     5   8    -0.21  -0.31  -0.00    -0.21  -0.35   0.00    -0.14  -0.26  -0.00
                      7                      8                      9
                     A'                     A'                     A'
 Frequencies --   1352.7489              1676.5038              3780.2552
 Red. masses --      1.1325                13.3849                 1.0676
 Frc consts  --      1.2210                22.1653                 8.9892
 IR Inten    --    151.3905               141.4777                81.7096
  Atom  AN      X      Y      Z        X      Y      Z        X      Y      Z
     1   1     0.99  -0.06   0.00    -0.33   0.01  -0.00     0.11   0.99  -0.00
     2   8    -0.03   0.05  -0.00    -0.00  -0.04   0.00    -0.01  -0.06   0.00
     3   8    -0.02  -0.05  -0.00     0.00   0.15   0.00     0.00   0.00   0.00
     4   7     0.02   0.01   0.00     0.71  -0.06  -0.00    -0.00  -0.00  -0.00
     5   8    -0.03  -0.01   0.00    -0.60  -0.06  -0.00     0.00   0.00  -0.00

 -------------------
 - Thermochemistry -
 -------------------
 Temperature   298.150 Kelvin.  Pressure   1.00000 Atm.
 Atom     1 has atomic number  1 and mass   1.00783
 Atom     2 has atomic number  8 and mass  15.99491
 Atom     3 has atomic number  8 and mass  15.99491
 Atom     4 has atomic number  7 and mass  14.00307
 Atom     5 has atomic number  8 and mass  15.99491
 Molecular mass:    62.99564 amu.
 Principal axes and moments of inertia in atomic units:
                           1         2         3
     Eigenvalues --    33.08225 362.94340 396.02565
           X            0.81614  -0.57785   0.00000
           Y            0.57785   0.81614   0.00000
           Z           -0.00000   0.00000   1.00000
 This molecule is an asymmetric top.
 Rotational symmetry number  1.
 Rotational temperatures (Kelvin)      2.61814     0.23864     0.21871
 Rotational constants (GHZ):          54.55316     4.97251     4.55713
    1 imaginary frequencies ignored.
 Zero-point vibrational energy      57081.5 (Joules/Mol)
                                   13.64281 (Kcal/Mol)
 Warning -- explicit consideration of   3 degrees of freedom as
           vibrations may cause significant error
 Vibrational temperatures:    337.03   494.05   642.90  1113.29  1346.03
          (Kelvin)           1946.30  2412.12  5438.94
 
 Zero-point correction=                           0.021741 (Hartree/Particle)
 Thermal correction to Energy=                    0.025863
 Thermal correction to Enthalpy=                  0.026807
 Thermal correction to Gibbs Free Energy=        -0.004384
 Sum of electronic and zero-point Energies=           -280.424853
 Sum of electronic and thermal Energies=              -280.420732
 Sum of electronic and thermal Enthalpies=            -280.419788
 Sum of electronic and thermal Free Energies=         -280.450978
 
                     E (Thermal)             CV                S
                      KCal/Mol        Cal/Mol-Kelvin    Cal/Mol-Kelvin
 Total                   16.229             12.019             65.646
 Electronic               0.000              0.000              0.000
 Translational            0.889              2.981             38.341
 Rotational               0.889              2.981             23.079
 Vibrational             14.452              6.057              4.226
 Vibration     1          0.654              1.788              1.846
 Vibration     2          0.722              1.589              1.196
 Vibration     3          0.806              1.368              0.805
                       Q            Log10(Q)             Ln(Q)
 Total Bot       0.103828D+03          2.016313          4.642731
 Total V=0       0.103888D+13         12.016564         27.669161
 Vib (Bot)       0.214027D-09         -9.669531        -22.264919
 Vib (Bot)    1  0.839232D+00         -0.076118         -0.175268
 Vib (Bot)    2  0.539598D+00         -0.267930         -0.616931
 Vib (Bot)    3  0.384764D+00         -0.414805         -0.955125
 Vib (V=0)       0.214151D+01          0.330720          0.761511
 Vib (V=0)    1  0.147689D+01          0.169348          0.389937
 Vib (V=0)    2  0.123564D+01          0.091892          0.211589
 Vib (V=0)    3  0.113091D+01          0.053427          0.123020
 Electronic      0.100000D+01          0.000000          0.000000
 Translational   0.196526D+08          7.293420         16.793719
 Rotational      0.246845D+05          4.392424         10.113931
 
                                                                title
                                                             IR Spectrum
 
     3                                                                      1          1                                             
     7                                                                      6          3             9     7         4   3   2       
     8                                                                      7          5             3     7         4   4   3       
     0                                                                      7          3             6     4         7   3   4       
 
     X                                                                      X          X             X     X         X   X   X       
     X                                                                      X          X             X     X         X               
     X                                                                      X          X             X     X         X               
     X                                                                      X          X                   X         X               
     X                                                                      X          X                   X         X               
     X                                                                      X          X                   X         X               
     X                                                                      X          X                   X         X               
     X                                                                      X          X                   X         X               
                                                                            X          X                   X         X               
                                                                            X          X                   X         X               
                                                                            X          X                   X         X               
                                                                            X          X                   X         X               
                                                                            X          X                   X         X               
                                                                            X          X                   X         X               
                                                                                       X                   X         X               
                                                                                                           X         X               
                                                                                                                     X               
                                                                                                                     X               
                                                                                                                     X               
                                                                                                                     X               
 
 ***** Axes restored to original set *****
 -------------------------------------------------------------------
 Center     Atomic                   Forces (Hartrees/Bohr)
 Number     Number              X              Y              Z
 -------------------------------------------------------------------
      1        1           0.001145854    0.000000000   -0.000327779
      2        8           0.007197201    0.000000000    0.002868705
      3        8          -0.007228601   -0.000000000   -0.002473123
      4        7          -0.001453289   -0.000000000    0.000408868
      5        8           0.000338835   -0.000000000   -0.000476671
 -------------------------------------------------------------------
 Cartesian Forces:  Max     0.007228601 RMS     0.002857036
 -----------------------------------------------------------------------------------------------
                       Internal Coordinate Forces (Hartree/Bohr or radian)
  Cent   Atom   N1       Length/X         N2         Alpha/Y        N3         Beta/Z          J
 -----------------------------------------------------------------------------------------------
      1  H 
      2  O        1   0.000328(     1)
      3  O        2  -0.008606(     2)      1  -0.002098(     5)
      4  N        3  -0.000159(     3)      2  -0.001839(     6)      1   0.000000(     8)     0
      5  O        4   0.000210(     4)      3  -0.001208(     7)      2   0.000000(     9)     0
 -----------------------------------------------------------------------------------------------
 Internal  Forces:  Max     0.008605695 RMS     0.003045527
 Force constants in Cartesian coordinates: 
                1             2             3             4             5 
      1  0.629085D-01
      2  0.000000D+00 -0.249804D-02
      3  0.428606D-02  0.000000D+00  0.512749D+00
      4 -0.359786D-01  0.000000D+00 -0.155869D-01  0.250342D+00
      5  0.000000D+00  0.354675D-02  0.000000D+00  0.000000D+00  0.402742D-02
      6  0.474095D-01  0.000000D+00 -0.509348D+00  0.276505D-01  0.000000D+00
      7 -0.164780D-01  0.000000D+00  0.127584D-01 -0.199136D+00  0.000000D+00
      8  0.000000D+00  0.552984D-03  0.000000D+00  0.000000D+00 -0.865462D-02
      9 -0.512142D-01  0.000000D+00  0.436118D-04 -0.146630D-01  0.000000D+00
     10 -0.931171D-02  0.000000D+00 -0.471915D-02 -0.161588D-01  0.000000D+00
     11  0.000000D+00 -0.258477D-02  0.000000D+00  0.000000D+00 -0.518806D-02
     12  0.519584D-02  0.000000D+00 -0.489023D-02  0.113221D-01  0.000000D+00
     13 -0.114016D-02  0.000000D+00  0.326155D-02  0.931260D-03  0.000000D+00
     14  0.000000D+00  0.983069D-03  0.000000D+00  0.000000D+00  0.626850D-02
     15 -0.567717D-02  0.000000D+00  0.144540D-02 -0.872263D-02  0.000000D+00
                6             7             8             9            10 
      6  0.593964D+00
      7 -0.166145D-01  0.318132D+00
      8  0.000000D+00  0.000000D+00  0.647467D-02
      9 -0.779594D-01  0.299487D-01  0.000000D+00  0.179800D+00
     10 -0.504754D-01 -0.769801D-01  0.000000D+00  0.174542D+00  0.826589D+00
     11  0.000000D+00  0.000000D+00  0.884468D-02  0.000000D+00  0.000000D+00
     12  0.175234D-01  0.641809D-01  0.000000D+00 -0.814059D-01 -0.193194D-01
     13 -0.797003D-02 -0.255380D-01  0.000000D+00 -0.138614D+00 -0.724138D+00
     14  0.000000D+00  0.000000D+00 -0.721771D-02  0.000000D+00  0.000000D+00
     15 -0.241800D-01 -0.902736D-01  0.000000D+00 -0.204785D-01 -0.100028D+00
               11            12            13            14            15 
     11  0.813291D-02
     12  0.000000D+00  0.185545D+00
     13  0.000000D+00 -0.613794D-01  0.749885D+00
     14 -0.920476D-02  0.000000D+00  0.000000D+00  0.917090D-02
     15  0.000000D+00 -0.116773D+00  0.204702D+00  0.000000D+00  0.159986D+00
 Force constants in internal coordinates: 
                1             2             3             4             5 
      1  0.512749D+00
      2 -0.107522D-01  0.255322D+00
      3  0.355273D-02  0.197406D-02  0.116013D+00
      4 -0.351820D-02  0.509073D-02  0.153233D+00  0.811974D+00
      5  0.899408D-02  0.613898D-01  0.244758D-02  0.460187D-02  0.211528D+00
      6  0.453339D-02  0.552832D-01  0.388378D-01  0.221303D-01  0.312481D-01
      7 -0.130729D-02  0.365750D-01  0.311212D-01  0.839517D-01  0.211344D-01
      8  0.000000D+00  0.000000D+00  0.000000D+00  0.000000D+00  0.000000D+00
      9  0.000000D+00  0.000000D+00  0.000000D+00  0.000000D+00  0.000000D+00
                6             7             8             9 
      6  0.274096D+00
      7  0.947343D-01  0.479621D+00
      8  0.000000D+00  0.000000D+00 -0.736420D-02
      9  0.000000D+00  0.000000D+00 -0.373031D-02  0.408836D-01
 Leave Link  716 at Mon Feb 21 20:11:19 2022, MaxMem= 16106127360 cpu:               1.0 elap:               0.1
 (Enter /sw/contrib/gaussian/g16/B01/g16/l103.exe)

 GradGradGradGradGradGradGradGradGradGradGradGradGradGradGradGradGradGrad
 Berny optimization.
 Search for a local minimum.
 Step number   1 out of a maximum of    2
 All quantities printed in internal units (Hartrees-Bohrs-Radians)
 Second derivative matrix not updated -- analytic derivatives used.
 The second derivative matrix:
                          r1        r2        r3        r4        a1
           r1           0.51275
           r2          -0.01075   0.25532
           r3           0.00355   0.00197   0.11601
           r4          -0.00352   0.00509   0.15323   0.81197
           a1           0.00899   0.06139   0.00245   0.00460   0.21153
           a2           0.00453   0.05528   0.03884   0.02213   0.03125
           a3          -0.00131   0.03657   0.03112   0.08395   0.02113
           d1           0.00000  -0.00000  -0.00000  -0.00000  -0.00000
           d2          -0.00000   0.00000   0.00000   0.00000   0.00000
                          a2        a3        d1        d2
           a2           0.27410
           a3           0.09473   0.47962
           d1          -0.00000  -0.00000  -0.00736
           d2          -0.00000  -0.00000  -0.00373   0.04088
 ITU=  0
     Eigenvalues ---   -0.00765   0.04117   0.07755   0.16724   0.21624
     Eigenvalues ---    0.30679   0.51008   0.51347   0.86994
 Eigenvalue     1 is  -7.65D-03 should be greater than     0.000000 Eigenvector:
                          d1        d2        a3        a2        r3
   1                    0.99706   0.07663   0.00000   0.00000  -0.00000
                          r4        a1        r1        r2
   1                    0.00000  -0.00000  -0.00000   0.00000
 Angle between quadratic step and forces=  19.84 degrees.
 Linear search not attempted -- first point.
 Variable       Old X    -DE/DX   Delta X   Delta X   Delta X     New X
                                 (Linear)    (Quad)   (Total)
    r1        1.83110   0.00033   0.00000  -0.00005  -0.00005   1.83105
    r2        2.78057  -0.00861   0.00000  -0.03374  -0.03374   2.74683
    r3        2.75670  -0.00016   0.00000  -0.00201  -0.00201   2.75469
    r4        2.21236   0.00021   0.00000   0.00084   0.00084   2.21320
    a1        1.70335  -0.00210   0.00000  -0.00017  -0.00017   1.70318
    a2        1.78543  -0.00184   0.00000   0.00034   0.00034   1.78577
    a3        1.90362  -0.00121   0.00000  -0.00002  -0.00002   1.90360
    d1        3.14159   0.00000   0.00000  -0.00000   0.00000   3.14159
    d2        3.14159   0.00000   0.00000   0.00000   0.00000   3.14159
         Item               Value     Threshold  Converged?
 Maximum Force            0.008606     0.000450     NO 
 RMS     Force            0.003046     0.000300     NO 
 Maximum Displacement     0.033739     0.001800     NO 
 RMS     Displacement     0.011270     0.001200     NO 
 Predicted change in Energy=-1.452896D-04
                       ----------------------------
                       ! Non-Optimized Parameters !
                       ! (Angstroms and Degrees)  !
 ----------------------                            ----------------------
 !      Name          Value   Derivative information (Atomic Units)     !
 ------------------------------------------------------------------------
 !       r1          0.9689   -DE/DX =    0.0003                        !
 !       r2          1.4536   -DE/DX =   -0.0086                        !
 !       r3          1.4577   -DE/DX =   -0.0002                        !
 !       r4          1.1712   -DE/DX =    0.0002                        !
 !       a1         97.5853   -DE/DX =   -0.0021                        !
 !       a2        102.317    -DE/DX =   -0.0018                        !
 !       a3        109.0683   -DE/DX =   -0.0012                        !
 !       d1        180.0      -DE/DX =    0.0                           !
 !       d2        180.0      -DE/DX =    0.0                           !
 ------------------------------------------------------------------------
 GradGradGradGradGradGradGradGradGradGradGradGradGradGradGradGradGradGrad

 Leave Link  103 at Mon Feb 21 20:11:19 2022, MaxMem= 16106127360 cpu:               1.6 elap:               0.1
 (Enter /sw/contrib/gaussian/g16/B01/g16/l9999.exe)

 ----------------------------------------------------------------------

 Electric dipole moment (input orientation):
 (Debye = 10**-18 statcoulomb cm , SI units = C m)
                  (au)            (Debye)         (10**-30 SI)
   Tot        0.566532D+00      0.143998D+01      0.480326D+01
   x         -0.144456D+00     -0.367169D+00     -0.122475D+01
   y          0.000000D+00      0.000000D+00      0.000000D+00
   z         -0.547806D+00     -0.139238D+01     -0.464449D+01

 Dipole polarizability, Alpha (input orientation).
 (esu units = cm**3 , SI units = C**2 m**2 J**-1)
 Alpha(0;0):
               (au)            (10**-24 esu)      (10**-40 SI)
   iso        0.275243D+02      0.407868D+01      0.453815D+01
   aniso      0.221089D+02      0.327620D+01      0.364527D+01
   xx         0.323751D+02      0.479749D+01      0.533792D+01
   yx         0.000000D+00      0.000000D+00      0.000000D+00
   yy         0.179823D+02      0.266471D+01      0.296488D+01
   zx         0.972837D+01      0.144160D+01      0.160399D+01
   zy         0.000000D+00      0.000000D+00      0.000000D+00
   zz         0.322156D+02      0.477386D+01      0.531163D+01

 ----------------------------------------------------------------------

 Dipole orientation:
     1          0.00000000          0.00000000          0.00000000
     8         -0.46689756          0.00000000         -1.77057283
     8          2.10447010          0.00000000         -2.82870715
     7          1.62245939          0.00000000         -5.54294250
     8          3.55481302          0.00000000         -6.62022262

 Electric dipole moment (dipole orientation):
 (Debye = 10**-18 statcoulomb cm , SI units = C m)
                  (au)            (Debye)         (10**-30 SI)
   Tot        0.566532D+00      0.143998D+01      0.480326D+01
   x          0.000000D+00      0.000000D+00      0.000000D+00
   y          0.000000D+00      0.000000D+00      0.000000D+00
   z          0.566532D+00      0.143998D+01      0.480326D+01

 Dipole polarizability, Alpha (dipole orientation).
 (esu units = cm**3 , SI units = C**2 m**2 J**-1)
 Alpha(0;0):
               (au)            (10**-24 esu)      (10**-40 SI)
   iso        0.275243D+02      0.407868D+01      0.453815D+01
   aniso      0.221089D+02      0.327620D+01      0.364527D+01
   xx         0.275675D+02      0.408509D+01      0.454527D+01
   yx         0.000000D+00      0.000000D+00      0.000000D+00
   yy         0.179823D+02      0.266471D+01      0.296488D+01
   zx        -0.850269D+01     -0.125997D+01     -0.140190D+01
   zy         0.000000D+00      0.000000D+00      0.000000D+00
   zz         0.370231D+02      0.548626D+01      0.610428D+01

 ----------------------------------------------------------------------
 1\1\GINC-N2125\Freq\RMP2-FC\Aug-CC-pVTZ\H1N1O3\CGAVINH\21-Feb-2022\1\\
 #p freq mp2/aug-cc-pvtz density=current\\title\\0,1\H\O,1,r1\O,2,r2,1,
 a1\N,3,r3,2,a2,1,d1,0\O,4,r4,3,a3,2,d2,0\\r1=0.96897556\r2=1.47141526\
 r3=1.45878406\r4=1.17072885\a1=97.59494903\a2=102.29752444\a3=109.0695
 5123\d1=180.\d2=180.\\Version=ES64L-G16RevB.01\State=1-A'\HF=-279.5001
 882\MP2=-280.4465947\RMSD=3.957e-09\RMSF=2.857e-03\ZeroPoint=0.0217412
 \Thermal=0.0258628\Dipole=-0.1444556,0.,-0.5478057\DipoleDeriv=0.26602
 46,0.,0.0473344,0.,0.3548468,0.,0.0844533,0.,0.2734077,-0.3277832,0.,-
 0.1996021,0.,-0.3139174,0.,-0.117481,0.,-0.225701,-0.050434,0.,0.13845
 92,0.,-0.0874435,0.,-0.7522292,0.,-1.3490634,0.895307,0.,0.909801,0.,0
 .0661855,0.,0.9283951,0.,1.6707705,-0.7831144,0.,-0.8959926,0.,-0.0196
 714,0.,-0.1431382,0.,-0.3694139\Polar=32.3750515,0.,17.9823254,9.72837
 25,0.,32.2155812\Quadrupole=-1.485907,-0.7463433,2.2322504,0.,2.117445
 4,0.\PG=CS [SG(H1N1O3)]\NImag=1\\0.06290852,0.,-0.00249804,0.00428606,
 0.,0.51274937,-0.03597861,0.,-0.01558689,0.25034248,0.,0.00354675,0.,0
 .,0.00402742,0.04740945,0.,-0.50934816,0.02765048,0.,0.59396415,-0.016
 47803,0.,0.01275843,-0.19913636,0.,-0.01661448,0.31813248,0.,0.0005529
 8,0.,0.,-0.00865462,0.,0.,0.00647467,-0.05121418,0.,0.00004361,-0.0146
 6301,0.,-0.07795939,0.02994870,0.,0.17980015,-0.00931171,0.,-0.0047191
 5,-0.01615877,0.,-0.05047542,-0.07698007,0.,0.17454225,0.82658853,0.,-
 0.00258477,0.,0.,-0.00518806,0.,0.,0.00884468,0.,0.,0.00813291,0.00519
 584,0.,-0.00489023,0.01132206,0.,0.01752340,0.06418094,0.,-0.08140590,
 -0.01931945,0.,0.18554543,-0.00114016,0.,0.00326155,0.00093126,0.,-0.0
 0797003,-0.02553802,0.,-0.13861377,-0.72413798,0.,-0.06137939,0.749884
 90,0.,0.00098307,0.,0.,0.00626850,0.,0.,-0.00721771,0.,0.,-0.00920476,
 0.,0.,0.00917090,-0.00567717,0.,0.00144540,-0.00872263,0.,-0.02418000,
 -0.09027360,0.,-0.02047847,-0.10002824,0.,-0.11677271,0.20470165,0.,0.
 15998577\\-0.00114585,0.,0.00032778,-0.00719720,0.,-0.00286870,0.00722
 860,0.,0.00247312,0.00145329,0.,-0.00040887,-0.00033883,0.,0.00047667\
 \\@


 FORGIVE MY NONSENSE AS I ALSO FORGIVE THOSE WHO THINK THEY TALK SENSE

                                                       -- ROBERT FROST
 Job cpu time:       0 days  2 hours  4 minutes 20.4 seconds.
 Elapsed time:       0 days  0 hours  4 minutes 29.9 seconds.
 File lengths (MBytes):  RWF=   7239 Int=      0 D2E=      0 Chk=      8 Scr=      1
 Normal termination of Gaussian 16 at Mon Feb 21 20:11:20 2022.
