 Entering Gaussian System, Link 0=g16
 Input=hoono_r4_1p181940.gjf
 Output=hoono_r4_1p181940.log
 Initial command:
 /sw/contrib/gaussian/g16/B01/g16/l1.exe "/scr/Gau-13661.inp" -scrdir="/scr/"
 Entering Link 1 = /sw/contrib/gaussian/g16/B01/g16/l1.exe PID=     13662.
  
 Copyright (c) 1988-2017, Gaussian, Inc.  All Rights Reserved.
  
 This is part of the Gaussian(R) 16 program.  It is based on
 the Gaussian(R) 09 system (copyright 2009, Gaussian, Inc.),
 the Gaussian(R) 03 system (copyright 2003, Gaussian, Inc.),
 the Gaussian(R) 98 system (copyright 1998, Gaussian, Inc.),
 the Gaussian(R) 94 system (copyright 1995, Gaussian, Inc.),
 the Gaussian 92(TM) system (copyright 1992, Gaussian, Inc.),
 the Gaussian 90(TM) system (copyright 1990, Gaussian, Inc.),
 the Gaussian 88(TM) system (copyright 1988, Gaussian, Inc.),
 the Gaussian 86(TM) system (copyright 1986, Carnegie Mellon
 University), and the Gaussian 82(TM) system (copyright 1983,
 Carnegie Mellon University). Gaussian is a federally registered
 trademark of Gaussian, Inc.
  
 This software contains proprietary and confidential information,
 including trade secrets, belonging to Gaussian, Inc.
  
 This software is provided under written license and may be
 used, copied, transmitted, or stored only in accord with that
 written license.
  
 The following legend is applicable only to US Government
 contracts under FAR:
  
                    RESTRICTED RIGHTS LEGEND
  
 Use, reproduction and disclosure by the US Government is
 subject to restrictions as set forth in subparagraphs (a)
 and (c) of the Commercial Computer Software - Restricted
 Rights clause in FAR 52.227-19.
  
 Gaussian, Inc.
 340 Quinnipiac St., Bldg. 40, Wallingford CT 06492
  
  
 ---------------------------------------------------------------
 Warning -- This program may not be used in any manner that
 competes with the business of Gaussian, Inc. or will provide
 assistance to any competitor of Gaussian, Inc.  The licensee
 of this program is prohibited from giving any competitor of
 Gaussian, Inc. access to this program.  By using this program,
 the user acknowledges that Gaussian, Inc. is engaged in the
 business of creating and licensing software in the field of
 computational chemistry and represents and warrants to the
 licensee that it is not a competitor of Gaussian, Inc. and that
 it will not use this program in any manner prohibited above.
 ---------------------------------------------------------------
  

 Cite this work as:
 Gaussian 16, Revision B.01,
 M. J. Frisch, G. W. Trucks, H. B. Schlegel, G. E. Scuseria, 
 M. A. Robb, J. R. Cheeseman, G. Scalmani, V. Barone, 
 G. A. Petersson, H. Nakatsuji, X. Li, M. Caricato, A. V. Marenich, 
 J. Bloino, B. G. Janesko, R. Gomperts, B. Mennucci, H. P. Hratchian, 
 J. V. Ortiz, A. F. Izmaylov, J. L. Sonnenberg, D. Williams-Young, 
 F. Ding, F. Lipparini, F. Egidi, J. Goings, B. Peng, A. Petrone, 
 T. Henderson, D. Ranasinghe, V. G. Zakrzewski, J. Gao, N. Rega, 
 G. Zheng, W. Liang, M. Hada, M. Ehara, K. Toyota, R. Fukuda, 
 J. Hasegawa, M. Ishida, T. Nakajima, Y. Honda, O. Kitao, H. Nakai, 
 T. Vreven, K. Throssell, J. A. Montgomery, Jr., J. E. Peralta, 
 F. Ogliaro, M. J. Bearpark, J. J. Heyd, E. N. Brothers, K. N. Kudin, 
 V. N. Staroverov, T. A. Keith, R. Kobayashi, J. Normand, 
 K. Raghavachari, A. P. Rendell, J. C. Burant, S. S. Iyengar, 
 J. Tomasi, M. Cossi, J. M. Millam, M. Klene, C. Adamo, R. Cammi, 
 J. W. Ochterski, R. L. Martin, K. Morokuma, O. Farkas, 
 J. B. Foresman, and D. J. Fox, Gaussian, Inc., Wallingford CT, 2016.
 
 ******************************************
 Gaussian 16:  ES64L-G16RevB.01 20-Dec-2017
                21-Feb-2022 
 ******************************************
 %nproc=28
 Will use up to   28 processors via shared memory.
 %mem=120GB
 %chk=hoono_r4_1p181940.chk
 ---------------------------------------
 #p freq mp2/aug-cc-pvtz density=current
 ---------------------------------------
 1/10=4,30=1,38=1/1,3;
 2/12=2,17=6,18=5,40=1/2;
 3/5=16,6=1,7=10,11=9,25=1,30=1,71=2,140=1/1,2,3;
 4//1;
 5/5=2,38=5,98=1/2;
 8/6=3,8=1,10=1,19=11,30=-1/1;
 9/15=3,16=-3/6;
 11/6=1,8=1,15=11,17=12,24=-1,27=1,28=-2,29=300,32=6,42=3/1,2,10;
 10/6=2,21=1/2;
 8/6=4,8=1,10=1,19=11,30=-1/11,4;
 10/5=1,20=4/2;
 11/12=2,14=11,16=1,17=2,28=-2,42=3,76=2/2,10,12;
 6/7=2,8=2,9=2,10=2,22=-1/1;
 7/8=1,10=1,12=2,25=1,44=2/1,2,3,16;
 1/10=4,30=1/3;
 99//99;
 Leave Link    1 at Mon Feb 21 20:24:59 2022, MaxMem= 16106127360 cpu:               4.1 elap:               0.2
 (Enter /sw/contrib/gaussian/g16/B01/g16/l101.exe)
 -----
 title
 -----
 Symbolic Z-matrix:
 Charge =  0 Multiplicity = 1
 H
 O                    1    r1
 O                    2    r2       1    a1
 N                    3    r3       2    a2       1    d1       0
 O                    4    r4       3    a3       2    d2       0
       Variables:
  r1                    0.96898                  
  r2                    1.45492                  
  r3                    1.45878                  
  r4                    1.18194                  
  a1                   97.59495                  
  a2                  102.29752                  
  a3                  109.06955                  
  d1                  180.                       
  d2                  180.                       
 
 ITRead=  0  0  0  0  0
 MicOpt= -1 -1 -1 -1 -1
 NAtoms=      5 NQM=        5 NQMF=       0 NMMI=      0 NMMIF=      0
                NMic=       0 NMicF=      0.
                    Isotopes and Nuclear Properties:
 (Nuclear quadrupole moments (NQMom) in fm**2, nuclear magnetic moments (NMagM)
  in nuclear magnetons)

  Atom         1           2           3           4           5
 IAtWgt=           1          16          16          14          16
 AtmWgt=   1.0078250  15.9949146  15.9949146  14.0030740  15.9949146
 NucSpn=           1           0           0           2           0
 AtZEff=  -0.0000000  -0.0000000  -0.0000000  -0.0000000  -0.0000000
 NQMom=    0.0000000   0.0000000   0.0000000   2.0440000   0.0000000
 NMagM=    2.7928460   0.0000000   0.0000000   0.4037610   0.0000000
 AtZNuc=   1.0000000   8.0000000   8.0000000   7.0000000   8.0000000
 Leave Link  101 at Mon Feb 21 20:24:59 2022, MaxMem= 16106127360 cpu:               2.5 elap:               0.1
 (Enter /sw/contrib/gaussian/g16/B01/g16/l103.exe)

 GradGradGradGradGradGradGradGradGradGradGradGradGradGradGradGradGradGrad
 Berny optimization.
 Initialization pass.
                       ----------------------------
                       !    Initial Parameters    !
                       ! (Angstroms and Degrees)  !
 ----------------------                            ----------------------
 !      Name          Value   Derivative information (Atomic Units)     !
 ------------------------------------------------------------------------
 !       r1          0.969    calculate D2E/DX2 analytically            !
 !       r2          1.4549   calculate D2E/DX2 analytically            !
 !       r3          1.4588   calculate D2E/DX2 analytically            !
 !       r4          1.1819   calculate D2E/DX2 analytically            !
 !       a1         97.5949   calculate D2E/DX2 analytically            !
 !       a2        102.2975   calculate D2E/DX2 analytically            !
 !       a3        109.0696   calculate D2E/DX2 analytically            !
 !       d1        180.0      calculate D2E/DX2 analytically            !
 !       d2        180.0      calculate D2E/DX2 analytically            !
 ------------------------------------------------------------------------
 Trust Radius=3.00D-01 FncErr=1.00D-07 GrdErr=1.00D-07 EigMax=2.50D+02 EigMin=1.00D-04
 Number of steps in this run=      2 maximum allowed number of steps=      2.
 GradGradGradGradGradGradGradGradGradGradGradGradGradGradGradGradGradGrad

 Leave Link  103 at Mon Feb 21 20:24:59 2022, MaxMem= 16106127360 cpu:               0.6 elap:               0.0
 (Enter /sw/contrib/gaussian/g16/B01/g16/l202.exe)
                          Input orientation:                          
 ---------------------------------------------------------------------
 Center     Atomic      Atomic             Coordinates (Angstroms)
 Number     Number       Type             X           Y           Z
 ---------------------------------------------------------------------
      1          1           0        0.000000    0.000000    0.000000
      2          8           0        0.000000    0.000000    0.968976
      3          8           0        1.442156    0.000000    1.161271
      4          7           0        1.561752    0.000000    2.615144
      5          8           0        2.706728    0.000000    2.908421
 ---------------------------------------------------------------------
                    Distance matrix (angstroms):
                    1          2          3          4          5
     1  H    0.000000
     2  O    0.968976   0.000000
     3  O    1.851584   1.454919   0.000000
     4  N    3.045989   2.269127   1.458784   0.000000
     5  O    3.973070   3.329839   2.156775   1.181940   0.000000
 Stoichiometry    HNO3
 Framework group  CS[SG(HNO3)]
 Deg. of freedom     7
 Full point group                 CS      NOp   2
 Largest Abelian subgroup         CS      NOp   2
 Largest concise Abelian subgroup C1      NOp   1
                         Standard orientation:                         
 ---------------------------------------------------------------------
 Center     Atomic      Atomic             Coordinates (Angstroms)
 Number     Number       Type             X           Y           Z
 ---------------------------------------------------------------------
      1          1           0        1.544927    1.694011    0.000000
      2          8           0        1.453846    0.729326   -0.000000
      3          8           0       -0.000000    0.673440    0.000000
      4          7           0       -0.255726   -0.762754   -0.000000
      5          8           0       -1.423201   -0.947108    0.000000
 ---------------------------------------------------------------------
 Rotational constants (GHZ):          54.8789386           4.9847951           4.5697160
 Leave Link  202 at Mon Feb 21 20:24:59 2022, MaxMem= 16106127360 cpu:               1.7 elap:               0.1
 (Enter /sw/contrib/gaussian/g16/B01/g16/l301.exe)
 Standard basis: Aug-CC-pVTZ (5D, 7F)
 Ernie: Thresh=  0.10000D-02 Tol=  0.10000D-05 Strict=F.
 Ernie:  12 primitive shells out of 131 were deleted.
 There are   166 symmetry adapted cartesian basis functions of A'  symmetry.
 There are    79 symmetry adapted cartesian basis functions of A"  symmetry.
 There are   136 symmetry adapted basis functions of A'  symmetry.
 There are    71 symmetry adapted basis functions of A"  symmetry.
   207 basis functions,   315 primitive gaussians,   245 cartesian basis functions
    16 alpha electrons       16 beta electrons
       nuclear repulsion energy       116.5344348241 Hartrees.
 IExCor=    0 DFT=F Ex=HF Corr=None ExCW=0 ScaHFX=  1.000000
 ScaDFX=  1.000000  1.000000  1.000000  1.000000 ScalE2=  1.000000  1.000000
 IRadAn=      5 IRanWt=     -1 IRanGd=            0 ICorTp=0 IEmpDi=  4
 NAtoms=    5 NActive=    5 NUniq=    5 SFac= 1.00D+00 NAtFMM=   60 NAOKFM=F Big=F
 Integral buffers will be    131072 words long.
 Raffenetti 1 integral format.
 Two-electron integral symmetry is turned on.
 Leave Link  301 at Mon Feb 21 20:24:59 2022, MaxMem= 16106127360 cpu:               1.6 elap:               0.1
 (Enter /sw/contrib/gaussian/g16/B01/g16/l302.exe)
 NPDir=0 NMtPBC=     1 NCelOv=     1 NCel=       1 NClECP=     1 NCelD=      1
         NCelK=      1 NCelE2=     1 NClLst=     1 CellRange=     0.0.
 One-electron integrals computed using PRISM.
 One-electron integral symmetry used in STVInt
 NBasis=   207 RedAO= T EigKep=  1.84D-04  NBF=   136    71
 NBsUse=   207 1.00D-06 EigRej= -1.00D+00 NBFU=   136    71
 Leave Link  302 at Mon Feb 21 20:24:59 2022, MaxMem= 16106127360 cpu:               5.2 elap:               0.2
 (Enter /sw/contrib/gaussian/g16/B01/g16/l303.exe)
 DipDrv:  MaxL=1.
 Leave Link  303 at Mon Feb 21 20:24:59 2022, MaxMem= 16106127360 cpu:               1.5 elap:               0.1
 (Enter /sw/contrib/gaussian/g16/B01/g16/l401.exe)
 ExpMin= 2.53D-02 ExpMax= 1.53D+04 ExpMxC= 5.22D+02 IAcc=3 IRadAn=         5 AccDes= 0.00D+00
 Harris functional with IExCor=  205 and IRadAn=       5 diagonalized for initial guess.
 HarFok:  IExCor=  205 AccDes= 0.00D+00 IRadAn=         5 IDoV= 1 UseB2=F ITyADJ=14
 ICtDFT=  3500011 ScaDFX=  1.000000  1.000000  1.000000  1.000000
 FoFCou: FMM=F IPFlag=           0 FMFlag=      100000 FMFlg1=           0
         NFxFlg=           0 DoJE=T BraDBF=F KetDBF=T FulRan=T
         wScrn=  0.000000 ICntrl=       500 IOpCl=  0 I1Cent=   200000004 NGrid=           0
         NMat0=    1 NMatS0=      1 NMatT0=    0 NMatD0=    1 NMtDS0=    0 NMtDT0=    0
 Petite list used in FoFCou.
 Harris En= -279.628709582840    
 JPrj=0 DoOrth=F DoCkMO=F.
 Initial guess orbital symmetries:
       Occupied  (A') (A') (A') (A') (A') (A') (A') (A') (A') (A')
                 (A") (A') (A') (A") (A") (A')
       Virtual   (A") (A') (A') (A') (A') (A') (A") (A') (A') (A')
                 (A") (A') (A") (A') (A') (A") (A') (A') (A") (A')
                 (A') (A') (A') (A') (A') (A") (A') (A") (A') (A')
                 (A") (A') (A") (A') (A') (A") (A') (A") (A') (A')
                 (A") (A') (A") (A') (A") (A') (A') (A') (A") (A")
                 (A') (A') (A') (A') (A") (A') (A") (A') (A") (A')
                 (A') (A') (A") (A') (A') (A") (A') (A") (A') (A')
                 (A") (A') (A') (A") (A") (A') (A') (A") (A') (A')
                 (A') (A") (A') (A") (A') (A") (A') (A") (A') (A')
                 (A') (A") (A') (A") (A') (A") (A") (A') (A') (A')
                 (A") (A') (A") (A') (A') (A') (A') (A") (A") (A')
                 (A") (A') (A') (A') (A") (A') (A') (A') (A") (A')
                 (A") (A') (A') (A") (A") (A') (A") (A') (A") (A')
                 (A') (A') (A') (A") (A") (A') (A") (A') (A') (A')
                 (A') (A") (A") (A') (A') (A") (A') (A') (A') (A')
                 (A") (A') (A') (A") (A') (A") (A') (A") (A') (A")
                 (A') (A") (A') (A") (A') (A") (A") (A") (A') (A')
                 (A") (A') (A") (A') (A") (A') (A") (A") (A') (A')
                 (A') (A') (A') (A') (A') (A') (A') (A') (A') (A')
                 (A')
 The electronic state of the initial guess is 1-A'.
 Leave Link  401 at Mon Feb 21 20:25:00 2022, MaxMem= 16106127360 cpu:               6.9 elap:               0.3
 (Enter /sw/contrib/gaussian/g16/B01/g16/l502.exe)
 Keep R1 ints in memory in symmetry-blocked form, NReq=348887737.
 FoFCou: FMM=F IPFlag=           0 FMFlag=           0 FMFlg1=           0
         NFxFlg=           0 DoJE=F BraDBF=F KetDBF=F FulRan=T
         wScrn=  0.000000 ICntrl=       600 IOpCl=  0 I1Cent=           0 NGrid=           0
         NMat0=    1 NMatS0=  21528 NMatT0=    0 NMatD0=    1 NMtDS0=    0 NMtDT0=    0
 Petite list used in FoFCou.
 Closed shell SCF:
 Using DIIS extrapolation, IDIIS=  1040.
 NGot= 16106127360 LenX= 15988850015 LenY= 15988789549
 Requested convergence on RMS density matrix=1.00D-08 within 128 cycles.
 Requested convergence on MAX density matrix=1.00D-06.
 Requested convergence on             energy=1.00D-06.
 No special actions if energy rises.

 Cycle   1  Pass 1  IDiag  1:
 E= -279.366036345943    
 DIIS: error= 2.66D-02 at cycle   1 NSaved=   1.
 NSaved= 1 IEnMin= 1 EnMin= -279.366036345943     IErMin= 1 ErrMin= 2.66D-02
 ErrMax= 2.66D-02  0.00D+00 EMaxC= 1.00D-01 BMatC= 4.41D-01 BMatP= 4.41D-01
 IDIUse=3 WtCom= 7.34D-01 WtEn= 2.66D-01
 Coeff-Com:  0.100D+01
 Coeff-En:   0.100D+01
 Coeff:      0.100D+01
 Gap=     0.509 Goal=   None    Shift=    0.000
 GapD=    0.509 DampG=2.000 DampE=0.500 DampFc=1.0000 IDamp=-1.
 RMSDP=1.64D-03 MaxDP=9.98D-02              OVMax= 1.18D-01

 Cycle   2  Pass 1  IDiag  1:
 E= -279.446882548154     Delta-E=       -0.080846202211 Rises=F Damp=F
 DIIS: error= 1.83D-02 at cycle   2 NSaved=   2.
 NSaved= 2 IEnMin= 2 EnMin= -279.446882548154     IErMin= 2 ErrMin= 1.83D-02
 ErrMax= 1.83D-02  0.00D+00 EMaxC= 1.00D-01 BMatC= 7.66D-02 BMatP= 4.41D-01
 IDIUse=3 WtCom= 8.17D-01 WtEn= 1.83D-01
 Coeff-Com:  0.204D+00 0.796D+00
 Coeff-En:   0.304D-01 0.970D+00
 Coeff:      0.172D+00 0.828D+00
 Gap=     0.533 Goal=   None    Shift=    0.000
 RMSDP=9.19D-04 MaxDP=3.80D-02 DE=-8.08D-02 OVMax= 7.04D-02

 Cycle   3  Pass 1  IDiag  1:
 E= -279.478700811320     Delta-E=       -0.031818263166 Rises=F Damp=F
 DIIS: error= 1.05D-02 at cycle   3 NSaved=   3.
 NSaved= 3 IEnMin= 3 EnMin= -279.478700811320     IErMin= 3 ErrMin= 1.05D-02
 ErrMax= 1.05D-02  0.00D+00 EMaxC= 1.00D-01 BMatC= 2.96D-02 BMatP= 7.66D-02
 IDIUse=3 WtCom= 8.95D-01 WtEn= 1.05D-01
 Coeff-Com: -0.333D-01 0.374D+00 0.660D+00
 Coeff-En:   0.000D+00 0.234D+00 0.766D+00
 Coeff:     -0.298D-01 0.359D+00 0.671D+00
 Gap=     0.512 Goal=   None    Shift=    0.000
 RMSDP=3.84D-04 MaxDP=1.60D-02 DE=-3.18D-02 OVMax= 3.99D-02

 Cycle   4  Pass 1  IDiag  1:
 E= -279.498460344051     Delta-E=       -0.019759532731 Rises=F Damp=F
 DIIS: error= 1.31D-03 at cycle   4 NSaved=   4.
 NSaved= 4 IEnMin= 4 EnMin= -279.498460344051     IErMin= 4 ErrMin= 1.31D-03
 ErrMax= 1.31D-03  0.00D+00 EMaxC= 1.00D-01 BMatC= 5.11D-04 BMatP= 2.96D-02
 IDIUse=3 WtCom= 9.87D-01 WtEn= 1.31D-02
 Coeff-Com: -0.117D-01 0.547D-01 0.157D+00 0.800D+00
 Coeff-En:   0.000D+00 0.000D+00 0.000D+00 0.100D+01
 Coeff:     -0.116D-01 0.540D-01 0.155D+00 0.803D+00
 Gap=     0.504 Goal=   None    Shift=    0.000
 RMSDP=9.20D-05 MaxDP=2.79D-03 DE=-1.98D-02 OVMax= 1.14D-02

 Cycle   5  Pass 1  IDiag  1:
 E= -279.499168927166     Delta-E=       -0.000708583115 Rises=F Damp=F
 DIIS: error= 7.49D-04 at cycle   5 NSaved=   5.
 NSaved= 5 IEnMin= 5 EnMin= -279.499168927166     IErMin= 5 ErrMin= 7.49D-04
 ErrMax= 7.49D-04  0.00D+00 EMaxC= 1.00D-01 BMatC= 9.03D-05 BMatP= 5.11D-04
 IDIUse=3 WtCom= 9.93D-01 WtEn= 7.49D-03
 Coeff-Com:  0.627D-02-0.721D-01-0.120D+00 0.164D-01 0.117D+01
 Coeff-En:   0.000D+00 0.000D+00 0.000D+00 0.000D+00 0.100D+01
 Coeff:      0.623D-02-0.716D-01-0.119D+00 0.162D-01 0.117D+01
 Gap=     0.504 Goal=   None    Shift=    0.000
 RMSDP=7.83D-05 MaxDP=2.17D-03 DE=-7.09D-04 OVMax= 1.15D-02

 Cycle   6  Pass 1  IDiag  1:
 E= -279.499499963293     Delta-E=       -0.000331036126 Rises=F Damp=F
 DIIS: error= 2.95D-04 at cycle   6 NSaved=   6.
 NSaved= 6 IEnMin= 6 EnMin= -279.499499963293     IErMin= 6 ErrMin= 2.95D-04
 ErrMax= 2.95D-04  0.00D+00 EMaxC= 1.00D-01 BMatC= 1.74D-05 BMatP= 9.03D-05
 IDIUse=3 WtCom= 9.97D-01 WtEn= 2.95D-03
 Coeff-Com:  0.383D-03 0.424D-02 0.938D-02-0.132D+00-0.267D+00 0.139D+01
 Coeff-En:   0.000D+00 0.000D+00 0.000D+00 0.000D+00 0.000D+00 0.100D+01
 Coeff:      0.382D-03 0.422D-02 0.935D-02-0.132D+00-0.266D+00 0.138D+01
 Gap=     0.504 Goal=   None    Shift=    0.000
 RMSDP=4.69D-05 MaxDP=1.29D-03 DE=-3.31D-04 OVMax= 5.82D-03

 Cycle   7  Pass 1  IDiag  1:
 E= -279.499576902557     Delta-E=       -0.000076939265 Rises=F Damp=F
 DIIS: error= 1.20D-04 at cycle   7 NSaved=   7.
 NSaved= 7 IEnMin= 7 EnMin= -279.499576902557     IErMin= 7 ErrMin= 1.20D-04
 ErrMax= 1.20D-04  0.00D+00 EMaxC= 1.00D-01 BMatC= 4.13D-06 BMatP= 1.74D-05
 IDIUse=3 WtCom= 9.99D-01 WtEn= 1.20D-03
 Coeff-Com: -0.971D-03 0.131D-01 0.263D-01-0.174D-01-0.270D+00 0.323D+00
 Coeff-Com:  0.926D+00
 Coeff-En:   0.000D+00 0.000D+00 0.000D+00 0.000D+00 0.000D+00 0.000D+00
 Coeff-En:   0.100D+01
 Coeff:     -0.970D-03 0.131D-01 0.263D-01-0.174D-01-0.270D+00 0.323D+00
 Coeff:      0.926D+00
 Gap=     0.504 Goal=   None    Shift=    0.000
 RMSDP=1.33D-05 MaxDP=3.83D-04 DE=-7.69D-05 OVMax= 1.58D-03

 Cycle   8  Pass 1  IDiag  1:
 E= -279.499585618681     Delta-E=       -0.000008716124 Rises=F Damp=F
 DIIS: error= 6.15D-05 at cycle   8 NSaved=   8.
 NSaved= 8 IEnMin= 8 EnMin= -279.499585618681     IErMin= 8 ErrMin= 6.15D-05
 ErrMax= 6.15D-05  0.00D+00 EMaxC= 1.00D-01 BMatC= 6.58D-07 BMatP= 4.13D-06
 IDIUse=1 WtCom= 1.00D+00 WtEn= 0.00D+00
 Coeff-Com: -0.445D-03 0.322D-02 0.734D-02 0.278D-01-0.370D-01-0.210D+00
 Coeff-Com:  0.237D+00 0.972D+00
 Coeff:     -0.445D-03 0.322D-02 0.734D-02 0.278D-01-0.370D-01-0.210D+00
 Coeff:      0.237D+00 0.972D+00
 Gap=     0.504 Goal=   None    Shift=    0.000
 RMSDP=6.70D-06 MaxDP=2.03D-04 DE=-8.72D-06 OVMax= 7.19D-04

 Cycle   9  Pass 1  IDiag  1:
 E= -279.499587405741     Delta-E=       -0.000001787060 Rises=F Damp=F
 DIIS: error= 1.75D-05 at cycle   9 NSaved=   9.
 NSaved= 9 IEnMin= 9 EnMin= -279.499587405741     IErMin= 9 ErrMin= 1.75D-05
 ErrMax= 1.75D-05  0.00D+00 EMaxC= 1.00D-01 BMatC= 8.13D-08 BMatP= 6.58D-07
 IDIUse=1 WtCom= 1.00D+00 WtEn= 0.00D+00
 Coeff-Com:  0.137D-03-0.181D-02-0.327D-02-0.279D-02 0.358D-01 0.400D-02
 Coeff-Com: -0.196D+00-0.875D-01 0.125D+01
 Coeff:      0.137D-03-0.181D-02-0.327D-02-0.279D-02 0.358D-01 0.400D-02
 Coeff:     -0.196D+00-0.875D-01 0.125D+01
 Gap=     0.504 Goal=   None    Shift=    0.000
 RMSDP=2.10D-06 MaxDP=7.38D-05 DE=-1.79D-06 OVMax= 1.97D-04

 Cycle  10  Pass 1  IDiag  1:
 E= -279.499587594935     Delta-E=       -0.000000189194 Rises=F Damp=F
 DIIS: error= 4.39D-06 at cycle  10 NSaved=  10.
 NSaved=10 IEnMin=10 EnMin= -279.499587594935     IErMin=10 ErrMin= 4.39D-06
 ErrMax= 4.39D-06  0.00D+00 EMaxC= 1.00D-01 BMatC= 6.49D-09 BMatP= 8.13D-08
 IDIUse=1 WtCom= 1.00D+00 WtEn= 0.00D+00
 Coeff-Com:  0.268D-04-0.179D-03-0.197D-03-0.275D-02 0.351D-03 0.206D-01
 Coeff-Com: -0.120D-01-0.672D-01-0.118D+00 0.118D+01
 Coeff:      0.268D-04-0.179D-03-0.197D-03-0.275D-02 0.351D-03 0.206D-01
 Coeff:     -0.120D-01-0.672D-01-0.118D+00 0.118D+01
 Gap=     0.504 Goal=   None    Shift=    0.000
 RMSDP=5.53D-07 MaxDP=2.33D-05 DE=-1.89D-07 OVMax= 4.95D-05

 Cycle  11  Pass 1  IDiag  1:
 E= -279.499587610395     Delta-E=       -0.000000015460 Rises=F Damp=F
 DIIS: error= 2.28D-06 at cycle  11 NSaved=  11.
 NSaved=11 IEnMin=11 EnMin= -279.499587610395     IErMin=11 ErrMin= 2.28D-06
 ErrMax= 2.28D-06  0.00D+00 EMaxC= 1.00D-01 BMatC= 8.03D-10 BMatP= 6.49D-09
 IDIUse=1 WtCom= 1.00D+00 WtEn= 0.00D+00
 Coeff-Com: -0.234D-04 0.258D-03 0.520D-03 0.625D-03-0.448D-02-0.438D-02
 Coeff-Com:  0.263D-01 0.288D-01-0.145D+00-0.179D+00 0.128D+01
 Coeff:     -0.234D-04 0.258D-03 0.520D-03 0.625D-03-0.448D-02-0.438D-02
 Coeff:      0.263D-01 0.288D-01-0.145D+00-0.179D+00 0.128D+01
 Gap=     0.504 Goal=   None    Shift=    0.000
 RMSDP=2.01D-07 MaxDP=7.38D-06 DE=-1.55D-08 OVMax= 1.94D-05

 Cycle  12  Pass 1  IDiag  1:
 E= -279.499587612684     Delta-E=       -0.000000002289 Rises=F Damp=F
 DIIS: error= 6.41D-07 at cycle  12 NSaved=  12.
 NSaved=12 IEnMin=12 EnMin= -279.499587612684     IErMin=12 ErrMin= 6.41D-07
 ErrMax= 6.41D-07  0.00D+00 EMaxC= 1.00D-01 BMatC= 8.74D-11 BMatP= 8.03D-10
 IDIUse=1 WtCom= 1.00D+00 WtEn= 0.00D+00
 Coeff-Com:  0.160D-05-0.337D-04-0.725D-04 0.204D-03 0.120D-02-0.258D-02
 Coeff-Com: -0.454D-02 0.624D-02 0.441D-01-0.129D+00-0.244D+00 0.133D+01
 Coeff:      0.160D-05-0.337D-04-0.725D-04 0.204D-03 0.120D-02-0.258D-02
 Coeff:     -0.454D-02 0.624D-02 0.441D-01-0.129D+00-0.244D+00 0.133D+01
 Gap=     0.504 Goal=   None    Shift=    0.000
 RMSDP=8.03D-08 MaxDP=3.14D-06 DE=-2.29D-09 OVMax= 7.47D-06

 Cycle  13  Pass 1  IDiag  1:
 E= -279.499587612965     Delta-E=       -0.000000000281 Rises=F Damp=F
 DIIS: error= 1.90D-07 at cycle  13 NSaved=  13.
 NSaved=13 IEnMin=13 EnMin= -279.499587612965     IErMin=13 ErrMin= 1.90D-07
 ErrMax= 1.90D-07  0.00D+00 EMaxC= 1.00D-01 BMatC= 4.88D-12 BMatP= 8.74D-11
 IDIUse=1 WtCom= 1.00D+00 WtEn= 0.00D+00
 Coeff-Com:  0.137D-05-0.146D-04-0.237D-04-0.100D-03 0.125D-03 0.856D-03
 Coeff-Com: -0.120D-02-0.318D-02 0.856D-03 0.436D-01-0.482D-01-0.306D+00
 Coeff-Com:  0.131D+01
 Coeff:      0.137D-05-0.146D-04-0.237D-04-0.100D-03 0.125D-03 0.856D-03
 Coeff:     -0.120D-02-0.318D-02 0.856D-03 0.436D-01-0.482D-01-0.306D+00
 Coeff:      0.131D+01
 Gap=     0.504 Goal=   None    Shift=    0.000
 RMSDP=2.10D-08 MaxDP=6.21D-07 DE=-2.81D-10 OVMax= 1.67D-06

 Cycle  14  Pass 1  IDiag  1:
 E= -279.499587612982     Delta-E=       -0.000000000016 Rises=F Damp=F
 DIIS: error= 2.67D-08 at cycle  14 NSaved=  14.
 NSaved=14 IEnMin=14 EnMin= -279.499587612982     IErMin=14 ErrMin= 2.67D-08
 ErrMax= 2.67D-08  0.00D+00 EMaxC= 1.00D-01 BMatC= 2.38D-13 BMatP= 4.88D-12
 IDIUse=1 WtCom= 1.00D+00 WtEn= 0.00D+00
 Coeff-Com: -0.201D-06 0.324D-05 0.580D-05 0.460D-05-0.865D-04 0.510D-04
 Coeff-Com:  0.325D-03 0.185D-03-0.253D-02 0.192D-02 0.162D-01-0.263D-01
 Coeff-Com: -0.194D+00 0.120D+01
 Coeff:     -0.201D-06 0.324D-05 0.580D-05 0.460D-05-0.865D-04 0.510D-04
 Coeff:      0.325D-03 0.185D-03-0.253D-02 0.192D-02 0.162D-01-0.263D-01
 Coeff:     -0.194D+00 0.120D+01
 Gap=     0.504 Goal=   None    Shift=    0.000
 RMSDP=4.10D-09 MaxDP=9.96D-08 DE=-1.65D-11 OVMax= 3.72D-07

 SCF Done:  E(RHF) =  -279.499587613     A.U. after   14 cycles
            NFock= 14  Conv=0.41D-08     -V/T= 2.0025
 KE= 2.787918722406D+02 PE=-8.943530185770D+02 EE= 2.195271238993D+02
 Leave Link  502 at Mon Feb 21 20:25:03 2022, MaxMem= 16106127360 cpu:              56.2 elap:               3.8
 (Enter /sw/contrib/gaussian/g16/B01/g16/l801.exe)
 ExpMin= 2.53D-02 ExpMax= 1.53D+04 ExpMxC= 5.22D+02 IAcc=3 IRadAn=         5 AccDes= 0.00D+00
 HarFok:  IExCor=  205 AccDes= 0.00D+00 IRadAn=         5 IDoV=-2 UseB2=F ITyADJ=14
 ICtDFT= 12500011 ScaDFX=  1.000000  1.000000  1.000000  1.000000
 DSYEVD-2 returned Info=          93 IAlg= 4 N=    46 NDim=    46 NE2=   350130240 trying  DSYEV.
 Largest valence mixing into a core orbital is  2.09D-04
 Largest core mixing into a valence orbital is  3.67D-05
 Range of M.O.s used for correlation:     5   207
 NBasis=   207 NAE=    16 NBE=    16 NFC=     4 NFV=     0
 NROrb=    203 NOA=    12 NOB=    12 NVA=   191 NVB=   191

 **** Warning!!: The largest alpha MO coefficient is  0.17672504D+02

 Leave Link  801 at Mon Feb 21 20:25:04 2022, MaxMem= 16106127360 cpu:               2.2 elap:               0.1
 (Enter /sw/contrib/gaussian/g16/B01/g16/l906.exe)
 Frozen-core derivative calculation, NFC=   4 NFV=   0.
 FulOut=F Deriv=T AODrv=T NAtomX=     5
   MMem=           0  MDisk=          12 MDiskD=          12
  W3Min=      811440 MinDsk=     2425030 NBas6D=         245
 NBas2D=       30762    NTT=       30135    LW2=     7400000
    MDV= 16105574325 MDiskM=      328644 NBas2p=       30702
 Disk-based method using ON**2 memory for 12 occupieds at a time.
 Permanent disk used for amplitudes=    11516536 words.
 Estimated scratch disk usage=   321251614 words.
 IMap=   1   2   3   4   5   6   7   8   9  10  11  12  13  14  15  16
 Actual    scratch disk usage=   310331678 words.
 JobTyp=1 Pass  1:  I=   5 to  16 NPSUse= 28 ParTrn=T ParDer=T DoDerP=T.
 (rs|ai) integrals will be sorted in core.
 Spin components of T(2) and E(2):
     alpha-alpha T2 =       0.3426015632D-01 E2=     -0.1226507477D+00
     alpha-beta  T2 =       0.1881591687D+00 E2=     -0.7016768335D+00
     beta-beta   T2 =       0.3426015632D-01 E2=     -0.1226507477D+00
 The integrals were generated   1 times.
 ANorm=    0.1121017164D+01
 E2 =    -0.9469783289D+00 EUMP2 =    -0.28044656594186D+03
 Leave Link  906 at Mon Feb 21 20:26:41 2022, MaxMem= 16106127360 cpu:            2727.7 elap:              97.6
 (Enter /sw/contrib/gaussian/g16/B01/g16/l1101.exe)
 Using compressed Sx but separate Hx and Fx, NAtomX=     5.
 Will process      6 centers per pass.
 Leave Link 1101 at Mon Feb 21 20:26:41 2022, MaxMem= 16106127360 cpu:               7.4 elap:               0.3
 (Enter /sw/contrib/gaussian/g16/B01/g16/l1102.exe)
 Leave Link 1102 at Mon Feb 21 20:26:42 2022, MaxMem= 16106127360 cpu:               0.5 elap:               0.0
 (Enter /sw/contrib/gaussian/g16/B01/g16/l1110.exe)
 Forming Gx(P) for the SCF density, NAtomX=     5.
 Integral derivatives from FoFJK, PRISM(SPDF).
 Do as many integral derivatives as possible in FoFJK.
 G2DrvN: MDV=   16106126844.
 G2DrvN: will do     6 centers at a time, making    1 passes.
 Calling FoFCou, ICntrl=  3107 FMM=F I1Cent=   0 AccDes= 0.00D+00.
 FoFJK:  IHMeth= 1 ICntrl=    3107 DoSepK=F KAlg= 0 I1Cent=           0 FoldK=F
 IRaf=         0 NMat=       1 IRICut=       1 DoRegI=T DoRafI=F ISym2E= 1 IDoP0=0 IntGTp=1.
 FoFCou: FMM=F IPFlag=           0 FMFlag=      100000 FMFlg1=           0
         NFxFlg=           0 DoJE=F BraDBF=F KetDBF=F FulRan=T
         wScrn=  0.000000 ICntrl=      3107 IOpCl=  0 I1Cent=           0 NGrid=           0
         NMat0=    1 NMatS0=      1 NMatT0=    0 NMatD0=    1 NMtDS0=    0 NMtDT0=    0
 Petite list used in FoFCou.
 End of G2Drv F.D. properties file   721 does not exist.
 End of G2Drv F.D. properties file   722 does not exist.
 End of G2Drv F.D. properties file   788 does not exist.
 Leave Link 1110 at Mon Feb 21 20:26:45 2022, MaxMem= 16106127360 cpu:              84.8 elap:               3.1
 (Enter /sw/contrib/gaussian/g16/B01/g16/l1002.exe)
 Minotr:  Closed shell wavefunction.
          IDoAtm=11111
          Frozen-core window.
          Direct CPHF calculation.
          Differentiating once with respect to electric field.
                with respect to dipole field.
          Differentiating once with respect to nuclear coordinates.
          Requested convergence is 1.0D-08 RMS, and 1.0D-07 maximum.
          Secondary convergence is 1.0D-12 RMS, and 1.0D-12 maximum.
          NewPWx=T KeepS1=T KeepF1=T KeepIn=T MapXYZ=F SortEE=F KeepMc=T.
 Keep R1 ints in memory in symmetry-blocked form, NReq=348888983.
 FoFCou: FMM=F IPFlag=           0 FMFlag=           0 FMFlg1=           0
         NFxFlg=           0 DoJE=F BraDBF=F KetDBF=F FulRan=T
         wScrn=  0.000000 ICntrl=       600 IOpCl=  0 I1Cent=           0 NGrid=           0
         NMat0=    1 NMatS0=  21528 NMatT0=    0 NMatD0=    1 NMtDS0=    0 NMtDT0=    0
 Petite list used in FoFCou.
          MDV=   16106127360 using IRadAn=       1.
          Solving linear equations simultaneously, MaxMat=       0.
          There are    18 degrees of freedom in the 1st order CPHF.  IDoFFX=6 NUNeed=    18.
     15 vectors produced by pass  0 Test12= 1.70D-14 5.56D-09 XBig12= 8.40D+00 1.04D+00.
 AX will form    15 AO Fock derivatives at one time.
     15 vectors produced by pass  1 Test12= 1.70D-14 5.56D-09 XBig12= 1.40D+00 2.68D-01.
     15 vectors produced by pass  2 Test12= 1.70D-14 5.56D-09 XBig12= 1.47D-01 1.02D-01.
     15 vectors produced by pass  3 Test12= 1.70D-14 5.56D-09 XBig12= 5.20D-03 1.19D-02.
     15 vectors produced by pass  4 Test12= 1.70D-14 5.56D-09 XBig12= 1.08D-04 2.06D-03.
     15 vectors produced by pass  5 Test12= 1.70D-14 5.56D-09 XBig12= 1.49D-06 1.77D-04.
     15 vectors produced by pass  6 Test12= 1.70D-14 5.56D-09 XBig12= 1.17D-08 1.52D-05.
     12 vectors produced by pass  7 Test12= 1.70D-14 5.56D-09 XBig12= 8.74D-11 1.44D-06.
      3 vectors produced by pass  8 Test12= 1.70D-14 5.56D-09 XBig12= 6.28D-13 1.23D-07.
      2 vectors produced by pass  9 Test12= 1.70D-14 5.56D-09 XBig12= 4.37D-15 9.63D-09.
 InvSVY:  IOpt=1 It=  1 EMax= 6.66D-16
 Solved reduced A of dimension   122 with    15 vectors.
 FullF1:  Do perturbations      1 to      18.
 Saving first derivative matrices.
 End of Minotr F.D. properties file   721 does not exist.
 End of Minotr F.D. properties file   722 does not exist.
 End of Minotr F.D. properties file   788 does not exist.
 Leave Link 1002 at Mon Feb 21 20:26:48 2022, MaxMem= 16106127360 cpu:              79.9 elap:               2.9
 (Enter /sw/contrib/gaussian/g16/B01/g16/l811.exe)
 MDV= 16106127360.
 Form MO integral derivatives with frozen-active canonical formalism.
 MOERI=1 MOERIx=1 NAtoms=     5 NAtomX=     5.
 Discarding MO integrals.
 MO basis two electron integral derivatives will not be stored on disk.
 IAlg= 3 DoFC=T DoPWx=T Debug=F.
 Frozen-core window:  NFC=   4 NFV=   0.
 Reordered first order wavefunction length =     18678272
 In DefCFB: NBatch=  1 ICI= 16 ICA=191 LFMax= 96
            Large arrays: LIAPS=   619940160 LIARS=   288257200 words.
 In StABat: MaxSiz= 55 MinSiz= 25 NAtomB=  5
 DoIAMN: NPSUse= 28.
 Leave Link  811 at Mon Feb 21 20:28:08 2022, MaxMem= 16106127360 cpu:            2260.5 elap:              80.9
 (Enter /sw/contrib/gaussian/g16/B01/g16/l804.exe)
 Frozen-core window:  NFC=   4 NFV=   0.
 Closed-shell transformation, MDV= 16106127360 ITran=4 ISComp=1.
 Semi-Direct transformation.
 ModeAB=           2 MOrb=            16 LenV=   16104923065
 LASXX=     67341636 LTotXX=    67341636 LenRXX=    67341636
 LTotAB=    68301760 MaxLAS=    99807120 LenRXY=    99807120
 NonZer=   134683272 LenScr=   202817536 LnRSAI=           0
 LnScr1=           0 LExtra=           0 Total=    369966292
 MaxDsk=          -1 SrtSym=           F ITran=            4
 DoSDTr:  NPSUse= 28
 JobTyp=0 Pass  1:  I=   1 to  16.
 (rs|ai) integrals will be sorted in core.
 Complete sort for first half transformation.
 First half transformation complete.
 Begin second half transformation for I=  10.
 Begin second half transformation for I=  10.
 Complete sort for second half transformation.
 Second half transformation complete.
 Spin components of T(2) and E(2):
     alpha-alpha T2 =       0.3426015632D-01 E2=     -0.1226507477D+00
     alpha-beta  T2 =       0.1881591687D+00 E2=     -0.7016768335D+00
     beta-beta   T2 =       0.3426015632D-01 E2=     -0.1226507477D+00
 ANorm=    0.1585357677D+01
 E2 =    -0.9469783289D+00 EUMP2 =    -0.28044656594186D+03
 Leave Link  804 at Mon Feb 21 20:28:24 2022, MaxMem= 16106127360 cpu:             438.4 elap:              15.7
 (Enter /sw/contrib/gaussian/g16/B01/g16/l1002.exe)
 Minotr:  Closed shell wavefunction.
          Computing MP2/KS-MP2 derivatives.
          Using Z-Vector for PSCF gradient.
          Skipping F1 and S1 gradient terms here.
          IDoAtm=11111
          Frozen-core window.
          Using MO integrals in the linear equations.
          Forming densities via direct SCF.
          Differentiating once with respect to electric field.
                with respect to dipole field.
          Differentiating once with respect to nuclear coordinates.
          Using symmetry in CPHF.
          Requested convergence is 1.0D-10 RMS, and 1.0D-09 maximum.
          NewPWx=F KeepS1=T KeepF1=T KeepIn=T MapXYZ=F SortEE=F KeepMc=T.
          MDV=   16106127360 using IRadAn=       5.
          Solving linear equations separately, MaxMat=       0.
          There are     1 degrees of freedom in the 1st order CPHF.  IDoFFX=0 NUNeed=     1.
 FoFJK:  IHMeth= 1 ICntrl=       0 DoSepK=F KAlg= 0 I1Cent=           0 FoldK=F
 IRaf=         0 NMat=       1 IRICut=       1 DoRegI=T DoRafI=F ISym2E= 0 IDoP0=0 IntGTp=1.
 FoFCou: FMM=F IPFlag=           0 FMFlag=      100000 FMFlg1=           0
         NFxFlg=           0 DoJE=F BraDBF=F KetDBF=F FulRan=T
         wScrn=  0.000000 ICntrl=         0 IOpCl=  0 I1Cent=           0 NGrid=           0
         NMat0=    1 NMatS0=      1 NMatT0=    0 NMatD0=    1 NMtDS0=    0 NMtDT0=    0
 Symmetry not used in FoFCou.
 LinEq1:  Iter=  0 NonCon=     1 RMS=6.02D-03 Max=1.36D-01 NDo=     1
 LinEq1:  Iter=  1 NonCon=     1 RMS=1.95D-03 Max=3.97D-02 NDo=     1
 LinEq1:  Iter=  2 NonCon=     1 RMS=8.91D-04 Max=1.45D-02 NDo=     1
 LinEq1:  Iter=  3 NonCon=     1 RMS=4.00D-04 Max=8.35D-03 NDo=     1
 LinEq1:  Iter=  4 NonCon=     1 RMS=1.23D-04 Max=1.99D-03 NDo=     1
 LinEq1:  Iter=  5 NonCon=     1 RMS=4.92D-05 Max=7.84D-04 NDo=     1
 LinEq1:  Iter=  6 NonCon=     1 RMS=2.18D-05 Max=2.44D-04 NDo=     1
 LinEq1:  Iter=  7 NonCon=     1 RMS=8.79D-06 Max=1.65D-04 NDo=     1
 LinEq1:  Iter=  8 NonCon=     1 RMS=3.74D-06 Max=3.60D-05 NDo=     1
 LinEq1:  Iter=  9 NonCon=     1 RMS=1.01D-06 Max=1.36D-05 NDo=     1
 LinEq1:  Iter= 10 NonCon=     1 RMS=1.99D-07 Max=2.15D-06 NDo=     1
 LinEq1:  Iter= 11 NonCon=     1 RMS=3.66D-08 Max=3.76D-07 NDo=     1
 LinEq1:  Iter= 12 NonCon=     1 RMS=8.86D-09 Max=1.35D-07 NDo=     1
 LinEq1:  Iter= 13 NonCon=     1 RMS=1.61D-09 Max=2.73D-08 NDo=     1
 LinEq1:  Iter= 14 NonCon=     1 RMS=2.91D-10 Max=4.05D-09 NDo=     1
 LinEq1:  Iter= 15 NonCon=     0 RMS=5.11D-11 Max=5.59D-10 NDo=     1
 Linear equations converged to 1.000D-10 1.000D-09 after    15 iterations.
 End of Minotr F.D. properties file   721 does not exist.
 End of Minotr F.D. properties file   722 does not exist.
 End of Minotr F.D. properties file   788 does not exist.
 Leave Link 1002 at Mon Feb 21 20:28:27 2022, MaxMem= 16106127360 cpu:              66.3 elap:               2.4
 (Enter /sw/contrib/gaussian/g16/B01/g16/l1102.exe)
 Use density number 2.
 Symmetrizing basis deriv contribution to polar:
 IMax=3 JMax=2 DiffMx= 0.00D+00
 Leave Link 1102 at Mon Feb 21 20:28:27 2022, MaxMem= 16106127360 cpu:               0.6 elap:               0.1
 (Enter /sw/contrib/gaussian/g16/B01/g16/l1110.exe)
 Forming Gx(P) for generalized density number  2 NAtomX=     5.
 Integral derivatives from FoFJK, PRISM(SPDF).
 Do as many integral derivatives as possible in FoFJK.
 G2DrvN: MDV=   16106126844.
 G2DrvN: will do     6 centers at a time, making    1 passes.
 Calling FoFCou, ICntrl=  3107 FMM=F I1Cent=   0 AccDes= 0.00D+00.
 FoFJK:  IHMeth= 1 ICntrl=    3107 DoSepK=F KAlg= 0 I1Cent=           0 FoldK=F
 IRaf=         0 NMat=       1 IRICut=       1 DoRegI=T DoRafI=F ISym2E= 1 IDoP0=0 IntGTp=1.
 FoFCou: FMM=F IPFlag=           0 FMFlag=      100000 FMFlg1=           0
         NFxFlg=           0 DoJE=F BraDBF=F KetDBF=F FulRan=T
         wScrn=  0.000000 ICntrl=      3107 IOpCl=  0 I1Cent=           0 NGrid=           0
         NMat0=    1 NMatS0=      1 NMatT0=    0 NMatD0=    1 NMtDS0=    0 NMtDT0=    0
 Petite list used in FoFCou.
 End of G2Drv F.D. properties file   721 does not exist.
 End of G2Drv F.D. properties file   722 does not exist.
 End of G2Drv F.D. properties file   788 does not exist.
 Leave Link 1110 at Mon Feb 21 20:28:30 2022, MaxMem= 16106127360 cpu:              83.8 elap:               3.0
 (Enter /sw/contrib/gaussian/g16/B01/g16/l1112.exe)
 MP22nd: MDV=   16106127360
 This link is doing NAtomX=     5 total of    18 degrees of freedom.
 Using ON3 I/O method in MakUI.
 Frozen-core window:  NFC=   4 NFV=   0.
 Using Ix for Sx.
 Use MO integrals over full window.
 Using OV2 memory method for fx*t*t/D, MaxI=    16 DoOO2=F NP=  28.
 R2 and R3 integrals will be kept in memory, NReq=   915591705.
 FoFCou: FMM=F IPFlag=           0 FMFlag=           0 FMFlg1=           0
         NFxFlg=           0 DoJE=F BraDBF=F KetDBF=F FulRan=T
         wScrn=  0.000000 ICntrl=       600 IOpCl=  0 I1Cent=           0 NGrid=           0
         NMat0=    1 NMatS0=      1 NMatT0=    0 NMatD0=    1 NMtDS0=    0 NMtDT0=    0
 Symmetry not used in FoFCou.
 DD1Dir will call FoFMem   1 times, MxPair=       272
 NAB=   136 NAA=     0 NBB=     0.
 Symmetry is being used.
 FoFJK:  IHMeth= 1 ICntrl=       0 DoSepK=F KAlg= 0 I1Cent=           0 FoldK=F
 IRaf=         0 NMat=      18 IRICut=      45 DoRegI=T DoRafI=T ISym2E= 2 IDoP0=3 IntGTp=3.
 Discarding MO integrals.
 Leave Link 1112 at Mon Feb 21 20:29:06 2022, MaxMem= 16106127360 cpu:            1007.4 elap:              36.4
 (Enter /sw/contrib/gaussian/g16/B01/g16/l601.exe)
 Copying SCF densities to generalized density rwf, IOpCl= 0 IROHF=0.

 **********************************************************************

            Population analysis using the MP2 Density.

 **********************************************************************

 Orbital symmetries:
       Occupied  (A') (A') (A') (A') (A') (A') (A') (A') (A') (A')
                 (A") (A') (A") (A') (A") (A')
       Virtual   (A') (A") (A') (A') (A') (A") (A') (A') (A") (A')
                 (A") (A') (A') (A') (A") (A') (A') (A") (A') (A')
                 (A') (A') (A') (A') (A') (A") (A') (A") (A') (A')
                 (A") (A') (A") (A') (A') (A") (A') (A') (A") (A')
                 (A") (A') (A") (A') (A') (A") (A') (A') (A") (A')
                 (A") (A') (A') (A') (A") (A') (A") (A') (A") (A')
                 (A') (A') (A") (A') (A') (A") (A') (A") (A') (A')
                 (A") (A') (A') (A") (A") (A') (A') (A") (A') (A')
                 (A') (A") (A') (A") (A') (A") (A') (A") (A') (A')
                 (A") (A') (A') (A") (A') (A") (A') (A") (A') (A')
                 (A") (A') (A") (A') (A') (A") (A') (A') (A") (A')
                 (A") (A') (A') (A') (A") (A') (A') (A') (A") (A')
                 (A") (A') (A") (A') (A') (A") (A") (A') (A") (A')
                 (A') (A') (A') (A") (A") (A") (A') (A') (A') (A')
                 (A") (A') (A") (A') (A') (A") (A') (A') (A') (A')
                 (A") (A') (A') (A") (A') (A") (A') (A") (A') (A")
                 (A') (A") (A') (A') (A") (A") (A") (A') (A") (A')
                 (A") (A') (A") (A') (A") (A') (A") (A') (A") (A')
                 (A') (A') (A') (A') (A') (A') (A') (A') (A') (A')
                 (A')
 The electronic state is 1-A'.
 Alpha  occ. eigenvalues --  -20.69348 -20.68384 -20.66140 -15.81446  -1.61521
 Alpha  occ. eigenvalues --   -1.49543  -1.25552  -0.94961  -0.77159  -0.75626
 Alpha  occ. eigenvalues --   -0.70971  -0.67795  -0.61808  -0.59012  -0.48612
 Alpha  occ. eigenvalues --   -0.47466
 Alpha virt. eigenvalues --    0.02933   0.06822   0.08612   0.10172   0.13380
 Alpha virt. eigenvalues --    0.13417   0.14385   0.15426   0.17807   0.19430
 Alpha virt. eigenvalues --    0.19941   0.20634   0.22043   0.23451   0.23731
 Alpha virt. eigenvalues --    0.26592   0.29230   0.30344   0.30994   0.34354
 Alpha virt. eigenvalues --    0.34935   0.38678   0.42146   0.43149   0.52741
 Alpha virt. eigenvalues --    0.52755   0.55773   0.58138   0.61978   0.63883
 Alpha virt. eigenvalues --    0.67791   0.68375   0.70630   0.71088   0.72373
 Alpha virt. eigenvalues --    0.72875   0.74470   0.79094   0.79135   0.81073
 Alpha virt. eigenvalues --    0.81168   0.82770   0.86728   0.90724   0.92091
 Alpha virt. eigenvalues --    0.92527   0.95600   0.97510   0.98367   1.01592
 Alpha virt. eigenvalues --    1.05127   1.05408   1.08025   1.11613   1.14012
 Alpha virt. eigenvalues --    1.18882   1.21917   1.23101   1.33800   1.34972
 Alpha virt. eigenvalues --    1.38443   1.45285   1.48721   1.50760   1.53768
 Alpha virt. eigenvalues --    1.56691   1.57998   1.61241   1.66145   1.66917
 Alpha virt. eigenvalues --    1.70364   1.79257   1.83221   1.83426   1.87529
 Alpha virt. eigenvalues --    1.90994   1.95907   1.98926   2.00637   2.07731
 Alpha virt. eigenvalues --    2.12062   2.13090   2.14871   2.22383   2.26332
 Alpha virt. eigenvalues --    2.26400   2.28850   2.31298   2.34048   2.38510
 Alpha virt. eigenvalues --    2.42189   2.42612   2.45394   2.46132   2.47498
 Alpha virt. eigenvalues --    2.49901   2.58789   2.59445   2.61853   2.62028
 Alpha virt. eigenvalues --    2.63309   2.66423   2.75308   2.81970   2.85022
 Alpha virt. eigenvalues --    2.87897   2.89160   2.92013   2.95526   3.02256
 Alpha virt. eigenvalues --    3.06982   3.11802   3.20359   3.22359   3.31445
 Alpha virt. eigenvalues --    3.34006   3.51208   3.64230   3.83666   3.84072
 Alpha virt. eigenvalues --    4.14728   4.16121   4.18191   4.23102   4.35030
 Alpha virt. eigenvalues --    4.39143   4.46014   4.51689   4.64817   4.70843
 Alpha virt. eigenvalues --    4.79887   4.82245   4.82644   4.89644   5.02489
 Alpha virt. eigenvalues --    5.07647   5.09892   5.14908   5.17513   5.23803
 Alpha virt. eigenvalues --    5.27106   5.30812   5.32763   5.34681   5.60342
 Alpha virt. eigenvalues --    5.65530   5.75913   5.82432   5.96211   6.16560
 Alpha virt. eigenvalues --    6.30654   6.33716   6.39275   6.49361   6.50524
 Alpha virt. eigenvalues --    6.61208   6.66645   6.69495   6.75585   6.76134
 Alpha virt. eigenvalues --    6.82576   6.89397   7.00976   7.05293   7.05493
 Alpha virt. eigenvalues --    7.08836   7.11892   7.14666   7.17991   7.21680
 Alpha virt. eigenvalues --    7.23902   7.30081   7.30114   7.34044   7.39148
 Alpha virt. eigenvalues --    7.42945   7.48294   7.59794   7.60548   7.61529
 Alpha virt. eigenvalues --    7.66277   7.77930   7.86851   8.08817   8.31019
 Alpha virt. eigenvalues --    8.40778   8.54158  13.36698  14.30133  15.15610
 Alpha virt. eigenvalues --   15.82363
          Condensed to atoms (all electrons):
               1          2          3          4          5
     1  H    0.589249   0.128380   0.020071   0.012307  -0.000648
     2  O    0.128380   8.320622  -0.173374  -0.090379   0.015447
     3  O    0.020071  -0.173374   8.460001  -0.125479  -0.036499
     4  N    0.012307  -0.090379  -0.125479   6.967339  -0.054241
     5  O   -0.000648   0.015447  -0.036499  -0.054241   8.271617
 Mulliken charges:
               1
     1  H    0.250641
     2  O   -0.200697
     3  O   -0.144721
     4  N    0.290452
     5  O   -0.195676
 Sum of Mulliken charges =  -0.00000
 Mulliken charges with hydrogens summed into heavy atoms:
               1
     2  O    0.049945
     3  O   -0.144721
     4  N    0.290452
     5  O   -0.195676
 APT charges:
               1
     1  H    0.299737
     2  O   -0.288412
     3  O   -0.488821
     4  N    0.860936
     5  O   -0.383440
 Sum of APT charges =   0.00000
 APT charges with hydrogens summed into heavy atoms:
               1
     2  O    0.011325
     3  O   -0.488821
     4  N    0.860936
     5  O   -0.383440
 Electronic spatial extent (au):  <R**2>=            253.9441
 Charge=             -0.0000 electrons
 Dipole moment (field-independent basis, Debye):
    X=              0.5495    Y=              1.4097    Z=              0.0000  Tot=              1.5130
 Quadrupole moment (field-independent basis, Debye-Ang):
   XX=            -22.5263   YY=            -18.6157   ZZ=            -22.0290
   XY=              3.2190   XZ=              0.0000   YZ=             -0.0000
 Traceless Quadrupole moment (field-independent basis, Debye-Ang):
   XX=             -1.4693   YY=              2.4413   ZZ=             -0.9720
   XY=              3.2190   XZ=              0.0000   YZ=             -0.0000
 Octapole moment (field-independent basis, Debye-Ang**2):
  XXX=              2.9448  YYY=             11.5740  ZZZ=              0.0000  XYY=              8.0112
  XXY=              6.6156  XXZ=              0.0000  XZZ=             -1.5421  YZZ=             -0.8172
  YYZ=              0.0000  XYZ=              0.0000
 Hexadecapole moment (field-independent basis, Debye-Ang**3):
 XXXX=           -158.9036 YYYY=            -90.4943 ZZZZ=            -18.2591 XXXY=            -37.0978
 XXXZ=              0.0000 YYYX=            -31.0732 YYYZ=             -0.0000 ZZZX=              0.0000
 ZZZY=             -0.0000 XXYY=            -34.1951 XXZZ=            -30.9372 YYZZ=            -20.8365
 XXYZ=             -0.0000 YYXZ=              0.0000 ZZXY=            -15.1953
 N-N= 1.165344348241D+02 E-N=-8.951507725321D+02  KE= 2.801512819728D+02
 Symmetry A'   KE= 2.661844514656D+02
 Symmetry A"   KE= 1.396683050721D+01
  Exact polarizability:  34.119   9.593  30.405   0.000   0.000  17.949
 Approx polarizability:  29.258   5.197  23.618  -0.000   0.000  15.571
 No NMR shielding tensors so no spin-rotation constants.
 Leave Link  601 at Mon Feb 21 20:29:06 2022, MaxMem= 16106127360 cpu:               4.3 elap:               0.2
 (Enter /sw/contrib/gaussian/g16/B01/g16/l701.exe)
 ... and contract with generalized density number  2.
 Compute integral second derivatives.
 Leave Link  701 at Mon Feb 21 20:29:07 2022, MaxMem= 16106127360 cpu:               5.9 elap:               0.2
 (Enter /sw/contrib/gaussian/g16/B01/g16/l702.exe)
 L702 exits ... SP integral derivatives will be done elsewhere.
 Leave Link  702 at Mon Feb 21 20:29:07 2022, MaxMem= 16106127360 cpu:               0.5 elap:               0.0
 (Enter /sw/contrib/gaussian/g16/B01/g16/l703.exe)
 Integral derivatives from FoFJK, PRISM(SPDF).
 Compute integral second derivatives, UseDBF=F ICtDFT=           0.
 Calling FoFJK, ICntrl=  10100127 FMM=F ISym2X=1 I1Cent= 0 IOpClX= 0 NMat=1 NMatS=1 NMatT=0.
 FoFJK:  IHMeth= 1 ICntrl=10100127 DoSepK=F KAlg= 0 I1Cent=           0 FoldK=F
 IRaf=         0 NMat=       1 IRICut=       1 DoRegI=T DoRafI=F ISym2E= 1 IDoP0=0 IntGTp=1.
 FoFCou: FMM=F IPFlag=           0 FMFlag=      100000 FMFlg1=         800
         NFxFlg=           0 DoJE=F BraDBF=F KetDBF=F FulRan=T
         wScrn=  0.000000 ICntrl=  10100127 IOpCl=  0 I1Cent=           0 NGrid=           0
         NMat0=    1 NMatS0=      1 NMatT0=    0 NMatD0=    1 NMtDS0=    0 NMtDT0=    0
 Petite list used in FoFCou.
 Leave Link  703 at Mon Feb 21 20:29:22 2022, MaxMem= 16106127360 cpu:             424.4 elap:              15.2
 (Enter /sw/contrib/gaussian/g16/B01/g16/l716.exe)
 Dipole        = 2.16178065D-01 5.54625103D-01 5.71090573D-33
 Polarizability= 3.41189543D+01 9.59326718D+00 3.04045608D+01
                 1.14653273D-32 3.26357531D-31 1.79490441D+01
 Full mass-weighted force constant matrix:
 Low frequencies --- -271.3728   -0.0020   -0.0017   -0.0006   40.3122   53.7026
 Low frequencies ---   83.0903  265.8339  349.2546
 ******    1 imaginary frequencies (negative Signs) ****** 
 Diagonal vibrational polarizability:
       14.1797638      26.0282252      45.9507690
 Harmonic frequencies (cm**-1), IR intensities (KM/Mole), Raman scattering
 activities (A**4/AMU), depolarization ratios for plane and unpolarized
 incident light, reduced masses (AMU), force constants (mDyne/A),
 and normal coordinates:
                      1                      2                      3
                     A"                     A"                     A'
 Frequencies --   -271.1654               262.0981               349.0660
 Red. masses --      1.1302                11.3267                 8.4846
 Frc consts  --      0.0490                 0.4584                 0.6091
 IR Inten    --    125.1825                 0.3464                 8.2560
  Atom  AN      X      Y      Z        X      Y      Z        X      Y      Z
     1   1     0.00  -0.00   1.00     0.00  -0.00  -0.52     0.56  -0.43  -0.00
     2   8     0.00  -0.00  -0.06     0.00  -0.00  -0.33    -0.08  -0.37   0.00
     3   8    -0.00   0.00  -0.04    -0.00   0.00   0.34    -0.14   0.45  -0.00
     4   7     0.00   0.00   0.05    -0.00  -0.00   0.55     0.03   0.23  -0.00
     5   8     0.00  -0.00  -0.00     0.00  -0.00  -0.46     0.16  -0.25   0.00
                      4                      5                      6
                     A'                     A'                     A'
 Frequencies --    445.9704               785.4044               965.9052
 Red. masses --     12.4814                13.1590                15.3957
 Frc consts  --      1.4626                 4.7825                 8.4629
 IR Inten    --    196.7838               170.7014                23.9647
  Atom  AN      X      Y      Z        X      Y      Z        X      Y      Z
     1   1     0.38   0.22   0.00    -0.32   0.18   0.00    -0.17  -0.04  -0.00
     2   8     0.33   0.23   0.00     0.43   0.08  -0.00    -0.52   0.03   0.00
     3   8     0.19   0.42  -0.00    -0.06  -0.26   0.00     0.75  -0.02   0.00
     4   7    -0.36  -0.42  -0.00    -0.13   0.63   0.00    -0.12   0.25  -0.00
     5   8    -0.22  -0.29   0.00    -0.22  -0.38  -0.00    -0.12  -0.22  -0.00
                      7                      8                      9
                     A'                     A'                     A'
 Frequencies --   1369.7783              1607.3586              3778.8045
 Red. masses --      1.1428                11.9252                 1.0676
 Frc consts  --      1.2634                18.1526                 8.9815
 IR Inten    --    160.5881               111.3241                83.3890
  Atom  AN      X      Y      Z        X      Y      Z        X      Y      Z
     1   1     0.99  -0.05   0.00    -0.46   0.01  -0.00     0.10   0.99  -0.00
     2   8    -0.03   0.05   0.00    -0.00  -0.05  -0.00    -0.01  -0.06   0.00
     3   8    -0.02  -0.05  -0.00     0.00   0.16   0.00     0.00   0.00   0.00
     4   7     0.03   0.01  -0.00     0.67  -0.06   0.00    -0.00  -0.00  -0.00
     5   8    -0.04  -0.01   0.00    -0.56  -0.06  -0.00     0.00   0.00  -0.00

 -------------------
 - Thermochemistry -
 -------------------
 Temperature   298.150 Kelvin.  Pressure   1.00000 Atm.
 Atom     1 has atomic number  1 and mass   1.00783
 Atom     2 has atomic number  8 and mass  15.99491
 Atom     3 has atomic number  8 and mass  15.99491
 Atom     4 has atomic number  7 and mass  14.00307
 Atom     5 has atomic number  8 and mass  15.99491
 Molecular mass:    62.99564 amu.
 Principal axes and moments of inertia in atomic units:
                           1         2         3
     Eigenvalues --    32.88586 362.04923 394.93509
           X            0.80869  -0.58824   0.00000
           Y            0.58824   0.80869   0.00000
           Z            0.00000  -0.00000   1.00000
 This molecule is an asymmetric top.
 Rotational symmetry number  1.
 Rotational temperatures (Kelvin)      2.63377     0.23923     0.21931
 Rotational constants (GHZ):          54.87894     4.98480     4.56972
    1 imaginary frequencies ignored.
 Zero-point vibrational energy      57207.7 (Joules/Mol)
                                   13.67298 (Kcal/Mol)
 Warning -- explicit consideration of   3 degrees of freedom as
           vibrations may cause significant error
 Vibrational temperatures:    377.10   502.23   641.65  1130.02  1389.72
          (Kelvin)           1970.81  2312.63  5436.86
 
 Zero-point correction=                           0.021789 (Hartree/Particle)
 Thermal correction to Energy=                    0.025857
 Thermal correction to Enthalpy=                  0.026802
 Thermal correction to Gibbs Free Energy=        -0.004267
 Sum of electronic and zero-point Energies=           -280.424777
 Sum of electronic and thermal Energies=              -280.420709
 Sum of electronic and thermal Enthalpies=            -280.419764
 Sum of electronic and thermal Free Energies=         -280.450833
 
                     E (Thermal)             CV                S
                      KCal/Mol        Cal/Mol-Kelvin    Cal/Mol-Kelvin
 Total                   16.226             11.910             65.390
 Electronic               0.000              0.000              0.000
 Translational            0.889              2.981             38.341
 Rotational               0.889              2.981             23.068
 Vibrational             14.448              5.949              3.981
 Vibration     1          0.669              1.742              1.648
 Vibration     2          0.726              1.577              1.170
 Vibration     3          0.805              1.370              0.808
                       Q            Log10(Q)             Ln(Q)
 Total Bot       0.917755D+02          1.962727          4.519345
 Total V=0       0.966246D+12         11.985088         27.596685
 Vib (Bot)       0.190244D-09         -9.720690        -22.382716
 Vib (Bot)    1  0.740297D+00         -0.130594         -0.300704
 Vib (Bot)    2  0.528871D+00         -0.276650         -0.637010
 Vib (Bot)    3  0.385780D+00         -0.413660         -0.952488
 Vib (V=0)       0.200296D+01          0.301671          0.694624
 Vib (V=0)    1  0.139333D+01          0.144054          0.331697
 Vib (V=0)    2  0.122781D+01          0.089131          0.205231
 Vib (V=0)    3  0.113153D+01          0.053665          0.123568
 Electronic      0.100000D+01          0.000000          0.000000
 Translational   0.196526D+08          7.293420         16.793719
 Rotational      0.245469D+05          4.389997         10.108341
 
                                                                title
                                                             IR Spectrum
 
     3                                                                        1       1                                              
     7                                                                        6       3             9     7           4  3  2        
     7                                                                        0       7             6     8           4  4  6        
     9                                                                        7       0             6     5           6  9  2        
 
     X                                                                        X       X             X     X           X  X  X        
     X                                                                        X       X             X     X           X              
     X                                                                        X       X                   X           X              
     X                                                                        X       X                   X           X              
     X                                                                        X       X                   X           X              
     X                                                                        X       X                   X           X              
     X                                                                        X       X                   X           X              
     X                                                                        X       X                   X           X              
                                                                              X       X                   X           X              
                                                                              X       X                   X           X              
                                                                              X       X                   X           X              
                                                                                      X                   X           X              
                                                                                      X                   X           X              
                                                                                      X                   X           X              
                                                                                      X                   X           X              
                                                                                      X                   X           X              
                                                                                                          X           X              
                                                                                                                      X              
                                                                                                                      X              
                                                                                                                      X              
 
 ***** Axes restored to original set *****
 -------------------------------------------------------------------
 Center     Atomic                   Forces (Hartrees/Bohr)
 Number     Number              X              Y              Z
 -------------------------------------------------------------------
      1        1           0.000122872    0.000000000   -0.000073193
      2        8           0.000209232    0.000000000    0.000389214
      3        8           0.000785112    0.000000000    0.002882978
      4        7           0.014246216    0.000000000    0.001582409
      5        8          -0.015363431   -0.000000000   -0.004781409
 -------------------------------------------------------------------
 Cartesian Forces:  Max     0.015363431 RMS     0.005618418
 -----------------------------------------------------------------------------------------------
                       Internal Coordinate Forces (Hartree/Bohr or radian)
  Cent   Atom   N1       Length/X         N2         Alpha/Y        N3         Beta/Z          J
 -----------------------------------------------------------------------------------------------
      1  H 
      2  O        1   0.000073(     1)
      3  O        2  -0.000371(     2)      1  -0.000225(     5)
      4  N        3  -0.003280(     3)      2  -0.000516(     6)      1   0.000000(     8)     0
      5  O        4  -0.016069(     4)      3  -0.001831(     7)      2  -0.000000(     9)     0
 -----------------------------------------------------------------------------------------------
 Internal  Forces:  Max     0.016069379 RMS     0.005505490
 Force constants in Cartesian coordinates: 
                1             2             3             4             5 
      1  0.646974D-01
      2  0.000000D+00 -0.242815D-02
      3  0.526492D-02  0.000000D+00  0.512389D+00
      4 -0.359443D-01  0.000000D+00 -0.162255D-01  0.272501D+00
      5  0.000000D+00  0.314467D-02  0.000000D+00  0.000000D+00  0.204091D-02
      6  0.484102D-01  0.000000D+00 -0.508568D+00  0.331545D-01  0.000000D+00
      7 -0.182446D-01  0.000000D+00  0.124762D-01 -0.219904D+00  0.000000D+00
      8  0.000000D+00  0.986867D-03  0.000000D+00  0.000000D+00 -0.655657D-02
      9 -0.532345D-01  0.000000D+00 -0.469801D-03 -0.191084D-01  0.000000D+00
     10 -0.926466D-02  0.000000D+00 -0.479863D-02 -0.169965D-01  0.000000D+00
     11  0.000000D+00 -0.272715D-02  0.000000D+00  0.000000D+00 -0.492063D-02
     12  0.518440D-02  0.000000D+00 -0.475860D-02  0.112713D-01  0.000000D+00
     13 -0.124390D-02  0.000000D+00  0.328299D-02  0.343879D-03  0.000000D+00
     14  0.000000D+00  0.102377D-02  0.000000D+00  0.000000D+00  0.629163D-02
     15 -0.562500D-02  0.000000D+00  0.140745D-02 -0.909195D-02  0.000000D+00
                6             7             8             9            10 
      6  0.594939D+00
      7 -0.210326D-01  0.340923D+00
      8  0.000000D+00  0.000000D+00  0.520211D-02
      9 -0.787794D-01  0.345657D-01  0.000000D+00  0.179213D+00
     10 -0.524695D-01 -0.782758D-01  0.000000D+00  0.171490D+00  0.763756D+00
     11  0.000000D+00  0.000000D+00  0.778424D-02  0.000000D+00  0.000000D+00
     12  0.165190D-01  0.620577D-01  0.000000D+00 -0.811446D-01 -0.308888D-01
     13 -0.806249D-02 -0.244979D-01  0.000000D+00 -0.133713D+00 -0.659219D+00
     14  0.000000D+00  0.000000D+00 -0.741664D-02  0.000000D+00  0.000000D+00
     15 -0.241104D-01 -0.880670D-01  0.000000D+00 -0.188192D-01 -0.833331D-01
               11            12            13            14            15 
     11  0.160661D-01
     12  0.000000D+00  0.187448D+00
     13  0.000000D+00 -0.476245D-01  0.684617D+00
     14 -0.162025D-01  0.000000D+00  0.000000D+00  0.163038D-01
     15  0.000000D+00 -0.118064D+00  0.186117D+00  0.000000D+00  0.159586D+00
 Force constants in internal coordinates: 
                1             2             3             4             5 
      1  0.512389D+00
      2 -0.103594D-01  0.280751D+00
      3  0.346412D-02  0.260323D-02  0.115000D+00
      4 -0.352955D-02  0.584043D-02  0.148086D+00  0.741765D+00
      5  0.976348D-02  0.651781D-01  0.238169D-02  0.476223D-02  0.217060D+00
      6  0.463258D-02  0.593508D-01  0.410231D-01  0.215645D-01  0.316598D-01
      7 -0.122583D-02  0.372115D-01  0.301213D-01  0.834527D-01  0.210247D-01
      8  0.000000D+00  0.000000D+00  0.000000D+00  0.000000D+00  0.000000D+00
      9  0.000000D+00  0.000000D+00  0.000000D+00  0.000000D+00  0.000000D+00
                6             7             8             9 
      6  0.283659D+00
      7  0.942380D-01  0.475139D+00
      8  0.000000D+00  0.000000D+00 -0.783735D-02
      9  0.000000D+00  0.000000D+00 -0.392191D-02  0.411579D-01
 Leave Link  716 at Mon Feb 21 20:29:22 2022, MaxMem= 16106127360 cpu:               0.7 elap:               0.0
 (Enter /sw/contrib/gaussian/g16/B01/g16/l103.exe)

 GradGradGradGradGradGradGradGradGradGradGradGradGradGradGradGradGradGrad
 Berny optimization.
 Search for a local minimum.
 Step number   1 out of a maximum of    2
 All quantities printed in internal units (Hartrees-Bohrs-Radians)
 Second derivative matrix not updated -- analytic derivatives used.
 The second derivative matrix:
                          r1        r2        r3        r4        a1
           r1           0.51239
           r2          -0.01036   0.28075
           r3           0.00346   0.00260   0.11500
           r4          -0.00353   0.00584   0.14809   0.74177
           a1           0.00976   0.06518   0.00238   0.00476   0.21706
           a2           0.00463   0.05935   0.04102   0.02156   0.03166
           a3          -0.00123   0.03721   0.03012   0.08345   0.02102
           d1           0.00000  -0.00000  -0.00000  -0.00000  -0.00000
           d2          -0.00000   0.00000   0.00000   0.00000   0.00000
                          a2        a3        d1        d2
           a2           0.28366
           a3           0.09424   0.47514
           d1          -0.00000  -0.00000  -0.00784
           d2          -0.00000  -0.00000  -0.00392   0.04116
 ITU=  0
     Eigenvalues ---   -0.00815   0.04147   0.07527   0.17552   0.22561
     Eigenvalues ---    0.32433   0.50557   0.51316   0.80632
 Eigenvalue     1 is  -8.15D-03 should be greater than     0.000000 Eigenvector:
                          d1        d2        a3        a2        r3
   1                    0.99685   0.07929   0.00000   0.00000  -0.00000
                          r4        r2        a1        r1
   1                    0.00000   0.00000  -0.00000  -0.00000
 Angle between quadratic step and forces=  11.44 degrees.
 Linear search not attempted -- first point.
 Variable       Old X    -DE/DX   Delta X   Delta X   Delta X     New X
                                 (Linear)    (Quad)   (Total)
    r1        1.83110   0.00007   0.00000  -0.00001  -0.00001   1.83109
    r2        2.74940  -0.00037   0.00000  -0.00082  -0.00082   2.74858
    r3        2.75670  -0.00328   0.00000  -0.00089  -0.00089   2.75582
    r4        2.23354  -0.01607   0.00000  -0.02149  -0.02149   2.21206
    a1        1.70335  -0.00022   0.00000  -0.00033  -0.00033   1.70302
    a2        1.78543  -0.00052   0.00000   0.00014   0.00014   1.78557
    a3        1.90362  -0.00183   0.00000   0.00003   0.00003   1.90365
    d1        3.14159   0.00000   0.00000   0.00000   0.00000   3.14159
    d2        3.14159  -0.00000   0.00000  -0.00000   0.00000   3.14159
         Item               Value     Threshold  Converged?
 Maximum Force            0.016069     0.000450     NO 
 RMS     Force            0.005505     0.000300     NO 
 Maximum Displacement     0.021485     0.001800     NO 
 RMS     Displacement     0.007174     0.001200     NO 
 Predicted change in Energy=-1.742099D-04
                       ----------------------------
                       ! Non-Optimized Parameters !
                       ! (Angstroms and Degrees)  !
 ----------------------                            ----------------------
 !      Name          Value   Derivative information (Atomic Units)     !
 ------------------------------------------------------------------------
 !       r1          0.969    -DE/DX =    0.0001                        !
 !       r2          1.4545   -DE/DX =   -0.0004                        !
 !       r3          1.4583   -DE/DX =   -0.0033                        !
 !       r4          1.1706   -DE/DX =   -0.0161                        !
 !       a1         97.576    -DE/DX =   -0.0002                        !
 !       a2        102.3058   -DE/DX =   -0.0005                        !
 !       a3        109.0711   -DE/DX =   -0.0018                        !
 !       d1        180.0      -DE/DX =    0.0                           !
 !       d2        180.0      -DE/DX =    0.0                           !
 ------------------------------------------------------------------------
 GradGradGradGradGradGradGradGradGradGradGradGradGradGradGradGradGradGrad

 Leave Link  103 at Mon Feb 21 20:29:22 2022, MaxMem= 16106127360 cpu:               1.4 elap:               0.1
 (Enter /sw/contrib/gaussian/g16/B01/g16/l9999.exe)

 ----------------------------------------------------------------------

 Electric dipole moment (input orientation):
 (Debye = 10**-18 statcoulomb cm , SI units = C m)
                  (au)            (Debye)         (10**-30 SI)
   Tot        0.595266D+00      0.151302D+01      0.504688D+01
   x         -0.163088D+00     -0.414528D+00     -0.138272D+01
   y          0.000000D+00      0.000000D+00      0.000000D+00
   z         -0.572490D+00     -0.145512D+01     -0.485377D+01

 Dipole polarizability, Alpha (input orientation).
 (esu units = cm**3 , SI units = C**2 m**2 J**-1)
 Alpha(0;0):
               (au)            (10**-24 esu)      (10**-40 SI)
   iso        0.274909D+02      0.407372D+01      0.453263D+01
   aniso      0.221651D+02      0.328454D+01      0.365454D+01
   xx         0.322906D+02      0.478498D+01      0.532401D+01
   yx         0.000000D+00      0.000000D+00      0.000000D+00
   yy         0.179490D+02      0.265977D+01      0.295940D+01
   zx         0.977134D+01      0.144796D+01      0.161108D+01
   zy         0.000000D+00      0.000000D+00      0.000000D+00
   zz         0.322329D+02      0.477642D+01      0.531448D+01

 ----------------------------------------------------------------------

 Dipole orientation:
     1          0.00000000          0.00000000         -0.00000000
     8         -0.50167405          0.00000000         -1.76103510
     8          2.01976939          0.00000000         -2.85717286
     7          1.48440203          0.00000000         -5.56138987
     8          3.41346467          0.00000000         -6.68719278

 Electric dipole moment (dipole orientation):
 (Debye = 10**-18 statcoulomb cm , SI units = C m)
                  (au)            (Debye)         (10**-30 SI)
   Tot        0.595266D+00      0.151302D+01      0.504688D+01
   x          0.000000D+00      0.000000D+00      0.000000D+00
   y          0.000000D+00      0.000000D+00      0.000000D+00
   z          0.595266D+00      0.151302D+01      0.504688D+01

 Dipole polarizability, Alpha (dipole orientation).
 (esu units = cm**3 , SI units = C**2 m**2 J**-1)
 Alpha(0;0):
               (au)            (10**-24 esu)      (10**-40 SI)
   iso        0.274909D+02      0.407372D+01      0.453263D+01
   aniso      0.221651D+02      0.328454D+01      0.365454D+01
   xx         0.271370D+02      0.402129D+01      0.447428D+01
   yx         0.000000D+00      0.000000D+00      0.000000D+00
   yy         0.179490D+02      0.265977D+01      0.295940D+01
   zx        -0.831965D+01     -0.123284D+01     -0.137173D+01
   zy         0.000000D+00      0.000000D+00      0.000000D+00
   zz         0.373865D+02      0.554011D+01      0.616421D+01

 ----------------------------------------------------------------------
 1\1\GINC-N2126\Freq\RMP2-FC\Aug-CC-pVTZ\H1N1O3\CGAVINH\21-Feb-2022\1\\
 #p freq mp2/aug-cc-pvtz density=current\\title\\0,1\H\O,1,r1\O,2,r2,1,
 a1\N,3,r3,2,a2,1,d1,0\O,4,r4,3,a3,2,d2,0\\r1=0.96897556\r2=1.45491931\
 r3=1.45878406\r4=1.18194012\a1=97.59494903\a2=102.29752444\a3=109.0695
 5123\d1=180.\d2=180.\\Version=ES64L-G16RevB.01\State=1-A'\HF=-279.4995
 876\MP2=-280.4465659\RMSD=4.099e-09\RMSF=5.618e-03\ZeroPoint=0.0217893
 \Thermal=0.0258574\Dipole=-0.1630877,0.,-0.5724896\DipoleDeriv=0.26640
 39,0.,0.04847,0.,0.3559197,0.,0.0828723,0.,0.276887,-0.3302224,0.,-0.2
 092128,0.,-0.3131559,0.,-0.1122652,0.,-0.2218563,-0.0388932,0.,0.15013
 88,0.,-0.0824346,0.,-0.7496433,0.,-1.3451356,0.8628901,0.,0.8816567,0.
 ,0.0653259,0.,0.9118681,0.,1.6545923,-0.7601784,0.,-0.8710527,0.,-0.02
 56552,0.,-0.1328319,0.,-0.3644874\Polar=32.29064,0.,17.9490441,9.77134
 18,0.,32.2328751\Quadrupole=-1.514642,-0.7226233,2.2372653,0.,2.078871
 1,0.\PG=CS [SG(H1N1O3)]\NImag=1\\0.06469743,0.,-0.00242815,0.00526492,
 0.,0.51238881,-0.03594427,0.,-0.01622551,0.27250120,0.,0.00314467,0.,0
 .,0.00204091,0.04841016,0.,-0.50856787,0.03315449,0.,0.59493868,-0.018
 24459,0.,0.01247623,-0.21990429,0.,-0.02103262,0.34092257,0.,0.0009868
 7,0.,0.,-0.00655657,0.,0.,0.00520211,-0.05323447,0.,-0.00046980,-0.019
 10837,0.,-0.07877940,0.03456568,0.,0.17921297,-0.00926466,0.,-0.004798
 63,-0.01699652,0.,-0.05246954,-0.07827580,0.,0.17149011,0.76375571,0.,
 -0.00272715,0.,0.,-0.00492063,0.,0.,0.00778424,0.,0.,0.01606607,0.0051
 8440,0.,-0.00475860,0.01127133,0.,0.01651899,0.06205767,0.,-0.08114458
 ,-0.03088885,0.,0.18744808,-0.00124390,0.,0.00328299,0.00034388,0.,-0.
 00806249,-0.02449788,0.,-0.13371294,-0.65921873,0.,-0.04762455,0.68461
 663,0.,0.00102377,0.,0.,0.00629163,0.,0.,-0.00741664,0.,0.,-0.01620254
 ,0.,0.,0.01630379,-0.00562500,0.,0.00140745,-0.00909195,0.,-0.02411040
 ,-0.08806696,0.,-0.01881918,-0.08333309,0.,-0.11806389,0.18611700,0.,0
 .15958602\\-0.00012287,0.,0.00007319,-0.00020923,0.,-0.00038921,-0.000
 78511,0.,-0.00288298,-0.01424622,0.,-0.00158241,0.01536343,0.,0.004781
 41\\\@


 I FIND THAT THE THREE TRULY GREAT TIMES FOR THINKING THOUGHTS
 ARE WHEN I AM STANDING IN THE SHOWER, SITTING ON THE JOHN, OR WALKING.

                                    -- COLIN FLETCHER
 Job cpu time:       0 days  2 hours  1 minutes 18.3 seconds.
 Elapsed time:       0 days  0 hours  4 minutes 23.3 seconds.
 File lengths (MBytes):  RWF=   7239 Int=      0 D2E=      0 Chk=      8 Scr=      1
 Normal termination of Gaussian 16 at Mon Feb 21 20:29:23 2022.
