 Entering Gaussian System, Link 0=g16
 Input=hoono_r3_1p425790.gjf
 Output=hoono_r3_1p425790.log
 Initial command:
 /sw/contrib/gaussian/g16/B01/g16/l1.exe "/scr/Gau-23332.inp" -scrdir="/scr/"
 Entering Link 1 = /sw/contrib/gaussian/g16/B01/g16/l1.exe PID=     23334.
  
 Copyright (c) 1988-2017, Gaussian, Inc.  All Rights Reserved.
  
 This is part of the Gaussian(R) 16 program.  It is based on
 the Gaussian(R) 09 system (copyright 2009, Gaussian, Inc.),
 the Gaussian(R) 03 system (copyright 2003, Gaussian, Inc.),
 the Gaussian(R) 98 system (copyright 1998, Gaussian, Inc.),
 the Gaussian(R) 94 system (copyright 1995, Gaussian, Inc.),
 the Gaussian 92(TM) system (copyright 1992, Gaussian, Inc.),
 the Gaussian 90(TM) system (copyright 1990, Gaussian, Inc.),
 the Gaussian 88(TM) system (copyright 1988, Gaussian, Inc.),
 the Gaussian 86(TM) system (copyright 1986, Carnegie Mellon
 University), and the Gaussian 82(TM) system (copyright 1983,
 Carnegie Mellon University). Gaussian is a federally registered
 trademark of Gaussian, Inc.
  
 This software contains proprietary and confidential information,
 including trade secrets, belonging to Gaussian, Inc.
  
 This software is provided under written license and may be
 used, copied, transmitted, or stored only in accord with that
 written license.
  
 The following legend is applicable only to US Government
 contracts under FAR:
  
                    RESTRICTED RIGHTS LEGEND
  
 Use, reproduction and disclosure by the US Government is
 subject to restrictions as set forth in subparagraphs (a)
 and (c) of the Commercial Computer Software - Restricted
 Rights clause in FAR 52.227-19.
  
 Gaussian, Inc.
 340 Quinnipiac St., Bldg. 40, Wallingford CT 06492
  
  
 ---------------------------------------------------------------
 Warning -- This program may not be used in any manner that
 competes with the business of Gaussian, Inc. or will provide
 assistance to any competitor of Gaussian, Inc.  The licensee
 of this program is prohibited from giving any competitor of
 Gaussian, Inc. access to this program.  By using this program,
 the user acknowledges that Gaussian, Inc. is engaged in the
 business of creating and licensing software in the field of
 computational chemistry and represents and warrants to the
 licensee that it is not a competitor of Gaussian, Inc. and that
 it will not use this program in any manner prohibited above.
 ---------------------------------------------------------------
  

 Cite this work as:
 Gaussian 16, Revision B.01,
 M. J. Frisch, G. W. Trucks, H. B. Schlegel, G. E. Scuseria, 
 M. A. Robb, J. R. Cheeseman, G. Scalmani, V. Barone, 
 G. A. Petersson, H. Nakatsuji, X. Li, M. Caricato, A. V. Marenich, 
 J. Bloino, B. G. Janesko, R. Gomperts, B. Mennucci, H. P. Hratchian, 
 J. V. Ortiz, A. F. Izmaylov, J. L. Sonnenberg, D. Williams-Young, 
 F. Ding, F. Lipparini, F. Egidi, J. Goings, B. Peng, A. Petrone, 
 T. Henderson, D. Ranasinghe, V. G. Zakrzewski, J. Gao, N. Rega, 
 G. Zheng, W. Liang, M. Hada, M. Ehara, K. Toyota, R. Fukuda, 
 J. Hasegawa, M. Ishida, T. Nakajima, Y. Honda, O. Kitao, H. Nakai, 
 T. Vreven, K. Throssell, J. A. Montgomery, Jr., J. E. Peralta, 
 F. Ogliaro, M. J. Bearpark, J. J. Heyd, E. N. Brothers, K. N. Kudin, 
 V. N. Staroverov, T. A. Keith, R. Kobayashi, J. Normand, 
 K. Raghavachari, A. P. Rendell, J. C. Burant, S. S. Iyengar, 
 J. Tomasi, M. Cossi, J. M. Millam, M. Klene, C. Adamo, R. Cammi, 
 J. W. Ochterski, R. L. Martin, K. Morokuma, O. Farkas, 
 J. B. Foresman, and D. J. Fox, Gaussian, Inc., Wallingford CT, 2016.
 
 ******************************************
 Gaussian 16:  ES64L-G16RevB.01 20-Dec-2017
                21-Feb-2022 
 ******************************************
 %nproc=28
 Will use up to   28 processors via shared memory.
 %mem=120GB
 %chk=hoono_r3_1p425790.chk
 ---------------------------------------
 #p freq mp2/aug-cc-pvtz density=current
 ---------------------------------------
 1/10=4,30=1,38=1/1,3;
 2/12=2,17=6,18=5,40=1/2;
 3/5=16,6=1,7=10,11=9,25=1,30=1,71=2,140=1/1,2,3;
 4//1;
 5/5=2,38=5,98=1/2;
 8/6=3,8=1,10=1,19=11,30=-1/1;
 9/15=3,16=-3/6;
 11/6=1,8=1,15=11,17=12,24=-1,27=1,28=-2,29=300,32=6,42=3/1,2,10;
 10/6=2,21=1/2;
 8/6=4,8=1,10=1,19=11,30=-1/11,4;
 10/5=1,20=4/2;
 11/12=2,14=11,16=1,17=2,28=-2,42=3,76=2/2,10,12;
 6/7=2,8=2,9=2,10=2,22=-1/1;
 7/8=1,10=1,12=2,25=1,44=2/1,2,3,16;
 1/10=4,30=1/3;
 99//99;
 Leave Link    1 at Mon Feb 21 20:21:04 2022, MaxMem= 16106127360 cpu:               6.0 elap:               0.2
 (Enter /sw/contrib/gaussian/g16/B01/g16/l101.exe)
 -----
 title
 -----
 Symbolic Z-matrix:
 Charge =  0 Multiplicity = 1
 H
 O                    1    r1
 O                    2    r2       1    a1
 N                    3    r3       2    a2       1    d1       0
 O                    4    r4       3    a3       2    d2       0
       Variables:
  r1                    0.96898                  
  r2                    1.45492                  
  r3                    1.42579                  
  r4                    1.17073                  
  a1                   97.59495                  
  a2                  102.29752                  
  a3                  109.06955                  
  d1                  180.                       
  d2                  180.                       
 
 ITRead=  0  0  0  0  0
 MicOpt= -1 -1 -1 -1 -1
 NAtoms=      5 NQM=        5 NQMF=       0 NMMI=      0 NMMIF=      0
                NMic=       0 NMicF=      0.
                    Isotopes and Nuclear Properties:
 (Nuclear quadrupole moments (NQMom) in fm**2, nuclear magnetic moments (NMagM)
  in nuclear magnetons)

  Atom         1           2           3           4           5
 IAtWgt=           1          16          16          14          16
 AtmWgt=   1.0078250  15.9949146  15.9949146  14.0030740  15.9949146
 NucSpn=           1           0           0           2           0
 AtZEff=  -0.0000000  -0.0000000  -0.0000000  -0.0000000  -0.0000000
 NQMom=    0.0000000   0.0000000   0.0000000   2.0440000   0.0000000
 NMagM=    2.7928460   0.0000000   0.0000000   0.4037610   0.0000000
 AtZNuc=   1.0000000   8.0000000   8.0000000   7.0000000   8.0000000
 Leave Link  101 at Mon Feb 21 20:21:04 2022, MaxMem= 16106127360 cpu:               2.5 elap:               0.1
 (Enter /sw/contrib/gaussian/g16/B01/g16/l103.exe)

 GradGradGradGradGradGradGradGradGradGradGradGradGradGradGradGradGradGrad
 Berny optimization.
 Initialization pass.
                       ----------------------------
                       !    Initial Parameters    !
                       ! (Angstroms and Degrees)  !
 ----------------------                            ----------------------
 !      Name          Value   Derivative information (Atomic Units)     !
 ------------------------------------------------------------------------
 !       r1          0.969    calculate D2E/DX2 analytically            !
 !       r2          1.4549   calculate D2E/DX2 analytically            !
 !       r3          1.4258   calculate D2E/DX2 analytically            !
 !       r4          1.1707   calculate D2E/DX2 analytically            !
 !       a1         97.5949   calculate D2E/DX2 analytically            !
 !       a2        102.2975   calculate D2E/DX2 analytically            !
 !       a3        109.0696   calculate D2E/DX2 analytically            !
 !       d1        180.0      calculate D2E/DX2 analytically            !
 !       d2        180.0      calculate D2E/DX2 analytically            !
 ------------------------------------------------------------------------
 Trust Radius=3.00D-01 FncErr=1.00D-07 GrdErr=1.00D-07 EigMax=2.50D+02 EigMin=1.00D-04
 Number of steps in this run=      2 maximum allowed number of steps=      2.
 GradGradGradGradGradGradGradGradGradGradGradGradGradGradGradGradGradGrad

 Leave Link  103 at Mon Feb 21 20:21:04 2022, MaxMem= 16106127360 cpu:               0.6 elap:               0.1
 (Enter /sw/contrib/gaussian/g16/B01/g16/l202.exe)
                          Input orientation:                          
 ---------------------------------------------------------------------
 Center     Atomic      Atomic             Coordinates (Angstroms)
 Number     Number       Type             X           Y           Z
 ---------------------------------------------------------------------
      1          1           0        0.000000    0.000000    0.000000
      2          8           0        0.000000    0.000000    0.968976
      3          8           0        1.442156    0.000000    1.161271
      4          7           0        1.559047    0.000000    2.582262
      5          8           0        2.693162    0.000000    2.872757
 ---------------------------------------------------------------------
                    Distance matrix (angstroms):
                    1          2          3          4          5
     1  H    0.000000
     2  O    0.968976   0.000000
     3  O    1.851584   1.454919   0.000000
     4  N    3.016405   2.243506   1.425791   0.000000
     5  O    3.937747   3.298106   2.119953   1.170729   0.000000
 Stoichiometry    HNO3
 Framework group  CS[SG(HNO3)]
 Deg. of freedom     7
 Full point group                 CS      NOp   2
 Largest Abelian subgroup         CS      NOp   2
 Largest concise Abelian subgroup C1      NOp   1
                         Standard orientation:                         
 ---------------------------------------------------------------------
 Center     Atomic      Atomic             Coordinates (Angstroms)
 Number     Number       Type             X           Y           Z
 ---------------------------------------------------------------------
      1          1           0        1.553375    1.665465    0.000000
      2          8           0        1.454261    0.701572    0.000000
      3          8           0        0.000000    0.657800    0.000000
      4          7           0       -0.261627   -0.743781   -0.000000
      5          8           0       -1.419509   -0.916747   -0.000000
 ---------------------------------------------------------------------
 Rotational constants (GHZ):          56.4067608           5.0953202           4.6731835
 Leave Link  202 at Mon Feb 21 20:21:04 2022, MaxMem= 16106127360 cpu:               0.3 elap:               0.0
 (Enter /sw/contrib/gaussian/g16/B01/g16/l301.exe)
 Standard basis: Aug-CC-pVTZ (5D, 7F)
 Ernie: Thresh=  0.10000D-02 Tol=  0.10000D-05 Strict=F.
 Ernie:  12 primitive shells out of 131 were deleted.
 There are   166 symmetry adapted cartesian basis functions of A'  symmetry.
 There are    79 symmetry adapted cartesian basis functions of A"  symmetry.
 There are   136 symmetry adapted basis functions of A'  symmetry.
 There are    71 symmetry adapted basis functions of A"  symmetry.
   207 basis functions,   315 primitive gaussians,   245 cartesian basis functions
    16 alpha electrons       16 beta electrons
       nuclear repulsion energy       117.7858414868 Hartrees.
 IExCor=    0 DFT=F Ex=HF Corr=None ExCW=0 ScaHFX=  1.000000
 ScaDFX=  1.000000  1.000000  1.000000  1.000000 ScalE2=  1.000000  1.000000
 IRadAn=      5 IRanWt=     -1 IRanGd=            0 ICorTp=0 IEmpDi=  4
 NAtoms=    5 NActive=    5 NUniq=    5 SFac= 1.00D+00 NAtFMM=   60 NAOKFM=F Big=F
 Integral buffers will be    131072 words long.
 Raffenetti 1 integral format.
 Two-electron integral symmetry is turned on.
 Leave Link  301 at Mon Feb 21 20:21:04 2022, MaxMem= 16106127360 cpu:               1.7 elap:               0.1
 (Enter /sw/contrib/gaussian/g16/B01/g16/l302.exe)
 NPDir=0 NMtPBC=     1 NCelOv=     1 NCel=       1 NClECP=     1 NCelD=      1
         NCelK=      1 NCelE2=     1 NClLst=     1 CellRange=     0.0.
 One-electron integrals computed using PRISM.
 One-electron integral symmetry used in STVInt
 NBasis=   207 RedAO= T EigKep=  1.78D-04  NBF=   136    71
 NBsUse=   207 1.00D-06 EigRej= -1.00D+00 NBFU=   136    71
 Leave Link  302 at Mon Feb 21 20:21:04 2022, MaxMem= 16106127360 cpu:               4.7 elap:               0.2
 (Enter /sw/contrib/gaussian/g16/B01/g16/l303.exe)
 DipDrv:  MaxL=1.
 Leave Link  303 at Mon Feb 21 20:21:04 2022, MaxMem= 16106127360 cpu:               0.9 elap:               0.1
 (Enter /sw/contrib/gaussian/g16/B01/g16/l401.exe)
 ExpMin= 2.53D-02 ExpMax= 1.53D+04 ExpMxC= 5.22D+02 IAcc=3 IRadAn=         5 AccDes= 0.00D+00
 Harris functional with IExCor=  205 and IRadAn=       5 diagonalized for initial guess.
 HarFok:  IExCor=  205 AccDes= 0.00D+00 IRadAn=         5 IDoV= 1 UseB2=F ITyADJ=14
 ICtDFT=  3500011 ScaDFX=  1.000000  1.000000  1.000000  1.000000
 FoFCou: FMM=F IPFlag=           0 FMFlag=      100000 FMFlg1=           0
         NFxFlg=           0 DoJE=T BraDBF=F KetDBF=T FulRan=T
         wScrn=  0.000000 ICntrl=       500 IOpCl=  0 I1Cent=   200000004 NGrid=           0
         NMat0=    1 NMatS0=      1 NMatT0=    0 NMatD0=    1 NMtDS0=    0 NMtDT0=    0
 Petite list used in FoFCou.
 Harris En= -279.629864299428    
 JPrj=0 DoOrth=F DoCkMO=F.
 Initial guess orbital symmetries:
       Occupied  (A') (A') (A') (A') (A') (A') (A') (A') (A') (A')
                 (A") (A') (A') (A") (A") (A')
       Virtual   (A") (A') (A') (A') (A') (A") (A') (A') (A') (A')
                 (A") (A') (A") (A') (A') (A") (A') (A") (A') (A')
                 (A') (A') (A') (A') (A') (A") (A') (A") (A') (A')
                 (A") (A') (A") (A') (A') (A") (A') (A") (A') (A')
                 (A") (A') (A") (A') (A") (A') (A') (A') (A") (A")
                 (A') (A') (A') (A') (A") (A') (A") (A') (A") (A')
                 (A') (A') (A") (A') (A') (A") (A') (A") (A') (A')
                 (A") (A') (A') (A") (A") (A') (A') (A") (A') (A')
                 (A') (A") (A') (A") (A') (A") (A') (A") (A') (A')
                 (A') (A") (A') (A") (A') (A") (A") (A') (A") (A')
                 (A') (A') (A") (A') (A') (A') (A") (A') (A") (A')
                 (A") (A') (A') (A') (A") (A') (A') (A') (A") (A')
                 (A") (A') (A') (A") (A") (A') (A') (A") (A") (A')
                 (A') (A') (A') (A") (A") (A') (A") (A') (A') (A')
                 (A') (A") (A") (A') (A') (A") (A') (A') (A') (A')
                 (A") (A') (A') (A") (A') (A") (A') (A") (A') (A")
                 (A') (A") (A') (A") (A') (A") (A") (A") (A') (A')
                 (A") (A') (A") (A') (A") (A') (A") (A") (A') (A')
                 (A') (A') (A') (A') (A') (A') (A') (A') (A') (A')
                 (A')
 The electronic state of the initial guess is 1-A'.
 Leave Link  401 at Mon Feb 21 20:21:05 2022, MaxMem= 16106127360 cpu:               7.8 elap:               0.4
 (Enter /sw/contrib/gaussian/g16/B01/g16/l502.exe)
 Keep R1 ints in memory in symmetry-blocked form, NReq=348887737.
 FoFCou: FMM=F IPFlag=           0 FMFlag=           0 FMFlg1=           0
         NFxFlg=           0 DoJE=F BraDBF=F KetDBF=F FulRan=T
         wScrn=  0.000000 ICntrl=       600 IOpCl=  0 I1Cent=           0 NGrid=           0
         NMat0=    1 NMatS0=  21528 NMatT0=    0 NMatD0=    1 NMtDS0=    0 NMtDT0=    0
 Petite list used in FoFCou.
 Closed shell SCF:
 Using DIIS extrapolation, IDIIS=  1040.
 NGot= 16106127360 LenX= 15988850015 LenY= 15988789549
 Requested convergence on RMS density matrix=1.00D-08 within 128 cycles.
 Requested convergence on MAX density matrix=1.00D-06.
 Requested convergence on             energy=1.00D-06.
 No special actions if energy rises.

 Cycle   1  Pass 1  IDiag  1:
 E= -279.369578886008    
 DIIS: error= 2.53D-02 at cycle   1 NSaved=   1.
 NSaved= 1 IEnMin= 1 EnMin= -279.369578886008     IErMin= 1 ErrMin= 2.53D-02
 ErrMax= 2.53D-02  0.00D+00 EMaxC= 1.00D-01 BMatC= 4.44D-01 BMatP= 4.44D-01
 IDIUse=3 WtCom= 7.47D-01 WtEn= 2.53D-01
 Coeff-Com:  0.100D+01
 Coeff-En:   0.100D+01
 Coeff:      0.100D+01
 Gap=     0.522 Goal=   None    Shift=    0.000
 GapD=    0.522 DampG=2.000 DampE=0.500 DampFc=1.0000 IDamp=-1.
 RMSDP=1.65D-03 MaxDP=9.68D-02              OVMax= 1.18D-01

 Cycle   2  Pass 1  IDiag  1:
 E= -279.451156810174     Delta-E=       -0.081577924167 Rises=F Damp=F
 DIIS: error= 1.78D-02 at cycle   2 NSaved=   2.
 NSaved= 2 IEnMin= 2 EnMin= -279.451156810174     IErMin= 2 ErrMin= 1.78D-02
 ErrMax= 1.78D-02  0.00D+00 EMaxC= 1.00D-01 BMatC= 7.87D-02 BMatP= 4.44D-01
 IDIUse=3 WtCom= 8.22D-01 WtEn= 1.78D-01
 Coeff-Com:  0.207D+00 0.793D+00
 Coeff-En:   0.379D-01 0.962D+00
 Coeff:      0.177D+00 0.823D+00
 Gap=     0.535 Goal=   None    Shift=    0.000
 RMSDP=9.24D-04 MaxDP=3.81D-02 DE=-8.16D-02 OVMax= 6.59D-02

 Cycle   3  Pass 1  IDiag  1:
 E= -279.484399063933     Delta-E=       -0.033242253759 Rises=F Damp=F
 DIIS: error= 9.50D-03 at cycle   3 NSaved=   3.
 NSaved= 3 IEnMin= 3 EnMin= -279.484399063933     IErMin= 3 ErrMin= 9.50D-03
 ErrMax= 9.50D-03  0.00D+00 EMaxC= 1.00D-01 BMatC= 2.87D-02 BMatP= 7.87D-02
 IDIUse=3 WtCom= 9.05D-01 WtEn= 9.50D-02
 Coeff-Com: -0.339D-01 0.366D+00 0.667D+00
 Coeff-En:   0.000D+00 0.222D+00 0.778D+00
 Coeff:     -0.307D-01 0.353D+00 0.678D+00
 Gap=     0.510 Goal=   None    Shift=    0.000
 RMSDP=3.78D-04 MaxDP=1.48D-02 DE=-3.32D-02 OVMax= 4.08D-02

 Cycle   4  Pass 1  IDiag  1:
 E= -279.503566648608     Delta-E=       -0.019167584675 Rises=F Damp=F
 DIIS: error= 1.25D-03 at cycle   4 NSaved=   4.
 NSaved= 4 IEnMin= 4 EnMin= -279.503566648608     IErMin= 4 ErrMin= 1.25D-03
 ErrMax= 1.25D-03  0.00D+00 EMaxC= 1.00D-01 BMatC= 4.59D-04 BMatP= 2.87D-02
 IDIUse=3 WtCom= 9.88D-01 WtEn= 1.25D-02
 Coeff-Com: -0.109D-01 0.455D-01 0.144D+00 0.822D+00
 Coeff-En:   0.000D+00 0.000D+00 0.000D+00 0.100D+01
 Coeff:     -0.107D-01 0.449D-01 0.142D+00 0.824D+00
 Gap=     0.502 Goal=   None    Shift=    0.000
 RMSDP=8.98D-05 MaxDP=2.66D-03 DE=-1.92D-02 OVMax= 1.05D-02

 Cycle   5  Pass 1  IDiag  1:
 E= -279.504208632607     Delta-E=       -0.000641984000 Rises=F Damp=F
 DIIS: error= 6.76D-04 at cycle   5 NSaved=   5.
 NSaved= 5 IEnMin= 5 EnMin= -279.504208632607     IErMin= 5 ErrMin= 6.76D-04
 ErrMax= 6.76D-04  0.00D+00 EMaxC= 1.00D-01 BMatC= 8.12D-05 BMatP= 4.59D-04
 IDIUse=3 WtCom= 9.93D-01 WtEn= 6.76D-03
 Coeff-Com:  0.591D-02-0.676D-01-0.112D+00 0.315D-01 0.114D+01
 Coeff-En:   0.000D+00 0.000D+00 0.000D+00 0.000D+00 0.100D+01
 Coeff:      0.587D-02-0.671D-01-0.112D+00 0.313D-01 0.114D+01
 Gap=     0.502 Goal=   None    Shift=    0.000
 RMSDP=7.21D-05 MaxDP=2.03D-03 DE=-6.42D-04 OVMax= 1.06D-02

 Cycle   6  Pass 1  IDiag  1:
 E= -279.504491885996     Delta-E=       -0.000283253388 Rises=F Damp=F
 DIIS: error= 2.84D-04 at cycle   6 NSaved=   6.
 NSaved= 6 IEnMin= 6 EnMin= -279.504491885996     IErMin= 6 ErrMin= 2.84D-04
 ErrMax= 2.84D-04  0.00D+00 EMaxC= 1.00D-01 BMatC= 1.57D-05 BMatP= 8.12D-05
 IDIUse=3 WtCom= 9.97D-01 WtEn= 2.84D-03
 Coeff-Com:  0.499D-03 0.247D-02 0.554D-02-0.138D+00-0.213D+00 0.134D+01
 Coeff-En:   0.000D+00 0.000D+00 0.000D+00 0.000D+00 0.000D+00 0.100D+01
 Coeff:      0.498D-03 0.246D-02 0.552D-02-0.138D+00-0.213D+00 0.134D+01
 Gap=     0.502 Goal=   None    Shift=    0.000
 RMSDP=4.24D-05 MaxDP=1.15D-03 DE=-2.83D-04 OVMax= 5.31D-03

 Cycle   7  Pass 1  IDiag  1:
 E= -279.504556381174     Delta-E=       -0.000064495178 Rises=F Damp=F
 DIIS: error= 9.81D-05 at cycle   7 NSaved=   7.
 NSaved= 7 IEnMin= 7 EnMin= -279.504556381174     IErMin= 7 ErrMin= 9.81D-05
 ErrMax= 9.81D-05  0.00D+00 EMaxC= 1.00D-01 BMatC= 3.73D-06 BMatP= 1.57D-05
 IDIUse=1 WtCom= 1.00D+00 WtEn= 0.00D+00
 Coeff-Com: -0.899D-03 0.122D-01 0.244D-01-0.221D-01-0.260D+00 0.323D+00
 Coeff-Com:  0.923D+00
 Coeff:     -0.899D-03 0.122D-01 0.244D-01-0.221D-01-0.260D+00 0.323D+00
 Coeff:      0.923D+00
 Gap=     0.502 Goal=   None    Shift=    0.000
 RMSDP=1.24D-05 MaxDP=3.49D-04 DE=-6.45D-05 OVMax= 1.48D-03

 Cycle   8  Pass 1  IDiag  1:
 E= -279.504563994502     Delta-E=       -0.000007613328 Rises=F Damp=F
 DIIS: error= 5.59D-05 at cycle   8 NSaved=   8.
 NSaved= 8 IEnMin= 8 EnMin= -279.504563994502     IErMin= 8 ErrMin= 5.59D-05
 ErrMax= 5.59D-05  0.00D+00 EMaxC= 1.00D-01 BMatC= 5.38D-07 BMatP= 3.73D-06
 IDIUse=1 WtCom= 1.00D+00 WtEn= 0.00D+00
 Coeff-Com: -0.406D-03 0.299D-02 0.683D-02 0.265D-01-0.419D-01-0.189D+00
 Coeff-Com:  0.210D+00 0.985D+00
 Coeff:     -0.406D-03 0.299D-02 0.683D-02 0.265D-01-0.419D-01-0.189D+00
 Coeff:      0.210D+00 0.985D+00
 Gap=     0.502 Goal=   None    Shift=    0.000
 RMSDP=5.98D-06 MaxDP=1.85D-04 DE=-7.61D-06 OVMax= 6.50D-04

 Cycle   9  Pass 1  IDiag  1:
 E= -279.504565450285     Delta-E=       -0.000001455783 Rises=F Damp=F
 DIIS: error= 1.60D-05 at cycle   9 NSaved=   9.
 NSaved= 9 IEnMin= 9 EnMin= -279.504565450285     IErMin= 9 ErrMin= 1.60D-05
 ErrMax= 1.60D-05  0.00D+00 EMaxC= 1.00D-01 BMatC= 6.85D-08 BMatP= 5.38D-07
 IDIUse=1 WtCom= 1.00D+00 WtEn= 0.00D+00
 Coeff-Com:  0.107D-03-0.153D-02-0.275D-02-0.645D-03 0.327D-01-0.697D-02
 Coeff-Com: -0.177D+00-0.474D-01 0.120D+01
 Coeff:      0.107D-03-0.153D-02-0.275D-02-0.645D-03 0.327D-01-0.697D-02
 Coeff:     -0.177D+00-0.474D-01 0.120D+01
 Gap=     0.502 Goal=   None    Shift=    0.000
 RMSDP=1.84D-06 MaxDP=6.32D-05 DE=-1.46D-06 OVMax= 1.73D-04

 Cycle  10  Pass 1  IDiag  1:
 E= -279.504565602538     Delta-E=       -0.000000152253 Rises=F Damp=F
 DIIS: error= 4.29D-06 at cycle  10 NSaved=  10.
 NSaved=10 IEnMin=10 EnMin= -279.504565602538     IErMin=10 ErrMin= 4.29D-06
 ErrMax= 4.29D-06  0.00D+00 EMaxC= 1.00D-01 BMatC= 5.73D-09 BMatP= 6.85D-08
 IDIUse=1 WtCom= 1.00D+00 WtEn= 0.00D+00
 Coeff-Com:  0.342D-04-0.271D-03-0.399D-03-0.294D-02 0.266D-02 0.213D-01
 Coeff-Com: -0.216D-01-0.795D-01-0.665D-01 0.115D+01
 Coeff:      0.342D-04-0.271D-03-0.399D-03-0.294D-02 0.266D-02 0.213D-01
 Coeff:     -0.216D-01-0.795D-01-0.665D-01 0.115D+01
 Gap=     0.502 Goal=   None    Shift=    0.000
 RMSDP=5.21D-07 MaxDP=2.17D-05 DE=-1.52D-07 OVMax= 4.57D-05

 Cycle  11  Pass 1  IDiag  1:
 E= -279.504565615931     Delta-E=       -0.000000013393 Rises=F Damp=F
 DIIS: error= 2.01D-06 at cycle  11 NSaved=  11.
 NSaved=11 IEnMin=11 EnMin= -279.504565615931     IErMin=11 ErrMin= 2.01D-06
 ErrMax= 2.01D-06  0.00D+00 EMaxC= 1.00D-01 BMatC= 6.84D-10 BMatP= 5.73D-09
 IDIUse=1 WtCom= 1.00D+00 WtEn= 0.00D+00
 Coeff-Com: -0.212D-04 0.237D-03 0.481D-03 0.523D-03-0.453D-02-0.351D-02
 Coeff-Com:  0.245D-01 0.291D-01-0.140D+00-0.211D+00 0.130D+01
 Coeff:     -0.212D-04 0.237D-03 0.481D-03 0.523D-03-0.453D-02-0.351D-02
 Coeff:      0.245D-01 0.291D-01-0.140D+00-0.211D+00 0.130D+01
 Gap=     0.502 Goal=   None    Shift=    0.000
 RMSDP=1.88D-07 MaxDP=7.16D-06 DE=-1.34D-08 OVMax= 1.76D-05

 Cycle  12  Pass 1  IDiag  1:
 E= -279.504565617844     Delta-E=       -0.000000001912 Rises=F Damp=F
 DIIS: error= 5.41D-07 at cycle  12 NSaved=  12.
 NSaved=12 IEnMin=12 EnMin= -279.504565617844     IErMin=12 ErrMin= 5.41D-07
 ErrMax= 5.41D-07  0.00D+00 EMaxC= 1.00D-01 BMatC= 6.43D-11 BMatP= 6.84D-10
 IDIUse=1 WtCom= 1.00D+00 WtEn= 0.00D+00
 Coeff-Com:  0.919D-06-0.245D-04-0.540D-04 0.219D-03 0.974D-03-0.236D-02
 Coeff-Com: -0.393D-02 0.638D-02 0.399D-01-0.100D+00-0.285D+00 0.134D+01
 Coeff:      0.919D-06-0.245D-04-0.540D-04 0.219D-03 0.974D-03-0.236D-02
 Coeff:     -0.393D-02 0.638D-02 0.399D-01-0.100D+00-0.285D+00 0.134D+01
 Gap=     0.502 Goal=   None    Shift=    0.000
 RMSDP=6.99D-08 MaxDP=2.77D-06 DE=-1.91D-09 OVMax= 6.11D-06

 Cycle  13  Pass 1  IDiag  1:
 E= -279.504565618048     Delta-E=       -0.000000000204 Rises=F Damp=F
 DIIS: error= 1.53D-07 at cycle  13 NSaved=  13.
 NSaved=13 IEnMin=13 EnMin= -279.504565618048     IErMin=13 ErrMin= 1.53D-07
 ErrMax= 1.53D-07  0.00D+00 EMaxC= 1.00D-01 BMatC= 3.16D-12 BMatP= 6.43D-11
 IDIUse=1 WtCom= 1.00D+00 WtEn= 0.00D+00
 Coeff-Com:  0.120D-05-0.129D-04-0.216D-04-0.840D-04 0.144D-03 0.684D-03
 Coeff-Com: -0.103D-02-0.291D-02 0.754D-03 0.361D-01-0.314D-01-0.293D+00
 Coeff-Com:  0.129D+01
 Coeff:      0.120D-05-0.129D-04-0.216D-04-0.840D-04 0.144D-03 0.684D-03
 Coeff:     -0.103D-02-0.291D-02 0.754D-03 0.361D-01-0.314D-01-0.293D+00
 Coeff:      0.129D+01
 Gap=     0.502 Goal=   None    Shift=    0.000
 RMSDP=1.71D-08 MaxDP=4.56D-07 DE=-2.04D-10 OVMax= 1.39D-06

 Cycle  14  Pass 1  IDiag  1:
 E= -279.504565618057     Delta-E=       -0.000000000009 Rises=F Damp=F
 DIIS: error= 2.02D-08 at cycle  14 NSaved=  14.
 NSaved=14 IEnMin=14 EnMin= -279.504565618057     IErMin=14 ErrMin= 2.02D-08
 ErrMax= 2.02D-08  0.00D+00 EMaxC= 1.00D-01 BMatC= 1.50D-13 BMatP= 3.16D-12
 IDIUse=1 WtCom= 1.00D+00 WtEn= 0.00D+00
 Coeff-Com: -0.156D-06 0.256D-05 0.463D-05 0.248D-05-0.735D-04 0.467D-04
 Coeff-Com:  0.289D-03 0.140D-03-0.220D-02 0.992D-03 0.157D-01-0.261D-01
 Coeff-Com: -0.187D+00 0.120D+01
 Coeff:     -0.156D-06 0.256D-05 0.463D-05 0.248D-05-0.735D-04 0.467D-04
 Coeff:      0.289D-03 0.140D-03-0.220D-02 0.992D-03 0.157D-01-0.261D-01
 Coeff:     -0.187D+00 0.120D+01
 Gap=     0.502 Goal=   None    Shift=    0.000
 RMSDP=3.39D-09 MaxDP=8.59D-08 DE=-9.44D-12 OVMax= 3.06D-07

 SCF Done:  E(RHF) =  -279.504565618     A.U. after   14 cycles
            NFock= 14  Conv=0.34D-08     -V/T= 2.0022
 KE= 2.789020325670D+02 PE=-8.969077483853D+02 EE= 2.207153087134D+02
 Leave Link  502 at Mon Feb 21 20:21:08 2022, MaxMem= 16106127360 cpu:              56.2 elap:               3.6
 (Enter /sw/contrib/gaussian/g16/B01/g16/l801.exe)
 ExpMin= 2.53D-02 ExpMax= 1.53D+04 ExpMxC= 5.22D+02 IAcc=3 IRadAn=         5 AccDes= 0.00D+00
 HarFok:  IExCor=  205 AccDes= 0.00D+00 IRadAn=         5 IDoV=-2 UseB2=F ITyADJ=14
 ICtDFT= 12500011 ScaDFX=  1.000000  1.000000  1.000000  1.000000
 Largest valence mixing into a core orbital is  2.07D-04
 Largest core mixing into a valence orbital is  3.52D-05
 Range of M.O.s used for correlation:     5   207
 NBasis=   207 NAE=    16 NBE=    16 NFC=     4 NFV=     0
 NROrb=    203 NOA=    12 NOB=    12 NVA=   191 NVB=   191

 **** Warning!!: The largest alpha MO coefficient is  0.17991276D+02

 Leave Link  801 at Mon Feb 21 20:21:08 2022, MaxMem= 16106127360 cpu:               2.6 elap:               0.1
 (Enter /sw/contrib/gaussian/g16/B01/g16/l906.exe)
 Frozen-core derivative calculation, NFC=   4 NFV=   0.
 FulOut=F Deriv=T AODrv=T NAtomX=     5
   MMem=           0  MDisk=          12 MDiskD=          12
  W3Min=      811440 MinDsk=     2425030 NBas6D=         245
 NBas2D=       30762    NTT=       30135    LW2=     7400000
    MDV= 16105574227 MDiskM=      328644 NBas2p=       30702
 Disk-based method using ON**2 memory for 12 occupieds at a time.
 Permanent disk used for amplitudes=    11516536 words.
 Estimated scratch disk usage=   321251614 words.
 IMap=   1   2   3   4   5   6   7   8   9  10  11  12  13  14  15  16
 Actual    scratch disk usage=   310331678 words.
 JobTyp=1 Pass  1:  I=   5 to  16 NPSUse= 28 ParTrn=T ParDer=T DoDerP=T.
 (rs|ai) integrals will be sorted in core.
 Spin components of T(2) and E(2):
     alpha-alpha T2 =       0.3363559955D-01 E2=     -0.1220430474D+00
     alpha-beta  T2 =       0.1845804590D+00 E2=     -0.6978400384D+00
     beta-beta   T2 =       0.3363559955D-01 E2=     -0.1220430474D+00
 The integrals were generated   1 times.
 ANorm=    0.1118861769D+01
 E2 =    -0.9419261331D+00 EUMP2 =    -0.28044649175117D+03
 Leave Link  906 at Mon Feb 21 20:22:46 2022, MaxMem= 16106127360 cpu:            2723.3 elap:              97.4
 (Enter /sw/contrib/gaussian/g16/B01/g16/l1101.exe)
 Using compressed Sx but separate Hx and Fx, NAtomX=     5.
 Will process      6 centers per pass.
 Leave Link 1101 at Mon Feb 21 20:22:46 2022, MaxMem= 16106127360 cpu:               6.3 elap:               0.3
 (Enter /sw/contrib/gaussian/g16/B01/g16/l1102.exe)
 Leave Link 1102 at Mon Feb 21 20:22:46 2022, MaxMem= 16106127360 cpu:               2.1 elap:               0.1
 (Enter /sw/contrib/gaussian/g16/B01/g16/l1110.exe)
 Forming Gx(P) for the SCF density, NAtomX=     5.
 Integral derivatives from FoFJK, PRISM(SPDF).
 Do as many integral derivatives as possible in FoFJK.
 G2DrvN: MDV=   16106126844.
 G2DrvN: will do     6 centers at a time, making    1 passes.
 Calling FoFCou, ICntrl=  3107 FMM=F I1Cent=   0 AccDes= 0.00D+00.
 FoFJK:  IHMeth= 1 ICntrl=    3107 DoSepK=F KAlg= 0 I1Cent=           0 FoldK=F
 IRaf=         0 NMat=       1 IRICut=       1 DoRegI=T DoRafI=F ISym2E= 1 IDoP0=0 IntGTp=1.
 FoFCou: FMM=F IPFlag=           0 FMFlag=      100000 FMFlg1=           0
         NFxFlg=           0 DoJE=F BraDBF=F KetDBF=F FulRan=T
         wScrn=  0.000000 ICntrl=      3107 IOpCl=  0 I1Cent=           0 NGrid=           0
         NMat0=    1 NMatS0=      1 NMatT0=    0 NMatD0=    1 NMtDS0=    0 NMtDT0=    0
 Petite list used in FoFCou.
 End of G2Drv F.D. properties file   721 does not exist.
 End of G2Drv F.D. properties file   722 does not exist.
 End of G2Drv F.D. properties file   788 does not exist.
 Leave Link 1110 at Mon Feb 21 20:22:49 2022, MaxMem= 16106127360 cpu:              84.0 elap:               3.0
 (Enter /sw/contrib/gaussian/g16/B01/g16/l1002.exe)
 Minotr:  Closed shell wavefunction.
          IDoAtm=11111
          Frozen-core window.
          Direct CPHF calculation.
          Differentiating once with respect to electric field.
                with respect to dipole field.
          Differentiating once with respect to nuclear coordinates.
          Requested convergence is 1.0D-08 RMS, and 1.0D-07 maximum.
          Secondary convergence is 1.0D-12 RMS, and 1.0D-12 maximum.
          NewPWx=T KeepS1=T KeepF1=T KeepIn=T MapXYZ=F SortEE=F KeepMc=T.
 Keep R1 ints in memory in symmetry-blocked form, NReq=348888983.
 FoFCou: FMM=F IPFlag=           0 FMFlag=           0 FMFlg1=           0
         NFxFlg=           0 DoJE=F BraDBF=F KetDBF=F FulRan=T
         wScrn=  0.000000 ICntrl=       600 IOpCl=  0 I1Cent=           0 NGrid=           0
         NMat0=    1 NMatS0=  21528 NMatT0=    0 NMatD0=    1 NMtDS0=    0 NMtDT0=    0
 Petite list used in FoFCou.
          MDV=   16106127360 using IRadAn=       1.
          Solving linear equations simultaneously, MaxMat=       0.
          There are    18 degrees of freedom in the 1st order CPHF.  IDoFFX=6 NUNeed=    18.
     15 vectors produced by pass  0 Test12= 1.70D-14 5.56D-09 XBig12= 8.24D+00 1.00D+00.
 AX will form    15 AO Fock derivatives at one time.
     15 vectors produced by pass  1 Test12= 1.70D-14 5.56D-09 XBig12= 1.30D+00 2.07D-01.
     15 vectors produced by pass  2 Test12= 1.70D-14 5.56D-09 XBig12= 1.32D-01 9.01D-02.
     15 vectors produced by pass  3 Test12= 1.70D-14 5.56D-09 XBig12= 4.47D-03 9.99D-03.
     15 vectors produced by pass  4 Test12= 1.70D-14 5.56D-09 XBig12= 8.94D-05 1.69D-03.
     15 vectors produced by pass  5 Test12= 1.70D-14 5.56D-09 XBig12= 1.22D-06 1.46D-04.
     15 vectors produced by pass  6 Test12= 1.70D-14 5.56D-09 XBig12= 9.65D-09 1.44D-05.
     12 vectors produced by pass  7 Test12= 1.70D-14 5.56D-09 XBig12= 6.97D-11 1.18D-06.
      3 vectors produced by pass  8 Test12= 1.70D-14 5.56D-09 XBig12= 5.09D-13 1.16D-07.
      2 vectors produced by pass  9 Test12= 1.70D-14 5.56D-09 XBig12= 3.59D-15 1.02D-08.
 InvSVY:  IOpt=1 It=  1 EMax= 6.66D-16
 Solved reduced A of dimension   122 with    15 vectors.
 FullF1:  Do perturbations      1 to      18.
 Saving first derivative matrices.
 End of Minotr F.D. properties file   721 does not exist.
 End of Minotr F.D. properties file   722 does not exist.
 End of Minotr F.D. properties file   788 does not exist.
 Leave Link 1002 at Mon Feb 21 20:22:52 2022, MaxMem= 16106127360 cpu:              80.7 elap:               2.9
 (Enter /sw/contrib/gaussian/g16/B01/g16/l811.exe)
 MDV= 16106127360.
 Form MO integral derivatives with frozen-active canonical formalism.
 MOERI=1 MOERIx=1 NAtoms=     5 NAtomX=     5.
 Discarding MO integrals.
 MO basis two electron integral derivatives will not be stored on disk.
 IAlg= 3 DoFC=T DoPWx=T Debug=F.
 Frozen-core window:  NFC=   4 NFV=   0.
 Reordered first order wavefunction length =     18678272
 In DefCFB: NBatch=  1 ICI= 16 ICA=191 LFMax= 96
            Large arrays: LIAPS=   619940160 LIARS=   288257200 words.
 In StABat: MaxSiz= 55 MinSiz= 25 NAtomB=  5
 DoIAMN: NPSUse= 28.
 Leave Link  811 at Mon Feb 21 20:24:13 2022, MaxMem= 16106127360 cpu:            2243.0 elap:              80.3
 (Enter /sw/contrib/gaussian/g16/B01/g16/l804.exe)
 Frozen-core window:  NFC=   4 NFV=   0.
 Closed-shell transformation, MDV= 16106127360 ITran=4 ISComp=1.
 Semi-Direct transformation.
 ModeAB=           2 MOrb=            16 LenV=   16104922911
 LASXX=     67341636 LTotXX=    67341636 LenRXX=    67341636
 LTotAB=    68301760 MaxLAS=    99807120 LenRXY=    99807120
 NonZer=   134683272 LenScr=   202817536 LnRSAI=           0
 LnScr1=           0 LExtra=           0 Total=    369966292
 MaxDsk=          -1 SrtSym=           F ITran=            4
 DoSDTr:  NPSUse= 28
 JobTyp=0 Pass  1:  I=   1 to  16.
 (rs|ai) integrals will be sorted in core.
 Complete sort for first half transformation.
 First half transformation complete.
 Begin second half transformation for I=  10.
 Begin second half transformation for I=  10.
 Complete sort for second half transformation.
 Second half transformation complete.
 Spin components of T(2) and E(2):
     alpha-alpha T2 =       0.3363559955D-01 E2=     -0.1220430474D+00
     alpha-beta  T2 =       0.1845804590D+00 E2=     -0.6978400384D+00
     beta-beta   T2 =       0.3363559955D-01 E2=     -0.1220430474D+00
 ANorm=    0.1582309488D+01
 E2 =    -0.9419261331D+00 EUMP2 =    -0.28044649175117D+03
 Leave Link  804 at Mon Feb 21 20:24:28 2022, MaxMem= 16106127360 cpu:             430.2 elap:              15.4
 (Enter /sw/contrib/gaussian/g16/B01/g16/l1002.exe)
 Minotr:  Closed shell wavefunction.
          Computing MP2/KS-MP2 derivatives.
          Using Z-Vector for PSCF gradient.
          Skipping F1 and S1 gradient terms here.
          IDoAtm=11111
          Frozen-core window.
          Using MO integrals in the linear equations.
          Forming densities via direct SCF.
          Differentiating once with respect to electric field.
                with respect to dipole field.
          Differentiating once with respect to nuclear coordinates.
          Using symmetry in CPHF.
          Requested convergence is 1.0D-10 RMS, and 1.0D-09 maximum.
          NewPWx=F KeepS1=T KeepF1=T KeepIn=T MapXYZ=F SortEE=F KeepMc=T.
          MDV=   16106127360 using IRadAn=       5.
          Solving linear equations separately, MaxMat=       0.
          There are     1 degrees of freedom in the 1st order CPHF.  IDoFFX=0 NUNeed=     1.
 FoFJK:  IHMeth= 1 ICntrl=       0 DoSepK=F KAlg= 0 I1Cent=           0 FoldK=F
 IRaf=         0 NMat=       1 IRICut=       1 DoRegI=T DoRafI=F ISym2E= 0 IDoP0=0 IntGTp=1.
 FoFCou: FMM=F IPFlag=           0 FMFlag=      100000 FMFlg1=           0
         NFxFlg=           0 DoJE=F BraDBF=F KetDBF=F FulRan=T
         wScrn=  0.000000 ICntrl=         0 IOpCl=  0 I1Cent=           0 NGrid=           0
         NMat0=    1 NMatS0=      1 NMatT0=    0 NMatD0=    1 NMtDS0=    0 NMtDT0=    0
 Symmetry not used in FoFCou.
 LinEq1:  Iter=  0 NonCon=     1 RMS=5.83D-03 Max=1.33D-01 NDo=     1
 LinEq1:  Iter=  1 NonCon=     1 RMS=1.81D-03 Max=3.55D-02 NDo=     1
 LinEq1:  Iter=  2 NonCon=     1 RMS=8.21D-04 Max=1.20D-02 NDo=     1
 LinEq1:  Iter=  3 NonCon=     1 RMS=3.63D-04 Max=7.76D-03 NDo=     1
 LinEq1:  Iter=  4 NonCon=     1 RMS=1.12D-04 Max=1.41D-03 NDo=     1
 LinEq1:  Iter=  5 NonCon=     1 RMS=4.33D-05 Max=6.90D-04 NDo=     1
 LinEq1:  Iter=  6 NonCon=     1 RMS=1.95D-05 Max=2.18D-04 NDo=     1
 LinEq1:  Iter=  7 NonCon=     1 RMS=7.64D-06 Max=1.37D-04 NDo=     1
 LinEq1:  Iter=  8 NonCon=     1 RMS=3.27D-06 Max=2.92D-05 NDo=     1
 LinEq1:  Iter=  9 NonCon=     1 RMS=8.81D-07 Max=1.10D-05 NDo=     1
 LinEq1:  Iter= 10 NonCon=     1 RMS=1.67D-07 Max=1.74D-06 NDo=     1
 LinEq1:  Iter= 11 NonCon=     1 RMS=3.03D-08 Max=3.01D-07 NDo=     1
 LinEq1:  Iter= 12 NonCon=     1 RMS=7.28D-09 Max=1.08D-07 NDo=     1
 LinEq1:  Iter= 13 NonCon=     1 RMS=1.34D-09 Max=2.13D-08 NDo=     1
 LinEq1:  Iter= 14 NonCon=     1 RMS=2.38D-10 Max=2.98D-09 NDo=     1
 LinEq1:  Iter= 15 NonCon=     0 RMS=4.33D-11 Max=4.31D-10 NDo=     1
 Linear equations converged to 1.000D-10 1.000D-09 after    15 iterations.
 End of Minotr F.D. properties file   721 does not exist.
 End of Minotr F.D. properties file   722 does not exist.
 End of Minotr F.D. properties file   788 does not exist.
 Leave Link 1002 at Mon Feb 21 20:24:30 2022, MaxMem= 16106127360 cpu:              65.6 elap:               2.4
 (Enter /sw/contrib/gaussian/g16/B01/g16/l1102.exe)
 Use density number 2.
 Symmetrizing basis deriv contribution to polar:
 IMax=3 JMax=2 DiffMx= 0.00D+00
 Leave Link 1102 at Mon Feb 21 20:24:31 2022, MaxMem= 16106127360 cpu:               0.6 elap:               0.0
 (Enter /sw/contrib/gaussian/g16/B01/g16/l1110.exe)
 Forming Gx(P) for generalized density number  2 NAtomX=     5.
 Integral derivatives from FoFJK, PRISM(SPDF).
 Do as many integral derivatives as possible in FoFJK.
 G2DrvN: MDV=   16106126844.
 G2DrvN: will do     6 centers at a time, making    1 passes.
 Calling FoFCou, ICntrl=  3107 FMM=F I1Cent=   0 AccDes= 0.00D+00.
 FoFJK:  IHMeth= 1 ICntrl=    3107 DoSepK=F KAlg= 0 I1Cent=           0 FoldK=F
 IRaf=         0 NMat=       1 IRICut=       1 DoRegI=T DoRafI=F ISym2E= 1 IDoP0=0 IntGTp=1.
 FoFCou: FMM=F IPFlag=           0 FMFlag=      100000 FMFlg1=           0
         NFxFlg=           0 DoJE=F BraDBF=F KetDBF=F FulRan=T
         wScrn=  0.000000 ICntrl=      3107 IOpCl=  0 I1Cent=           0 NGrid=           0
         NMat0=    1 NMatS0=      1 NMatT0=    0 NMatD0=    1 NMtDS0=    0 NMtDT0=    0
 Petite list used in FoFCou.
 End of G2Drv F.D. properties file   721 does not exist.
 End of G2Drv F.D. properties file   722 does not exist.
 End of G2Drv F.D. properties file   788 does not exist.
 Leave Link 1110 at Mon Feb 21 20:24:34 2022, MaxMem= 16106127360 cpu:              84.4 elap:               3.1
 (Enter /sw/contrib/gaussian/g16/B01/g16/l1112.exe)
 MP22nd: MDV=   16106127360
 This link is doing NAtomX=     5 total of    18 degrees of freedom.
 Using ON3 I/O method in MakUI.
 Frozen-core window:  NFC=   4 NFV=   0.
 Using Ix for Sx.
 Use MO integrals over full window.
 Using OV2 memory method for fx*t*t/D, MaxI=    16 DoOO2=F NP=  28.
 R2 and R3 integrals will be kept in memory, NReq=   915591705.
 FoFCou: FMM=F IPFlag=           0 FMFlag=           0 FMFlg1=           0
         NFxFlg=           0 DoJE=F BraDBF=F KetDBF=F FulRan=T
         wScrn=  0.000000 ICntrl=       600 IOpCl=  0 I1Cent=           0 NGrid=           0
         NMat0=    1 NMatS0=      1 NMatT0=    0 NMatD0=    1 NMtDS0=    0 NMtDT0=    0
 Symmetry not used in FoFCou.
 DD1Dir will call FoFMem   1 times, MxPair=       272
 NAB=   136 NAA=     0 NBB=     0.
 Symmetry is being used.
 FoFJK:  IHMeth= 1 ICntrl=       0 DoSepK=F KAlg= 0 I1Cent=           0 FoldK=F
 IRaf=         0 NMat=      18 IRICut=      45 DoRegI=T DoRafI=T ISym2E= 2 IDoP0=3 IntGTp=3.
 Discarding MO integrals.
 Leave Link 1112 at Mon Feb 21 20:25:13 2022, MaxMem= 16106127360 cpu:            1092.0 elap:              39.5
 (Enter /sw/contrib/gaussian/g16/B01/g16/l601.exe)
 Copying SCF densities to generalized density rwf, IOpCl= 0 IROHF=0.

 **********************************************************************

            Population analysis using the MP2 Density.

 **********************************************************************

 Orbital symmetries:
       Occupied  (A') (A') (A') (A') (A') (A') (A') (A') (A') (A')
                 (A") (A') (A") (A') (A") (A')
       Virtual   (A') (A") (A') (A') (A') (A") (A') (A') (A") (A')
                 (A") (A') (A') (A') (A") (A') (A") (A') (A') (A')
                 (A') (A') (A') (A') (A") (A') (A') (A") (A') (A')
                 (A") (A') (A") (A') (A') (A") (A') (A") (A') (A")
                 (A') (A') (A") (A') (A') (A") (A') (A') (A") (A')
                 (A") (A') (A') (A') (A") (A') (A") (A') (A") (A')
                 (A') (A') (A") (A') (A') (A") (A') (A") (A') (A')
                 (A") (A') (A') (A") (A") (A') (A') (A") (A') (A')
                 (A') (A") (A') (A") (A") (A') (A') (A") (A') (A')
                 (A") (A') (A') (A") (A') (A") (A') (A") (A') (A')
                 (A") (A') (A") (A') (A') (A') (A") (A') (A") (A')
                 (A") (A') (A') (A') (A") (A') (A') (A') (A') (A")
                 (A") (A') (A") (A') (A') (A") (A") (A') (A") (A')
                 (A') (A') (A') (A") (A") (A") (A') (A') (A') (A')
                 (A") (A') (A") (A') (A') (A") (A') (A') (A') (A')
                 (A") (A') (A') (A") (A') (A") (A') (A") (A') (A")
                 (A') (A") (A') (A") (A') (A") (A") (A') (A") (A')
                 (A") (A') (A") (A') (A") (A') (A") (A") (A') (A')
                 (A') (A') (A') (A') (A') (A') (A') (A') (A') (A')
                 (A')
 The electronic state is 1-A'.
 Alpha  occ. eigenvalues --  -20.69647 -20.67639 -20.66400 -15.80757  -1.62661
 Alpha  occ. eigenvalues --   -1.50009  -1.26442  -0.94578  -0.77553  -0.76329
 Alpha  occ. eigenvalues --   -0.71790  -0.67767  -0.61869  -0.59108  -0.48847
 Alpha  occ. eigenvalues --   -0.47359
 Alpha virt. eigenvalues --    0.02872   0.07595   0.08651   0.10206   0.13365
 Alpha virt. eigenvalues --    0.13409   0.14342   0.15388   0.17753   0.19420
 Alpha virt. eigenvalues --    0.19999   0.21019   0.21976   0.23395   0.23781
 Alpha virt. eigenvalues --    0.26611   0.30317   0.30319   0.31544   0.34586
 Alpha virt. eigenvalues --    0.35141   0.38951   0.42074   0.43059   0.52890
 Alpha virt. eigenvalues --    0.53060   0.56224   0.58341   0.62833   0.64028
 Alpha virt. eigenvalues --    0.67532   0.68431   0.70509   0.71040   0.72377
 Alpha virt. eigenvalues --    0.72720   0.74364   0.79086   0.79370   0.81046
 Alpha virt. eigenvalues --    0.81165   0.83233   0.87065   0.90840   0.92071
 Alpha virt. eigenvalues --    0.92875   0.95348   0.98214   0.98336   1.01381
 Alpha virt. eigenvalues --    1.05359   1.05643   1.08553   1.12018   1.14469
 Alpha virt. eigenvalues --    1.19122   1.22164   1.23359   1.34264   1.35663
 Alpha virt. eigenvalues --    1.38239   1.45851   1.48797   1.50734   1.54016
 Alpha virt. eigenvalues --    1.57071   1.58627   1.61496   1.66620   1.67042
 Alpha virt. eigenvalues --    1.70634   1.79335   1.83311   1.84044   1.87761
 Alpha virt. eigenvalues --    1.91416   1.95636   1.99883   2.00829   2.08853
 Alpha virt. eigenvalues --    2.12439   2.13665   2.14538   2.23089   2.26228
 Alpha virt. eigenvalues --    2.26416   2.29571   2.31530   2.35238   2.38583
 Alpha virt. eigenvalues --    2.42913   2.43620   2.45907   2.46702   2.48192
 Alpha virt. eigenvalues --    2.50641   2.58661   2.59939   2.62733   2.62890
 Alpha virt. eigenvalues --    2.63212   2.67188   2.76310   2.83887   2.86999
 Alpha virt. eigenvalues --    2.89218   2.89640   2.95043   2.95967   3.03812
 Alpha virt. eigenvalues --    3.08047   3.13268   3.19952   3.23563   3.32259
 Alpha virt. eigenvalues --    3.35166   3.52210   3.65593   3.85359   3.85403
 Alpha virt. eigenvalues --    4.14882   4.15676   4.18948   4.27259   4.35144
 Alpha virt. eigenvalues --    4.39480   4.46164   4.52327   4.67379   4.71457
 Alpha virt. eigenvalues --    4.81121   4.82445   4.85182   4.89893   5.03421
 Alpha virt. eigenvalues --    5.08744   5.11433   5.14395   5.18814   5.25148
 Alpha virt. eigenvalues --    5.28345   5.31556   5.33380   5.36913   5.61258
 Alpha virt. eigenvalues --    5.67963   5.78816   5.82706   5.96438   6.18299
 Alpha virt. eigenvalues --    6.30930   6.35100   6.40337   6.50140   6.51256
 Alpha virt. eigenvalues --    6.61506   6.66625   6.71267   6.75492   6.76277
 Alpha virt. eigenvalues --    6.84130   6.90990   7.02257   7.05427   7.06263
 Alpha virt. eigenvalues --    7.08979   7.13466   7.15917   7.18311   7.23937
 Alpha virt. eigenvalues --    7.23955   7.30182   7.33102   7.35595   7.40928
 Alpha virt. eigenvalues --    7.44645   7.49354   7.61417   7.63220   7.65477
 Alpha virt. eigenvalues --    7.68785   7.80192   7.89725   8.13320   8.32861
 Alpha virt. eigenvalues --    8.40881   8.56069  13.49095  14.58261  15.19159
 Alpha virt. eigenvalues --   16.22037
          Condensed to atoms (all electrons):
               1          2          3          4          5
     1  H    0.588988   0.128173   0.020312   0.012646  -0.000624
     2  O    0.128173   8.322203  -0.170836  -0.096587   0.016390
     3  O    0.020312  -0.170836   8.460825  -0.139262  -0.045711
     4  N    0.012646  -0.096587  -0.139262   7.001491  -0.060073
     5  O   -0.000624   0.016390  -0.045711  -0.060073   8.297636
 Mulliken charges:
               1
     1  H    0.250505
     2  O   -0.199343
     3  O   -0.125328
     4  N    0.281785
     5  O   -0.207619
 Sum of Mulliken charges =  -0.00000
 Mulliken charges with hydrogens summed into heavy atoms:
               1
     2  O    0.051162
     3  O   -0.125328
     4  N    0.281785
     5  O   -0.207619
 APT charges:
               1
     1  H    0.300279
     2  O   -0.281308
     3  O   -0.475179
     4  N    0.855254
     5  O   -0.399046
 Sum of APT charges =  -0.00000
 APT charges with hydrogens summed into heavy atoms:
               1
     2  O    0.018971
     3  O   -0.475179
     4  N    0.855254
     5  O   -0.399046
 Electronic spatial extent (au):  <R**2>=            249.4993
 Charge=             -0.0000 electrons
 Dipole moment (field-independent basis, Debye):
    X=              0.6595    Y=              1.5480    Z=              0.0000  Tot=              1.6826
 Quadrupole moment (field-independent basis, Debye-Ang):
   XX=            -22.5264   YY=            -18.7543   ZZ=            -21.9626
   XY=              3.1934   XZ=             -0.0000   YZ=             -0.0000
 Traceless Quadrupole moment (field-independent basis, Debye-Ang):
   XX=             -1.4453   YY=              2.3268   ZZ=             -0.8815
   XY=              3.1934   XZ=             -0.0000   YZ=             -0.0000
 Octapole moment (field-independent basis, Debye-Ang**2):
  XXX=              3.5105  YYY=             11.3480  ZZZ=             -0.0000  XYY=              7.9583
  XXY=              6.8432  XXZ=              0.0000  XZZ=             -1.5219  YZZ=             -0.7285
  YYZ=              0.0000  XYZ=              0.0000
 Hexadecapole moment (field-independent basis, Debye-Ang**3):
 XXXX=           -158.6312 YYYY=            -86.5284 ZZZZ=            -18.1449 XXXY=            -35.6106
 XXXZ=             -0.0000 YYYX=            -30.1947 YYYZ=             -0.0000 ZZZX=             -0.0000
 ZZZY=             -0.0000 XXYY=            -33.5713 XXZZ=            -30.8927 YYZZ=            -19.9779
 XXYZ=             -0.0000 YYXZ=             -0.0000 ZZXY=            -14.7022
 N-N= 1.177858414868D+02 E-N=-8.976643141431D+02  KE= 2.802410446534D+02
 Symmetry A'   KE= 2.662575516230D+02
 Symmetry A"   KE= 1.398349303037D+01
  Exact polarizability:  34.034   9.285  29.579   0.000   0.000  17.819
 Approx polarizability:  28.862   4.896  22.813   0.000   0.000  15.471
 No NMR shielding tensors so no spin-rotation constants.
 Leave Link  601 at Mon Feb 21 20:25:14 2022, MaxMem= 16106127360 cpu:              10.3 elap:               0.5
 (Enter /sw/contrib/gaussian/g16/B01/g16/l701.exe)
 ... and contract with generalized density number  2.
 Compute integral second derivatives.
 Leave Link  701 at Mon Feb 21 20:25:14 2022, MaxMem= 16106127360 cpu:               6.3 elap:               0.2
 (Enter /sw/contrib/gaussian/g16/B01/g16/l702.exe)
 L702 exits ... SP integral derivatives will be done elsewhere.
 Leave Link  702 at Mon Feb 21 20:25:14 2022, MaxMem= 16106127360 cpu:               0.4 elap:               0.0
 (Enter /sw/contrib/gaussian/g16/B01/g16/l703.exe)
 Integral derivatives from FoFJK, PRISM(SPDF).
 Compute integral second derivatives, UseDBF=F ICtDFT=           0.
 Calling FoFJK, ICntrl=  10100127 FMM=F ISym2X=1 I1Cent= 0 IOpClX= 0 NMat=1 NMatS=1 NMatT=0.
 FoFJK:  IHMeth= 1 ICntrl=10100127 DoSepK=F KAlg= 0 I1Cent=           0 FoldK=F
 IRaf=         0 NMat=       1 IRICut=       1 DoRegI=T DoRafI=F ISym2E= 1 IDoP0=0 IntGTp=1.
 FoFCou: FMM=F IPFlag=           0 FMFlag=      100000 FMFlg1=         800
         NFxFlg=           0 DoJE=F BraDBF=F KetDBF=F FulRan=T
         wScrn=  0.000000 ICntrl=  10100127 IOpCl=  0 I1Cent=           0 NGrid=           0
         NMat0=    1 NMatS0=      1 NMatT0=    0 NMatD0=    1 NMtDS0=    0 NMtDT0=    0
 Petite list used in FoFCou.
 Leave Link  703 at Mon Feb 21 20:25:29 2022, MaxMem= 16106127360 cpu:             421.1 elap:              15.1
 (Enter /sw/contrib/gaussian/g16/B01/g16/l716.exe)
 Dipole        = 2.59484846D-01 6.09014910D-01 1.75755573D-31
 Polarizability= 3.40339939D+01 9.28523916D+00 2.95788746D+01
                 2.85667705D-30 8.16658850D-30 1.78185816D+01
 Full mass-weighted force constant matrix:
 Low frequencies --- -260.5425  -99.2584  -56.3690  -52.2117   -0.0015   -0.0011
 Low frequencies ---   -0.0011  217.1840  352.0830
 ******    1 imaginary frequencies (negative Signs) ****** 
 Diagonal vibrational polarizability:
       10.8763663      17.9660975      49.7367987
 Harmonic frequencies (cm**-1), IR intensities (KM/Mole), Raman scattering
 activities (A**4/AMU), depolarization ratios for plane and unpolarized
 incident light, reduced masses (AMU), force constants (mDyne/A),
 and normal coordinates:
                      1                      2                      3
                     A"                     A"                     A'
 Frequencies --   -260.3431               214.5872               351.9550
 Red. masses --      1.1476                10.0228                 8.6728
 Frc consts  --      0.0458                 0.2719                 0.6330
 IR Inten    --    123.8403                 0.9693                 2.1523
  Atom  AN      X      Y      Z        X      Y      Z        X      Y      Z
     1   1     0.00   0.00   1.00     0.00   0.00  -0.60     0.53  -0.45   0.00
     2   8    -0.00   0.00  -0.07    -0.00   0.00  -0.30    -0.10  -0.38  -0.00
     3   8     0.00  -0.00  -0.04    -0.00  -0.00   0.32    -0.15   0.41   0.00
     4   7    -0.00  -0.00   0.06     0.00  -0.00   0.51     0.05   0.28   0.00
     5   8    -0.00   0.00  -0.01    -0.00   0.00  -0.43     0.17  -0.25  -0.00
                      4                      5                      6
                     A'                     A'                     A'
 Frequencies --    518.8453               812.6605               972.2587
 Red. masses --     12.3050                12.3981                15.1869
 Frc consts  --      1.9517                 4.8242                 8.4583
 IR Inten    --    158.0987               201.5758                26.9961
  Atom  AN      X      Y      Z        X      Y      Z        X      Y      Z
     1   1     0.43   0.18  -0.00    -0.39   0.18  -0.00    -0.20  -0.03   0.00
     2   8     0.36   0.19   0.00     0.40   0.07  -0.00    -0.50   0.03  -0.00
     3   8     0.16   0.43  -0.00    -0.09  -0.31   0.00     0.75  -0.03   0.00
     4   7    -0.36  -0.33  -0.00    -0.10   0.63   0.00    -0.13   0.26   0.00
     5   8    -0.23  -0.34   0.00    -0.19  -0.32  -0.00    -0.12  -0.23  -0.00
                      7                      8                      9
                     A'                     A'                     A'
 Frequencies --   1377.6841              1693.2344              3779.3888
 Red. masses --      1.1390                13.1011                 1.0675
 Frc consts  --      1.2737                22.1306                 8.9840
 IR Inten    --    159.0485               125.5353                81.8854
  Atom  AN      X      Y      Z        X      Y      Z        X      Y      Z
     1   1     0.99  -0.06   0.00    -0.36   0.01  -0.00     0.11   0.99  -0.00
     2   8    -0.03   0.05   0.00    -0.00  -0.04  -0.00    -0.01  -0.06   0.00
     3   8    -0.02  -0.05  -0.00     0.00   0.15   0.00     0.00   0.00   0.00
     4   7     0.02   0.01  -0.00     0.70  -0.05   0.00    -0.00  -0.00  -0.00
     5   8    -0.03  -0.01   0.00    -0.59  -0.06  -0.00     0.00   0.00  -0.00

 -------------------
 - Thermochemistry -
 -------------------
 Temperature   298.150 Kelvin.  Pressure   1.00000 Atm.
 Atom     1 has atomic number  1 and mass   1.00783
 Atom     2 has atomic number  8 and mass  15.99491
 Atom     3 has atomic number  8 and mass  15.99491
 Atom     4 has atomic number  7 and mass  14.00307
 Atom     5 has atomic number  8 and mass  15.99491
 Molecular mass:    62.99564 amu.
 Principal axes and moments of inertia in atomic units:
                           1         2         3
     Eigenvalues --    31.99512 354.19584 386.19096
           X            0.81853  -0.57446   0.00000
           Y            0.57446   0.81853   0.00000
           Z            0.00000  -0.00000   1.00000
 This molecule is an asymmetric top.
 Rotational symmetry number  1.
 Rotational temperatures (Kelvin)      2.70710     0.24454     0.22428
 Rotational constants (GHZ):          56.40676     5.09532     4.67318
    1 imaginary frequencies ignored.
 Zero-point vibrational energy      58142.2 (Joules/Mol)
                                   13.89632 (Kcal/Mol)
 Warning -- explicit consideration of   3 degrees of freedom as
           vibrations may cause significant error
 Vibrational temperatures:    308.74   506.38   746.50  1169.24  1398.86
          (Kelvin)           1982.18  2436.19  5437.70
 
 Zero-point correction=                           0.022145 (Hartree/Particle)
 Thermal correction to Energy=                    0.026212
 Thermal correction to Enthalpy=                  0.027156
 Thermal correction to Gibbs Free Energy=        -0.003936
 Sum of electronic and zero-point Energies=           -280.424347
 Sum of electronic and thermal Energies=              -280.420280
 Sum of electronic and thermal Enthalpies=            -280.419336
 Sum of electronic and thermal Free Energies=         -280.450428
 
                     E (Thermal)             CV                S
                      KCal/Mol        Cal/Mol-Kelvin    Cal/Mol-Kelvin
 Total                   16.448             11.750             65.438
 Electronic               0.000              0.000              0.000
 Translational            0.889              2.981             38.341
 Rotational               0.889              2.981             22.997
 Vibrational             14.671              5.789              4.101
 Vibration     1          0.645              1.819              2.004
 Vibration     2          0.729              1.571              1.157
 Vibration     3          0.874              1.208              0.613
                       Q            Log10(Q)             Ln(Q)
 Total Bot       0.646272D+02          1.810415          4.168636
 Total V=0       0.991941D+12         11.996486         27.622930
 Vib (Bot)       0.138863D-09         -9.857414        -22.697536
 Vib (Bot)    1  0.923855D+00         -0.034396         -0.079201
 Vib (Bot)    2  0.523546D+00         -0.281045         -0.647130
 Vib (Bot)    3  0.311431D+00         -0.506639         -1.166578
 Vib (V=0)       0.213136D+01          0.328656          0.756759
 Vib (V=0)    1  0.155048D+01          0.190466          0.438564
 Vib (V=0)    2  0.122395D+01          0.087763          0.202082
 Vib (V=0)    3  0.108906D+01          0.037051          0.085313
 Electronic      0.100000D+01          0.000000          0.000000
 Translational   0.196526D+08          7.293420         16.793719
 Rotational      0.236816D+05          4.374410         10.072452
 
                                                                title
                                                             IR Spectrum
 
     3                                                                      1         1                                              
     7                                                                      6         3             9    8         5     3   2       
     7                                                                      9         7             7    1         1     5   1       
     9                                                                      3         8             2    3         9     2   5       
 
     X                                                                      X         X             X    X         X     X   X       
     X                                                                      X         X             X    X         X                 
     X                                                                      X         X             X    X         X                 
     X                                                                      X         X                  X         X                 
     X                                                                      X         X                  X         X                 
     X                                                                      X         X                  X         X                 
     X                                                                      X         X                  X         X                 
     X                                                                      X         X                  X         X                 
                                                                            X         X                  X         X                 
                                                                            X         X                  X         X                 
                                                                            X         X                  X         X                 
                                                                            X         X                  X         X                 
                                                                                      X                  X         X                 
                                                                                      X                  X         X                 
                                                                                      X                  X         X                 
                                                                                      X                  X         X                 
                                                                                                         X                           
                                                                                                         X                           
                                                                                                         X                           
                                                                                                         X                           
 
 ***** Axes restored to original set *****
 -------------------------------------------------------------------
 Center     Atomic                   Forces (Hartrees/Bohr)
 Number     Number              X              Y              Z
 -------------------------------------------------------------------
      1        1          -0.000029519    0.000000000   -0.000228567
      2        8           0.000173055    0.000000000   -0.000766714
      3        8          -0.002642539    0.000000000   -0.007069711
      4        7          -0.007059070   -0.000000000    0.004581606
      5        8           0.009558074    0.000000000    0.003483386
 -------------------------------------------------------------------
 Cartesian Forces:  Max     0.009558074 RMS     0.003932320
 -----------------------------------------------------------------------------------------------
                       Internal Coordinate Forces (Hartree/Bohr or radian)
  Cent   Atom   N1       Length/X         N2         Alpha/Y        N3         Beta/Z          J
 -----------------------------------------------------------------------------------------------
      1  H 
      2  O        1   0.000229(     1)
      3  O        2  -0.000011(     2)      1   0.000054(     5)
      4  N        3   0.008243(     3)      2   0.002711(     6)      1   0.000000(     8)     0
      5  O        4   0.010123(     4)      3   0.002219(     7)      2   0.000000(     9)     0
 -----------------------------------------------------------------------------------------------
 Internal  Forces:  Max     0.010123496 RMS     0.004506189
 Force constants in Cartesian coordinates: 
                1             2             3             4             5 
      1  0.651792D-01
      2  0.000000D+00 -0.218028D-02
      3  0.547120D-02  0.000000D+00  0.512569D+00
      4 -0.366299D-01  0.000000D+00 -0.166999D-01  0.274575D+00
      5  0.000000D+00  0.285628D-02  0.000000D+00  0.000000D+00  0.273380D-02
      6  0.488981D-01  0.000000D+00 -0.508396D+00  0.346247D-01  0.000000D+00
      7 -0.173685D-01  0.000000D+00  0.129669D-01 -0.218985D+00  0.000000D+00
      8  0.000000D+00  0.844729D-03  0.000000D+00  0.000000D+00 -0.717661D-02
      9 -0.533982D-01  0.000000D+00 -0.361031D-03 -0.186922D-01  0.000000D+00
     10 -0.101121D-01  0.000000D+00 -0.502553D-02 -0.197791D-01  0.000000D+00
     11  0.000000D+00 -0.255098D-02  0.000000D+00  0.000000D+00 -0.527767D-02
     12  0.471053D-02  0.000000D+00 -0.541861D-02  0.110067D-01  0.000000D+00
     13 -0.106874D-02  0.000000D+00  0.328731D-02  0.818334D-03  0.000000D+00
     14  0.000000D+00  0.103025D-02  0.000000D+00  0.000000D+00  0.686420D-02
     15 -0.568171D-02  0.000000D+00  0.160660D-02 -0.102394D-01  0.000000D+00
                6             7             8             9            10 
      6  0.598297D+00
      7 -0.181845D-01  0.346162D+00
      8  0.000000D+00  0.000000D+00  0.250555D-02
      9 -0.799670D-01  0.395572D-01  0.000000D+00  0.212663D+00
     10 -0.574771D-01 -0.822363D-01  0.000000D+00  0.175839D+00  0.847143D+00
     11  0.000000D+00  0.000000D+00  0.110395D-01  0.000000D+00  0.000000D+00
     12  0.146230D-01  0.617873D-01  0.000000D+00 -0.106963D+00 -0.136064D-01
     13 -0.786132D-02 -0.275722D-01  0.000000D+00 -0.143306D+00 -0.735015D+00
     14  0.000000D+00  0.000000D+00 -0.721318D-02  0.000000D+00  0.000000D+00
     15 -0.245569D-01 -0.961269D-01  0.000000D+00 -0.253718D-01 -0.997301D-01
               11            12            13            14            15 
     11  0.311920D-02
     12  0.000000D+00  0.213003D+00
     13  0.000000D+00 -0.638981D-01  0.762838D+00
     14 -0.633007D-02  0.000000D+00  0.000000D+00  0.564880D-02
     15  0.000000D+00 -0.115244D+00  0.211778D+00  0.000000D+00  0.163566D+00
 Force constants in internal coordinates: 
                1             2             3             4             5 
      1  0.512569D+00
      2 -0.105786D-01  0.282425D+00
      3  0.394168D-02  0.518835D-02  0.151685D+00
      4 -0.358315D-02  0.549461D-02  0.159212D+00  0.827752D+00
      5  0.998881D-02  0.649762D-01  0.345092D-02  0.447732D-02  0.218960D+00
      6  0.546422D-02  0.637341D-01  0.478995D-01  0.215942D-01  0.333601D-01
      7 -0.163863D-02  0.398550D-01  0.407427D-01  0.911464D-01  0.212240D-01
      8  0.000000D+00  0.000000D+00  0.000000D+00  0.000000D+00  0.000000D+00
      9  0.000000D+00  0.000000D+00  0.000000D+00  0.000000D+00  0.000000D+00
                6             7             8             9 
      6  0.304992D+00
      7  0.936304D-01  0.505250D+00
      8  0.000000D+00  0.000000D+00 -0.677789D-02
      9  0.000000D+00  0.000000D+00 -0.390954D-02  0.440180D-01
 Leave Link  716 at Mon Feb 21 20:25:29 2022, MaxMem= 16106127360 cpu:               1.3 elap:               0.1
 (Enter /sw/contrib/gaussian/g16/B01/g16/l103.exe)

 GradGradGradGradGradGradGradGradGradGradGradGradGradGradGradGradGradGrad
 Berny optimization.
 Search for a local minimum.
 Step number   1 out of a maximum of    2
 All quantities printed in internal units (Hartrees-Bohrs-Radians)
 Second derivative matrix not updated -- analytic derivatives used.
 The second derivative matrix:
                          r1        r2        r3        r4        a1
           r1           0.51257
           r2          -0.01058   0.28243
           r3           0.00394   0.00519   0.15168
           r4          -0.00358   0.00549   0.15921   0.82775
           a1           0.00999   0.06498   0.00345   0.00448   0.21896
           a2           0.00546   0.06373   0.04790   0.02159   0.03336
           a3          -0.00164   0.03986   0.04074   0.09115   0.02122
           d1           0.00000  -0.00000   0.00000   0.00000  -0.00000
           d2          -0.00000  -0.00000   0.00000   0.00000  -0.00000
                          a2        a3        d1        d2
           a2           0.30499
           a3           0.09363   0.50525
           d1          -0.00000  -0.00000  -0.00678
           d2          -0.00000  -0.00000  -0.00391   0.04402
 ITU=  0
     Eigenvalues ---   -0.00708   0.04432   0.10646   0.17748   0.23997
     Eigenvalues ---    0.33638   0.51335   0.53518   0.89481
 Eigenvalue     1 is  -7.08D-03 should be greater than     0.000000 Eigenvector:
                          d1        d2        r3        a2        a3
   1                    0.99709   0.07629  -0.00000   0.00000   0.00000
                          r4        a1        r2        r1
   1                    0.00000  -0.00000   0.00000   0.00000
 Angle between quadratic step and forces=  49.85 degrees.
 Linear search not attempted -- first point.
 Variable       Old X    -DE/DX   Delta X   Delta X   Delta X     New X
                                 (Linear)    (Quad)   (Total)
    r1        1.83110   0.00023   0.00000   0.00004   0.00004   1.83114
    r2        2.74940  -0.00001   0.00000  -0.00112  -0.00112   2.74828
    r3        2.69435   0.00824   0.00000   0.05175   0.05175   2.74611
    r4        2.21236   0.01012   0.00000   0.00229   0.00229   2.21465
    a1        1.70335   0.00005   0.00000  -0.00041  -0.00041   1.70295
    a2        1.78543   0.00271   0.00000   0.00096   0.00096   1.78638
    a3        1.90362   0.00222   0.00000  -0.00027  -0.00027   1.90336
    d1        3.14159   0.00000   0.00000   0.00000   0.00000   3.14159
    d2        3.14159   0.00000   0.00000   0.00000   0.00000   3.14159
         Item               Value     Threshold  Converged?
 Maximum Force            0.010123     0.000450     NO 
 RMS     Force            0.004506     0.000300     NO 
 Maximum Displacement     0.051754     0.001800     NO 
 RMS     Displacement     0.017276     0.001200     NO 
 Predicted change in Energy=-2.258859D-04
                       ----------------------------
                       ! Non-Optimized Parameters !
                       ! (Angstroms and Degrees)  !
 ----------------------                            ----------------------
 !      Name          Value   Derivative information (Atomic Units)     !
 ------------------------------------------------------------------------
 !       r1          0.969    -DE/DX =    0.0002                        !
 !       r2          1.4543   -DE/DX =    0.0                           !
 !       r3          1.4532   -DE/DX =    0.0082                        !
 !       r4          1.1719   -DE/DX =    0.0101                        !
 !       a1         97.5717   -DE/DX =    0.0001                        !
 !       a2        102.3523   -DE/DX =    0.0027                        !
 !       a3        109.0542   -DE/DX =    0.0022                        !
 !       d1        180.0      -DE/DX =    0.0                           !
 !       d2        180.0      -DE/DX =    0.0                           !
 ------------------------------------------------------------------------
 GradGradGradGradGradGradGradGradGradGradGradGradGradGradGradGradGradGrad

 Leave Link  103 at Mon Feb 21 20:25:29 2022, MaxMem= 16106127360 cpu:               1.4 elap:               0.1
 (Enter /sw/contrib/gaussian/g16/B01/g16/l9999.exe)

 ----------------------------------------------------------------------

 Electric dipole moment (input orientation):
 (Debye = 10**-18 statcoulomb cm , SI units = C m)
                  (au)            (Debye)         (10**-30 SI)
   Tot        0.661991D+00      0.168261D+01      0.561259D+01
   x         -0.195829D+00     -0.497748D+00     -0.166031D+01
   y          0.000000D+00      0.000000D+00      0.000000D+00
   z         -0.632363D+00     -0.160731D+01     -0.536139D+01

 Dipole polarizability, Alpha (input orientation).
 (esu units = cm**3 , SI units = C**2 m**2 J**-1)
 Alpha(0;0):
               (au)            (10**-24 esu)      (10**-40 SI)
   iso        0.271438D+02      0.402230D+01      0.447541D+01
   aniso      0.216609D+02      0.320981D+01      0.357139D+01
   xx         0.320978D+02      0.475641D+01      0.529222D+01
   yx         0.000000D+00      0.000000D+00      0.000000D+00
   yy         0.178186D+02      0.264044D+01      0.293789D+01
   zx         0.954425D+01      0.141431D+01      0.157363D+01
   zy         0.000000D+00      0.000000D+00      0.000000D+00
   zz         0.315150D+02      0.467005D+01      0.519613D+01

 ----------------------------------------------------------------------

 Dipole orientation:
     1          0.00000000          0.00000000         -0.00000000
     8         -0.54167340          0.00000000         -1.74914590
     8          1.95413703         -0.00000000         -2.90245648
     7          1.37078534         -0.00000000         -5.53290177
     8          3.25564282         -0.00000000         -6.69127792

 Electric dipole moment (dipole orientation):
 (Debye = 10**-18 statcoulomb cm , SI units = C m)
                  (au)            (Debye)         (10**-30 SI)
   Tot        0.661991D+00      0.168261D+01      0.561259D+01
   x          0.000000D+00      0.000000D+00      0.000000D+00
   y          0.000000D+00      0.000000D+00      0.000000D+00
   z          0.661991D+00      0.168261D+01      0.561259D+01

 Dipole polarizability, Alpha (dipole orientation).
 (esu units = cm**3 , SI units = C**2 m**2 J**-1)
 Alpha(0;0):
               (au)            (10**-24 esu)      (10**-40 SI)
   iso        0.271438D+02      0.402230D+01      0.447541D+01
   aniso      0.216609D+02      0.320981D+01      0.357139D+01
   xx         0.266528D+02      0.394954D+01      0.439445D+01
   yx         0.000000D+00      0.000000D+00      0.000000D+00
   yy         0.178186D+02      0.264044D+01      0.293789D+01
   zx        -0.803852D+01     -0.119119D+01     -0.132537D+01
   zy         0.000000D+00      0.000000D+00      0.000000D+00
   zz         0.369601D+02      0.547692D+01      0.609389D+01

 ----------------------------------------------------------------------
 1\1\GINC-N2129\Freq\RMP2-FC\Aug-CC-pVTZ\H1N1O3\CGAVINH\21-Feb-2022\1\\
 #p freq mp2/aug-cc-pvtz density=current\\title\\0,1\H\O,1,r1\O,2,r2,1,
 a1\N,3,r3,2,a2,1,d1,0\O,4,r4,3,a3,2,d2,0\\r1=0.96897556\r2=1.45491931\
 r3=1.42579055\r4=1.17072885\a1=97.59494903\a2=102.29752444\a3=109.0695
 5123\d1=180.\d2=180.\\Version=ES64L-G16RevB.01\State=1-A'\HF=-279.5045
 656\MP2=-280.4464918\RMSD=3.388e-09\RMSF=3.932e-03\ZeroPoint=0.0221452
 \Thermal=0.0262118\Dipole=-0.1958293,0.,-0.6323626\DipoleDeriv=0.26916
 ,0.,0.0513485,0.,0.3565128,0.,0.0820084,0.,0.2751651,-0.3227196,0.,-0.
 2092688,0.,-0.310719,0.,-0.1088928,0.,-0.2104855,-0.0233539,0.,0.16359
 36,0.,-0.0668238,0.,-0.7636093,0.,-1.3353603,0.85379,0.,0.8557832,0.,0
 .0563391,0.,0.9346023,0.,1.6556325,-0.7768765,0.,-0.8614565,0.,-0.0353
 091,0.,-0.1441086,0.,-0.3849518\Polar=32.0978191,0.,17.8185816,9.54425
 39,0.,31.5150494\Quadrupole=-1.5283237,-0.6554002,2.183724,0.,2.039154
 1,0.\PG=CS [SG(H1N1O3)]\NImag=1\\0.06517919,0.,-0.00218028,0.00547120,
 0.,0.51256949,-0.03662986,0.,-0.01669986,0.27457528,0.,0.00285628,0.,0
 .,0.00273380,0.04889815,0.,-0.50839645,0.03462474,0.,0.59829737,-0.017
 36845,0.,0.01296689,-0.21898466,0.,-0.01818446,0.34616165,0.,0.0008447
 3,0.,0.,-0.00717661,0.,0.,0.00250555,-0.05339816,0.,-0.00036103,-0.018
 69217,0.,-0.07996696,0.03955721,0.,0.21266314,-0.01011214,0.,-0.005025
 53,-0.01977910,0.,-0.05747710,-0.08223630,0.,0.17583913,0.84714282,0.,
 -0.00255098,0.,0.,-0.00527767,0.,0.,0.01103951,0.,0.,0.00311920,0.0047
 1053,0.,-0.00541861,0.01100667,0.,0.01462296,0.06178728,0.,-0.10696331
 ,-0.01360642,0.,0.21300266,-0.00106874,0.,0.00328731,0.00081833,0.,-0.
 00786132,-0.02757223,0.,-0.14330601,-0.73501528,0.,-0.06389805,0.76283
 791,0.,0.00103025,0.,0.,0.00686420,0.,0.,-0.00721318,0.,0.,-0.00633007
 ,0.,0.,0.00564880,-0.00568171,0.,0.00160660,-0.01023938,0.,-0.02455692
 ,-0.09612692,0.,-0.02537184,-0.09973006,0.,-0.11524370,0.21177807,0.,0
 .16356586\\0.00002952,0.,0.00022857,-0.00017305,0.,0.00076671,0.002642
 54,0.,0.00706971,0.00705907,0.,-0.00458161,-0.00955807,0.,-0.00348339\
 \\@


     ON THE SURVIVAL OF THE FITTEST -
 "STRONG REPRESENTATIVES FROM EACH PAST ERA THRIVE TODAY,
 SUCH AS PROGRAMMING IN THE THIRTY YEAR OLD LANGUAGE KNOWN
 AS FORTRAN, AND EVEN IN THE ANCIENT SCRIPT KNOWN AS DIRECT
 MACHINE CODE. SOME PEOPLE MIGHT LOOK ON SUCH RELICS AS LIVING
 FOSSILS; OTHERS WOULD POINT OUT THAT EVEN A VERY OLD SPECIES
 MIGHT STILL BE FILLING A PARTICULAR ECOLOGICAL NICHE."
     -- ALAN KAY, SCI.AM. SEPTEMBER 1984
 Job cpu time:       0 days  2 hours  2 minutes 18.0 seconds.
 Elapsed time:       0 days  0 hours  4 minutes 25.4 seconds.
 File lengths (MBytes):  RWF=   7239 Int=      0 D2E=      0 Chk=      8 Scr=      1
 Normal termination of Gaussian 16 at Mon Feb 21 20:25:30 2022.
