title                                                                   
Freq      RMP2-FC                                                     Aug-CC-pVTZ         
Number of atoms                            I                5
Info1-9                                    I   N=           9
          33          24           0           0           0         100
           6           2           1
Full Title                                 C   N=           1
title       
Route                                      C   N=           4
#p freq mp2/aug-cc-pvtz density=current         
Charge                                     I                0
Multiplicity                               I                1
Number of electrons                        I               32
Number of alpha electrons                  I               16
Number of beta electrons                   I               16
Number of basis functions                  I              207
Number of independent functions            I              207
Number of point charges in /Mol/           I                0
Number of translation vectors              I                0
Atomic numbers                             I   N=           5
           1           8           8           7           8
Nuclear charges                            R   N=           5
  1.00000000E+00  8.00000000E+00  8.00000000E+00  7.00000000E+00  8.00000000E+00
Current cartesian coordinates              R   N=          15
  2.92876726E+00  3.20113863E+00  1.38697323E-32  2.74778424E+00  1.36560478E+00
  4.01565752E-32 -5.70393382E-17  1.27138792E+00  3.24780415E-32 -4.94500582E-01
 -1.44059973E+00  1.38783860E-33 -2.68119213E+00 -1.77661026E+00 -2.99629755E-32
Number of symbols in /Mol/                 I                0
Force Field                                I                0
Atom Types                                 C   N=           5
                                                            
Int Atom Types                             I   N=           5
           0           0           0           0           0
MM charges                                 R   N=           5
  0.00000000E+00  0.00000000E+00  0.00000000E+00  0.00000000E+00  0.00000000E+00
Integer atomic weights                     I   N=           5
           1          16          16          14          16
Real atomic weights                        R   N=           5
  1.00782504E+00  1.59949146E+01  1.59949146E+01  1.40030740E+01  1.59949146E+01
Atom fragment info                         I   N=           5
           0           0           0           0           0
Atom residue num                           I   N=           5
           0           0           0           0           0
Nuclear spins                              I   N=           5
           1           0           0           2           0
Nuclear ZEff                               R   N=           5
 -1.00000000E+00 -5.60000000E+00 -5.60000000E+00 -4.55000000E+00 -5.60000000E+00
Nuclear ZNuc                               R   N=           5
  1.00000000E+00  8.00000000E+00  8.00000000E+00  7.00000000E+00  8.00000000E+00
Nuclear QMom                               R   N=           5
  0.00000000E+00  0.00000000E+00  0.00000000E+00  2.04400000E+00  0.00000000E+00
Nuclear GFac                               R   N=           5
  2.79284600E+00  0.00000000E+00  0.00000000E+00  4.03761000E-01  0.00000000E+00
MicOpt                                     I   N=           5
          -1          -1          -1          -1          -1
Number of residues                         I                0
Number of secondary structures             I                0
SymInf integers                            I   N=          26
           1           2           1           1           1           1
           1          -1           0           0           0           0
           0           0           0           0           0           0
           0           0           0           0           0           0
           0           0
RotTr to input orientation                 R   N=          12
 -9.95174212E-01 -9.84214342E-17 -9.81238437E-02  9.81238437E-02 -7.28753670E-17
 -9.95174212E-01  9.07956620E-17 -1.00000000E+00  8.21811753E-17  2.60052562E+00
  0.00000000E+00  3.47307251E+00
Number of contracted shells                I               65
Number of primitive shells                 I              119
Pure/Cartesian d shells                    I                0
Pure/Cartesian f shells                    I                0
Highest angular momentum                   I                3
Largest degree of contraction              I                7
Shell types                                I   N=          65
           0           0           0           0           1           1
           1          -2          -2           0           0           0
           0           0           1           1           1           1
          -2          -2          -2          -3          -3           0
           0           0           0           0           1           1
           1           1          -2          -2          -2          -3
          -3           0           0           0           0           0
           1           1           1           1          -2          -2
          -2          -3          -3           0           0           0
           0           0           1           1           1           1
          -2          -2          -2          -3          -3
Number of primitives per shell             I   N=          65
           3           1           1           1           1           1
           1           1           1           7           6           1
           1           1           3           1           1           1
           1           1           1           1           1           7
           6           1           1           1           3           1
           1           1           1           1           1           1
           1           7           6           1           1           1
           3           1           1           1           1           1
           1           1           1           7           6           1
           1           1           3           1           1           1
           1           1           1           1           1
Shell to atom map                          I   N=          65
           1           1           1           1           1           1
           1           1           1           2           2           2
           2           2           2           2           2           2
           2           2           2           2           2           3
           3           3           3           3           3           3
           3           3           3           3           3           3
           3           4           4           4           4           4
           4           4           4           4           4           4
           4           4           4           5           5           5
           5           5           5           5           5           5
           5           5           5           5           5
Primitive exponents                        R   N=         119
  3.38700000E+01  5.09500000E+00  1.15900000E+00  3.25800000E-01  1.02700000E-01
  2.52600000E-02  1.40700000E+00  3.88000000E-01  1.02000000E-01  1.05700000E+00
  2.47000000E-01  1.53300000E+04  2.29900000E+03  5.22400000E+02  1.47300000E+02
  4.75500000E+01  1.67600000E+01  6.20700000E+00  5.22400000E+02  1.47300000E+02
  4.75500000E+01  1.67600000E+01  6.20700000E+00  6.88200000E-01  1.75200000E+00
  2.38400000E-01  7.37600000E-02  3.44600000E+01  7.74900000E+00  2.28000000E+00
  7.15600000E-01  2.14000000E-01  5.97400000E-02  2.31400000E+00  6.45000000E-01
  2.14000000E-01  1.42800000E+00  5.00000000E-01  1.53300000E+04  2.29900000E+03
  5.22400000E+02  1.47300000E+02  4.75500000E+01  1.67600000E+01  6.20700000E+00
  5.22400000E+02  1.47300000E+02  4.75500000E+01  1.67600000E+01  6.20700000E+00
  6.88200000E-01  1.75200000E+00  2.38400000E-01  7.37600000E-02  3.44600000E+01
  7.74900000E+00  2.28000000E+00  7.15600000E-01  2.14000000E-01  5.97400000E-02
  2.31400000E+00  6.45000000E-01  2.14000000E-01  1.42800000E+00  5.00000000E-01
  1.14200000E+04  1.71200000E+03  3.89300000E+02  1.10000000E+02  3.55700000E+01
  1.25400000E+01  4.64400000E+00  3.89300000E+02  1.10000000E+02  3.55700000E+01
  1.25400000E+01  4.64400000E+00  5.11800000E-01  1.29300000E+00  1.78700000E-01
  5.76000000E-02  2.66300000E+01  5.94800000E+00  1.74200000E+00  5.55000000E-01
  1.72500000E-01  4.91000000E-02  1.65400000E+00  4.69000000E-01  1.51000000E-01
  1.09300000E+00  3.64000000E-01  1.53300000E+04  2.29900000E+03  5.22400000E+02
  1.47300000E+02  4.75500000E+01  1.67600000E+01  6.20700000E+00  5.22400000E+02
  1.47300000E+02  4.75500000E+01  1.67600000E+01  6.20700000E+00  6.88200000E-01
  1.75200000E+00  2.38400000E-01  7.37600000E-02  3.44600000E+01  7.74900000E+00
  2.28000000E+00  7.15600000E-01  2.14000000E-01  5.97400000E-02  2.31400000E+00
  6.45000000E-01  2.14000000E-01  1.42800000E+00  5.00000000E-01
Contraction coefficients                   R   N=         119
  2.54948632E-02  1.90362766E-01  8.52162022E-01  1.00000000E+00  1.00000000E+00
  1.00000000E+00  1.00000000E+00  1.00000000E+00  1.00000000E+00  1.00000000E+00
  1.00000000E+00  5.19808943E-04  4.02025621E-03  2.07128267E-02  8.10105536E-02
  2.35962985E-01  4.42653446E-01  3.57064423E-01 -4.42115008E-05 -1.22591041E-03
 -1.05517725E-02 -6.74452633E-02 -1.71198607E-01  1.07329856E+00  1.00000000E+00
  1.00000000E+00  1.00000000E+00  4.11634896E-02  2.57762836E-01  8.02419274E-01
  1.00000000E+00  1.00000000E+00  1.00000000E+00  1.00000000E+00  1.00000000E+00
  1.00000000E+00  1.00000000E+00  1.00000000E+00  5.19808943E-04  4.02025621E-03
  2.07128267E-02  8.10105536E-02  2.35962985E-01  4.42653446E-01  3.57064423E-01
 -4.42115008E-05 -1.22591041E-03 -1.05517725E-02 -6.74452633E-02 -1.71198607E-01
  1.07329856E+00  1.00000000E+00  1.00000000E+00  1.00000000E+00  4.11634896E-02
  2.57762836E-01  8.02419274E-01  1.00000000E+00  1.00000000E+00  1.00000000E+00
  1.00000000E+00  1.00000000E+00  1.00000000E+00  1.00000000E+00  1.00000000E+00
  5.34563860E-04  4.13435660E-03  2.12335358E-02  8.25006224E-02  2.38138871E-01
  4.42551547E-01  3.53757422E-01 -4.89867350E-05 -1.19527323E-03 -1.03490714E-02
 -6.48680190E-02 -1.71552477E-01  1.07289568E+00  1.00000000E+00  1.00000000E+00
  1.00000000E+00  3.98072123E-02  2.49002660E-01  8.10479727E-01  1.00000000E+00
  1.00000000E+00  1.00000000E+00  1.00000000E+00  1.00000000E+00  1.00000000E+00
  1.00000000E+00  1.00000000E+00  5.19808943E-04  4.02025621E-03  2.07128267E-02
  8.10105536E-02  2.35962985E-01  4.42653446E-01  3.57064423E-01 -4.42115008E-05
 -1.22591041E-03 -1.05517725E-02 -6.74452633E-02 -1.71198607E-01  1.07329856E+00
  1.00000000E+00  1.00000000E+00  1.00000000E+00  4.11634896E-02  2.57762836E-01
  8.02419274E-01  1.00000000E+00  1.00000000E+00  1.00000000E+00  1.00000000E+00
  1.00000000E+00  1.00000000E+00  1.00000000E+00  1.00000000E+00
Coordinates of each shell                  R   N=         195
  2.92876726E+00  3.20113863E+00  4.28089238E-32  2.92876726E+00  3.20113863E+00
  4.28089238E-32  2.92876726E+00  3.20113863E+00  4.28089238E-32  2.92876726E+00
  3.20113863E+00  4.28089238E-32  2.92876726E+00  3.20113863E+00  4.28089238E-32
  2.92876726E+00  3.20113863E+00  4.28089238E-32  2.92876726E+00  3.20113863E+00
  4.28089238E-32  2.92876726E+00  3.20113863E+00  4.28089238E-32  2.92876726E+00
  3.20113863E+00  4.28089238E-32  2.74778424E+00  1.36560478E+00  2.00745109E-32
  2.74778424E+00  1.36560478E+00  2.00745109E-32  2.74778424E+00  1.36560478E+00
  2.00745109E-32  2.74778424E+00  1.36560478E+00  2.00745109E-32  2.74778424E+00
  1.36560478E+00  2.00745109E-32  2.74778424E+00  1.36560478E+00  2.00745109E-32
  2.74778424E+00  1.36560478E+00  2.00745109E-32  2.74778424E+00  1.36560478E+00
  2.00745109E-32  2.74778424E+00  1.36560478E+00  2.00745109E-32  2.74778424E+00
  1.36560478E+00  2.00745109E-32  2.74778424E+00  1.36560478E+00  2.00745109E-32
  2.74778424E+00  1.36560478E+00  2.00745109E-32  2.74778424E+00  1.36560478E+00
  2.00745109E-32  2.74778424E+00  1.36560478E+00  2.00745109E-32 -7.22510654E-18
  1.27138792E+00  1.55954408E-32 -7.22510654E-18  1.27138792E+00  1.55954408E-32
 -7.22510654E-18  1.27138792E+00  1.55954408E-32 -7.22510654E-18  1.27138792E+00
  1.55954408E-32 -7.22510654E-18  1.27138792E+00  1.55954408E-32 -7.22510654E-18
  1.27138792E+00  1.55954408E-32 -7.22510654E-18  1.27138792E+00  1.55954408E-32
 -7.22510654E-18  1.27138792E+00  1.55954408E-32 -7.22510654E-18  1.27138792E+00
  1.55954408E-32 -7.22510654E-18  1.27138792E+00  1.55954408E-32 -7.22510654E-18
  1.27138792E+00  1.55954408E-32 -7.22510654E-18  1.27138792E+00  1.55954408E-32
 -7.22510654E-18  1.27138792E+00  1.55954408E-32 -7.22510654E-18  1.27138792E+00
  1.55954408E-32 -4.94500582E-01 -1.44059973E+00 -1.82691557E-32 -4.94500582E-01
 -1.44059973E+00 -1.82691557E-32 -4.94500582E-01 -1.44059973E+00 -1.82691557E-32
 -4.94500582E-01 -1.44059973E+00 -1.82691557E-32 -4.94500582E-01 -1.44059973E+00
 -1.82691557E-32 -4.94500582E-01 -1.44059973E+00 -1.82691557E-32 -4.94500582E-01
 -1.44059973E+00 -1.82691557E-32 -4.94500582E-01 -1.44059973E+00 -1.82691557E-32
 -4.94500582E-01 -1.44059973E+00 -1.82691557E-32 -4.94500582E-01 -1.44059973E+00
 -1.82691557E-32 -4.94500582E-01 -1.44059973E+00 -1.82691557E-32 -4.94500582E-01
 -1.44059973E+00 -1.82691557E-32 -4.94500582E-01 -1.44059973E+00 -1.82691557E-32
 -4.94500582E-01 -1.44059973E+00 -1.82691557E-32 -2.68119213E+00 -1.77661026E+00
 -2.50355559E-32 -2.68119213E+00 -1.77661026E+00 -2.50355559E-32 -2.68119213E+00
 -1.77661026E+00 -2.50355559E-32 -2.68119213E+00 -1.77661026E+00 -2.50355559E-32
 -2.68119213E+00 -1.77661026E+00 -2.50355559E-32 -2.68119213E+00 -1.77661026E+00
 -2.50355559E-32 -2.68119213E+00 -1.77661026E+00 -2.50355559E-32 -2.68119213E+00
 -1.77661026E+00 -2.50355559E-32 -2.68119213E+00 -1.77661026E+00 -2.50355559E-32
 -2.68119213E+00 -1.77661026E+00 -2.50355559E-32 -2.68119213E+00 -1.77661026E+00
 -2.50355559E-32 -2.68119213E+00 -1.77661026E+00 -2.50355559E-32 -2.68119213E+00
 -1.77661026E+00 -2.50355559E-32 -2.68119213E+00 -1.77661026E+00 -2.50355559E-32
Num ILSW                                   I              100
ILSW                                       I   N=         100
           0           0           0           0           2           0
           0           0           0           0           0          -1
           5           0           0           0           2           0
           0           0           0           0           1           0
           1           0           0           0           0           0
           0           0      100000           0          -1           0
           0           0           0           0           0           0
           0           0           0           1           1           0
           0 -2000000000           1           0           0           0
           0           0           4          52           0           0
           0           0           0           0           0           0
           0           0           0           5           4           1
           0           0           0           0           0           0
           0           0           0           0           0           0
           0           0           0           0           0           0
           0           0           0           0           0           0
           0           0           0           0
Num RLSW                                   I               52
RLSW                                       R   N=          52
  1.00000000E+00  1.00000000E+00  1.00000000E+00  1.00000000E+00  1.00000000E+00
  0.00000000E+00  0.00000000E+00  1.00000000E+00  0.00000000E+00  0.00000000E+00
  0.00000000E+00  0.00000000E+00  1.00000000E+00  0.00000000E+00  0.00000000E+00
  0.00000000E+00  0.00000000E+00  1.00000000E+00  0.00000000E+00  0.00000000E+00
  0.00000000E+00  0.00000000E+00  1.00000000E+00  0.00000000E+00  0.00000000E+00
  0.00000000E+00  0.00000000E+00  1.00000000E+00  0.00000000E+00  0.00000000E+00
  0.00000000E+00  0.00000000E+00  1.00000000E+00  0.00000000E+00  0.00000000E+00
  0.00000000E+00  0.00000000E+00  0.00000000E+00  1.00000000E+00  1.00000000E+00
  0.00000000E+00  1.00000000E+00  0.00000000E+00  0.00000000E+00  0.00000000E+00
  0.00000000E+00  0.00000000E+00  0.00000000E+00  0.00000000E+00  0.00000000E+00
  0.00000000E+00  0.00000000E+00
MxBond                                     I                2
NBond                                      I   N=           5
           1           2           2           2           1
IBond                                      I   N=          10
           2           0           1           3           2           4
           3           5           4           0
RBond                                      R   N=          10
  1.00000000E+00  0.00000000E+00  1.00000000E+00  1.00000000E+00  1.00000000E+00
  1.00000000E+00  1.00000000E+00  2.00000000E+00  2.00000000E+00  0.00000000E+00
Virial Ratio                               R      2.002399421134999E+00
SCF Energy                                 R     -2.795013053473786E+02
MP2 Energy                                 R     -2.804466898928199E+02
Total Energy                               R     -2.804466898928199E+02
Post-SCF wavefunction norm                 R      1.584408188615625E+00
RMS Force                                  R      2.416180975913921E-03
RMS Density                                R      3.791780251615956E-09
NImag                                      I                0
Job Status                                 I                1
Nuclear derivative order                   I                2
External E-field                           R   N=          35
  0.00000000E+00  0.00000000E+00  0.00000000E+00  0.00000000E+00  0.00000000E+00
  0.00000000E+00  0.00000000E+00  0.00000000E+00  0.00000000E+00  0.00000000E+00
  0.00000000E+00  0.00000000E+00  0.00000000E+00  0.00000000E+00  0.00000000E+00
  0.00000000E+00  0.00000000E+00  0.00000000E+00  0.00000000E+00  0.00000000E+00
  0.00000000E+00  0.00000000E+00  0.00000000E+00  0.00000000E+00  0.00000000E+00
  0.00000000E+00  0.00000000E+00  0.00000000E+00  0.00000000E+00  0.00000000E+00
  0.00000000E+00  0.00000000E+00  0.00000000E+00  0.00000000E+00  0.00000000E+00
IOpCl                                      I                0
IROHF                                      I                0
Alpha Orbital Energies                     R   N=         207
 -2.06906951E+01 -2.06841614E+01 -2.06605259E+01 -1.58126890E+01 -1.62386864E+00
 -1.49488655E+00 -1.25304210E+00 -9.47904365E-01 -7.72218551E-01 -7.58606643E-01
 -7.11628339E-01 -6.78282901E-01 -6.20247710E-01 -5.89090879E-01 -4.84983875E-01
 -4.72309056E-01  2.94923217E-02  7.17811825E-02  8.59753736E-02  1.01737039E-01
  1.33958214E-01  1.34009167E-01  1.43774209E-01  1.54272633E-01  1.78357022E-01
  1.94193192E-01  1.99830243E-01  2.06361493E-01  2.20839102E-01  2.35618383E-01
  2.37445537E-01  2.65869733E-01  2.93293607E-01  3.03571810E-01  3.10195640E-01
  3.43496221E-01  3.50119739E-01  3.87110223E-01  4.21057299E-01  4.30792806E-01
  5.27392747E-01  5.29338465E-01  5.58528950E-01  5.81760445E-01  6.26035129E-01
  6.38307241E-01  6.74557488E-01  6.83806078E-01  7.06418672E-01  7.10847455E-01
  7.23545780E-01  7.29398473E-01  7.44533564E-01  7.91744882E-01  7.91961410E-01
  8.10214901E-01  8.12794907E-01  8.30498559E-01  8.68334321E-01  9.08339106E-01
  9.21708114E-01  9.26206294E-01  9.55999213E-01  9.78345118E-01  9.83667227E-01
  1.01515484E+00  1.05231850E+00  1.05482087E+00  1.08173309E+00  1.11659434E+00
  1.14035991E+00  1.18972566E+00  1.22033375E+00  1.23130415E+00  1.33905318E+00
  1.35085939E+00  1.38633897E+00  1.45152894E+00  1.48581497E+00  1.50780809E+00
  1.53823910E+00  1.56690683E+00  1.58016637E+00  1.61248483E+00  1.66474208E+00
  1.67012122E+00  1.70322916E+00  1.79288055E+00  1.83107614E+00  1.83487475E+00
  1.87853178E+00  1.90926350E+00  1.95230370E+00  1.99191500E+00  2.00454442E+00
  2.07763622E+00  2.12010803E+00  2.13211019E+00  2.15009026E+00  2.22406962E+00
  2.26419524E+00  2.26535484E+00  2.28956771E+00  2.31365757E+00  2.34358956E+00
  2.38489164E+00  2.42441071E+00  2.42823439E+00  2.45420348E+00  2.46270892E+00
  2.47635104E+00  2.50082725E+00  2.59192583E+00  2.59632083E+00  2.62126528E+00
  2.62396346E+00  2.63482296E+00  2.66884142E+00  2.75746412E+00  2.82740535E+00
  2.85537329E+00  2.88391312E+00  2.89426272E+00  2.92343258E+00  2.95814844E+00
  3.02389603E+00  3.06769012E+00  3.12274927E+00  3.20484335E+00  3.22610947E+00
  3.31571831E+00  3.34095704E+00  3.51735581E+00  3.64048065E+00  3.83686350E+00
  3.83833598E+00  4.14242145E+00  4.16057709E+00  4.18228402E+00  4.25693136E+00
  4.34557245E+00  4.39166853E+00  4.46113845E+00  4.51650838E+00  4.66112645E+00
  4.70780564E+00  4.80361040E+00  4.81660996E+00  4.82550728E+00  4.89564301E+00
  5.02329040E+00  5.07747387E+00  5.09620745E+00  5.13921449E+00  5.17531445E+00
  5.23381017E+00  5.26802678E+00  5.30709707E+00  5.31442263E+00  5.35365087E+00
  5.60286620E+00  5.67366926E+00  5.76759277E+00  5.82537701E+00  5.95666268E+00
  6.17019966E+00  6.30858761E+00  6.33955938E+00  6.39278357E+00  6.49362997E+00
  6.50539740E+00  6.61265299E+00  6.66867970E+00  6.69940133E+00  6.75810926E+00
  6.76357733E+00  6.83249994E+00  6.89836109E+00  7.00893060E+00  7.05533304E+00
  7.05630165E+00  7.08910904E+00  7.12263739E+00  7.14820022E+00  7.18049135E+00
  7.22328643E+00  7.23124120E+00  7.30027418E+00  7.32512006E+00  7.34578475E+00
  7.39971374E+00  7.43019074E+00  7.48456094E+00  7.60744706E+00  7.61671386E+00
  7.62556628E+00  7.66370815E+00  7.78205673E+00  7.88676915E+00  8.08960115E+00
  8.31219545E+00  8.40042743E+00  8.54200939E+00  1.33891065E+01  1.43842739E+01
  1.50630655E+01  1.61525170E+01
Alpha MO coefficients                      R   N=       42849
  9.11691573E-05 -6.37214035E-04 -7.22802572E-04 -4.37088932E-06 -2.20179717E-05
 -2.75577479E-05  0.00000000E+00 -2.90479888E-05  6.77227547E-05  0.00000000E+00
  9.72766034E-05  3.90383252E-05  0.00000000E+00  3.16850194E-05  0.00000000E+00
  0.00000000E+00 -4.89789618E-05  1.94825223E-05 -3.78803392E-06  0.00000000E+00
  0.00000000E+00 -1.37392626E-04  1.09516841E-04  4.69735073E-03 -2.80340453E-04
  1.96981538E-05  1.55883232E-03  1.81659347E-03  1.06082597E-04  7.57599533E-06
  0.00000000E+00 -6.16960738E-04 -3.25669377E-05  0.00000000E+00 -1.12211601E-03
  7.87383104E-04  0.00000000E+00 -4.06425675E-04  5.70895405E-05  0.00000000E+00
  2.86170584E-05  0.00000000E+00  0.00000000E+00 -5.41416217E-05  6.21805396E-06
 -3.77839806E-04  0.00000000E+00  0.00000000E+00  7.37940726E-04 -3.51930210E-05
 -4.46932862E-04  0.00000000E+00  0.00000000E+00  2.43751866E-04 -2.12554148E-05
  0.00000000E+00  7.98374395E-05  1.26184670E-05  0.00000000E+00  0.00000000E+00
 -1.09741090E-04 -3.52576891E-06  0.00000000E+00  2.56054771E-04 -2.69439203E-05
  0.00000000E+00  0.00000000E+00 -3.50031741E-04  4.84698298E-05  9.76910746E-01
 -9.21538405E-03  4.33181277E-02  2.03480418E-03 -9.16898565E-04  1.49353196E-03
 -1.35531184E-03  0.00000000E+00 -1.43475319E-03  1.38405369E-03  0.00000000E+00
  8.04914114E-05 -1.16081163E-03  0.00000000E+00 -1.29035695E-04 -5.86324096E-06
  0.00000000E+00  4.62262907E-05  0.00000000E+00  0.00000000E+00 -3.52229902E-05
  2.12588391E-05  7.46977434E-04  0.00000000E+00  0.00000000E+00 -2.31478096E-04
 -3.89536793E-04 -3.59837414E-04  0.00000000E+00  0.00000000E+00 -3.12393464E-04
 -3.74093813E-04  0.00000000E+00  4.74383938E-05 -4.88841199E-05  0.00000000E+00
  0.00000000E+00 -3.89072784E-05 -1.57969367E-05  0.00000000E+00  2.30798284E-05
  2.16097637E-05  0.00000000E+00  0.00000000E+00 -3.04819255E-04 -1.39194509E-04
  3.90772681E-05  4.58082718E-05 -2.64556153E-04 -7.04533839E-04 -1.44462850E-04
 -2.71571542E-05 -9.75245476E-05  0.00000000E+00  2.71737396E-04  7.10121491E-04
  0.00000000E+00 -8.38360655E-04 -4.80573118E-04  0.00000000E+00 -1.28423154E-04
 -2.82173045E-05  0.00000000E+00 -1.81155895E-05  0.00000000E+00  0.00000000E+00
 -2.96549080E-05  1.51577987E-05 -3.28661085E-04  0.00000000E+00  0.00000000E+00
 -8.28996366E-04  1.27846308E-04 -3.56714321E-05  0.00000000E+00  0.00000000E+00
  9.62430463E-05 -1.17555906E-04  0.00000000E+00 -2.08602794E-05 -1.20194420E-04
  0.00000000E+00  0.00000000E+00 -6.25900564E-05 -1.37605081E-04  0.00000000E+00
  3.77483083E-06 -1.52192496E-04  0.00000000E+00  0.00000000E+00  4.44426463E-05
 -4.19446108E-04 -2.59602324E-03  1.21715190E-04 -1.24429122E-04 -2.43716044E-04
  1.39061358E-04 -8.07092735E-06 -2.78623938E-05  0.00000000E+00  6.96592300E-05
  1.64299319E-04  0.00000000E+00  2.34768928E-04  2.01547254E-04  0.00000000E+00
  1.27991443E-04  2.55509547E-05  0.00000000E+00 -3.36789506E-06  0.00000000E+00
  0.00000000E+00 -1.79081743E-05  1.18115574E-06  5.88166405E-07  0.00000000E+00
  0.00000000E+00  8.07676294E-05  8.81807622E-05 -1.00484224E-04  0.00000000E+00
  0.00000000E+00  1.66927962E-04  1.62350763E-04  0.00000000E+00  1.58105084E-05
 -3.52667600E-06  0.00000000E+00  0.00000000E+00 -4.27189930E-06 -1.19480416E-05
  0.00000000E+00 -3.35639930E-05  4.53628745E-05  0.00000000E+00  0.00000000E+00
  8.38164141E-05  9.01288152E-05  3.93941539E-05 -9.75031918E-04 -4.76362528E-04
 -1.05874951E-05 -2.19392324E-05  1.52531744E-05  0.00000000E+00  1.91288688E-06
  2.75042473E-04  0.00000000E+00 -4.10118889E-05  1.32458745E-04  0.00000000E+00
  2.58453269E-05  0.00000000E+00  0.00000000E+00  1.27913172E-05  1.10088115E-05
 -2.67256265E-05  0.00000000E+00  0.00000000E+00  1.17885190E-05  3.37518698E-05
  1.14931639E-04  8.29988068E-05 -2.81519465E-05  7.37751383E-04  6.42258375E-04
  1.02481148E-05  2.48827139E-06  0.00000000E+00 -7.32967862E-05  1.46281350E-05
  0.00000000E+00  3.31153409E-04  8.93296079E-04  0.00000000E+00  4.01594340E-06
  8.03717189E-05  0.00000000E+00 -2.24331291E-06  0.00000000E+00  0.00000000E+00
  2.13178915E-08 -6.04661985E-06 -3.56795679E-05  0.00000000E+00  0.00000000E+00
 -2.02902134E-05  8.28582974E-05 -2.28246417E-05  0.00000000E+00  0.00000000E+00
 -2.66690050E-04 -1.62287744E-04  0.00000000E+00  9.20106223E-06  6.03282444E-06
  0.00000000E+00  0.00000000E+00  2.73956337E-06 -1.87896970E-05  0.00000000E+00
 -4.02694750E-05 -3.82674616E-05  0.00000000E+00  0.00000000E+00 -7.63385427E-05
  1.92728790E-05  2.63490455E-03  3.92558175E-05  9.20309815E-05 -6.90789007E-05
 -4.67829514E-04  7.27324106E-06  1.57393794E-05  0.00000000E+00 -6.19506744E-05
 -5.53176933E-05  0.00000000E+00  2.35602654E-04 -1.87451898E-04  0.00000000E+00
 -1.87332659E-04 -6.38218769E-05  0.00000000E+00 -8.71786151E-06  0.00000000E+00
  0.00000000E+00  2.23928398E-05  1.97705931E-05  4.37568452E-06  0.00000000E+00
  0.00000000E+00 -1.17325689E-04 -4.64220545E-05 -4.32058312E-06  0.00000000E+00
  0.00000000E+00 -2.21688435E-04 -2.06132901E-04  0.00000000E+00  3.23845025E-06
 -5.52953728E-07  0.00000000E+00  0.00000000E+00  1.72053414E-06 -1.35584015E-05
  0.00000000E+00 -4.63941942E-05  3.55978652E-06  0.00000000E+00  0.00000000E+00
 -7.62545637E-05  1.87902605E-04  2.58683174E-04  1.46512109E-03 -7.80649687E-05
 -1.53921358E-03  3.99942254E-04 -1.44514823E-04  1.37108442E-07  0.00000000E+00
 -2.08906911E-03 -4.03725591E-04  0.00000000E+00  1.03667156E-03  7.62574677E-04
  0.00000000E+00 -1.70242696E-04  5.68049150E-05  0.00000000E+00 -1.23346312E-04
  0.00000000E+00  0.00000000E+00  2.43091473E-04  9.40575006E-05 -4.42176451E-04
  0.00000000E+00  0.00000000E+00  8.98906430E-04 -6.62551054E-05  1.16759721E-05
  0.00000000E+00  0.00000000E+00 -3.38313994E-04 -1.23609810E-04  0.00000000E+00
 -1.33184609E-06  1.52805274E-05  0.00000000E+00  0.00000000E+00  1.88845538E-05
  1.34140996E-05  0.00000000E+00  1.64752856E-04 -7.17194417E-05  0.00000000E+00
  0.00000000E+00 -2.40756632E-04  4.17377568E-05  9.76649178E-01 -9.84826124E-03
  4.35680740E-02  4.50049899E-03 -4.46570241E-04  2.14807764E-03  4.80729097E-04
  0.00000000E+00 -2.38393009E-03 -6.03428947E-04  0.00000000E+00  1.13940662E-03
 -4.00688398E-06  0.00000000E+00  4.38208618E-06 -4.28922344E-05  0.00000000E+00
 -2.32330542E-04  0.00000000E+00  0.00000000E+00  1.02722831E-04  3.18372260E-05
  3.90528723E-04  0.00000000E+00  0.00000000E+00 -8.34017671E-04 -4.19047154E-04
 -1.53774006E-04  0.00000000E+00  0.00000000E+00  2.56269233E-04  1.67428999E-05
  0.00000000E+00  5.22718071E-05  1.76830116E-05  0.00000000E+00  0.00000000E+00
 -2.21091469E-05 -1.32770258E-05  0.00000000E+00  1.38247118E-04  9.30082004E-06
  0.00000000E+00  0.00000000E+00 -1.89713293E-04 -1.40654164E-04  4.58763265E-04
  2.21549777E-03  2.13180242E-04  1.92518341E-05 -4.15294994E-05 -2.66886523E-04
  0.00000000E+00  1.04004736E-04 -1.35180891E-03  0.00000000E+00  3.06720452E-04
 -3.65845105E-04  0.00000000E+00 -1.73998350E-05  0.00000000E+00  0.00000000E+00
  4.97579783E-05  1.84596882E-05 -1.64092685E-04  0.00000000E+00  0.00000000E+00
 -5.42817916E-04 -2.37794100E-05  9.76833026E-01 -9.18166625E-03  4.34429641E-02
  4.10897682E-05 -1.22230682E-03 -1.56252350E-03  1.44209802E-03  0.00000000E+00
  1.56939536E-03 -1.33289730E-03  0.00000000E+00 -5.96816552E-04 -9.59170495E-04
  0.00000000E+00  6.01658298E-05 -4.27875157E-05  0.00000000E+00  3.32058849E-05
  0.00000000E+00  0.00000000E+00 -1.12542125E-04 -3.44263037E-06  7.68875619E-04
  0.00000000E+00  0.00000000E+00 -1.80451077E-04 -2.42159304E-04 -2.57995724E-04
  0.00000000E+00  0.00000000E+00  1.90505864E-04  1.24729486E-04  0.00000000E+00
 -6.36614281E-05  5.63199599E-06  0.00000000E+00  0.00000000E+00  2.09765595E-05