 Entering Gaussian System, Link 0=g16
 Input=hoono_r3_1p427483.gjf
 Output=hoono_r3_1p427483.log
 Initial command:
 /sw/contrib/gaussian/g16/B01/g16/l1.exe "/scr/Gau-597.inp" -scrdir="/scr/"
 Entering Link 1 = /sw/contrib/gaussian/g16/B01/g16/l1.exe PID=       599.
  
 Copyright (c) 1988-2017, Gaussian, Inc.  All Rights Reserved.
  
 This is part of the Gaussian(R) 16 program.  It is based on
 the Gaussian(R) 09 system (copyright 2009, Gaussian, Inc.),
 the Gaussian(R) 03 system (copyright 2003, Gaussian, Inc.),
 the Gaussian(R) 98 system (copyright 1998, Gaussian, Inc.),
 the Gaussian(R) 94 system (copyright 1995, Gaussian, Inc.),
 the Gaussian 92(TM) system (copyright 1992, Gaussian, Inc.),
 the Gaussian 90(TM) system (copyright 1990, Gaussian, Inc.),
 the Gaussian 88(TM) system (copyright 1988, Gaussian, Inc.),
 the Gaussian 86(TM) system (copyright 1986, Carnegie Mellon
 University), and the Gaussian 82(TM) system (copyright 1983,
 Carnegie Mellon University). Gaussian is a federally registered
 trademark of Gaussian, Inc.
  
 This software contains proprietary and confidential information,
 including trade secrets, belonging to Gaussian, Inc.
  
 This software is provided under written license and may be
 used, copied, transmitted, or stored only in accord with that
 written license.
  
 The following legend is applicable only to US Government
 contracts under FAR:
  
                    RESTRICTED RIGHTS LEGEND
  
 Use, reproduction and disclosure by the US Government is
 subject to restrictions as set forth in subparagraphs (a)
 and (c) of the Commercial Computer Software - Restricted
 Rights clause in FAR 52.227-19.
  
 Gaussian, Inc.
 340 Quinnipiac St., Bldg. 40, Wallingford CT 06492
  
  
 ---------------------------------------------------------------
 Warning -- This program may not be used in any manner that
 competes with the business of Gaussian, Inc. or will provide
 assistance to any competitor of Gaussian, Inc.  The licensee
 of this program is prohibited from giving any competitor of
 Gaussian, Inc. access to this program.  By using this program,
 the user acknowledges that Gaussian, Inc. is engaged in the
 business of creating and licensing software in the field of
 computational chemistry and represents and warrants to the
 licensee that it is not a competitor of Gaussian, Inc. and that
 it will not use this program in any manner prohibited above.
 ---------------------------------------------------------------
  

 Cite this work as:
 Gaussian 16, Revision B.01,
 M. J. Frisch, G. W. Trucks, H. B. Schlegel, G. E. Scuseria, 
 M. A. Robb, J. R. Cheeseman, G. Scalmani, V. Barone, 
 G. A. Petersson, H. Nakatsuji, X. Li, M. Caricato, A. V. Marenich, 
 J. Bloino, B. G. Janesko, R. Gomperts, B. Mennucci, H. P. Hratchian, 
 J. V. Ortiz, A. F. Izmaylov, J. L. Sonnenberg, D. Williams-Young, 
 F. Ding, F. Lipparini, F. Egidi, J. Goings, B. Peng, A. Petrone, 
 T. Henderson, D. Ranasinghe, V. G. Zakrzewski, J. Gao, N. Rega, 
 G. Zheng, W. Liang, M. Hada, M. Ehara, K. Toyota, R. Fukuda, 
 J. Hasegawa, M. Ishida, T. Nakajima, Y. Honda, O. Kitao, H. Nakai, 
 T. Vreven, K. Throssell, J. A. Montgomery, Jr., J. E. Peralta, 
 F. Ogliaro, M. J. Bearpark, J. J. Heyd, E. N. Brothers, K. N. Kudin, 
 V. N. Staroverov, T. A. Keith, R. Kobayashi, J. Normand, 
 K. Raghavachari, A. P. Rendell, J. C. Burant, S. S. Iyengar, 
 J. Tomasi, M. Cossi, J. M. Millam, M. Klene, C. Adamo, R. Cammi, 
 J. W. Ochterski, R. L. Martin, K. Morokuma, O. Farkas, 
 J. B. Foresman, and D. J. Fox, Gaussian, Inc., Wallingford CT, 2016.
 
 ******************************************
 Gaussian 16:  ES64L-G16RevB.01 20-Dec-2017
                21-Feb-2022 
 ******************************************
 %nproc=28
 Will use up to   28 processors via shared memory.
 %mem=120GB
 %chk=hoono_r3_1p427483.chk
 ---------------------------------------
 #p freq mp2/aug-cc-pvtz density=current
 ---------------------------------------
 1/10=4,30=1,38=1/1,3;
 2/12=2,17=6,18=5,40=1/2;
 3/5=16,6=1,7=10,11=9,25=1,30=1,71=2,140=1/1,2,3;
 4//1;
 5/5=2,38=5,98=1/2;
 8/6=3,8=1,10=1,19=11,30=-1/1;
 9/15=3,16=-3/6;
 11/6=1,8=1,15=11,17=12,24=-1,27=1,28=-2,29=300,32=6,42=3/1,2,10;
 10/6=2,21=1/2;
 8/6=4,8=1,10=1,19=11,30=-1/11,4;
 10/5=1,20=4/2;
 11/12=2,14=11,16=1,17=2,28=-2,42=3,76=2/2,10,12;
 6/7=2,8=2,9=2,10=2,22=-1/1;
 7/8=1,10=1,12=2,25=1,44=2/1,2,3,16;
 1/10=4,30=1/3;
 99//99;
 Leave Link    1 at Mon Feb 21 20:20:56 2022, MaxMem= 16106127360 cpu:               3.9 elap:               0.2
 (Enter /sw/contrib/gaussian/g16/B01/g16/l101.exe)
 -----
 title
 -----
 Symbolic Z-matrix:
 Charge =  0 Multiplicity = 1
 H
 O                    1    r1
 O                    2    r2       1    a1
 N                    3    r3       2    a2       1    d1       0
 O                    4    r4       3    a3       2    d2       0
       Variables:
  r1                    0.96898                  
  r2                    1.45492                  
  r3                    1.42748                  
  r4                    1.17073                  
  a1                   97.59495                  
  a2                  102.29752                  
  a3                  109.06955                  
  d1                  180.                       
  d2                  180.                       
 
 ITRead=  0  0  0  0  0
 MicOpt= -1 -1 -1 -1 -1
 NAtoms=      5 NQM=        5 NQMF=       0 NMMI=      0 NMMIF=      0
                NMic=       0 NMicF=      0.
                    Isotopes and Nuclear Properties:
 (Nuclear quadrupole moments (NQMom) in fm**2, nuclear magnetic moments (NMagM)
  in nuclear magnetons)

  Atom         1           2           3           4           5
 IAtWgt=           1          16          16          14          16
 AtmWgt=   1.0078250  15.9949146  15.9949146  14.0030740  15.9949146
 NucSpn=           1           0           0           2           0
 AtZEff=  -0.0000000  -0.0000000  -0.0000000  -0.0000000  -0.0000000
 NQMom=    0.0000000   0.0000000   0.0000000   2.0440000   0.0000000
 NMagM=    2.7928460   0.0000000   0.0000000   0.4037610   0.0000000
 AtZNuc=   1.0000000   8.0000000   8.0000000   7.0000000   8.0000000
 Leave Link  101 at Mon Feb 21 20:20:56 2022, MaxMem= 16106127360 cpu:               3.0 elap:               0.1
 (Enter /sw/contrib/gaussian/g16/B01/g16/l103.exe)

 GradGradGradGradGradGradGradGradGradGradGradGradGradGradGradGradGradGrad
 Berny optimization.
 Initialization pass.
                       ----------------------------
                       !    Initial Parameters    !
                       ! (Angstroms and Degrees)  !
 ----------------------                            ----------------------
 !      Name          Value   Derivative information (Atomic Units)     !
 ------------------------------------------------------------------------
 !       r1          0.969    calculate D2E/DX2 analytically            !
 !       r2          1.4549   calculate D2E/DX2 analytically            !
 !       r3          1.4275   calculate D2E/DX2 analytically            !
 !       r4          1.1707   calculate D2E/DX2 analytically            !
 !       a1         97.5949   calculate D2E/DX2 analytically            !
 !       a2        102.2975   calculate D2E/DX2 analytically            !
 !       a3        109.0696   calculate D2E/DX2 analytically            !
 !       d1        180.0      calculate D2E/DX2 analytically            !
 !       d2        180.0      calculate D2E/DX2 analytically            !
 ------------------------------------------------------------------------
 Trust Radius=3.00D-01 FncErr=1.00D-07 GrdErr=1.00D-07 EigMax=2.50D+02 EigMin=1.00D-04
 Number of steps in this run=      2 maximum allowed number of steps=      2.
 GradGradGradGradGradGradGradGradGradGradGradGradGradGradGradGradGradGrad

 Leave Link  103 at Mon Feb 21 20:20:56 2022, MaxMem= 16106127360 cpu:               1.6 elap:               0.1
 (Enter /sw/contrib/gaussian/g16/B01/g16/l202.exe)
                          Input orientation:                          
 ---------------------------------------------------------------------
 Center     Atomic      Atomic             Coordinates (Angstroms)
 Number     Number       Type             X           Y           Z
 ---------------------------------------------------------------------
      1          1           0        0.000000    0.000000    0.000000
      2          8           0        0.000000    0.000000    0.968976
      3          8           0        1.442156    0.000000    1.161271
      4          7           0        1.559185    0.000000    2.583949
      5          8           0        2.693301    0.000000    2.874444
 ---------------------------------------------------------------------
                    Distance matrix (angstroms):
                    1          2          3          4          5
     1  H    0.000000
     2  O    0.968976   0.000000
     3  O    1.851584   1.454919   0.000000
     4  N    3.017922   2.244816   1.427484   0.000000
     5  O    3.939073   3.299194   2.121398   1.170729   0.000000
 Stoichiometry    HNO3
 Framework group  CS[SG(HNO3)]
 Deg. of freedom     7
 Full point group                 CS      NOp   2
 Largest Abelian subgroup         CS      NOp   2
 Largest concise Abelian subgroup C1      NOp   1
                         Standard orientation:                         
 ---------------------------------------------------------------------
 Center     Atomic      Atomic             Coordinates (Angstroms)
 Number     Number       Type             X           Y           Z
 ---------------------------------------------------------------------
      1          1           0        1.553152    1.666589   -0.000000
      2          8           0        1.454251    0.702674   -0.000000
      3          8           0        0.000000    0.658580    0.000000
      4          7           0       -0.261628   -0.744723    0.000000
      5          8           0       -1.419471   -0.917945    0.000000
 ---------------------------------------------------------------------
 Rotational constants (GHZ):          56.3300308           5.0909767           4.6690031
 Leave Link  202 at Mon Feb 21 20:20:56 2022, MaxMem= 16106127360 cpu:               2.6 elap:               0.1
 (Enter /sw/contrib/gaussian/g16/B01/g16/l301.exe)
 Standard basis: Aug-CC-pVTZ (5D, 7F)
 Ernie: Thresh=  0.10000D-02 Tol=  0.10000D-05 Strict=F.
 Ernie:  12 primitive shells out of 131 were deleted.
 There are   166 symmetry adapted cartesian basis functions of A'  symmetry.
 There are    79 symmetry adapted cartesian basis functions of A"  symmetry.
 There are   136 symmetry adapted basis functions of A'  symmetry.
 There are    71 symmetry adapted basis functions of A"  symmetry.
   207 basis functions,   315 primitive gaussians,   245 cartesian basis functions
    16 alpha electrons       16 beta electrons
       nuclear repulsion energy       117.7382392949 Hartrees.
 IExCor=    0 DFT=F Ex=HF Corr=None ExCW=0 ScaHFX=  1.000000
 ScaDFX=  1.000000  1.000000  1.000000  1.000000 ScalE2=  1.000000  1.000000
 IRadAn=      5 IRanWt=     -1 IRanGd=            0 ICorTp=0 IEmpDi=  4
 NAtoms=    5 NActive=    5 NUniq=    5 SFac= 1.00D+00 NAtFMM=   60 NAOKFM=F Big=F
 Integral buffers will be    131072 words long.
 Raffenetti 1 integral format.
 Two-electron integral symmetry is turned on.
 Leave Link  301 at Mon Feb 21 20:20:56 2022, MaxMem= 16106127360 cpu:               2.1 elap:               0.1
 (Enter /sw/contrib/gaussian/g16/B01/g16/l302.exe)
 NPDir=0 NMtPBC=     1 NCelOv=     1 NCel=       1 NClECP=     1 NCelD=      1
         NCelK=      1 NCelE2=     1 NClLst=     1 CellRange=     0.0.
 One-electron integrals computed using PRISM.
 One-electron integral symmetry used in STVInt
 NBasis=   207 RedAO= T EigKep=  1.78D-04  NBF=   136    71
 NBsUse=   207 1.00D-06 EigRej= -1.00D+00 NBFU=   136    71
 Leave Link  302 at Mon Feb 21 20:20:57 2022, MaxMem= 16106127360 cpu:              18.4 elap:               0.7
 (Enter /sw/contrib/gaussian/g16/B01/g16/l303.exe)
 DipDrv:  MaxL=1.
 Leave Link  303 at Mon Feb 21 20:20:57 2022, MaxMem= 16106127360 cpu:               0.8 elap:               0.1
 (Enter /sw/contrib/gaussian/g16/B01/g16/l401.exe)
 ExpMin= 2.53D-02 ExpMax= 1.53D+04 ExpMxC= 5.22D+02 IAcc=3 IRadAn=         5 AccDes= 0.00D+00
 Harris functional with IExCor=  205 and IRadAn=       5 diagonalized for initial guess.
 HarFok:  IExCor=  205 AccDes= 0.00D+00 IRadAn=         5 IDoV= 1 UseB2=F ITyADJ=14
 ICtDFT=  3500011 ScaDFX=  1.000000  1.000000  1.000000  1.000000
 FoFCou: FMM=F IPFlag=           0 FMFlag=      100000 FMFlg1=           0
         NFxFlg=           0 DoJE=T BraDBF=F KetDBF=T FulRan=T
         wScrn=  0.000000 ICntrl=       500 IOpCl=  0 I1Cent=   200000004 NGrid=           0
         NMat0=    1 NMatS0=      1 NMatT0=    0 NMatD0=    1 NMtDS0=    0 NMtDT0=    0
 Petite list used in FoFCou.
 Harris En= -279.629812199057    
 JPrj=0 DoOrth=F DoCkMO=F.
 Initial guess orbital symmetries:
       Occupied  (A') (A') (A') (A') (A') (A') (A') (A') (A') (A')
                 (A") (A') (A') (A") (A") (A')
       Virtual   (A") (A') (A') (A') (A') (A') (A") (A') (A') (A')
                 (A") (A') (A") (A') (A') (A") (A') (A") (A') (A')
                 (A') (A') (A') (A') (A') (A") (A') (A") (A') (A')
                 (A") (A') (A") (A') (A') (A") (A') (A") (A') (A')
                 (A") (A') (A") (A') (A") (A') (A') (A') (A") (A")
                 (A') (A') (A') (A') (A") (A') (A") (A') (A") (A')
                 (A') (A') (A") (A') (A') (A") (A') (A") (A') (A')
                 (A") (A') (A') (A") (A") (A') (A') (A") (A') (A')
                 (A') (A") (A') (A") (A') (A") (A') (A") (A') (A')
                 (A') (A") (A') (A") (A') (A") (A") (A') (A") (A')
                 (A') (A') (A") (A') (A') (A') (A") (A') (A") (A')
                 (A") (A') (A') (A') (A") (A') (A') (A') (A") (A')
                 (A") (A') (A') (A") (A") (A') (A') (A") (A") (A')
                 (A') (A') (A') (A") (A") (A') (A") (A') (A') (A')
                 (A') (A") (A") (A') (A') (A") (A') (A') (A') (A')
                 (A") (A') (A') (A") (A') (A") (A') (A") (A') (A")
                 (A') (A") (A') (A") (A') (A") (A") (A") (A') (A')
                 (A") (A') (A") (A') (A") (A') (A") (A") (A') (A')
                 (A') (A') (A') (A') (A') (A') (A') (A') (A') (A')
                 (A')
 The electronic state of the initial guess is 1-A'.
 Leave Link  401 at Mon Feb 21 20:20:57 2022, MaxMem= 16106127360 cpu:               6.5 elap:               0.3
 (Enter /sw/contrib/gaussian/g16/B01/g16/l502.exe)
 Keep R1 ints in memory in symmetry-blocked form, NReq=348887737.
 FoFCou: FMM=F IPFlag=           0 FMFlag=           0 FMFlg1=           0
         NFxFlg=           0 DoJE=F BraDBF=F KetDBF=F FulRan=T
         wScrn=  0.000000 ICntrl=       600 IOpCl=  0 I1Cent=           0 NGrid=           0
         NMat0=    1 NMatS0=  21528 NMatT0=    0 NMatD0=    1 NMtDS0=    0 NMtDT0=    0
 Petite list used in FoFCou.
 Closed shell SCF:
 Using DIIS extrapolation, IDIIS=  1040.
 NGot= 16106127360 LenX= 15988850015 LenY= 15988789549
 Requested convergence on RMS density matrix=1.00D-08 within 128 cycles.
 Requested convergence on MAX density matrix=1.00D-06.
 Requested convergence on             energy=1.00D-06.
 No special actions if energy rises.

 Cycle   1  Pass 1  IDiag  1:
 E= -279.369649683699    
 DIIS: error= 2.54D-02 at cycle   1 NSaved=   1.
 NSaved= 1 IEnMin= 1 EnMin= -279.369649683699     IErMin= 1 ErrMin= 2.54D-02
 ErrMax= 2.54D-02  0.00D+00 EMaxC= 1.00D-01 BMatC= 4.43D-01 BMatP= 4.43D-01
 IDIUse=3 WtCom= 7.46D-01 WtEn= 2.54D-01
 Coeff-Com:  0.100D+01
 Coeff-En:   0.100D+01
 Coeff:      0.100D+01
 Gap=     0.522 Goal=   None    Shift=    0.000
 GapD=    0.522 DampG=2.000 DampE=0.500 DampFc=1.0000 IDamp=-1.
 RMSDP=1.65D-03 MaxDP=9.69D-02              OVMax= 1.18D-01

 Cycle   2  Pass 1  IDiag  1:
 E= -279.451237768142     Delta-E=       -0.081588084443 Rises=F Damp=F
 DIIS: error= 1.79D-02 at cycle   2 NSaved=   2.
 NSaved= 2 IEnMin= 2 EnMin= -279.451237768142     IErMin= 2 ErrMin= 1.79D-02
 ErrMax= 1.79D-02  0.00D+00 EMaxC= 1.00D-01 BMatC= 7.83D-02 BMatP= 4.43D-01
 IDIUse=3 WtCom= 8.21D-01 WtEn= 1.79D-01
 Coeff-Com:  0.206D+00 0.794D+00
 Coeff-En:   0.357D-01 0.964D+00
 Coeff:      0.176D+00 0.824D+00
 Gap=     0.535 Goal=   None    Shift=    0.000
 RMSDP=9.23D-04 MaxDP=3.81D-02 DE=-8.16D-02 OVMax= 6.60D-02

 Cycle   3  Pass 1  IDiag  1:
 E= -279.484251644818     Delta-E=       -0.033013876677 Rises=F Damp=F
 DIIS: error= 9.56D-03 at cycle   3 NSaved=   3.
 NSaved= 3 IEnMin= 3 EnMin= -279.484251644818     IErMin= 3 ErrMin= 9.56D-03
 ErrMax= 9.56D-03  0.00D+00 EMaxC= 1.00D-01 BMatC= 2.87D-02 BMatP= 7.83D-02
 IDIUse=3 WtCom= 9.04D-01 WtEn= 9.56D-02
 Coeff-Com: -0.339D-01 0.367D+00 0.667D+00
 Coeff-En:   0.000D+00 0.223D+00 0.777D+00
 Coeff:     -0.306D-01 0.353D+00 0.677D+00
 Gap=     0.510 Goal=   None    Shift=    0.000
 RMSDP=3.78D-04 MaxDP=1.48D-02 DE=-3.30D-02 OVMax= 4.06D-02

 Cycle   4  Pass 1  IDiag  1:
 E= -279.503431143132     Delta-E=       -0.019179498313 Rises=F Damp=F
 DIIS: error= 1.25D-03 at cycle   4 NSaved=   4.
 NSaved= 4 IEnMin= 4 EnMin= -279.503431143132     IErMin= 4 ErrMin= 1.25D-03
 ErrMax= 1.25D-03  0.00D+00 EMaxC= 1.00D-01 BMatC= 4.61D-04 BMatP= 2.87D-02
 IDIUse=3 WtCom= 9.88D-01 WtEn= 1.25D-02
 Coeff-Com: -0.109D-01 0.461D-01 0.144D+00 0.820D+00
 Coeff-En:   0.000D+00 0.000D+00 0.000D+00 0.100D+01
 Coeff:     -0.108D-01 0.455D-01 0.143D+00 0.823D+00
 Gap=     0.502 Goal=   None    Shift=    0.000
 RMSDP=8.98D-05 MaxDP=2.66D-03 DE=-1.92D-02 OVMax= 1.05D-02

 Cycle   5  Pass 1  IDiag  1:
 E= -279.504074953557     Delta-E=       -0.000643810425 Rises=F Damp=F
 DIIS: error= 6.79D-04 at cycle   5 NSaved=   5.
 NSaved= 5 IEnMin= 5 EnMin= -279.504074953557     IErMin= 5 ErrMin= 6.79D-04
 ErrMax= 6.79D-04  0.00D+00 EMaxC= 1.00D-01 BMatC= 8.15D-05 BMatP= 4.61D-04
 IDIUse=3 WtCom= 9.93D-01 WtEn= 6.79D-03
 Coeff-Com:  0.592D-02-0.678D-01-0.113D+00 0.310D-01 0.114D+01
 Coeff-En:   0.000D+00 0.000D+00 0.000D+00 0.000D+00 0.100D+01
 Coeff:      0.588D-02-0.674D-01-0.112D+00 0.308D-01 0.114D+01
 Gap=     0.502 Goal=   None    Shift=    0.000
 RMSDP=7.23D-05 MaxDP=2.03D-03 DE=-6.44D-04 OVMax= 1.06D-02

 Cycle   6  Pass 1  IDiag  1:
 E= -279.504359823087     Delta-E=       -0.000284869530 Rises=F Damp=F
 DIIS: error= 2.84D-04 at cycle   6 NSaved=   6.
 NSaved= 6 IEnMin= 6 EnMin= -279.504359823087     IErMin= 6 ErrMin= 2.84D-04
 ErrMax= 2.84D-04  0.00D+00 EMaxC= 1.00D-01 BMatC= 1.57D-05 BMatP= 8.15D-05
 IDIUse=3 WtCom= 9.97D-01 WtEn= 2.84D-03
 Coeff-Com:  0.504D-03 0.243D-02 0.548D-02-0.137D+00-0.214D+00 0.134D+01
 Coeff-En:   0.000D+00 0.000D+00 0.000D+00 0.000D+00 0.000D+00 0.100D+01
 Coeff:      0.503D-03 0.242D-02 0.547D-02-0.137D+00-0.214D+00 0.134D+01
 Gap=     0.502 Goal=   None    Shift=    0.000
 RMSDP=4.26D-05 MaxDP=1.16D-03 DE=-2.85D-04 OVMax= 5.33D-03

 Cycle   7  Pass 1  IDiag  1:
 E= -279.504424736283     Delta-E=       -0.000064913197 Rises=F Damp=F
 DIIS: error= 9.94D-05 at cycle   7 NSaved=   7.
 NSaved= 7 IEnMin= 7 EnMin= -279.504424736283     IErMin= 7 ErrMin= 9.94D-05
 ErrMax= 9.94D-05  0.00D+00 EMaxC= 1.00D-01 BMatC= 3.77D-06 BMatP= 1.57D-05
 IDIUse=1 WtCom= 1.00D+00 WtEn= 0.00D+00
 Coeff-Com: -0.901D-03 0.123D-01 0.245D-01-0.223D-01-0.262D+00 0.327D+00
 Coeff-Com:  0.921D+00
 Coeff:     -0.901D-03 0.123D-01 0.245D-01-0.223D-01-0.262D+00 0.327D+00
 Coeff:      0.921D+00
 Gap=     0.502 Goal=   None    Shift=    0.000
 RMSDP=1.24D-05 MaxDP=3.51D-04 DE=-6.49D-05 OVMax= 1.48D-03

 Cycle   8  Pass 1  IDiag  1:
 E= -279.504432411611     Delta-E=       -0.000007675328 Rises=F Damp=F
 DIIS: error= 5.59D-05 at cycle   8 NSaved=   8.
 NSaved= 8 IEnMin= 8 EnMin= -279.504432411611     IErMin= 8 ErrMin= 5.59D-05
 ErrMax= 5.59D-05  0.00D+00 EMaxC= 1.00D-01 BMatC= 5.41D-07 BMatP= 3.77D-06
 IDIUse=1 WtCom= 1.00D+00 WtEn= 0.00D+00
 Coeff-Com: -0.408D-03 0.301D-02 0.687D-02 0.266D-01-0.419D-01-0.190D+00
 Coeff-Com:  0.208D+00 0.988D+00
 Coeff:     -0.408D-03 0.301D-02 0.687D-02 0.266D-01-0.419D-01-0.190D+00
 Coeff:      0.208D+00 0.988D+00
 Gap=     0.502 Goal=   None    Shift=    0.000
 RMSDP=6.03D-06 MaxDP=1.86D-04 DE=-7.68D-06 OVMax= 6.54D-04

 Cycle   9  Pass 1  IDiag  1:
 E= -279.504433883384     Delta-E=       -0.000001471773 Rises=F Damp=F
 DIIS: error= 1.60D-05 at cycle   9 NSaved=   9.
 NSaved= 9 IEnMin= 9 EnMin= -279.504433883384     IErMin= 9 ErrMin= 1.60D-05
 ErrMax= 1.60D-05  0.00D+00 EMaxC= 1.00D-01 BMatC= 6.85D-08 BMatP= 5.41D-07
 IDIUse=1 WtCom= 1.00D+00 WtEn= 0.00D+00
 Coeff-Com:  0.107D-03-0.154D-02-0.276D-02-0.718D-03 0.327D-01-0.661D-02
 Coeff-Com: -0.177D+00-0.505D-01 0.121D+01
 Coeff:      0.107D-03-0.154D-02-0.276D-02-0.718D-03 0.327D-01-0.661D-02
 Coeff:     -0.177D+00-0.505D-01 0.121D+01
 Gap=     0.502 Goal=   None    Shift=    0.000
 RMSDP=1.84D-06 MaxDP=6.34D-05 DE=-1.47D-06 OVMax= 1.73D-04

 Cycle  10  Pass 1  IDiag  1:
 E= -279.504434035985     Delta-E=       -0.000000152601 Rises=F Damp=F
 DIIS: error= 4.28D-06 at cycle  10 NSaved=  10.
 NSaved=10 IEnMin=10 EnMin= -279.504434035985     IErMin=10 ErrMin= 4.28D-06
 ErrMax= 4.28D-06  0.00D+00 EMaxC= 1.00D-01 BMatC= 5.72D-09 BMatP= 6.85D-08
 IDIUse=1 WtCom= 1.00D+00 WtEn= 0.00D+00
 Coeff-Com:  0.341D-04-0.270D-03-0.396D-03-0.293D-02 0.261D-02 0.212D-01
 Coeff-Com: -0.212D-01-0.793D-01-0.670D-01 0.115D+01
 Coeff:      0.341D-04-0.270D-03-0.396D-03-0.293D-02 0.261D-02 0.212D-01
 Coeff:     -0.212D-01-0.793D-01-0.670D-01 0.115D+01
 Gap=     0.502 Goal=   None    Shift=    0.000
 RMSDP=5.20D-07 MaxDP=2.16D-05 DE=-1.53D-07 OVMax= 4.55D-05

 Cycle  11  Pass 1  IDiag  1:
 E= -279.504434049329     Delta-E=       -0.000000013344 Rises=F Damp=F
 DIIS: error= 2.01D-06 at cycle  11 NSaved=  11.
 NSaved=11 IEnMin=11 EnMin= -279.504434049329     IErMin=11 ErrMin= 2.01D-06
 ErrMax= 2.01D-06  0.00D+00 EMaxC= 1.00D-01 BMatC= 6.83D-10 BMatP= 5.72D-09
 IDIUse=1 WtCom= 1.00D+00 WtEn= 0.00D+00
 Coeff-Com: -0.212D-04 0.237D-03 0.481D-03 0.524D-03-0.452D-02-0.351D-02
 Coeff-Com:  0.243D-01 0.292D-01-0.140D+00-0.210D+00 0.130D+01
 Coeff:     -0.212D-04 0.237D-03 0.481D-03 0.524D-03-0.452D-02-0.351D-02
 Coeff:      0.243D-01 0.292D-01-0.140D+00-0.210D+00 0.130D+01
 Gap=     0.502 Goal=   None    Shift=    0.000
 RMSDP=1.88D-07 MaxDP=7.13D-06 DE=-1.33D-08 OVMax= 1.75D-05

 Cycle  12  Pass 1  IDiag  1:
 E= -279.504434051236     Delta-E=       -0.000000001907 Rises=F Damp=F
 DIIS: error= 5.44D-07 at cycle  12 NSaved=  12.
 NSaved=12 IEnMin=12 EnMin= -279.504434051236     IErMin=12 ErrMin= 5.44D-07
 ErrMax= 5.44D-07  0.00D+00 EMaxC= 1.00D-01 BMatC= 6.47D-11 BMatP= 6.83D-10
 IDIUse=1 WtCom= 1.00D+00 WtEn= 0.00D+00
 Coeff-Com:  0.935D-06-0.247D-04-0.545D-04 0.218D-03 0.980D-03-0.236D-02
 Coeff-Com: -0.394D-02 0.633D-02 0.401D-01-0.101D+00-0.285D+00 0.134D+01
 Coeff:      0.935D-06-0.247D-04-0.545D-04 0.218D-03 0.980D-03-0.236D-02
 Coeff:     -0.394D-02 0.633D-02 0.401D-01-0.101D+00-0.285D+00 0.134D+01
 Gap=     0.502 Goal=   None    Shift=    0.000
 RMSDP=7.01D-08 MaxDP=2.77D-06 DE=-1.91D-09 OVMax= 6.13D-06

 Cycle  13  Pass 1  IDiag  1:
 E= -279.504434051442     Delta-E=       -0.000000000206 Rises=F Damp=F
 DIIS: error= 1.53D-07 at cycle  13 NSaved=  13.
 NSaved=13 IEnMin=13 EnMin= -279.504434051442     IErMin=13 ErrMin= 1.53D-07
 ErrMax= 1.53D-07  0.00D+00 EMaxC= 1.00D-01 BMatC= 3.20D-12 BMatP= 6.47D-11
 IDIUse=1 WtCom= 1.00D+00 WtEn= 0.00D+00
 Coeff-Com:  0.121D-05-0.129D-04-0.217D-04-0.843D-04 0.143D-03 0.688D-03
 Coeff-Com: -0.102D-02-0.293D-02 0.746D-03 0.364D-01-0.316D-01-0.295D+00
 Coeff-Com:  0.129D+01
 Coeff:      0.121D-05-0.129D-04-0.217D-04-0.843D-04 0.143D-03 0.688D-03
 Coeff:     -0.102D-02-0.293D-02 0.746D-03 0.364D-01-0.316D-01-0.295D+00
 Coeff:      0.129D+01
 Gap=     0.502 Goal=   None    Shift=    0.000
 RMSDP=1.72D-08 MaxDP=4.61D-07 DE=-2.06D-10 OVMax= 1.40D-06

 Cycle  14  Pass 1  IDiag  1:
 E= -279.504434051453     Delta-E=       -0.000000000011 Rises=F Damp=F
 DIIS: error= 2.04D-08 at cycle  14 NSaved=  14.
 NSaved=14 IEnMin=14 EnMin= -279.504434051453     IErMin=14 ErrMin= 2.04D-08
 ErrMax= 2.04D-08  0.00D+00 EMaxC= 1.00D-01 BMatC= 1.52D-13 BMatP= 3.20D-12
 IDIUse=1 WtCom= 1.00D+00 WtEn= 0.00D+00
 Coeff-Com: -0.157D-06 0.258D-05 0.467D-05 0.257D-05-0.739D-04 0.467D-04
 Coeff-Com:  0.288D-03 0.144D-03-0.221D-02 0.101D-02 0.158D-01-0.261D-01
 Coeff-Com: -0.188D+00 0.120D+01
 Coeff:     -0.157D-06 0.258D-05 0.467D-05 0.257D-05-0.739D-04 0.467D-04
 Coeff:      0.288D-03 0.144D-03-0.221D-02 0.101D-02 0.158D-01-0.261D-01
 Coeff:     -0.188D+00 0.120D+01
 Gap=     0.502 Goal=   None    Shift=    0.000
 RMSDP=3.41D-09 MaxDP=8.61D-08 DE=-1.11D-11 OVMax= 3.07D-07

 SCF Done:  E(RHF) =  -279.504434051     A.U. after   14 cycles
            NFock= 14  Conv=0.34D-08     -V/T= 2.0022
 KE= 2.788989667476D+02 PE=-8.968120372014D+02 EE= 2.206703971074D+02
 Leave Link  502 at Mon Feb 21 20:21:01 2022, MaxMem= 16106127360 cpu:              55.0 elap:               3.6
 (Enter /sw/contrib/gaussian/g16/B01/g16/l801.exe)
 ExpMin= 2.53D-02 ExpMax= 1.53D+04 ExpMxC= 5.22D+02 IAcc=3 IRadAn=         5 AccDes= 0.00D+00
 HarFok:  IExCor=  205 AccDes= 0.00D+00 IRadAn=         5 IDoV=-2 UseB2=F ITyADJ=14
 ICtDFT= 12500011 ScaDFX=  1.000000  1.000000  1.000000  1.000000
 Largest valence mixing into a core orbital is  2.07D-04
 Largest core mixing into a valence orbital is  3.53D-05
 Range of M.O.s used for correlation:     5   207
 NBasis=   207 NAE=    16 NBE=    16 NFC=     4 NFV=     0
 NROrb=    203 NOA=    12 NOB=    12 NVA=   191 NVB=   191

 **** Warning!!: The largest alpha MO coefficient is  0.17992150D+02

 Leave Link  801 at Mon Feb 21 20:21:01 2022, MaxMem= 16106127360 cpu:               3.6 elap:               0.2
 (Enter /sw/contrib/gaussian/g16/B01/g16/l906.exe)
 Frozen-core derivative calculation, NFC=   4 NFV=   0.
 FulOut=F Deriv=T AODrv=T NAtomX=     5
   MMem=           0  MDisk=          12 MDiskD=          12
  W3Min=      811440 MinDsk=     2425030 NBas6D=         245
 NBas2D=       30762    NTT=       30135    LW2=     7400000
    MDV= 16105574227 MDiskM=      328644 NBas2p=       30702
 Disk-based method using ON**2 memory for 12 occupieds at a time.
 Permanent disk used for amplitudes=    11516536 words.
 Estimated scratch disk usage=   321251614 words.
 IMap=   1   2   3   4   5   6   7   8   9  10  11  12  13  14  15  16
 Actual    scratch disk usage=   310331678 words.
 JobTyp=1 Pass  1:  I=   5 to  16 NPSUse= 28 ParTrn=T ParDer=T DoDerP=T.
 (rs|ai) integrals will be sorted in core.
 Spin components of T(2) and E(2):
     alpha-alpha T2 =       0.3365530063D-01 E2=     -0.1220610305D+00
     alpha-beta  T2 =       0.1846944999D+00 E2=     -0.6979612386D+00
     beta-beta   T2 =       0.3365530063D-01 E2=     -0.1220610305D+00
 The integrals were generated   1 times.
 ANorm=    0.1118930338D+01
 E2 =    -0.9420832995D+00 EUMP2 =    -0.28044651735100D+03
 Leave Link  906 at Mon Feb 21 20:22:38 2022, MaxMem= 16106127360 cpu:            2700.9 elap:              96.6
 (Enter /sw/contrib/gaussian/g16/B01/g16/l1101.exe)
 Using compressed Sx but separate Hx and Fx, NAtomX=     5.
 Will process      6 centers per pass.
 Leave Link 1101 at Mon Feb 21 20:22:38 2022, MaxMem= 16106127360 cpu:               5.0 elap:               0.2
 (Enter /sw/contrib/gaussian/g16/B01/g16/l1102.exe)
 Leave Link 1102 at Mon Feb 21 20:22:38 2022, MaxMem= 16106127360 cpu:               1.6 elap:               0.1
 (Enter /sw/contrib/gaussian/g16/B01/g16/l1110.exe)
 Forming Gx(P) for the SCF density, NAtomX=     5.
 Integral derivatives from FoFJK, PRISM(SPDF).
 Do as many integral derivatives as possible in FoFJK.
 G2DrvN: MDV=   16106126844.
 G2DrvN: will do     6 centers at a time, making    1 passes.
 Calling FoFCou, ICntrl=  3107 FMM=F I1Cent=   0 AccDes= 0.00D+00.
 FoFJK:  IHMeth= 1 ICntrl=    3107 DoSepK=F KAlg= 0 I1Cent=           0 FoldK=F
 IRaf=         0 NMat=       1 IRICut=       1 DoRegI=T DoRafI=F ISym2E= 1 IDoP0=0 IntGTp=1.
 FoFCou: FMM=F IPFlag=           0 FMFlag=      100000 FMFlg1=           0
         NFxFlg=           0 DoJE=F BraDBF=F KetDBF=F FulRan=T
         wScrn=  0.000000 ICntrl=      3107 IOpCl=  0 I1Cent=           0 NGrid=           0
         NMat0=    1 NMatS0=      1 NMatT0=    0 NMatD0=    1 NMtDS0=    0 NMtDT0=    0
 Petite list used in FoFCou.
 End of G2Drv F.D. properties file   721 does not exist.
 End of G2Drv F.D. properties file   722 does not exist.
 End of G2Drv F.D. properties file   788 does not exist.
 Leave Link 1110 at Mon Feb 21 20:22:41 2022, MaxMem= 16106127360 cpu:              83.3 elap:               3.0
 (Enter /sw/contrib/gaussian/g16/B01/g16/l1002.exe)
 Minotr:  Closed shell wavefunction.
          IDoAtm=11111
          Frozen-core window.
          Direct CPHF calculation.
          Differentiating once with respect to electric field.
                with respect to dipole field.
          Differentiating once with respect to nuclear coordinates.
          Requested convergence is 1.0D-08 RMS, and 1.0D-07 maximum.
          Secondary convergence is 1.0D-12 RMS, and 1.0D-12 maximum.
          NewPWx=T KeepS1=T KeepF1=T KeepIn=T MapXYZ=F SortEE=F KeepMc=T.
 Keep R1 ints in memory in symmetry-blocked form, NReq=348888983.
 FoFCou: FMM=F IPFlag=           0 FMFlag=           0 FMFlg1=           0
         NFxFlg=           0 DoJE=F BraDBF=F KetDBF=F FulRan=T
         wScrn=  0.000000 ICntrl=       600 IOpCl=  0 I1Cent=           0 NGrid=           0
         NMat0=    1 NMatS0=  21528 NMatT0=    0 NMatD0=    1 NMtDS0=    0 NMtDT0=    0
 Petite list used in FoFCou.
          MDV=   16106127360 using IRadAn=       1.
          Solving linear equations simultaneously, MaxMat=       0.
          There are    18 degrees of freedom in the 1st order CPHF.  IDoFFX=6 NUNeed=    18.
     15 vectors produced by pass  0 Test12= 1.70D-14 5.56D-09 XBig12= 8.24D+00 1.00D+00.
 AX will form    15 AO Fock derivatives at one time.
     15 vectors produced by pass  1 Test12= 1.70D-14 5.56D-09 XBig12= 1.30D+00 2.07D-01.
     15 vectors produced by pass  2 Test12= 1.70D-14 5.56D-09 XBig12= 1.33D-01 9.06D-02.
     15 vectors produced by pass  3 Test12= 1.70D-14 5.56D-09 XBig12= 4.49D-03 1.00D-02.
     15 vectors produced by pass  4 Test12= 1.70D-14 5.56D-09 XBig12= 9.00D-05 1.71D-03.
     15 vectors produced by pass  5 Test12= 1.70D-14 5.56D-09 XBig12= 1.23D-06 1.48D-04.
     15 vectors produced by pass  6 Test12= 1.70D-14 5.56D-09 XBig12= 9.74D-09 1.44D-05.
     12 vectors produced by pass  7 Test12= 1.70D-14 5.56D-09 XBig12= 7.04D-11 1.19D-06.
      3 vectors produced by pass  8 Test12= 1.70D-14 5.56D-09 XBig12= 5.13D-13 1.16D-07.
      2 vectors produced by pass  9 Test12= 1.70D-14 5.56D-09 XBig12= 3.60D-15 1.02D-08.
 InvSVY:  IOpt=1 It=  1 EMax= 1.22D-15
 Solved reduced A of dimension   122 with    15 vectors.
 FullF1:  Do perturbations      1 to      18.
 Saving first derivative matrices.
 End of Minotr F.D. properties file   721 does not exist.
 End of Minotr F.D. properties file   722 does not exist.
 End of Minotr F.D. properties file   788 does not exist.
 Leave Link 1002 at Mon Feb 21 20:22:44 2022, MaxMem= 16106127360 cpu:              80.5 elap:               2.9
 (Enter /sw/contrib/gaussian/g16/B01/g16/l811.exe)
 MDV= 16106127360.
 Form MO integral derivatives with frozen-active canonical formalism.
 MOERI=1 MOERIx=1 NAtoms=     5 NAtomX=     5.
 Discarding MO integrals.
 MO basis two electron integral derivatives will not be stored on disk.
 IAlg= 3 DoFC=T DoPWx=T Debug=F.
 Frozen-core window:  NFC=   4 NFV=   0.
 Reordered first order wavefunction length =     18678272
 In DefCFB: NBatch=  1 ICI= 16 ICA=191 LFMax= 96
            Large arrays: LIAPS=   619940160 LIARS=   288257200 words.
 In StABat: MaxSiz= 55 MinSiz= 25 NAtomB=  5
 DoIAMN: NPSUse= 28.
 Leave Link  811 at Mon Feb 21 20:24:03 2022, MaxMem= 16106127360 cpu:            2213.4 elap:              79.2
 (Enter /sw/contrib/gaussian/g16/B01/g16/l804.exe)
 Frozen-core window:  NFC=   4 NFV=   0.
 Closed-shell transformation, MDV= 16106127360 ITran=4 ISComp=1.
 Semi-Direct transformation.
 ModeAB=           2 MOrb=            16 LenV=   16104922911
 LASXX=     67341636 LTotXX=    67341636 LenRXX=    67341636
 LTotAB=    68301760 MaxLAS=    99807120 LenRXY=    99807120
 NonZer=   134683272 LenScr=   202817536 LnRSAI=           0
 LnScr1=           0 LExtra=           0 Total=    369966292
 MaxDsk=          -1 SrtSym=           F ITran=            4
 DoSDTr:  NPSUse= 28
 JobTyp=0 Pass  1:  I=   1 to  16.
 (rs|ai) integrals will be sorted in core.
 Complete sort for first half transformation.
 First half transformation complete.
 Begin second half transformation for I=  10.
 Begin second half transformation for I=  10.
 Complete sort for second half transformation.
 Second half transformation complete.
 Spin components of T(2) and E(2):
     alpha-alpha T2 =       0.3365530063D-01 E2=     -0.1220610305D+00
     alpha-beta  T2 =       0.1846944999D+00 E2=     -0.6979612386D+00
     beta-beta   T2 =       0.3365530063D-01 E2=     -0.1220610305D+00
 ANorm=    0.1582406459D+01
 E2 =    -0.9420832995D+00 EUMP2 =    -0.28044651735100D+03
 Leave Link  804 at Mon Feb 21 20:24:19 2022, MaxMem= 16106127360 cpu:             442.3 elap:              15.8
 (Enter /sw/contrib/gaussian/g16/B01/g16/l1002.exe)
 Minotr:  Closed shell wavefunction.
          Computing MP2/KS-MP2 derivatives.
          Using Z-Vector for PSCF gradient.
          Skipping F1 and S1 gradient terms here.
          IDoAtm=11111
          Frozen-core window.
          Using MO integrals in the linear equations.
          Forming densities via direct SCF.
          Differentiating once with respect to electric field.
                with respect to dipole field.
          Differentiating once with respect to nuclear coordinates.
          Using symmetry in CPHF.
          Requested convergence is 1.0D-10 RMS, and 1.0D-09 maximum.
          NewPWx=F KeepS1=T KeepF1=T KeepIn=T MapXYZ=F SortEE=F KeepMc=T.
          MDV=   16106127360 using IRadAn=       5.
          Solving linear equations separately, MaxMat=       0.
          There are     1 degrees of freedom in the 1st order CPHF.  IDoFFX=0 NUNeed=     1.
 FoFJK:  IHMeth= 1 ICntrl=       0 DoSepK=F KAlg= 0 I1Cent=           0 FoldK=F
 IRaf=         0 NMat=       1 IRICut=       1 DoRegI=T DoRafI=F ISym2E= 0 IDoP0=0 IntGTp=1.
 FoFCou: FMM=F IPFlag=           0 FMFlag=      100000 FMFlg1=           0
         NFxFlg=           0 DoJE=F BraDBF=F KetDBF=F FulRan=T
         wScrn=  0.000000 ICntrl=         0 IOpCl=  0 I1Cent=           0 NGrid=           0
         NMat0=    1 NMatS0=      1 NMatT0=    0 NMatD0=    1 NMtDS0=    0 NMtDT0=    0
 Symmetry not used in FoFCou.
 LinEq1:  Iter=  0 NonCon=     1 RMS=5.84D-03 Max=1.33D-01 NDo=     1
 LinEq1:  Iter=  1 NonCon=     1 RMS=1.81D-03 Max=3.57D-02 NDo=     1
 LinEq1:  Iter=  2 NonCon=     1 RMS=8.23D-04 Max=1.19D-02 NDo=     1
 LinEq1:  Iter=  3 NonCon=     1 RMS=3.65D-04 Max=7.76D-03 NDo=     1
 LinEq1:  Iter=  4 NonCon=     1 RMS=1.13D-04 Max=1.38D-03 NDo=     1
 LinEq1:  Iter=  5 NonCon=     1 RMS=4.34D-05 Max=6.92D-04 NDo=     1
 LinEq1:  Iter=  6 NonCon=     1 RMS=1.95D-05 Max=2.19D-04 NDo=     1
 LinEq1:  Iter=  7 NonCon=     1 RMS=7.66D-06 Max=1.39D-04 NDo=     1
 LinEq1:  Iter=  8 NonCon=     1 RMS=3.28D-06 Max=2.94D-05 NDo=     1
 LinEq1:  Iter=  9 NonCon=     1 RMS=8.84D-07 Max=1.11D-05 NDo=     1
 LinEq1:  Iter= 10 NonCon=     1 RMS=1.68D-07 Max=1.74D-06 NDo=     1
 LinEq1:  Iter= 11 NonCon=     1 RMS=3.05D-08 Max=3.03D-07 NDo=     1
 LinEq1:  Iter= 12 NonCon=     1 RMS=7.33D-09 Max=1.09D-07 NDo=     1
 LinEq1:  Iter= 13 NonCon=     1 RMS=1.35D-09 Max=2.16D-08 NDo=     1
 LinEq1:  Iter= 14 NonCon=     1 RMS=2.40D-10 Max=3.02D-09 NDo=     1
 LinEq1:  Iter= 15 NonCon=     0 RMS=4.35D-11 Max=4.38D-10 NDo=     1
 Linear equations converged to 1.000D-10 1.000D-09 after    15 iterations.
 End of Minotr F.D. properties file   721 does not exist.
 End of Minotr F.D. properties file   722 does not exist.
 End of Minotr F.D. properties file   788 does not exist.
 Leave Link 1002 at Mon Feb 21 20:24:21 2022, MaxMem= 16106127360 cpu:              64.2 elap:               2.3
 (Enter /sw/contrib/gaussian/g16/B01/g16/l1102.exe)
 Use density number 2.
 Symmetrizing basis deriv contribution to polar:
 IMax=3 JMax=2 DiffMx= 0.00D+00
 Leave Link 1102 at Mon Feb 21 20:24:22 2022, MaxMem= 16106127360 cpu:               0.7 elap:               0.1
 (Enter /sw/contrib/gaussian/g16/B01/g16/l1110.exe)
 Forming Gx(P) for generalized density number  2 NAtomX=     5.
 Integral derivatives from FoFJK, PRISM(SPDF).
 Do as many integral derivatives as possible in FoFJK.
 G2DrvN: MDV=   16106126844.
 G2DrvN: will do     6 centers at a time, making    1 passes.
 Calling FoFCou, ICntrl=  3107 FMM=F I1Cent=   0 AccDes= 0.00D+00.
 FoFJK:  IHMeth= 1 ICntrl=    3107 DoSepK=F KAlg= 0 I1Cent=           0 FoldK=F
 IRaf=         0 NMat=       1 IRICut=       1 DoRegI=T DoRafI=F ISym2E= 1 IDoP0=0 IntGTp=1.
 FoFCou: FMM=F IPFlag=           0 FMFlag=      100000 FMFlg1=           0
         NFxFlg=           0 DoJE=F BraDBF=F KetDBF=F FulRan=T
         wScrn=  0.000000 ICntrl=      3107 IOpCl=  0 I1Cent=           0 NGrid=           0
         NMat0=    1 NMatS0=      1 NMatT0=    0 NMatD0=    1 NMtDS0=    0 NMtDT0=    0
 Petite list used in FoFCou.
 End of G2Drv F.D. properties file   721 does not exist.
 End of G2Drv F.D. properties file   722 does not exist.
 End of G2Drv F.D. properties file   788 does not exist.
 Leave Link 1110 at Mon Feb 21 20:24:25 2022, MaxMem= 16106127360 cpu:              84.0 elap:               3.0
 (Enter /sw/contrib/gaussian/g16/B01/g16/l1112.exe)
 MP22nd: MDV=   16106127360
 This link is doing NAtomX=     5 total of    18 degrees of freedom.
 Using ON3 I/O method in MakUI.
 Frozen-core window:  NFC=   4 NFV=   0.
 Using Ix for Sx.
 Use MO integrals over full window.
 Using OV2 memory method for fx*t*t/D, MaxI=    16 DoOO2=F NP=  28.
 R2 and R3 integrals will be kept in memory, NReq=   915591705.
 FoFCou: FMM=F IPFlag=           0 FMFlag=           0 FMFlg1=           0
         NFxFlg=           0 DoJE=F BraDBF=F KetDBF=F FulRan=T
         wScrn=  0.000000 ICntrl=       600 IOpCl=  0 I1Cent=           0 NGrid=           0
         NMat0=    1 NMatS0=      1 NMatT0=    0 NMatD0=    1 NMtDS0=    0 NMtDT0=    0
 Symmetry not used in FoFCou.
 DD1Dir will call FoFMem   1 times, MxPair=       272
 NAB=   136 NAA=     0 NBB=     0.
 Symmetry is being used.
 FoFJK:  IHMeth= 1 ICntrl=       0 DoSepK=F KAlg= 0 I1Cent=           0 FoldK=F
 IRaf=         0 NMat=      18 IRICut=      45 DoRegI=T DoRafI=T ISym2E= 2 IDoP0=3 IntGTp=3.
 Discarding MO integrals.
 Leave Link 1112 at Mon Feb 21 20:25:03 2022, MaxMem= 16106127360 cpu:            1067.1 elap:              38.6
 (Enter /sw/contrib/gaussian/g16/B01/g16/l601.exe)
 Copying SCF densities to generalized density rwf, IOpCl= 0 IROHF=0.

 **********************************************************************

            Population analysis using the MP2 Density.

 **********************************************************************

 Orbital symmetries:
       Occupied  (A') (A') (A') (A') (A') (A') (A') (A') (A') (A')
                 (A") (A') (A") (A') (A") (A')
       Virtual   (A') (A") (A') (A') (A') (A") (A') (A') (A") (A')
                 (A") (A') (A') (A') (A") (A') (A') (A") (A') (A')
                 (A') (A') (A') (A') (A") (A') (A') (A") (A') (A')
                 (A") (A') (A") (A') (A') (A") (A') (A") (A') (A")
                 (A') (A') (A") (A') (A') (A") (A') (A') (A") (A')
                 (A") (A') (A') (A') (A") (A') (A") (A') (A") (A')
                 (A') (A') (A") (A') (A') (A") (A') (A") (A') (A')
                 (A") (A') (A') (A") (A") (A') (A') (A") (A') (A')
                 (A') (A") (A') (A") (A") (A') (A') (A") (A') (A')
                 (A") (A') (A') (A") (A') (A") (A') (A") (A') (A')
                 (A") (A') (A") (A') (A') (A') (A") (A') (A") (A')
                 (A") (A') (A') (A') (A") (A') (A') (A') (A') (A")
                 (A") (A') (A") (A') (A') (A") (A") (A') (A") (A')
                 (A') (A') (A') (A") (A") (A") (A') (A') (A') (A')
                 (A") (A') (A") (A') (A') (A") (A') (A') (A') (A')
                 (A") (A') (A') (A") (A') (A") (A') (A") (A') (A")
                 (A') (A") (A') (A") (A') (A") (A") (A') (A") (A')
                 (A") (A') (A") (A') (A") (A') (A") (A") (A') (A')
                 (A') (A') (A') (A') (A') (A') (A') (A') (A') (A')
                 (A')
 The electronic state is 1-A'.
 Alpha  occ. eigenvalues --  -20.69618 -20.67680 -20.66380 -15.80784  -1.62643
 Alpha  occ. eigenvalues --   -1.49989  -1.26390  -0.94589  -0.77538  -0.76307
 Alpha  occ. eigenvalues --   -0.71756  -0.67776  -0.61878  -0.59100  -0.48831
 Alpha  occ. eigenvalues --   -0.47355
 Alpha virt. eigenvalues --    0.02877   0.07573   0.08648   0.10204   0.13367
 Alpha virt. eigenvalues --    0.13408   0.14345   0.15392   0.17757   0.19420
 Alpha virt. eigenvalues --    0.19998   0.21002   0.21982   0.23402   0.23778
 Alpha virt. eigenvalues --    0.26611   0.30291   0.30321   0.31498   0.34574
 Alpha virt. eigenvalues --    0.35130   0.38932   0.42081   0.43064   0.52882
 Alpha virt. eigenvalues --    0.53053   0.56204   0.58332   0.62821   0.64017
 Alpha virt. eigenvalues --    0.67529   0.68432   0.70516   0.71044   0.72378
 Alpha virt. eigenvalues --    0.72731   0.74369   0.79092   0.79359   0.81058
 Alpha virt. eigenvalues --    0.81158   0.83224   0.87053   0.90840   0.92077
 Alpha virt. eigenvalues --    0.92863   0.95364   0.98190   0.98343   1.01394
 Alpha virt. eigenvalues --    1.05350   1.05635   1.08536   1.12005   1.14450
 Alpha virt. eigenvalues --    1.19113   1.22160   1.23354   1.34244   1.35632
 Alpha virt. eigenvalues --    1.38260   1.45825   1.48796   1.50744   1.54005
 Alpha virt. eigenvalues --    1.57053   1.58593   1.61487   1.66612   1.67035
 Alpha virt. eigenvalues --    1.70618   1.79335   1.83302   1.84014   1.87764
 Alpha virt. eigenvalues --    1.91396   1.95636   1.99848   2.00819   2.08797
 Alpha virt. eigenvalues --    2.12424   2.13641   2.14562   2.23056   2.26240
 Alpha virt. eigenvalues --    2.26426   2.29534   2.31525   2.35195   2.38585
 Alpha virt. eigenvalues --    2.42890   2.43585   2.45875   2.46678   2.48166
 Alpha virt. eigenvalues --    2.50614   2.58675   2.59924   2.62720   2.62851
 Alpha virt. eigenvalues --    2.63224   2.67161   2.76281   2.83821   2.86928
 Alpha virt. eigenvalues --    2.89224   2.89578   2.94916   2.95959   3.03742
 Alpha virt. eigenvalues --    3.07987   3.13208   3.19983   3.23502   3.32228
 Alpha virt. eigenvalues --    3.35110   3.52185   3.65528   3.85307   3.85324
 Alpha virt. eigenvalues --    4.14882   4.15701   4.18914   4.27179   4.35145
 Alpha virt. eigenvalues --    4.39469   4.46170   4.52306   4.67317   4.71441
 Alpha virt. eigenvalues --    4.81091   4.82468   4.85033   4.89878   5.03366
 Alpha virt. eigenvalues --    5.08692   5.11391   5.14389   5.18770   5.25099
 Alpha virt. eigenvalues --    5.28291   5.31516   5.33349   5.36841   5.61241
 Alpha virt. eigenvalues --    5.67933   5.78724   5.82713   5.96428   6.18223
 Alpha virt. eigenvalues --    6.30926   6.35041   6.40275   6.50101   6.51218
 Alpha virt. eigenvalues --    6.61499   6.66635   6.71190   6.75499   6.76281
 Alpha virt. eigenvalues --    6.84091   6.90925   7.02211   7.05439   7.06221
 Alpha virt. eigenvalues --    7.08980   7.13413   7.15867   7.18301   7.23869
 Alpha virt. eigenvalues --    7.23967   7.30207   7.33070   7.35556   7.40878
 Alpha virt. eigenvalues --    7.44576   7.49307   7.61383   7.63143   7.65352
 Alpha virt. eigenvalues --    7.68637   7.80128   7.89661   8.13105   8.32793
 Alpha virt. eigenvalues --    8.40886   8.55982  13.48463  14.57251  15.18992
 Alpha virt. eigenvalues --   16.21667
          Condensed to atoms (all electrons):
               1          2          3          4          5
     1  H    0.589013   0.128185   0.020298   0.012634  -0.000625
     2  O    0.128185   8.322159  -0.170981  -0.096249   0.016344
     3  O    0.020298  -0.170981   8.461273  -0.138805  -0.045322
     4  N    0.012634  -0.096249  -0.138805   6.999984  -0.059870
     5  O   -0.000625   0.016344  -0.045322  -0.059870   8.296356
 Mulliken charges:
               1
     1  H    0.250496
     2  O   -0.199457
     3  O   -0.126462
     4  N    0.282307
     5  O   -0.206883
 Sum of Mulliken charges =  -0.00000
 Mulliken charges with hydrogens summed into heavy atoms:
               1
     2  O    0.051038
     3  O   -0.126462
     4  N    0.282307
     5  O   -0.206883
 APT charges:
               1
     1  H    0.300227
     2  O   -0.281650
     3  O   -0.476363
     4  N    0.856507
     5  O   -0.398720
 Sum of APT charges =  -0.00000
 APT charges with hydrogens summed into heavy atoms:
               1
     2  O    0.018577
     3  O   -0.476363
     4  N    0.856507
     5  O   -0.398720
 Electronic spatial extent (au):  <R**2>=            249.6721
 Charge=              0.0000 electrons
 Dipole moment (field-independent basis, Debye):
    X=              0.6517    Y=              1.5385    Z=             -0.0000  Tot=              1.6709
 Quadrupole moment (field-independent basis, Debye-Ang):
   XX=            -22.5234   YY=            -18.7473   ZZ=            -21.9651
   XY=              3.1966   XZ=              0.0000   YZ=             -0.0000
 Traceless Quadrupole moment (field-independent basis, Debye-Ang):
   XX=             -1.4448   YY=              2.3313   ZZ=             -0.8865
   XY=              3.1966   XZ=              0.0000   YZ=             -0.0000
 Octapole moment (field-independent basis, Debye-Ang**2):
  XXX=              3.4770  YYY=             11.3462  ZZZ=              0.0000  XYY=              7.9561
  XXY=              6.8300  XXZ=             -0.0000  XZZ=             -1.5248  YZZ=             -0.7349
  YYZ=             -0.0000  XYZ=             -0.0000
 Hexadecapole moment (field-independent basis, Debye-Ang**3):
 XXXX=           -158.6217 YYYY=            -86.6919 ZZZZ=            -18.1498 XXXY=            -35.6658
 XXXZ=              0.0000 YYYX=            -30.2228 YYYZ=              0.0000 ZZZX=              0.0000
 ZZZY=              0.0000 XXYY=            -33.5909 XXZZ=            -30.8914 YYZZ=            -20.0131
 XXYZ=              0.0000 YYXZ=              0.0000 ZZXY=            -14.7206
 N-N= 1.177382392949D+02 E-N=-8.975700140722D+02  KE= 2.802386586909D+02
 Symmetry A'   KE= 2.662558227110D+02
 Symmetry A"   KE= 1.398283597988D+01
  Exact polarizability:  34.032   9.295  29.613  -0.000   0.000  17.824
 Approx polarizability:  28.869   4.907  22.848  -0.000  -0.000  15.473
 No NMR shielding tensors so no spin-rotation constants.
 Leave Link  601 at Mon Feb 21 20:25:03 2022, MaxMem= 16106127360 cpu:               4.4 elap:               0.2
 (Enter /sw/contrib/gaussian/g16/B01/g16/l701.exe)
 ... and contract with generalized density number  2.
 Compute integral second derivatives.
 Leave Link  701 at Mon Feb 21 20:25:04 2022, MaxMem= 16106127360 cpu:               6.0 elap:               0.2
 (Enter /sw/contrib/gaussian/g16/B01/g16/l702.exe)
 L702 exits ... SP integral derivatives will be done elsewhere.
 Leave Link  702 at Mon Feb 21 20:25:04 2022, MaxMem= 16106127360 cpu:               1.7 elap:               0.1
 (Enter /sw/contrib/gaussian/g16/B01/g16/l703.exe)
 Integral derivatives from FoFJK, PRISM(SPDF).
 Compute integral second derivatives, UseDBF=F ICtDFT=           0.
 Calling FoFJK, ICntrl=  10100127 FMM=F ISym2X=1 I1Cent= 0 IOpClX= 0 NMat=1 NMatS=1 NMatT=0.
 FoFJK:  IHMeth= 1 ICntrl=10100127 DoSepK=F KAlg= 0 I1Cent=           0 FoldK=F
 IRaf=         0 NMat=       1 IRICut=       1 DoRegI=T DoRafI=F ISym2E= 1 IDoP0=0 IntGTp=1.
 FoFCou: FMM=F IPFlag=           0 FMFlag=      100000 FMFlg1=         800
         NFxFlg=           0 DoJE=F BraDBF=F KetDBF=F FulRan=T
         wScrn=  0.000000 ICntrl=  10100127 IOpCl=  0 I1Cent=           0 NGrid=           0
         NMat0=    1 NMatS0=      1 NMatT0=    0 NMatD0=    1 NMtDS0=    0 NMtDT0=    0
 Petite list used in FoFCou.
 Leave Link  703 at Mon Feb 21 20:25:19 2022, MaxMem= 16106127360 cpu:             419.7 elap:              15.0
 (Enter /sw/contrib/gaussian/g16/B01/g16/l716.exe)
 Dipole        = 2.56409149D-01 6.05299298D-01-2.28107163D-32
 Polarizability= 3.40318209D+01 9.29478098D+00 2.96128802D+01
                -4.78665788D-30 1.39863107D-30 1.78240220D+01
 Full mass-weighted force constant matrix:
 Low frequencies --- -260.9699  -96.2775  -54.7400  -50.6525   -0.0012   -0.0002
 Low frequencies ---    0.0015  217.7047  351.5423
 ******    1 imaginary frequencies (negative Signs) ****** 
 Diagonal vibrational polarizability:
       11.0184818      18.2851894      49.5742322
 Harmonic frequencies (cm**-1), IR intensities (KM/Mole), Raman scattering
 activities (A**4/AMU), depolarization ratios for plane and unpolarized
 incident light, reduced masses (AMU), force constants (mDyne/A),
 and normal coordinates:
                      1                      2                      3
                     A"                     A"                     A'
 Frequencies --   -260.7975               215.3582               351.4266
 Red. masses --      1.1471                10.0507                 8.6711
 Frc consts  --      0.0460                 0.2746                 0.6309
 IR Inten    --    123.8902                 0.9572                 2.2197
  Atom  AN      X      Y      Z        X      Y      Z        X      Y      Z
     1   1     0.00  -0.00   1.00     0.00  -0.00  -0.60     0.53  -0.45   0.00
     2   8    -0.00  -0.00  -0.07     0.00   0.00  -0.30    -0.10  -0.38  -0.00
     3   8     0.00   0.00  -0.04    -0.00  -0.00   0.32    -0.15   0.41  -0.00
     4   7     0.00   0.00   0.06    -0.00  -0.00   0.51     0.05   0.28   0.00
     5   8     0.00  -0.00  -0.01    -0.00   0.00  -0.43     0.17  -0.25  -0.00
                      4                      5                      6
                     A'                     A'                     A'
 Frequencies --    515.3701               810.9390               972.0125
 Red. masses --     12.2989                12.4327                15.1996
 Frc consts  --      1.9247                 4.8172                 8.4611
 IR Inten    --    160.7849               199.7948                26.7198
  Atom  AN      X      Y      Z        X      Y      Z        X      Y      Z
     1   1     0.43   0.18  -0.00    -0.39   0.18  -0.00    -0.20  -0.03   0.00
     2   8     0.36   0.19   0.00     0.40   0.07  -0.00    -0.50   0.03   0.00
     3   8     0.16   0.43   0.00    -0.09  -0.31   0.00     0.75  -0.03  -0.00
     4   7    -0.36  -0.34  -0.00    -0.10   0.63   0.00    -0.13   0.26  -0.00
     5   8    -0.23  -0.34   0.00    -0.19  -0.32  -0.00    -0.12  -0.23   0.00
                      7                      8                      9
                     A'                     A'                     A'
 Frequencies --   1377.3448              1692.3824              3779.3559
 Red. masses --      1.1386                13.1057                 1.0675
 Frc consts  --      1.2727                22.1160                 8.9839
 IR Inten    --    158.7250               126.2529                81.9242
  Atom  AN      X      Y      Z        X      Y      Z        X      Y      Z
     1   1     0.99  -0.06  -0.00    -0.36   0.01   0.00     0.11   0.99  -0.00
     2   8    -0.03   0.05   0.00    -0.00  -0.04  -0.00    -0.01  -0.06   0.00
     3   8    -0.02  -0.05   0.00     0.00   0.15  -0.00     0.00   0.00   0.00
     4   7     0.02   0.01  -0.00     0.70  -0.05   0.00    -0.00  -0.00  -0.00
     5   8    -0.03  -0.01  -0.00    -0.59  -0.06   0.00     0.00   0.00  -0.00

 -------------------
 - Thermochemistry -
 -------------------
 Temperature   298.150 Kelvin.  Pressure   1.00000 Atm.
 Atom     1 has atomic number  1 and mass   1.00783
 Atom     2 has atomic number  8 and mass  15.99491
 Atom     3 has atomic number  8 and mass  15.99491
 Atom     4 has atomic number  7 and mass  14.00307
 Atom     5 has atomic number  8 and mass  15.99491
 Molecular mass:    62.99564 amu.
 Principal axes and moments of inertia in atomic units:
                           1         2         3
     Eigenvalues --    32.03870 354.49803 386.53673
           X            0.81810  -0.57508   0.00000
           Y            0.57508   0.81810   0.00000
           Z           -0.00000   0.00000   1.00000
 This molecule is an asymmetric top.
 Rotational symmetry number  1.
 Rotational temperatures (Kelvin)      2.70342     0.24433     0.22408
 Rotational constants (GHZ):          56.33003     5.09098     4.66900
    1 imaginary frequencies ignored.
 Zero-point vibrational energy      58103.8 (Joules/Mol)
                                   13.88713 (Kcal/Mol)
 Warning -- explicit consideration of   3 degrees of freedom as
           vibrations may cause significant error
 Vibrational temperatures:    309.85   505.62   741.50  1166.76  1398.51
          (Kelvin)           1981.69  2434.96  5437.65
 
 Zero-point correction=                           0.022131 (Hartree/Particle)
 Thermal correction to Energy=                    0.026200
 Thermal correction to Enthalpy=                  0.027144
 Thermal correction to Gibbs Free Energy=        -0.003952
 Sum of electronic and zero-point Energies=           -280.424387
 Sum of electronic and thermal Energies=              -280.420318
 Sum of electronic and thermal Enthalpies=            -280.419374
 Sum of electronic and thermal Free Energies=         -280.450470
 
                     E (Thermal)             CV                S
                      KCal/Mol        Cal/Mol-Kelvin    Cal/Mol-Kelvin
 Total                   16.440             11.761             65.447
 Electronic               0.000              0.000              0.000
 Translational            0.889              2.981             38.341
 Rotational               0.889              2.981             23.000
 Vibrational             14.663              5.800              4.107
 Vibration     1          0.645              1.818              1.998
 Vibration     2          0.728              1.572              1.160
 Vibration     3          0.870              1.216              0.621
                       Q            Log10(Q)             Ln(Q)
 Total Bot       0.657534D+02          1.817918          4.185912
 Total V=0       0.993703D+12         11.997257         27.624704
 Vib (Bot)       0.141063D-09         -9.850587        -22.681814
 Vib (Bot)    1  0.920256D+00         -0.036091         -0.083103
 Vib (Bot)    2  0.524514D+00         -0.280243         -0.645283
 Vib (Bot)    3  0.314527D+00         -0.502342         -1.156686
 Vib (V=0)       0.213183D+01          0.328752          0.756979
 Vib (V=0)    1  0.154732D+01          0.189579          0.436522
 Vib (V=0)    2  0.122465D+01          0.088011          0.202654
 Vib (V=0)    3  0.109070D+01          0.037706          0.086820
 Electronic      0.100000D+01          0.000000          0.000000
 Translational   0.196526D+08          7.293420         16.793719
 Rotational      0.237184D+05          4.375085         10.074006
 
                                                                title
                                                             IR Spectrum
 
      3                                                                     1         1                                              
      7                                                                     6         3             9    8         5     3   2       
      7                                                                     9         7             7    1         1     5   1       
      9                                                                     2         7             2    1         5     1   5       
 
      X                                                                     X         X             X    X         X     X   X       
      X                                                                     X         X             X    X         X                 
      X                                                                     X         X             X    X         X                 
      X                                                                     X         X                  X         X                 
      X                                                                     X         X                  X         X                 
      X                                                                     X         X                  X         X                 
      X                                                                     X         X                  X         X                 
      X                                                                     X         X                  X         X                 
                                                                            X         X                  X         X                 
                                                                            X         X                  X         X                 
                                                                            X         X                  X         X                 
                                                                            X         X                  X         X                 
                                                                            X         X                  X         X                 
                                                                                      X                  X         X                 
                                                                                      X                  X         X                 
                                                                                      X                  X         X                 
                                                                                                         X                           
                                                                                                         X                           
                                                                                                         X                           
                                                                                                         X                           
 
 ***** Axes restored to original set *****
 -------------------------------------------------------------------
 Center     Atomic                   Forces (Hartrees/Bohr)
 Number     Number              X              Y              Z
 -------------------------------------------------------------------
      1        1          -0.000023546   -0.000000000   -0.000215995
      2        8           0.000175426   -0.000000000   -0.000718144
      3        8          -0.002504910   -0.000000000   -0.006659138
      4        7          -0.006726542    0.000000000    0.004292933
      5        8           0.009079573   -0.000000000    0.003300345
 -------------------------------------------------------------------
 Cartesian Forces:  Max     0.009079573 RMS     0.003725757
 -----------------------------------------------------------------------------------------------
                       Internal Coordinate Forces (Hartree/Bohr or radian)
  Cent   Atom   N1       Length/X         N2         Alpha/Y        N3         Beta/Z          J
 -----------------------------------------------------------------------------------------------
      1  H 
      2  O        1   0.000216(     1)
      3  O        2  -0.000027(     2)      1   0.000043(     5)
      4  N        3   0.007761(     3)      2   0.002558(     6)      1  -0.000000(     8)     0
      5  O        4   0.009615(     4)      3   0.002089(     7)      2  -0.000000(     9)     0
 -----------------------------------------------------------------------------------------------
 Internal  Forces:  Max     0.009614541 RMS     0.004263829
 Force constants in Cartesian coordinates: 
                1             2             3             4             5 
      1  0.651522D-01
      2  0.000000D+00 -0.218962D-02
      3  0.546234D-02  0.000000D+00  0.512559D+00
      4 -0.365872D-01  0.000000D+00 -0.166804D-01  0.274486D+00
      5  0.000000D+00  0.286696D-02  0.000000D+00  0.000000D+00  0.270170D-02
      6  0.488650D-01  0.000000D+00 -0.508405D+00  0.345644D-01  0.000000D+00
      7 -0.174195D-01  0.000000D+00  0.129455D-01 -0.219058D+00  0.000000D+00
      8  0.000000D+00  0.852435D-03  0.000000D+00  0.000000D+00 -0.714525D-02
      9 -0.533888D-01  0.000000D+00 -0.366904D-03 -0.187385D-01  0.000000D+00
     10 -0.100674D-01  0.000000D+00 -0.501750D-02 -0.196332D-01  0.000000D+00
     11  0.000000D+00 -0.256008D-02  0.000000D+00  0.000000D+00 -0.526011D-02
     12  0.474818D-02  0.000000D+00 -0.538338D-02  0.110446D-01  0.000000D+00
     13 -0.107810D-02  0.000000D+00  0.329004D-02  0.792836D-03  0.000000D+00
     14  0.000000D+00  0.103030D-02  0.000000D+00  0.000000D+00  0.683669D-02
     15 -0.568670D-02  0.000000D+00  0.159570D-02 -0.101901D-01  0.000000D+00
                6             7             8             9            10 
      6  0.598108D+00
      7 -0.183400D-01  0.345943D+00
      8  0.000000D+00  0.000000D+00  0.261324D-02
      9 -0.799025D-01  0.393389D-01  0.000000D+00  0.210825D+00
     10 -0.572139D-01 -0.820386D-01  0.000000D+00  0.175871D+00  0.846146D+00
     11  0.000000D+00  0.000000D+00  0.108926D-01  0.000000D+00  0.000000D+00
     12  0.147669D-01  0.618840D-01  0.000000D+00 -0.105451D+00 -0.139302D-01
     13 -0.787560D-02 -0.274272D-01  0.000000D+00 -0.143083D+00 -0.734406D+00
     14  0.000000D+00  0.000000D+00 -0.721304D-02  0.000000D+00  0.000000D+00
     15 -0.245670D-01 -0.958284D-01  0.000000D+00 -0.251047D-01 -0.997095D-01
               11            12            13            14            15 
     11  0.341595D-02
     12  0.000000D+00  0.211414D+00
     13  0.000000D+00 -0.637466D-01  0.762119D+00
     14 -0.648837D-02  0.000000D+00  0.000000D+00  0.583442D-02
     15  0.000000D+00 -0.115346D+00  0.211415D+00  0.000000D+00  0.163422D+00
 Force constants in internal coordinates: 
                1             2             3             4             5 
      1  0.512559D+00
      2 -0.105706D-01  0.282369D+00
      3  0.391655D-02  0.503357D-02  0.149673D+00
      4 -0.358309D-02  0.551936D-02  0.158931D+00  0.826894D+00
      5  0.997857D-02  0.649945D-01  0.338600D-02  0.449620D-02  0.218847D+00
      6  0.542032D-02  0.634886D-01  0.475251D-01  0.216118D-01  0.332537D-01
      7 -0.161376D-02  0.397470D-01  0.402777D-01  0.908062D-01  0.212341D-01
      8  0.000000D+00  0.000000D+00  0.000000D+00  0.000000D+00  0.000000D+00
      9  0.000000D+00  0.000000D+00  0.000000D+00  0.000000D+00  0.000000D+00
                6             7             8             9 
      6  0.303824D+00
      7  0.937672D-01  0.504103D+00
      8  0.000000D+00  0.000000D+00 -0.682981D-02
      9  0.000000D+00  0.000000D+00 -0.390972D-02  0.438637D-01
 Leave Link  716 at Mon Feb 21 20:25:19 2022, MaxMem= 16106127360 cpu:               1.6 elap:               0.1
 (Enter /sw/contrib/gaussian/g16/B01/g16/l103.exe)

 GradGradGradGradGradGradGradGradGradGradGradGradGradGradGradGradGradGrad
 Berny optimization.
 Search for a local minimum.
 Step number   1 out of a maximum of    2
 All quantities printed in internal units (Hartrees-Bohrs-Radians)
 Second derivative matrix not updated -- analytic derivatives used.
 The second derivative matrix:
                          r1        r2        r3        r4        a1
           r1           0.51256
           r2          -0.01057   0.28237
           r3           0.00392   0.00503   0.14967
           r4          -0.00358   0.00552   0.15893   0.82689
           a1           0.00998   0.06499   0.00339   0.00450   0.21885
           a2           0.00542   0.06349   0.04753   0.02161   0.03325
           a3          -0.00161   0.03975   0.04028   0.09081   0.02123
           d1          -0.00000   0.00000  -0.00000  -0.00000   0.00000
           d2           0.00000   0.00000  -0.00000  -0.00000   0.00000
                          a2        a3        d1        d2
           a2           0.30382
           a3           0.09377   0.50410
           d1           0.00000   0.00000  -0.00683
           d2           0.00000   0.00000  -0.00391   0.04386
 ITU=  0
     Eigenvalues ---   -0.00713   0.04416   0.10481   0.17737   0.23927
     Eigenvalues ---    0.33570   0.51333   0.53427   0.89352
 Eigenvalue     1 is  -7.13D-03 should be greater than     0.000000 Eigenvector:
                          d1        d2        r3        a2        a3
   1                    0.99707   0.07645   0.00000  -0.00000  -0.00000
                          r4        a1        r2        r1
   1                   -0.00000   0.00000  -0.00000  -0.00000
 Angle between quadratic step and forces=  50.11 degrees.
 Linear search not attempted -- first point.
 Variable       Old X    -DE/DX   Delta X   Delta X   Delta X     New X
                                 (Linear)    (Quad)   (Total)
    r1        1.83110   0.00022   0.00000   0.00003   0.00003   1.83113
    r2        2.74940  -0.00003   0.00000  -0.00109  -0.00109   2.74831
    r3        2.69755   0.00776   0.00000   0.04940   0.04940   2.74696
    r4        2.21236   0.00961   0.00000   0.00215   0.00215   2.21450
    a1        1.70335   0.00004   0.00000  -0.00040  -0.00040   1.70295
    a2        1.78543   0.00256   0.00000   0.00089   0.00089   1.78632
    a3        1.90362   0.00209   0.00000  -0.00025  -0.00025   1.90337
    d1        3.14159  -0.00000   0.00000  -0.00000   0.00000   3.14159
    d2        3.14159  -0.00000   0.00000  -0.00000   0.00000   3.14159
         Item               Value     Threshold  Converged?
 Maximum Force            0.009615     0.000450     NO 
 RMS     Force            0.004264     0.000300     NO 
 Maximum Displacement     0.049403     0.001800     NO 
 RMS     Displacement     0.016490     0.001200     NO 
 Predicted change in Energy=-2.028955D-04
                       ----------------------------
                       ! Non-Optimized Parameters !
                       ! (Angstroms and Degrees)  !
 ----------------------                            ----------------------
 !      Name          Value   Derivative information (Atomic Units)     !
 ------------------------------------------------------------------------
 !       r1          0.969    -DE/DX =    0.0002                        !
 !       r2          1.4543   -DE/DX =    0.0                           !
 !       r3          1.4536   -DE/DX =    0.0078                        !
 !       r4          1.1719   -DE/DX =    0.0096                        !
 !       a1         97.572    -DE/DX =    0.0                           !
 !       a2        102.3484   -DE/DX =    0.0026                        !
 !       a3        109.0551   -DE/DX =    0.0021                        !
 !       d1        180.0      -DE/DX =    0.0                           !
 !       d2        180.0      -DE/DX =    0.0                           !
 ------------------------------------------------------------------------
 GradGradGradGradGradGradGradGradGradGradGradGradGradGradGradGradGradGrad

 Leave Link  103 at Mon Feb 21 20:25:19 2022, MaxMem= 16106127360 cpu:               2.1 elap:               0.1
 (Enter /sw/contrib/gaussian/g16/B01/g16/l9999.exe)

 ----------------------------------------------------------------------

 Electric dipole moment (input orientation):
 (Debye = 10**-18 statcoulomb cm , SI units = C m)
                  (au)            (Debye)         (10**-30 SI)
   Tot        0.657368D+00      0.167086D+01      0.557340D+01
   x         -0.193289D+00     -0.491291D+00     -0.163877D+01
   y          0.000000D+00      0.000000D+00      0.000000D+00
   z         -0.628309D+00     -0.159700D+01     -0.532703D+01

 Dipole polarizability, Alpha (input orientation).
 (esu units = cm**3 , SI units = C**2 m**2 J**-1)
 Alpha(0;0):
               (au)            (10**-24 esu)      (10**-40 SI)
   iso        0.271562D+02      0.402414D+01      0.447746D+01
   aniso      0.216743D+02      0.321181D+01      0.357362D+01
   xx         0.320983D+02      0.475648D+01      0.529230D+01
   yx         0.000000D+00      0.000000D+00      0.000000D+00
   yy         0.178240D+02      0.264125D+01      0.293878D+01
   zx         0.954979D+01      0.141513D+01      0.157455D+01
   zy         0.000000D+00      0.000000D+00      0.000000D+00
   zz         0.315464D+02      0.467469D+01      0.520130D+01

 ----------------------------------------------------------------------

 Dipole orientation:
     1          0.00000000          0.00000000         -0.00000000
     8         -0.53840557          0.00000000         -1.75015454
     8          1.95955455          0.00000000         -2.89880167
     7          1.38042988          0.00000000         -5.53345682
     8          3.26744757          0.00000000         -6.68831060

 Electric dipole moment (dipole orientation):
 (Debye = 10**-18 statcoulomb cm , SI units = C m)
                  (au)            (Debye)         (10**-30 SI)
   Tot        0.657368D+00      0.167086D+01      0.557340D+01
   x          0.000000D+00      0.000000D+00      0.000000D+00
   y          0.000000D+00      0.000000D+00      0.000000D+00
   z          0.657368D+00      0.167086D+01      0.557340D+01

 Dipole polarizability, Alpha (dipole orientation).
 (esu units = cm**3 , SI units = C**2 m**2 J**-1)
 Alpha(0;0):
               (au)            (10**-24 esu)      (10**-40 SI)
   iso        0.271562D+02      0.402414D+01      0.447746D+01
   aniso      0.216743D+02      0.321181D+01      0.357362D+01
   xx         0.266829D+02      0.395400D+01      0.439942D+01
   yx         0.000000D+00      0.000000D+00      0.000000D+00
   yy         0.178240D+02      0.264125D+01      0.293878D+01
   zx        -0.805362D+01     -0.119342D+01     -0.132786D+01
   zy         0.000000D+00      0.000000D+00      0.000000D+00
   zz         0.369618D+02      0.547717D+01      0.609418D+01

 ----------------------------------------------------------------------
 1\1\GINC-N2128\Freq\RMP2-FC\Aug-CC-pVTZ\H1N1O3\CGAVINH\21-Feb-2022\1\\
 #p freq mp2/aug-cc-pvtz density=current\\title\\0,1\H\O,1,r1\O,2,r2,1,
 a1\N,3,r3,2,a2,1,d1,0\O,4,r4,3,a3,2,d2,0\\r1=0.96897556\r2=1.45491931\
 r3=1.42748367\r4=1.17072885\a1=97.59494903\a2=102.29752444\a3=109.0695
 5123\d1=180.\d2=180.\\Version=ES64L-G16RevB.01\State=1-A'\HF=-279.5044
 341\MP2=-280.4465174\RMSD=3.406e-09\RMSF=3.726e-03\ZeroPoint=0.0221306
 \Thermal=0.0261995\Dipole=-0.1932887,0.,-0.6283091\DipoleDeriv=0.26902
 01,0.,0.0511949,0.,0.3564645,0.,0.0820205,0.,0.2751963,-0.3229618,0.,-
 0.2091256,0.,-0.3108959,0.,-0.1089972,0.,-0.211093,-0.0246079,0.,0.162
 7614,0.,-0.0678614,0.,-0.7631887,0.,-1.3366211,0.8559968,0.,0.8586059,
 0.,0.056836,0.,0.9341409,0.,1.6566877,-0.7774473,0.,-0.8634366,0.,-0.0
 345431,0.,-0.1439755,0.,-0.3841699\Polar=32.0983064,0.,17.824022,9.549
 7938,0.,31.5463948\Quadrupole=-1.5275283,-0.6591017,2.1866301,0.,2.042
 0256,0.\PG=CS [SG(H1N1O3)]\NImag=1\\0.06515219,0.,-0.00218962,0.005462
 34,0.,0.51255937,-0.03658721,0.,-0.01668044,0.27448560,0.,0.00286696,0
 .,0.,0.00270170,0.04886502,0.,-0.50840478,0.03456440,0.,0.59810751,-0.
 01741951,0.,0.01294555,-0.21905798,0.,-0.01833995,0.34594334,0.,0.0008
 5244,0.,0.,-0.00714525,0.,0.,0.00261324,-0.05338884,0.,-0.00036690,-0.
 01873853,0.,-0.07990254,0.03933887,0.,0.21082547,-0.01006737,0.,-0.005
 01750,-0.01963325,0.,-0.05721387,-0.08203861,0.,0.17587109,0.84614552,
 0.,-0.00256008,0.,0.,-0.00526011,0.,0.,0.01089261,0.,0.,0.00341595,0.0
 0474818,0.,-0.00538338,0.01104464,0.,0.01476686,0.06188398,0.,-0.10545
 135,-0.01393022,0.,0.21141407,-0.00107810,0.,0.00329004,0.00079284,0.,
 -0.00787560,-0.02742724,0.,-0.14308258,-0.73440630,0.,-0.06374658,0.76
 211880,0.,0.00103030,0.,0.,0.00683669,0.,0.,-0.00721304,0.,0.,-0.00648
 837,0.,0.,0.00583442,-0.00568670,0.,0.00159570,-0.01019008,0.,-0.02456
 705,-0.09582844,0.,-0.02510468,-0.09970951,0.,-0.11534621,0.21141472,0
 .,0.16342224\\0.00002355,0.,0.00021600,-0.00017543,0.,0.00071814,0.002
 50491,0.,0.00665914,0.00672654,0.,-0.00429293,-0.00907957,0.,-0.003300
 34\\\@


            ARSENIC

 FOR SMELTER FUMES HAVE I BEEN NAMED,
    I AM AN EVIL POISONOUS SMOKE...
 BUT WHEN FROM POISON I AM FREED,
    THROUGH ART AND SLEIGHT OF HAND,
 THEN CAN I CURE BOTH MAN AND BEAST,
    FROM DIRE DISEASE OFTTIMES DIRECT THEM;
 BUT PREPARE ME CORRECTLY, AND TAKE GREAT CARE
    THAT YOU FAITHFULLY KEEP WATCHFUL GUARD OVER ME;
 FOR ELSE I AM POISON, AND POISON REMAIN,
    THAT PIERCES THE HEART OF MANY A ONE.

 ATTRIBUTED TO THE PROBABLY MYTHICAL 15TH
 CENTURY MONK, BASILIUS VALENTINUS
 Job cpu time:       0 days  2 hours  1 minutes 17.2 seconds.
 Elapsed time:       0 days  0 hours  4 minutes 23.1 seconds.
 File lengths (MBytes):  RWF=   7239 Int=      0 D2E=      0 Chk=      8 Scr=      1
 Normal termination of Gaussian 16 at Mon Feb 21 20:25:20 2022.
