 Entering Gaussian System, Link 0=g16
 Input=hoono_a2_100p8428.gjf
 Output=hoono_a2_100p8428.log
 Initial command:
 /sw/contrib/gaussian/g16/B01/g16/l1.exe "/scr/Gau-14354.inp" -scrdir="/scr/"
 Entering Link 1 = /sw/contrib/gaussian/g16/B01/g16/l1.exe PID=     14355.
  
 Copyright (c) 1988-2017, Gaussian, Inc.  All Rights Reserved.
  
 This is part of the Gaussian(R) 16 program.  It is based on
 the Gaussian(R) 09 system (copyright 2009, Gaussian, Inc.),
 the Gaussian(R) 03 system (copyright 2003, Gaussian, Inc.),
 the Gaussian(R) 98 system (copyright 1998, Gaussian, Inc.),
 the Gaussian(R) 94 system (copyright 1995, Gaussian, Inc.),
 the Gaussian 92(TM) system (copyright 1992, Gaussian, Inc.),
 the Gaussian 90(TM) system (copyright 1990, Gaussian, Inc.),
 the Gaussian 88(TM) system (copyright 1988, Gaussian, Inc.),
 the Gaussian 86(TM) system (copyright 1986, Carnegie Mellon
 University), and the Gaussian 82(TM) system (copyright 1983,
 Carnegie Mellon University). Gaussian is a federally registered
 trademark of Gaussian, Inc.
  
 This software contains proprietary and confidential information,
 including trade secrets, belonging to Gaussian, Inc.
  
 This software is provided under written license and may be
 used, copied, transmitted, or stored only in accord with that
 written license.
  
 The following legend is applicable only to US Government
 contracts under FAR:
  
                    RESTRICTED RIGHTS LEGEND
  
 Use, reproduction and disclosure by the US Government is
 subject to restrictions as set forth in subparagraphs (a)
 and (c) of the Commercial Computer Software - Restricted
 Rights clause in FAR 52.227-19.
  
 Gaussian, Inc.
 340 Quinnipiac St., Bldg. 40, Wallingford CT 06492
  
  
 ---------------------------------------------------------------
 Warning -- This program may not be used in any manner that
 competes with the business of Gaussian, Inc. or will provide
 assistance to any competitor of Gaussian, Inc.  The licensee
 of this program is prohibited from giving any competitor of
 Gaussian, Inc. access to this program.  By using this program,
 the user acknowledges that Gaussian, Inc. is engaged in the
 business of creating and licensing software in the field of
 computational chemistry and represents and warrants to the
 licensee that it is not a competitor of Gaussian, Inc. and that
 it will not use this program in any manner prohibited above.
 ---------------------------------------------------------------
  

 Cite this work as:
 Gaussian 16, Revision B.01,
 M. J. Frisch, G. W. Trucks, H. B. Schlegel, G. E. Scuseria, 
 M. A. Robb, J. R. Cheeseman, G. Scalmani, V. Barone, 
 G. A. Petersson, H. Nakatsuji, X. Li, M. Caricato, A. V. Marenich, 
 J. Bloino, B. G. Janesko, R. Gomperts, B. Mennucci, H. P. Hratchian, 
 J. V. Ortiz, A. F. Izmaylov, J. L. Sonnenberg, D. Williams-Young, 
 F. Ding, F. Lipparini, F. Egidi, J. Goings, B. Peng, A. Petrone, 
 T. Henderson, D. Ranasinghe, V. G. Zakrzewski, J. Gao, N. Rega, 
 G. Zheng, W. Liang, M. Hada, M. Ehara, K. Toyota, R. Fukuda, 
 J. Hasegawa, M. Ishida, T. Nakajima, Y. Honda, O. Kitao, H. Nakai, 
 T. Vreven, K. Throssell, J. A. Montgomery, Jr., J. E. Peralta, 
 F. Ogliaro, M. J. Bearpark, J. J. Heyd, E. N. Brothers, K. N. Kudin, 
 V. N. Staroverov, T. A. Keith, R. Kobayashi, J. Normand, 
 K. Raghavachari, A. P. Rendell, J. C. Burant, S. S. Iyengar, 
 J. Tomasi, M. Cossi, J. M. Millam, M. Klene, C. Adamo, R. Cammi, 
 J. W. Ochterski, R. L. Martin, K. Morokuma, O. Farkas, 
 J. B. Foresman, and D. J. Fox, Gaussian, Inc., Wallingford CT, 2016.
 
 ******************************************
 Gaussian 16:  ES64L-G16RevB.01 20-Dec-2017
                21-Feb-2022 
 ******************************************
 %nproc=28
 Will use up to   28 processors via shared memory.
 %mem=120GB
 %chk=hoono_a2_100p8428.chk
 ---------------------------------------
 #p freq mp2/aug-cc-pvtz density=current
 ---------------------------------------
 1/10=4,30=1,38=1/1,3;
 2/12=2,17=6,18=5,40=1/2;
 3/5=16,6=1,7=10,11=9,25=1,30=1,71=2,140=1/1,2,3;
 4//1;
 5/5=2,38=5,98=1/2;
 8/6=3,8=1,10=1,19=11,30=-1/1;
 9/15=3,16=-3/6;
 11/6=1,8=1,15=11,17=12,24=-1,27=1,28=-2,29=300,32=6,42=3/1,2,10;
 10/6=2,21=1/2;
 8/6=4,8=1,10=1,19=11,30=-1/11,4;
 10/5=1,20=4/2;
 11/12=2,14=11,16=1,17=2,28=-2,42=3,76=2/2,10,12;
 6/7=2,8=2,9=2,10=2,22=-1/1;
 7/8=1,10=1,12=2,25=1,44=2/1,2,3,16;
 1/10=4,30=1/3;
 99//99;
 Leave Link    1 at Mon Feb 21 20:46:03 2022, MaxMem= 16106127360 cpu:               2.6 elap:               0.1
 (Enter /sw/contrib/gaussian/g16/B01/g16/l101.exe)
 -----
 title
 -----
 Symbolic Z-matrix:
 Charge =  0 Multiplicity = 1
 H
 O                    1    r1
 O                    2    r2       1    a1
 N                    3    r3       2    a2       1    d1       0
 O                    4    r4       3    a3       2    d2       0
       Variables:
  r1                    0.96898                  
  r2                    1.45492                  
  r3                    1.45878                  
  r4                    1.17073                  
  a1                   97.59495                  
  a2                  100.84282                  
  a3                  109.06955                  
  d1                  180.                       
  d2                  180.                       
 
 ITRead=  0  0  0  0  0
 MicOpt= -1 -1 -1 -1 -1
 NAtoms=      5 NQM=        5 NQMF=       0 NMMI=      0 NMMIF=      0
                NMic=       0 NMicF=      0.
                    Isotopes and Nuclear Properties:
 (Nuclear quadrupole moments (NQMom) in fm**2, nuclear magnetic moments (NMagM)
  in nuclear magnetons)

  Atom         1           2           3           4           5
 IAtWgt=           1          16          16          14          16
 AtmWgt=   1.0078250  15.9949146  15.9949146  14.0030740  15.9949146
 NucSpn=           1           0           0           2           0
 AtZEff=  -0.0000000  -0.0000000  -0.0000000  -0.0000000  -0.0000000
 NQMom=    0.0000000   0.0000000   0.0000000   2.0440000   0.0000000
 NMagM=    2.7928460   0.0000000   0.0000000   0.4037610   0.0000000
 AtZNuc=   1.0000000   8.0000000   8.0000000   7.0000000   8.0000000
 Leave Link  101 at Mon Feb 21 20:46:03 2022, MaxMem= 16106127360 cpu:               2.5 elap:               0.1
 (Enter /sw/contrib/gaussian/g16/B01/g16/l103.exe)

 GradGradGradGradGradGradGradGradGradGradGradGradGradGradGradGradGradGrad
 Berny optimization.
 Initialization pass.
                       ----------------------------
                       !    Initial Parameters    !
                       ! (Angstroms and Degrees)  !
 ----------------------                            ----------------------
 !      Name          Value   Derivative information (Atomic Units)     !
 ------------------------------------------------------------------------
 !       r1          0.969    calculate D2E/DX2 analytically            !
 !       r2          1.4549   calculate D2E/DX2 analytically            !
 !       r3          1.4588   calculate D2E/DX2 analytically            !
 !       r4          1.1707   calculate D2E/DX2 analytically            !
 !       a1         97.5949   calculate D2E/DX2 analytically            !
 !       a2        100.8428   calculate D2E/DX2 analytically            !
 !       a3        109.0696   calculate D2E/DX2 analytically            !
 !       d1        180.0      calculate D2E/DX2 analytically            !
 !       d2        180.0      calculate D2E/DX2 analytically            !
 ------------------------------------------------------------------------
 Trust Radius=3.00D-01 FncErr=1.00D-07 GrdErr=1.00D-07 EigMax=2.50D+02 EigMin=1.00D-04
 Number of steps in this run=      2 maximum allowed number of steps=      2.
 GradGradGradGradGradGradGradGradGradGradGradGradGradGradGradGradGradGrad

 Leave Link  103 at Mon Feb 21 20:46:03 2022, MaxMem= 16106127360 cpu:               0.5 elap:               0.0
 (Enter /sw/contrib/gaussian/g16/B01/g16/l202.exe)
                          Input orientation:                          
 ---------------------------------------------------------------------
 Center     Atomic      Atomic             Coordinates (Angstroms)
 Number     Number       Type             X           Y           Z
 ---------------------------------------------------------------------
      1          1           0        0.000000    0.000000    0.000000
      2          8           0        0.000000    0.000000    0.968976
      3          8           0        1.442156    0.000000    1.161271
      4          7           0        1.524804    0.000000    2.617712
      5          8           0        2.651180    0.000000    2.936904
 ---------------------------------------------------------------------
                    Distance matrix (angstroms):
                    1          2          3          4          5
     1  H    0.000000
     2  O    0.968976   0.000000
     3  O    1.851584   1.454919   0.000000
     4  N    3.029429   2.245742   1.458784   0.000000
     5  O    3.956534   3.301742   2.148165   1.170729   0.000000
 Stoichiometry    HNO3
 Framework group  CS[SG(HNO3)]
 Deg. of freedom     7
 Full point group                 CS      NOp   2
 Largest Abelian subgroup         CS      NOp   2
 Largest concise Abelian subgroup C1      NOp   1
                         Standard orientation:                         
 ---------------------------------------------------------------------
 Center     Atomic      Atomic             Coordinates (Angstroms)
 Number     Number       Type             X           Y           Z
 ---------------------------------------------------------------------
      1          1           0        1.575768    1.655756   -0.000000
      2          8           0        1.454879    0.694351    0.000000
      3          8           0       -0.000000    0.683481   -0.000000
      4          7           0       -0.263708   -0.751269    0.000000
      5          8           0       -1.421105   -0.927442   -0.000000
 ---------------------------------------------------------------------
 Rotational constants (GHZ):          53.7091362           5.0664031           4.6296834
 Leave Link  202 at Mon Feb 21 20:46:03 2022, MaxMem= 16106127360 cpu:               2.0 elap:               0.1
 (Enter /sw/contrib/gaussian/g16/B01/g16/l301.exe)
 Standard basis: Aug-CC-pVTZ (5D, 7F)
 Ernie: Thresh=  0.10000D-02 Tol=  0.10000D-05 Strict=F.
 Ernie:  12 primitive shells out of 131 were deleted.
 There are   166 symmetry adapted cartesian basis functions of A'  symmetry.
 There are    79 symmetry adapted cartesian basis functions of A"  symmetry.
 There are   136 symmetry adapted basis functions of A'  symmetry.
 There are    71 symmetry adapted basis functions of A"  symmetry.
   207 basis functions,   315 primitive gaussians,   245 cartesian basis functions
    16 alpha electrons       16 beta electrons
       nuclear repulsion energy       117.0711114203 Hartrees.
 IExCor=    0 DFT=F Ex=HF Corr=None ExCW=0 ScaHFX=  1.000000
 ScaDFX=  1.000000  1.000000  1.000000  1.000000 ScalE2=  1.000000  1.000000
 IRadAn=      5 IRanWt=     -1 IRanGd=            0 ICorTp=0 IEmpDi=  4
 NAtoms=    5 NActive=    5 NUniq=    5 SFac= 1.00D+00 NAtFMM=   60 NAOKFM=F Big=F
 Integral buffers will be    131072 words long.
 Raffenetti 1 integral format.
 Two-electron integral symmetry is turned on.
 Leave Link  301 at Mon Feb 21 20:46:03 2022, MaxMem= 16106127360 cpu:               1.5 elap:               0.1
 (Enter /sw/contrib/gaussian/g16/B01/g16/l302.exe)
 NPDir=0 NMtPBC=     1 NCelOv=     1 NCel=       1 NClECP=     1 NCelD=      1
         NCelK=      1 NCelE2=     1 NClLst=     1 CellRange=     0.0.
 One-electron integrals computed using PRISM.
 One-electron integral symmetry used in STVInt
 NBasis=   207 RedAO= T EigKep=  1.82D-04  NBF=   136    71
 NBsUse=   207 1.00D-06 EigRej= -1.00D+00 NBFU=   136    71
 Leave Link  302 at Mon Feb 21 20:46:03 2022, MaxMem= 16106127360 cpu:               4.5 elap:               0.2
 (Enter /sw/contrib/gaussian/g16/B01/g16/l303.exe)
 DipDrv:  MaxL=1.
 Leave Link  303 at Mon Feb 21 20:46:03 2022, MaxMem= 16106127360 cpu:               2.2 elap:               0.1
 (Enter /sw/contrib/gaussian/g16/B01/g16/l401.exe)
 ExpMin= 2.53D-02 ExpMax= 1.53D+04 ExpMxC= 5.22D+02 IAcc=3 IRadAn=         5 AccDes= 0.00D+00
 Harris functional with IExCor=  205 and IRadAn=       5 diagonalized for initial guess.
 HarFok:  IExCor=  205 AccDes= 0.00D+00 IRadAn=         5 IDoV= 1 UseB2=F ITyADJ=14
 ICtDFT=  3500011 ScaDFX=  1.000000  1.000000  1.000000  1.000000
 FoFCou: FMM=F IPFlag=           0 FMFlag=      100000 FMFlg1=           0
         NFxFlg=           0 DoJE=T BraDBF=F KetDBF=T FulRan=T
         wScrn=  0.000000 ICntrl=       500 IOpCl=  0 I1Cent=   200000004 NGrid=           0
         NMat0=    1 NMatS0=      1 NMatT0=    0 NMatD0=    1 NMtDS0=    0 NMtDT0=    0
 Petite list used in FoFCou.
 Harris En= -279.628353035229    
 JPrj=0 DoOrth=F DoCkMO=F.
 Initial guess orbital symmetries:
       Occupied  (A') (A') (A') (A') (A') (A') (A') (A') (A') (A')
                 (A") (A') (A') (A") (A") (A')
       Virtual   (A") (A') (A') (A') (A') (A') (A") (A') (A') (A')
                 (A") (A') (A") (A') (A') (A") (A') (A") (A') (A')
                 (A') (A') (A') (A') (A') (A") (A') (A") (A') (A')
                 (A") (A') (A") (A') (A') (A") (A') (A") (A') (A')
                 (A") (A') (A") (A') (A") (A') (A') (A') (A") (A")
                 (A') (A') (A') (A') (A") (A') (A") (A') (A") (A')
                 (A') (A') (A") (A') (A') (A") (A') (A") (A') (A')
                 (A") (A') (A') (A") (A") (A') (A') (A") (A') (A')
                 (A') (A") (A') (A") (A') (A") (A') (A") (A') (A')
                 (A') (A") (A') (A") (A') (A") (A") (A') (A') (A")
                 (A') (A') (A") (A') (A') (A') (A') (A") (A") (A')
                 (A") (A') (A') (A') (A") (A') (A') (A') (A") (A')
                 (A") (A') (A') (A") (A") (A') (A') (A") (A") (A')
                 (A') (A') (A') (A") (A") (A') (A") (A') (A') (A')
                 (A') (A") (A") (A') (A') (A") (A') (A') (A') (A')
                 (A") (A') (A') (A") (A') (A") (A') (A") (A") (A')
                 (A') (A") (A') (A") (A') (A") (A") (A") (A') (A')
                 (A") (A') (A") (A') (A") (A') (A") (A") (A') (A')
                 (A') (A') (A') (A') (A') (A') (A') (A') (A') (A')
                 (A')
 The electronic state of the initial guess is 1-A'.
 Leave Link  401 at Mon Feb 21 20:46:04 2022, MaxMem= 16106127360 cpu:               6.5 elap:               0.3
 (Enter /sw/contrib/gaussian/g16/B01/g16/l502.exe)
 Keep R1 ints in memory in symmetry-blocked form, NReq=348887737.
 FoFCou: FMM=F IPFlag=           0 FMFlag=           0 FMFlg1=           0
         NFxFlg=           0 DoJE=F BraDBF=F KetDBF=F FulRan=T
         wScrn=  0.000000 ICntrl=       600 IOpCl=  0 I1Cent=           0 NGrid=           0
         NMat0=    1 NMatS0=  21528 NMatT0=    0 NMatD0=    1 NMtDS0=    0 NMtDT0=    0
 Petite list used in FoFCou.
 Closed shell SCF:
 Using DIIS extrapolation, IDIIS=  1040.
 NGot= 16106127360 LenX= 15988850015 LenY= 15988789549
 Requested convergence on RMS density matrix=1.00D-08 within 128 cycles.
 Requested convergence on MAX density matrix=1.00D-06.
 Requested convergence on             energy=1.00D-06.
 No special actions if energy rises.

 Cycle   1  Pass 1  IDiag  1:
 E= -279.370070719840    
 DIIS: error= 2.83D-02 at cycle   1 NSaved=   1.
 NSaved= 1 IEnMin= 1 EnMin= -279.370070719840     IErMin= 1 ErrMin= 2.83D-02
 ErrMax= 2.83D-02  0.00D+00 EMaxC= 1.00D-01 BMatC= 4.39D-01 BMatP= 4.39D-01
 IDIUse=3 WtCom= 7.17D-01 WtEn= 2.83D-01
 Coeff-Com:  0.100D+01
 Coeff-En:   0.100D+01
 Coeff:      0.100D+01
 Gap=     0.514 Goal=   None    Shift=    0.000
 GapD=    0.514 DampG=2.000 DampE=0.500 DampFc=1.0000 IDamp=-1.
 RMSDP=1.62D-03 MaxDP=9.89D-02              OVMax= 1.14D-01

 Cycle   2  Pass 1  IDiag  1:
 E= -279.452041297149     Delta-E=       -0.081970577309 Rises=F Damp=F
 DIIS: error= 1.80D-02 at cycle   2 NSaved=   2.
 NSaved= 2 IEnMin= 2 EnMin= -279.452041297149     IErMin= 2 ErrMin= 1.80D-02
 ErrMax= 1.80D-02  0.00D+00 EMaxC= 1.00D-01 BMatC= 7.21D-02 BMatP= 4.39D-01
 IDIUse=3 WtCom= 8.20D-01 WtEn= 1.80D-01
 Coeff-Com:  0.195D+00 0.805D+00
 Coeff-En:   0.000D+00 0.100D+01
 Coeff:      0.160D+00 0.840D+00
 Gap=     0.530 Goal=   None    Shift=    0.000
 RMSDP=9.01D-04 MaxDP=3.73D-02 DE=-8.20D-02 OVMax= 6.94D-02

 Cycle   3  Pass 1  IDiag  1:
 E= -279.481292231346     Delta-E=       -0.029250934197 Rises=F Damp=F
 DIIS: error= 1.04D-02 at cycle   3 NSaved=   3.
 NSaved= 3 IEnMin= 3 EnMin= -279.481292231346     IErMin= 3 ErrMin= 1.04D-02
 ErrMax= 1.04D-02  0.00D+00 EMaxC= 1.00D-01 BMatC= 2.88D-02 BMatP= 7.21D-02
 IDIUse=3 WtCom= 8.96D-01 WtEn= 1.04D-01
 Coeff-Com: -0.330D-01 0.378D+00 0.655D+00
 Coeff-En:   0.000D+00 0.240D+00 0.760D+00
 Coeff:     -0.295D-01 0.364D+00 0.666D+00
 Gap=     0.511 Goal=   None    Shift=    0.000
 RMSDP=3.77D-04 MaxDP=1.53D-02 DE=-2.93D-02 OVMax= 3.81D-02

 Cycle   4  Pass 1  IDiag  1:
 E= -279.500384924200     Delta-E=       -0.019092692854 Rises=F Damp=F
 DIIS: error= 1.26D-03 at cycle   4 NSaved=   4.
 NSaved= 4 IEnMin= 4 EnMin= -279.500384924200     IErMin= 4 ErrMin= 1.26D-03
 ErrMax= 1.26D-03  0.00D+00 EMaxC= 1.00D-01 BMatC= 4.93D-04 BMatP= 2.88D-02
 IDIUse=3 WtCom= 9.87D-01 WtEn= 1.26D-02
 Coeff-Com: -0.117D-01 0.573D-01 0.159D+00 0.796D+00
 Coeff-En:   0.000D+00 0.000D+00 0.000D+00 0.100D+01
 Coeff:     -0.115D-01 0.566D-01 0.157D+00 0.798D+00
 Gap=     0.502 Goal=   None    Shift=    0.000
 RMSDP=9.01D-05 MaxDP=2.77D-03 DE=-1.91D-02 OVMax= 1.12D-02

 Cycle   5  Pass 1  IDiag  1:
 E= -279.501059451897     Delta-E=       -0.000674527697 Rises=F Damp=F
 DIIS: error= 7.25D-04 at cycle   5 NSaved=   5.
 NSaved= 5 IEnMin= 5 EnMin= -279.501059451897     IErMin= 5 ErrMin= 7.25D-04
 ErrMax= 7.25D-04  0.00D+00 EMaxC= 1.00D-01 BMatC= 8.68D-05 BMatP= 4.93D-04
 IDIUse=3 WtCom= 9.93D-01 WtEn= 7.25D-03
 Coeff-Com:  0.611D-02-0.721D-01-0.118D+00 0.193D-01 0.116D+01
 Coeff-En:   0.000D+00 0.000D+00 0.000D+00 0.000D+00 0.100D+01
 Coeff:      0.607D-02-0.716D-01-0.117D+00 0.191D-01 0.116D+01
 Gap=     0.502 Goal=   None    Shift=    0.000
 RMSDP=7.60D-05 MaxDP=2.10D-03 DE=-6.75D-04 OVMax= 1.10D-02

 Cycle   6  Pass 1  IDiag  1:
 E= -279.501372991786     Delta-E=       -0.000313539889 Rises=F Damp=F
 DIIS: error= 2.84D-04 at cycle   6 NSaved=   6.
 NSaved= 6 IEnMin= 6 EnMin= -279.501372991786     IErMin= 6 ErrMin= 2.84D-04
 ErrMax= 2.84D-04  0.00D+00 EMaxC= 1.00D-01 BMatC= 1.66D-05 BMatP= 8.68D-05
 IDIUse=3 WtCom= 9.97D-01 WtEn= 2.84D-03
 Coeff-Com:  0.617D-03 0.132D-02 0.399D-02-0.129D+00-0.228D+00 0.135D+01
 Coeff-En:   0.000D+00 0.000D+00 0.000D+00 0.000D+00 0.000D+00 0.100D+01
 Coeff:      0.615D-03 0.132D-02 0.398D-02-0.128D+00-0.228D+00 0.135D+01
 Gap=     0.503 Goal=   None    Shift=    0.000
 RMSDP=4.51D-05 MaxDP=1.24D-03 DE=-3.14D-04 OVMax= 5.51D-03

 Cycle   7  Pass 1  IDiag  1:
 E= -279.501445134294     Delta-E=       -0.000072142508 Rises=F Damp=F
 DIIS: error= 1.22D-04 at cycle   7 NSaved=   7.
 NSaved= 7 IEnMin= 7 EnMin= -279.501445134294     IErMin= 7 ErrMin= 1.22D-04
 ErrMax= 1.22D-04  0.00D+00 EMaxC= 1.00D-01 BMatC= 4.58D-06 BMatP= 1.66D-05
 IDIUse=3 WtCom= 9.99D-01 WtEn= 1.22D-03
 Coeff-Com: -0.930D-03 0.135D-01 0.264D-01-0.249D-01-0.290D+00 0.402D+00
 Coeff-Com:  0.873D+00
 Coeff-En:   0.000D+00 0.000D+00 0.000D+00 0.000D+00 0.000D+00 0.000D+00
 Coeff-En:   0.100D+01
 Coeff:     -0.929D-03 0.135D-01 0.263D-01-0.249D-01-0.289D+00 0.402D+00
 Coeff:      0.874D+00
 Gap=     0.503 Goal=   None    Shift=    0.000
 RMSDP=1.32D-05 MaxDP=3.75D-04 DE=-7.21D-05 OVMax= 1.54D-03

 Cycle   8  Pass 1  IDiag  1:
 E= -279.501454015160     Delta-E=       -0.000008880866 Rises=F Damp=F
 DIIS: error= 5.54D-05 at cycle   8 NSaved=   8.
 NSaved= 8 IEnMin= 8 EnMin= -279.501454015160     IErMin= 8 ErrMin= 5.54D-05
 ErrMax= 5.54D-05  0.00D+00 EMaxC= 1.00D-01 BMatC= 6.01D-07 BMatP= 4.58D-06
 IDIUse=1 WtCom= 1.00D+00 WtEn= 0.00D+00
 Coeff-Com: -0.447D-03 0.343D-02 0.758D-02 0.274D-01-0.407D-01-0.197D+00
 Coeff-Com:  0.163D+00 0.104D+01
 Coeff:     -0.447D-03 0.343D-02 0.758D-02 0.274D-01-0.407D-01-0.197D+00
 Coeff:      0.163D+00 0.104D+01
 Gap=     0.502 Goal=   None    Shift=    0.000
 RMSDP=6.88D-06 MaxDP=2.02D-04 DE=-8.88D-06 OVMax= 7.43D-04

 Cycle   9  Pass 1  IDiag  1:
 E= -279.501455782805     Delta-E=       -0.000001767645 Rises=F Damp=F
 DIIS: error= 1.66D-05 at cycle   9 NSaved=   9.
 NSaved= 9 IEnMin= 9 EnMin= -279.501455782805     IErMin= 9 ErrMin= 1.66D-05
 ErrMax= 1.66D-05  0.00D+00 EMaxC= 1.00D-01 BMatC= 6.76D-08 BMatP= 6.01D-07
 IDIUse=1 WtCom= 1.00D+00 WtEn= 0.00D+00
 Coeff-Com:  0.124D-03-0.172D-02-0.307D-02-0.223D-02 0.342D-01 0.797D-03
 Coeff-Com: -0.163D+00-0.113D+00 0.125D+01
 Coeff:      0.124D-03-0.172D-02-0.307D-02-0.223D-02 0.342D-01 0.797D-03
 Coeff:     -0.163D+00-0.113D+00 0.125D+01
 Gap=     0.502 Goal=   None    Shift=    0.000
 RMSDP=1.92D-06 MaxDP=6.63D-05 DE=-1.77D-06 OVMax= 1.75D-04

 Cycle  10  Pass 1  IDiag  1:
 E= -279.501455940224     Delta-E=       -0.000000157419 Rises=F Damp=F
 DIIS: error= 4.39D-06 at cycle  10 NSaved=  10.
 NSaved=10 IEnMin=10 EnMin= -279.501455940224     IErMin=10 ErrMin= 4.39D-06
 ErrMax= 4.39D-06  0.00D+00 EMaxC= 1.00D-01 BMatC= 5.46D-09 BMatP= 6.76D-08
 IDIUse=1 WtCom= 1.00D+00 WtEn= 0.00D+00
 Coeff-Com:  0.300D-04-0.232D-03-0.303D-03-0.265D-02 0.144D-02 0.194D-01
 Coeff-Com: -0.116D-01-0.735D-01-0.842D-01 0.115D+01
 Coeff:      0.300D-04-0.232D-03-0.303D-03-0.265D-02 0.144D-02 0.194D-01
 Coeff:     -0.116D-01-0.735D-01-0.842D-01 0.115D+01
 Gap=     0.502 Goal=   None    Shift=    0.000
 RMSDP=4.98D-07 MaxDP=2.08D-05 DE=-1.57D-07 OVMax= 4.17D-05

 Cycle  11  Pass 1  IDiag  1:
 E= -279.501455952493     Delta-E=       -0.000000012269 Rises=F Damp=F
 DIIS: error= 2.02D-06 at cycle  11 NSaved=  11.
 NSaved=11 IEnMin=11 EnMin= -279.501455952493     IErMin=11 ErrMin= 2.02D-06
 ErrMax= 2.02D-06  0.00D+00 EMaxC= 1.00D-01 BMatC= 6.49D-10 BMatP= 5.46D-09
 IDIUse=1 WtCom= 1.00D+00 WtEn= 0.00D+00
 Coeff-Com: -0.211D-04 0.242D-03 0.484D-03 0.533D-03-0.428D-02-0.347D-02
 Coeff-Com:  0.205D-01 0.316D-01-0.139D+00-0.174D+00 0.127D+01
 Coeff:     -0.211D-04 0.242D-03 0.484D-03 0.533D-03-0.428D-02-0.347D-02
 Coeff:      0.205D-01 0.316D-01-0.139D+00-0.174D+00 0.127D+01
 Gap=     0.502 Goal=   None    Shift=    0.000
 RMSDP=1.75D-07 MaxDP=6.36D-06 DE=-1.23D-08 OVMax= 1.73D-05

 Cycle  12  Pass 1  IDiag  1:
 E= -279.501455954263     Delta-E=       -0.000000001770 Rises=F Damp=F
 DIIS: error= 5.73D-07 at cycle  12 NSaved=  12.
 NSaved=12 IEnMin=12 EnMin= -279.501455954263     IErMin=12 ErrMin= 5.73D-07
 ErrMax= 5.73D-07  0.00D+00 EMaxC= 1.00D-01 BMatC= 7.03D-11 BMatP= 6.49D-10
 IDIUse=1 WtCom= 1.00D+00 WtEn= 0.00D+00
 Coeff-Com:  0.121D-05-0.286D-04-0.621D-04 0.182D-03 0.107D-02-0.230D-02
 Coeff-Com: -0.404D-02 0.543D-02 0.416D-01-0.117D+00-0.270D+00 0.135D+01
 Coeff:      0.121D-05-0.286D-04-0.621D-04 0.182D-03 0.107D-02-0.230D-02
 Coeff:     -0.404D-02 0.543D-02 0.416D-01-0.117D+00-0.270D+00 0.135D+01
 Gap=     0.502 Goal=   None    Shift=    0.000
 RMSDP=7.04D-08 MaxDP=2.75D-06 DE=-1.77D-09 OVMax= 6.69D-06

 Cycle  13  Pass 1  IDiag  1:
 E= -279.501455954488     Delta-E=       -0.000000000224 Rises=F Damp=F
 DIIS: error= 1.66D-07 at cycle  13 NSaved=  13.
 NSaved=13 IEnMin=13 EnMin= -279.501455954488     IErMin=13 ErrMin= 1.66D-07
 ErrMax= 1.66D-07  0.00D+00 EMaxC= 1.00D-01 BMatC= 3.95D-12 BMatP= 7.03D-11
 IDIUse=1 WtCom= 1.00D+00 WtEn= 0.00D+00
 Coeff-Com:  0.128D-05-0.139D-04-0.224D-04-0.887D-04 0.124D-03 0.751D-03
 Coeff-Com: -0.816D-03-0.328D-02 0.633D-03 0.414D-01-0.379D-01-0.323D+00
 Coeff-Com:  0.132D+01
 Coeff:      0.128D-05-0.139D-04-0.224D-04-0.887D-04 0.124D-03 0.751D-03
 Coeff:     -0.816D-03-0.328D-02 0.633D-03 0.414D-01-0.379D-01-0.323D+00
 Coeff:      0.132D+01
 Gap=     0.502 Goal=   None    Shift=    0.000
 RMSDP=1.89D-08 MaxDP=5.58D-07 DE=-2.24D-10 OVMax= 1.56D-06

 Cycle  14  Pass 1  IDiag  1:
 E= -279.501455954499     Delta-E=       -0.000000000012 Rises=F Damp=F
 DIIS: error= 2.42D-08 at cycle  14 NSaved=  14.
 NSaved=14 IEnMin=14 EnMin= -279.501455954499     IErMin=14 ErrMin= 2.42D-08
 ErrMax= 2.42D-08  0.00D+00 EMaxC= 1.00D-01 BMatC= 1.96D-13 BMatP= 3.95D-12
 IDIUse=1 WtCom= 1.00D+00 WtEn= 0.00D+00
 Coeff-Com: -0.191D-06 0.311D-05 0.558D-05 0.454D-05-0.825D-04 0.456D-04
 Coeff-Com:  0.276D-03 0.238D-03-0.247D-02 0.154D-02 0.169D-01-0.254D-01
 Coeff-Com: -0.202D+00 0.121D+01
 Coeff:     -0.191D-06 0.311D-05 0.558D-05 0.454D-05-0.825D-04 0.456D-04
 Coeff:      0.276D-03 0.238D-03-0.247D-02 0.154D-02 0.169D-01-0.254D-01
 Coeff:     -0.202D+00 0.121D+01
 Gap=     0.502 Goal=   None    Shift=    0.000
 RMSDP=3.78D-09 MaxDP=8.95D-08 DE=-1.19D-11 OVMax= 3.42D-07

 SCF Done:  E(RHF) =  -279.501455954     A.U. after   14 cycles
            NFock= 14  Conv=0.38D-08     -V/T= 2.0023
 KE= 2.788542587560D+02 PE=-8.954800220843D+02 EE= 2.200531959535D+02
 Leave Link  502 at Mon Feb 21 20:46:07 2022, MaxMem= 16106127360 cpu:              55.0 elap:               3.6
 (Enter /sw/contrib/gaussian/g16/B01/g16/l801.exe)
 ExpMin= 2.53D-02 ExpMax= 1.53D+04 ExpMxC= 5.22D+02 IAcc=3 IRadAn=         5 AccDes= 0.00D+00
 HarFok:  IExCor=  205 AccDes= 0.00D+00 IRadAn=         5 IDoV=-2 UseB2=F ITyADJ=14
 ICtDFT= 12500011 ScaDFX=  1.000000  1.000000  1.000000  1.000000
 Largest valence mixing into a core orbital is  2.08D-04
 Largest core mixing into a valence orbital is  3.64D-05
 Range of M.O.s used for correlation:     5   207
 NBasis=   207 NAE=    16 NBE=    16 NFC=     4 NFV=     0
 NROrb=    203 NOA=    12 NOB=    12 NVA=   191 NVB=   191

 **** Warning!!: The largest alpha MO coefficient is  0.18044088D+02

 Leave Link  801 at Mon Feb 21 20:46:07 2022, MaxMem= 16106127360 cpu:               2.5 elap:               0.1
 (Enter /sw/contrib/gaussian/g16/B01/g16/l906.exe)
 Frozen-core derivative calculation, NFC=   4 NFV=   0.
 FulOut=F Deriv=T AODrv=T NAtomX=     5
   MMem=           0  MDisk=          12 MDiskD=          12
  W3Min=      811440 MinDsk=     2425030 NBas6D=         245
 NBas2D=       30762    NTT=       30135    LW2=     7400000
    MDV= 16105574283 MDiskM=      328644 NBas2p=       30702
 Disk-based method using ON**2 memory for 12 occupieds at a time.
 Permanent disk used for amplitudes=    11516536 words.
 Estimated scratch disk usage=   321251614 words.
 IMap=   1   2   3   4   5   6   7   8   9  10  11  12  13  14  15  16
 Actual    scratch disk usage=   310331678 words.
 JobTyp=1 Pass  1:  I=   5 to  16 NPSUse= 28 ParTrn=T ParDer=T DoDerP=T.
 (rs|ai) integrals will be sorted in core.
 Spin components of T(2) and E(2):
     alpha-alpha T2 =       0.3402253540D-01 E2=     -0.1224283050D+00
     alpha-beta  T2 =       0.1868611376D+00 E2=     -0.7003303128D+00
     beta-beta   T2 =       0.3402253540D-01 E2=     -0.1224283050D+00
 The integrals were generated   1 times.
 ANorm=    0.1120225963D+01
 E2 =    -0.9451869227D+00 EUMP2 =    -0.28044664287721D+03
 Leave Link  906 at Mon Feb 21 20:47:44 2022, MaxMem= 16106127360 cpu:            2712.7 elap:              97.0
 (Enter /sw/contrib/gaussian/g16/B01/g16/l1101.exe)
 Using compressed Sx but separate Hx and Fx, NAtomX=     5.
 Will process      6 centers per pass.
 Leave Link 1101 at Mon Feb 21 20:47:45 2022, MaxMem= 16106127360 cpu:               8.2 elap:               0.4
 (Enter /sw/contrib/gaussian/g16/B01/g16/l1102.exe)
 Leave Link 1102 at Mon Feb 21 20:47:45 2022, MaxMem= 16106127360 cpu:               0.6 elap:               0.0
 (Enter /sw/contrib/gaussian/g16/B01/g16/l1110.exe)
 Forming Gx(P) for the SCF density, NAtomX=     5.
 Integral derivatives from FoFJK, PRISM(SPDF).
 Do as many integral derivatives as possible in FoFJK.
 G2DrvN: MDV=   16106126844.
 G2DrvN: will do     6 centers at a time, making    1 passes.
 Calling FoFCou, ICntrl=  3107 FMM=F I1Cent=   0 AccDes= 0.00D+00.
 FoFJK:  IHMeth= 1 ICntrl=    3107 DoSepK=F KAlg= 0 I1Cent=           0 FoldK=F
 IRaf=         0 NMat=       1 IRICut=       1 DoRegI=T DoRafI=F ISym2E= 1 IDoP0=0 IntGTp=1.
 FoFCou: FMM=F IPFlag=           0 FMFlag=      100000 FMFlg1=           0
         NFxFlg=           0 DoJE=F BraDBF=F KetDBF=F FulRan=T
         wScrn=  0.000000 ICntrl=      3107 IOpCl=  0 I1Cent=           0 NGrid=           0
         NMat0=    1 NMatS0=      1 NMatT0=    0 NMatD0=    1 NMtDS0=    0 NMtDT0=    0
 Petite list used in FoFCou.
 End of G2Drv F.D. properties file   721 does not exist.
 End of G2Drv F.D. properties file   722 does not exist.
 End of G2Drv F.D. properties file   788 does not exist.
 Leave Link 1110 at Mon Feb 21 20:47:48 2022, MaxMem= 16106127360 cpu:              84.4 elap:               3.1
 (Enter /sw/contrib/gaussian/g16/B01/g16/l1002.exe)
 Minotr:  Closed shell wavefunction.
          IDoAtm=11111
          Frozen-core window.
          Direct CPHF calculation.
          Differentiating once with respect to electric field.
                with respect to dipole field.
          Differentiating once with respect to nuclear coordinates.
          Requested convergence is 1.0D-08 RMS, and 1.0D-07 maximum.
          Secondary convergence is 1.0D-12 RMS, and 1.0D-12 maximum.
          NewPWx=T KeepS1=T KeepF1=T KeepIn=T MapXYZ=F SortEE=F KeepMc=T.
 Keep R1 ints in memory in symmetry-blocked form, NReq=348888983.
 FoFCou: FMM=F IPFlag=           0 FMFlag=           0 FMFlg1=           0
         NFxFlg=           0 DoJE=F BraDBF=F KetDBF=F FulRan=T
         wScrn=  0.000000 ICntrl=       600 IOpCl=  0 I1Cent=           0 NGrid=           0
         NMat0=    1 NMatS0=  21528 NMatT0=    0 NMatD0=    1 NMtDS0=    0 NMtDT0=    0
 Petite list used in FoFCou.
          MDV=   16106127360 using IRadAn=       1.
          Solving linear equations simultaneously, MaxMat=       0.
          There are    18 degrees of freedom in the 1st order CPHF.  IDoFFX=6 NUNeed=    18.
     15 vectors produced by pass  0 Test12= 1.70D-14 5.56D-09 XBig12= 8.28D+00 1.07D+00.
 AX will form    15 AO Fock derivatives at one time.
     15 vectors produced by pass  1 Test12= 1.70D-14 5.56D-09 XBig12= 1.34D+00 2.74D-01.
     15 vectors produced by pass  2 Test12= 1.70D-14 5.56D-09 XBig12= 1.40D-01 9.63D-02.
     15 vectors produced by pass  3 Test12= 1.70D-14 5.56D-09 XBig12= 4.86D-03 1.07D-02.
     15 vectors produced by pass  4 Test12= 1.70D-14 5.56D-09 XBig12= 9.75D-05 1.89D-03.
     15 vectors produced by pass  5 Test12= 1.70D-14 5.56D-09 XBig12= 1.41D-06 1.73D-04.
     15 vectors produced by pass  6 Test12= 1.70D-14 5.56D-09 XBig12= 1.11D-08 1.45D-05.
     13 vectors produced by pass  7 Test12= 1.70D-14 5.56D-09 XBig12= 8.15D-11 1.29D-06.
      3 vectors produced by pass  8 Test12= 1.70D-14 5.56D-09 XBig12= 5.61D-13 1.20D-07.
      2 vectors produced by pass  9 Test12= 1.70D-14 5.56D-09 XBig12= 3.61D-15 1.01D-08.
 InvSVY:  IOpt=1 It=  1 EMax= 8.88D-16
 Solved reduced A of dimension   123 with    15 vectors.
 FullF1:  Do perturbations      1 to      18.
 Saving first derivative matrices.
 End of Minotr F.D. properties file   721 does not exist.
 End of Minotr F.D. properties file   722 does not exist.
 End of Minotr F.D. properties file   788 does not exist.
 Leave Link 1002 at Mon Feb 21 20:47:51 2022, MaxMem= 16106127360 cpu:              79.5 elap:               2.9
 (Enter /sw/contrib/gaussian/g16/B01/g16/l811.exe)
 MDV= 16106127360.
 Form MO integral derivatives with frozen-active canonical formalism.
 MOERI=1 MOERIx=1 NAtoms=     5 NAtomX=     5.
 Discarding MO integrals.
 MO basis two electron integral derivatives will not be stored on disk.
 IAlg= 3 DoFC=T DoPWx=T Debug=F.
 Frozen-core window:  NFC=   4 NFV=   0.
 Reordered first order wavefunction length =     18678272
 In DefCFB: NBatch=  1 ICI= 16 ICA=191 LFMax= 96
            Large arrays: LIAPS=   619940160 LIARS=   288257200 words.
 In StABat: MaxSiz= 55 MinSiz= 25 NAtomB=  5
 DoIAMN: NPSUse= 28.
 Leave Link  811 at Mon Feb 21 20:49:10 2022, MaxMem= 16106127360 cpu:            2221.1 elap:              79.4
 (Enter /sw/contrib/gaussian/g16/B01/g16/l804.exe)
 Frozen-core window:  NFC=   4 NFV=   0.
 Closed-shell transformation, MDV= 16106127360 ITran=4 ISComp=1.
 Semi-Direct transformation.
 ModeAB=           2 MOrb=            16 LenV=   16104923009
 LASXX=     67341636 LTotXX=    67341636 LenRXX=    67341636
 LTotAB=    68301760 MaxLAS=    99807120 LenRXY=    99807120
 NonZer=   134683272 LenScr=   202817536 LnRSAI=           0
 LnScr1=           0 LExtra=           0 Total=    369966292
 MaxDsk=          -1 SrtSym=           F ITran=            4
 DoSDTr:  NPSUse= 28
 JobTyp=0 Pass  1:  I=   1 to  16.
 (rs|ai) integrals will be sorted in core.
 Complete sort for first half transformation.
 First half transformation complete.
 Begin second half transformation for I=  10.
 Begin second half transformation for I=  10.
 Complete sort for second half transformation.
 Second half transformation complete.
 Spin components of T(2) and E(2):
     alpha-alpha T2 =       0.3402253540D-01 E2=     -0.1224283050D+00
     alpha-beta  T2 =       0.1868611376D+00 E2=     -0.7003303128D+00
     beta-beta   T2 =       0.3402253540D-01 E2=     -0.1224283050D+00
 ANorm=    0.1584238750D+01
 E2 =    -0.9451869227D+00 EUMP2 =    -0.28044664287721D+03
 Leave Link  804 at Mon Feb 21 20:49:27 2022, MaxMem= 16106127360 cpu:             450.7 elap:              16.2
 (Enter /sw/contrib/gaussian/g16/B01/g16/l1002.exe)
 Minotr:  Closed shell wavefunction.
          Computing MP2/KS-MP2 derivatives.
          Using Z-Vector for PSCF gradient.
          Skipping F1 and S1 gradient terms here.
          IDoAtm=11111
          Frozen-core window.
          Using MO integrals in the linear equations.
          Forming densities via direct SCF.
          Differentiating once with respect to electric field.
                with respect to dipole field.
          Differentiating once with respect to nuclear coordinates.
          Using symmetry in CPHF.
          Requested convergence is 1.0D-10 RMS, and 1.0D-09 maximum.
          NewPWx=F KeepS1=T KeepF1=T KeepIn=T MapXYZ=F SortEE=F KeepMc=T.
          MDV=   16106127360 using IRadAn=       5.
          Solving linear equations separately, MaxMat=       0.
          There are     1 degrees of freedom in the 1st order CPHF.  IDoFFX=0 NUNeed=     1.
 FoFJK:  IHMeth= 1 ICntrl=       0 DoSepK=F KAlg= 0 I1Cent=           0 FoldK=F
 IRaf=         0 NMat=       1 IRICut=       1 DoRegI=T DoRafI=F ISym2E= 0 IDoP0=0 IntGTp=1.
 FoFCou: FMM=F IPFlag=           0 FMFlag=      100000 FMFlg1=           0
         NFxFlg=           0 DoJE=F BraDBF=F KetDBF=F FulRan=T
         wScrn=  0.000000 ICntrl=         0 IOpCl=  0 I1Cent=           0 NGrid=           0
         NMat0=    1 NMatS0=      1 NMatT0=    0 NMatD0=    1 NMtDS0=    0 NMtDT0=    0
 Symmetry not used in FoFCou.
 LinEq1:  Iter=  0 NonCon=     1 RMS=5.94D-03 Max=1.33D-01 NDo=     1
 LinEq1:  Iter=  1 NonCon=     1 RMS=1.90D-03 Max=3.83D-02 NDo=     1
 LinEq1:  Iter=  2 NonCon=     1 RMS=8.66D-04 Max=1.46D-02 NDo=     1
 LinEq1:  Iter=  3 NonCon=     1 RMS=3.85D-04 Max=7.75D-03 NDo=     1
 LinEq1:  Iter=  4 NonCon=     1 RMS=1.18D-04 Max=1.87D-03 NDo=     1
 LinEq1:  Iter=  5 NonCon=     1 RMS=4.39D-05 Max=7.03D-04 NDo=     1
 LinEq1:  Iter=  6 NonCon=     1 RMS=1.98D-05 Max=2.22D-04 NDo=     1
 LinEq1:  Iter=  7 NonCon=     1 RMS=8.00D-06 Max=1.59D-04 NDo=     1
 LinEq1:  Iter=  8 NonCon=     1 RMS=3.43D-06 Max=3.37D-05 NDo=     1
 LinEq1:  Iter=  9 NonCon=     1 RMS=9.40D-07 Max=1.32D-05 NDo=     1
 LinEq1:  Iter= 10 NonCon=     1 RMS=1.85D-07 Max=2.02D-06 NDo=     1
 LinEq1:  Iter= 11 NonCon=     1 RMS=3.47D-08 Max=3.78D-07 NDo=     1
 LinEq1:  Iter= 12 NonCon=     1 RMS=8.39D-09 Max=1.35D-07 NDo=     1
 LinEq1:  Iter= 13 NonCon=     1 RMS=1.52D-09 Max=2.59D-08 NDo=     1
 LinEq1:  Iter= 14 NonCon=     1 RMS=2.72D-10 Max=3.95D-09 NDo=     1
 LinEq1:  Iter= 15 NonCon=     0 RMS=4.87D-11 Max=5.37D-10 NDo=     1
 Linear equations converged to 1.000D-10 1.000D-09 after    15 iterations.
 End of Minotr F.D. properties file   721 does not exist.
 End of Minotr F.D. properties file   722 does not exist.
 End of Minotr F.D. properties file   788 does not exist.
 Leave Link 1002 at Mon Feb 21 20:49:29 2022, MaxMem= 16106127360 cpu:              65.8 elap:               2.4
 (Enter /sw/contrib/gaussian/g16/B01/g16/l1102.exe)
 Use density number 2.
 Symmetrizing basis deriv contribution to polar:
 IMax=3 JMax=2 DiffMx= 0.00D+00
 Leave Link 1102 at Mon Feb 21 20:49:29 2022, MaxMem= 16106127360 cpu:               1.3 elap:               0.1
 (Enter /sw/contrib/gaussian/g16/B01/g16/l1110.exe)
 Forming Gx(P) for generalized density number  2 NAtomX=     5.
 Integral derivatives from FoFJK, PRISM(SPDF).
 Do as many integral derivatives as possible in FoFJK.
 G2DrvN: MDV=   16106126844.
 G2DrvN: will do     6 centers at a time, making    1 passes.
 Calling FoFCou, ICntrl=  3107 FMM=F I1Cent=   0 AccDes= 0.00D+00.
 FoFJK:  IHMeth= 1 ICntrl=    3107 DoSepK=F KAlg= 0 I1Cent=           0 FoldK=F
 IRaf=         0 NMat=       1 IRICut=       1 DoRegI=T DoRafI=F ISym2E= 1 IDoP0=0 IntGTp=1.
 FoFCou: FMM=F IPFlag=           0 FMFlag=      100000 FMFlg1=           0
         NFxFlg=           0 DoJE=F BraDBF=F KetDBF=F FulRan=T
         wScrn=  0.000000 ICntrl=      3107 IOpCl=  0 I1Cent=           0 NGrid=           0
         NMat0=    1 NMatS0=      1 NMatT0=    0 NMatD0=    1 NMtDS0=    0 NMtDT0=    0
 Petite list used in FoFCou.
 End of G2Drv F.D. properties file   721 does not exist.
 End of G2Drv F.D. properties file   722 does not exist.
 End of G2Drv F.D. properties file   788 does not exist.
 Leave Link 1110 at Mon Feb 21 20:49:32 2022, MaxMem= 16106127360 cpu:              83.9 elap:               3.0
 (Enter /sw/contrib/gaussian/g16/B01/g16/l1112.exe)
 MP22nd: MDV=   16106127360
 This link is doing NAtomX=     5 total of    18 degrees of freedom.
 Using ON3 I/O method in MakUI.
 Frozen-core window:  NFC=   4 NFV=   0.
 Using Ix for Sx.
 Use MO integrals over full window.
 Using OV2 memory method for fx*t*t/D, MaxI=    16 DoOO2=F NP=  28.
 R2 and R3 integrals will be kept in memory, NReq=   915591705.
 FoFCou: FMM=F IPFlag=           0 FMFlag=           0 FMFlg1=           0
         NFxFlg=           0 DoJE=F BraDBF=F KetDBF=F FulRan=T
         wScrn=  0.000000 ICntrl=       600 IOpCl=  0 I1Cent=           0 NGrid=           0
         NMat0=    1 NMatS0=      1 NMatT0=    0 NMatD0=    1 NMtDS0=    0 NMtDT0=    0
 Symmetry not used in FoFCou.
 DD1Dir will call FoFMem   1 times, MxPair=       272
 NAB=   136 NAA=     0 NBB=     0.
 Symmetry is being used.
 FoFJK:  IHMeth= 1 ICntrl=       0 DoSepK=F KAlg= 0 I1Cent=           0 FoldK=F
 IRaf=         0 NMat=      18 IRICut=      45 DoRegI=T DoRafI=T ISym2E= 2 IDoP0=3 IntGTp=3.
 Discarding MO integrals.
 Leave Link 1112 at Mon Feb 21 20:50:05 2022, MaxMem= 16106127360 cpu:             925.0 elap:              33.3
 (Enter /sw/contrib/gaussian/g16/B01/g16/l601.exe)
 Copying SCF densities to generalized density rwf, IOpCl= 0 IROHF=0.

 **********************************************************************

            Population analysis using the MP2 Density.

 **********************************************************************

 Orbital symmetries:
       Occupied  (A') (A') (A') (A') (A') (A') (A') (A') (A') (A')
                 (A") (A') (A") (A') (A") (A')
       Virtual   (A') (A") (A') (A') (A') (A") (A') (A') (A") (A')
                 (A") (A') (A') (A') (A") (A') (A') (A") (A') (A')
                 (A') (A') (A') (A') (A") (A') (A') (A") (A') (A')
                 (A") (A') (A") (A') (A') (A") (A') (A') (A") (A')
                 (A") (A') (A") (A') (A') (A") (A') (A') (A") (A')
                 (A") (A') (A') (A') (A") (A') (A") (A') (A") (A')
                 (A') (A') (A") (A') (A') (A") (A') (A") (A') (A')
                 (A") (A') (A') (A") (A") (A') (A') (A") (A') (A')
                 (A') (A") (A') (A") (A') (A") (A') (A") (A') (A')
                 (A") (A') (A') (A") (A') (A") (A') (A") (A') (A')
                 (A") (A') (A") (A') (A') (A") (A') (A') (A") (A')
                 (A") (A') (A') (A') (A") (A') (A') (A') (A") (A')
                 (A") (A') (A") (A') (A') (A") (A") (A') (A") (A')
                 (A') (A') (A') (A") (A") (A") (A') (A') (A') (A')
                 (A") (A') (A") (A') (A') (A") (A') (A') (A') (A')
                 (A") (A') (A') (A") (A') (A") (A') (A") (A') (A")
                 (A') (A") (A') (A') (A") (A") (A") (A') (A") (A')
                 (A") (A') (A") (A') (A") (A') (A") (A") (A') (A')
                 (A') (A') (A') (A') (A') (A') (A') (A') (A') (A')
                 (A')
 The electronic state is 1-A'.
 Alpha  occ. eigenvalues --  -20.69124 -20.68397 -20.65949 -15.81239  -1.62409
 Alpha  occ. eigenvalues --   -1.49617  -1.25369  -0.94837  -0.77394  -0.75857
 Alpha  occ. eigenvalues --   -0.71201  -0.67707  -0.62005  -0.59050  -0.48534
 Alpha  occ. eigenvalues --   -0.47280
 Alpha virt. eigenvalues --    0.02962   0.07185   0.08592   0.10133   0.13408
 Alpha virt. eigenvalues --    0.13412   0.14426   0.15499   0.17819   0.19399
 Alpha virt. eigenvalues --    0.19967   0.20640   0.22104   0.23553   0.23751
 Alpha virt. eigenvalues --    0.26504   0.29318   0.30471   0.31019   0.34311
 Alpha virt. eigenvalues --    0.35021   0.38789   0.42146   0.43070   0.52712
 Alpha virt. eigenvalues --    0.53036   0.56046   0.58389   0.62621   0.63707
 Alpha virt. eigenvalues --    0.67419   0.68435   0.70553   0.71217   0.72377
 Alpha virt. eigenvalues --    0.73024   0.74472   0.78994   0.79192   0.80959
 Alpha virt. eigenvalues --    0.81291   0.83200   0.86825   0.90752   0.92269
 Alpha virt. eigenvalues --    0.92588   0.95891   0.98271   0.98590   1.01653
 Alpha virt. eigenvalues --    1.05304   1.05372   1.08644   1.12122   1.14384
 Alpha virt. eigenvalues --    1.18791   1.22214   1.23123   1.33764   1.34934
 Alpha virt. eigenvalues --    1.38794   1.45253   1.48753   1.50889   1.53983
 Alpha virt. eigenvalues --    1.56828   1.58074   1.61551   1.66581   1.66912
 Alpha virt. eigenvalues --    1.70325   1.79273   1.82792   1.83290   1.87958
 Alpha virt. eigenvalues --    1.91255   1.95868   1.99346   2.00605   2.07683
 Alpha virt. eigenvalues --    2.11765   2.13100   2.15039   2.22502   2.26382
 Alpha virt. eigenvalues --    2.26531   2.28809   2.31707   2.35227   2.38797
 Alpha virt. eigenvalues --    2.42694   2.42861   2.45343   2.46427   2.47705
 Alpha virt. eigenvalues --    2.50673   2.59007   2.59501   2.61896   2.62676
 Alpha virt. eigenvalues --    2.63134   2.67033   2.76161   2.83080   2.86729
 Alpha virt. eigenvalues --    2.89116   2.89611   2.92226   2.95596   3.03390
 Alpha virt. eigenvalues --    3.07207   3.12548   3.20670   3.23150   3.31510
 Alpha virt. eigenvalues --    3.33413   3.50632   3.65217   3.84006   3.84469
 Alpha virt. eigenvalues --    4.15058   4.16222   4.18544   4.26134   4.34740
 Alpha virt. eigenvalues --    4.39627   4.46390   4.51787   4.67087   4.71157
 Alpha virt. eigenvalues --    4.80947   4.82367   4.82972   4.89709   5.02181
 Alpha virt. eigenvalues --    5.07712   5.10139   5.13978   5.18435   5.24662
 Alpha virt. eigenvalues --    5.27125   5.30836   5.33380   5.36355   5.61821
 Alpha virt. eigenvalues --    5.67394   5.77247   5.82874   5.95743   6.17385
 Alpha virt. eigenvalues --    6.30870   6.33667   6.39309   6.49298   6.50419
 Alpha virt. eigenvalues --    6.61657   6.66526   6.69782   6.76255   6.76362
 Alpha virt. eigenvalues --    6.83412   6.89630   7.00984   7.05191   7.05783
 Alpha virt. eigenvalues --    7.09035   7.12615   7.15228   7.18275   7.22280
 Alpha virt. eigenvalues --    7.24381   7.30995   7.32465   7.35579   7.40266
 Alpha virt. eigenvalues --    7.42926   7.48707   7.60327   7.61774   7.63454
 Alpha virt. eigenvalues --    7.67001   7.79417   7.89445   8.08798   8.31576
 Alpha virt. eigenvalues --    8.40930   8.54353  13.40344  14.36423  15.17958
 Alpha virt. eigenvalues --   16.15560
          Condensed to atoms (all electrons):
               1          2          3          4          5
     1  H    0.592599   0.127754   0.018865   0.013414  -0.000775
     2  O    0.127754   8.321851  -0.171096  -0.096220   0.016052
     3  O    0.018865  -0.171096   8.469986  -0.127902  -0.040373
     4  N    0.013414  -0.096220  -0.127902   6.972563  -0.056067
     5  O   -0.000775   0.016052  -0.040373  -0.056067   8.275694
 Mulliken charges:
               1
     1  H    0.248142
     2  O   -0.198341
     3  O   -0.149480
     4  N    0.294211
     5  O   -0.194532
 Sum of Mulliken charges =  -0.00000
 Mulliken charges with hydrogens summed into heavy atoms:
               1
     2  O    0.049801
     3  O   -0.149480
     4  N    0.294211
     5  O   -0.194532
 APT charges:
               1
     1  H    0.298537
     2  O   -0.281267
     3  O   -0.499181
     4  N    0.872768
     5  O   -0.390857
 Sum of APT charges =  -0.00000
 APT charges with hydrogens summed into heavy atoms:
               1
     2  O    0.017270
     3  O   -0.499181
     4  N    0.872768
     5  O   -0.390857
 Electronic spatial extent (au):  <R**2>=            251.2665
 Charge=             -0.0000 electrons
 Dipole moment (field-independent basis, Debye):
    X=              0.5442    Y=              1.3482    Z=             -0.0000  Tot=              1.4539
 Quadrupole moment (field-independent basis, Debye-Ang):
   XX=            -22.3167   YY=            -18.7635   ZZ=            -22.0075
   XY=              3.2991   XZ=             -0.0000   YZ=              0.0000
 Traceless Quadrupole moment (field-independent basis, Debye-Ang):
   XX=             -1.2875   YY=              2.2657   ZZ=             -0.9783
   XY=              3.2991   XZ=             -0.0000   YZ=              0.0000
 Octapole moment (field-independent basis, Debye-Ang**2):
  XXX=              3.2752  YYY=             10.7668  ZZZ=             -0.0000  XYY=              7.8389
  XXY=              6.8042  XXZ=             -0.0000  XZZ=             -1.5810  YZZ=             -0.8400
  YYZ=             -0.0000  XYZ=             -0.0000
 Hexadecapole moment (field-independent basis, Debye-Ang**3):
 XXXX=           -158.1507 YYYY=            -88.4945 ZZZZ=            -18.2359 XXXY=            -35.2618
 XXXZ=             -0.0000 YYYX=            -30.2984 YYYZ=              0.0000 ZZZX=             -0.0000
 ZZZY=              0.0000 XXYY=            -33.5763 XXZZ=            -30.9615 YYZZ=            -20.2594
 XXYZ=             -0.0000 YYXZ=             -0.0000 ZZXY=            -14.7203
 N-N= 1.170711114203D+02 E-N=-8.962654430423D+02  KE= 2.802062590816D+02
 Symmetry A'   KE= 2.662338835043D+02
 Symmetry A"   KE= 1.397237557729D+01
  Exact polarizability:  34.007   9.278  29.981   0.000   0.000  17.910
 Approx polarizability:  29.017   4.925  23.440   0.000  -0.000  15.515
 No NMR shielding tensors so no spin-rotation constants.
 Leave Link  601 at Mon Feb 21 20:50:06 2022, MaxMem= 16106127360 cpu:               5.0 elap:               0.2
 (Enter /sw/contrib/gaussian/g16/B01/g16/l701.exe)
 ... and contract with generalized density number  2.
 Compute integral second derivatives.
 Leave Link  701 at Mon Feb 21 20:50:06 2022, MaxMem= 16106127360 cpu:               6.3 elap:               0.3
 (Enter /sw/contrib/gaussian/g16/B01/g16/l702.exe)
 L702 exits ... SP integral derivatives will be done elsewhere.
 Leave Link  702 at Mon Feb 21 20:50:06 2022, MaxMem= 16106127360 cpu:               0.5 elap:               0.0
 (Enter /sw/contrib/gaussian/g16/B01/g16/l703.exe)
 Integral derivatives from FoFJK, PRISM(SPDF).
 Compute integral second derivatives, UseDBF=F ICtDFT=           0.
 Calling FoFJK, ICntrl=  10100127 FMM=F ISym2X=1 I1Cent= 0 IOpClX= 0 NMat=1 NMatS=1 NMatT=0.
 FoFJK:  IHMeth= 1 ICntrl=10100127 DoSepK=F KAlg= 0 I1Cent=           0 FoldK=F
 IRaf=         0 NMat=       1 IRICut=       1 DoRegI=T DoRafI=F ISym2E= 1 IDoP0=0 IntGTp=1.
 FoFCou: FMM=F IPFlag=           0 FMFlag=      100000 FMFlg1=         800
         NFxFlg=           0 DoJE=F BraDBF=F KetDBF=F FulRan=T
         wScrn=  0.000000 ICntrl=  10100127 IOpCl=  0 I1Cent=           0 NGrid=           0
         NMat0=    1 NMatS0=      1 NMatT0=    0 NMatD0=    1 NMtDS0=    0 NMtDT0=    0
 Petite list used in FoFCou.
 Leave Link  703 at Mon Feb 21 20:50:21 2022, MaxMem= 16106127360 cpu:             423.6 elap:              15.2
 (Enter /sw/contrib/gaussian/g16/B01/g16/l716.exe)
 Dipole        = 2.14107221D-01 5.30439989D-01-3.89290351D-33
 Polarizability= 3.40074070D+01 9.27790571D+00 2.99805988D+01
                 8.14095508D-32 7.43454329D-32 1.79097593D+01
 Full mass-weighted force constant matrix:
 Low frequencies --- -258.9815  -34.3324  -24.7185    0.0009    0.0019    0.0021
 Low frequencies ---   73.0437  225.4256  344.1685
 ******    1 imaginary frequencies (negative Signs) ****** 
 Diagonal vibrational polarizability:
       13.6902410      24.7581050      50.5275395
 Harmonic frequencies (cm**-1), IR intensities (KM/Mole), Raman scattering
 activities (A**4/AMU), depolarization ratios for plane and unpolarized
 incident light, reduced masses (AMU), force constants (mDyne/A),
 and normal coordinates:
                      1                      2                      3
                     A"                     A"                     A'
 Frequencies --   -258.9812               225.4129               344.1684
 Red. masses --      1.1374                10.4504                 8.5112
 Frc consts  --      0.0449                 0.3129                 0.5940
 IR Inten    --    124.9328                 0.7559                12.1597
  Atom  AN      X      Y      Z        X      Y      Z        X      Y      Z
     1   1    -0.00   0.00   1.00    -0.00   0.00  -0.58     0.55  -0.44  -0.00
     2   8    -0.00   0.00  -0.07    -0.00   0.00  -0.30    -0.08  -0.36  -0.00
     3   8    -0.00  -0.00  -0.04     0.00  -0.00   0.31    -0.13   0.46   0.00
     4   7     0.00   0.00   0.06     0.00  -0.00   0.53     0.02   0.22   0.00
     5   8     0.00   0.00  -0.01    -0.00   0.00  -0.44     0.15  -0.27  -0.00
                      4                      5                      6
                     A'                     A'                     A'
 Frequencies --    464.3533               786.3519               966.7309
 Red. masses --     12.6444                13.0817                15.5036
 Frc consts  --      1.6064                 4.7659                 8.5368
 IR Inten    --    192.7396               169.0576                21.1748
  Atom  AN      X      Y      Z        X      Y      Z        X      Y      Z
     1   1    -0.36  -0.23   0.00    -0.32   0.20   0.00    -0.15  -0.04  -0.00
     2   8    -0.33  -0.24   0.00     0.42   0.07  -0.00    -0.53   0.04  -0.00
     3   8    -0.20  -0.40  -0.00    -0.06  -0.26   0.00     0.75  -0.03   0.00
     4   7     0.36   0.43  -0.00    -0.15   0.63   0.00    -0.12   0.24   0.00
     5   8     0.24   0.27   0.00    -0.22  -0.38  -0.00    -0.11  -0.22  -0.00
                      7                      8                      9
                     A'                     A'                     A'
 Frequencies --   1370.8197              1678.0837              3778.6502
 Red. masses --      1.1312                13.1715                 1.0675
 Frc consts  --      1.2525                21.8531                 8.9802
 IR Inten    --    151.1941               141.0396                79.7303
  Atom  AN      X      Y      Z        X      Y      Z        X      Y      Z
     1   1     0.99  -0.08  -0.00    -0.35   0.01   0.00     0.13   0.99   0.00
     2   8    -0.03   0.05  -0.00    -0.01  -0.04   0.00    -0.01  -0.06   0.00
     3   8    -0.02  -0.05   0.00     0.00   0.15  -0.00     0.00   0.00  -0.00
     4   7     0.02   0.01   0.00     0.70  -0.05  -0.00    -0.00  -0.00  -0.00
     5   8    -0.03  -0.01  -0.00    -0.59  -0.07   0.00     0.00   0.00   0.00

 -------------------
 - Thermochemistry -
 -------------------
 Temperature   298.150 Kelvin.  Pressure   1.00000 Atm.
 Atom     1 has atomic number  1 and mass   1.00783
 Atom     2 has atomic number  8 and mass  15.99491
 Atom     3 has atomic number  8 and mass  15.99491
 Atom     4 has atomic number  7 and mass  14.00307
 Atom     5 has atomic number  8 and mass  15.99491
 Molecular mass:    62.99564 amu.
 Principal axes and moments of inertia in atomic units:
                           1         2         3
     Eigenvalues --    33.60213 356.21745 389.81958
           X            0.81622  -0.57775   0.00000
           Y            0.57775   0.81622   0.00000
           Z            0.00000  -0.00000   1.00000
 This molecule is an asymmetric top.
 Rotational symmetry number  1.
 Rotational temperatures (Kelvin)      2.57763     0.24315     0.22219
 Rotational constants (GHZ):          53.70914     5.06640     4.62968
    1 imaginary frequencies ignored.
 Zero-point vibrational energy      57507.9 (Joules/Mol)
                                   13.74472 (Kcal/Mol)
 Warning -- explicit consideration of   3 degrees of freedom as
           vibrations may cause significant error
 Vibrational temperatures:    324.32   495.18   668.10  1131.39  1390.91
          (Kelvin)           1972.30  2414.39  5436.63
 
 Zero-point correction=                           0.021904 (Hartree/Particle)
 Thermal correction to Energy=                    0.026013
 Thermal correction to Enthalpy=                  0.026957
 Thermal correction to Gibbs Free Energy=        -0.004218
 Sum of electronic and zero-point Energies=           -280.424739
 Sum of electronic and thermal Energies=              -280.420630
 Sum of electronic and thermal Enthalpies=            -280.419686
 Sum of electronic and thermal Free Energies=         -280.450861
 
                     E (Thermal)             CV                S
                      KCal/Mol        Cal/Mol-Kelvin    Cal/Mol-Kelvin
 Total                   16.323             11.925             65.614
 Electronic               0.000              0.000              0.000
 Translational            0.889              2.981             38.341
 Rotational               0.889              2.981             23.060
 Vibrational             14.546              5.964              4.213
 Vibration     1          0.650              1.802              1.915
 Vibration     2          0.723              1.587              1.193
 Vibration     3          0.822              1.329              0.754
                       Q            Log10(Q)             Ln(Q)
 Total Bot       0.871569D+02          1.940302          4.467710
 Total V=0       0.103574D+13         12.015252         27.666139
 Vib (Bot)       0.181369D-09         -9.741436        -22.430486
 Vib (Bot)    1  0.875504D+00         -0.057742         -0.132955
 Vib (Bot)    2  0.538090D+00         -0.269145         -0.619730
 Vib (Bot)    3  0.364968D+00         -0.437745         -1.007946
 Vib (V=0)       0.215533D+01          0.333514          0.767943
 Vib (V=0)    1  0.150822D+01          0.178465          0.410930
 Vib (V=0)    2  0.123453D+01          0.091503          0.210694
 Vib (V=0)    3  0.111903D+01          0.048843          0.112465
 Electronic      0.100000D+01          0.000000          0.000000
 Translational   0.196526D+08          7.293420         16.793719
 Rotational      0.244522D+05          4.388318         10.104477
 
                                                                title
                                                             IR Spectrum
 
     3                                                                      1         1                                              
     7                                                                      6         3             9     7          4   3   2       
     7                                                                      7         7             6     8          6   4   2       
     9                                                                      8         1             7     6          4   4   5       
 
     X                                                                      X         X             X     X          X   X   X       
     X                                                                      X         X             X     X          X               
     X                                                                      X         X                   X          X               
     X                                                                      X         X                   X          X               
     X                                                                      X         X                   X          X               
     X                                                                      X         X                   X          X               
     X                                                                      X         X                   X          X               
     X                                                                      X         X                   X          X               
                                                                            X         X                   X          X               
                                                                            X         X                   X          X               
                                                                            X         X                   X          X               
                                                                            X         X                   X          X               
                                                                            X         X                   X          X               
                                                                            X         X                   X          X               
                                                                            X         X                   X          X               
                                                                                      X                   X          X               
                                                                                                          X          X               
                                                                                                          X          X               
                                                                                                                     X               
                                                                                                                     X               
 
 ***** Axes restored to original set *****
 -------------------------------------------------------------------
 Center     Atomic                   Forces (Hartrees/Bohr)
 Number     Number              X              Y              Z
 -------------------------------------------------------------------
      1        1          -0.000367875   -0.000000000   -0.000125032
      2        8          -0.000581189   -0.000000000   -0.002956967
      3        8          -0.002647237   -0.000000000    0.002219779
      4        7           0.003003140    0.000000000   -0.000425196
      5        8           0.000593161    0.000000000    0.001287417
 -------------------------------------------------------------------
 Cartesian Forces:  Max     0.003003140 RMS     0.001469163
 -----------------------------------------------------------------------------------------------
                       Internal Coordinate Forces (Hartree/Bohr or radian)
  Cent   Atom   N1       Length/X         N2         Alpha/Y        N3         Beta/Z          J
 -----------------------------------------------------------------------------------------------
      1  H 
      2  O        1   0.000125(     1)
      3  O        2   0.001348(     2)      1   0.000674(     5)
      4  N        3   0.001065(     3)      2   0.007381(     6)      1  -0.000000(     8)     0
      5  O        4   0.000922(     4)      3   0.002383(     7)      2   0.000000(     9)     0
 -----------------------------------------------------------------------------------------------
 Internal  Forces:  Max     0.007380808 RMS     0.002675452
 Force constants in Cartesian coordinates: 
                1             2             3             4             5 
      1  0.647155D-01
      2  0.000000D+00 -0.218606D-02
      3  0.571309D-02  0.000000D+00  0.512375D+00
      4 -0.358669D-01  0.000000D+00 -0.166623D-01  0.275187D+00
      5  0.000000D+00  0.276367D-02  0.000000D+00  0.000000D+00  0.197865D-02
      6  0.479654D-01  0.000000D+00 -0.508158D+00  0.375484D-01  0.000000D+00
      7 -0.182984D-01  0.000000D+00  0.126443D-01 -0.219864D+00  0.000000D+00
      8  0.000000D+00  0.980094D-03  0.000000D+00  0.000000D+00 -0.692616D-02
      9 -0.525888D-01  0.000000D+00 -0.517266D-03 -0.219157D-01  0.000000D+00
     10 -0.967871D-02  0.000000D+00 -0.495733D-02 -0.201153D-01  0.000000D+00
     11  0.000000D+00 -0.258450D-02  0.000000D+00  0.000000D+00 -0.400078D-02
     12  0.464763D-02  0.000000D+00 -0.523235D-02  0.107249D-01  0.000000D+00
     13 -0.871454D-03  0.000000D+00  0.326226D-02  0.659575D-03  0.000000D+00
     14  0.000000D+00  0.102680D-02  0.000000D+00  0.000000D+00  0.618463D-02
     15 -0.573735D-02  0.000000D+00  0.153181D-02 -0.969522D-02  0.000000D+00
                6             7             8             9            10 
      6  0.597126D+00
      7 -0.220461D-01  0.340144D+00
      8  0.000000D+00  0.000000D+00  0.548242D-02
      9 -0.766030D-01  0.394926D-01  0.000000D+00  0.177568D+00
     10 -0.565943D-01 -0.825556D-01  0.000000D+00  0.173863D+00  0.831226D+00
     11  0.000000D+00  0.000000D+00  0.686703D-02  0.000000D+00  0.000000D+00
     12  0.124196D-01  0.596657D-01  0.000000D+00 -0.742042D-01  0.348550D-02
     13 -0.687337D-02 -0.194259D-01  0.000000D+00 -0.138851D+00 -0.718876D+00
     14  0.000000D+00  0.000000D+00 -0.640338D-02  0.000000D+00  0.000000D+00
     15 -0.247846D-01 -0.897565D-01  0.000000D+00 -0.262437D-01 -0.115797D+00
               11            12            13            14            15 
     11  0.953980D-02
     12  0.000000D+00  0.190045D+00
     13  0.000000D+00 -0.785237D-01  0.738514D+00
     14 -0.982155D-02  0.000000D+00  0.000000D+00  0.901351D-02
     15  0.000000D+00 -0.123028D+00  0.220986D+00  0.000000D+00  0.172524D+00
 Force constants in internal coordinates: 
                1             2             3             4             5 
      1  0.512375D+00
      2 -0.102957D-01  0.284649D+00
      3  0.379063D-02  0.435245D-02  0.119974D+00
      4 -0.355631D-02  0.566987D-02  0.153014D+00  0.812377D+00
      5  0.100934D-01  0.653521D-01  0.308682D-02  0.439954D-02  0.217216D+00
      6  0.538010D-02  0.665352D-01  0.500478D-01  0.207434D-01  0.314577D-01
      7 -0.129276D-02  0.386878D-01  0.314068D-01  0.866754D-01  0.214006D-01
      8  0.000000D+00  0.000000D+00  0.000000D+00  0.000000D+00  0.000000D+00
      9  0.000000D+00  0.000000D+00  0.000000D+00  0.000000D+00  0.000000D+00
                6             7             8             9 
      6  0.303405D+00
      7  0.956596D-01  0.484938D+00
      8  0.000000D+00  0.000000D+00 -0.706432D-02
      9  0.000000D+00  0.000000D+00 -0.389617D-02  0.404934D-01
 Leave Link  716 at Mon Feb 21 20:50:21 2022, MaxMem= 16106127360 cpu:               0.8 elap:               0.1
 (Enter /sw/contrib/gaussian/g16/B01/g16/l103.exe)

 GradGradGradGradGradGradGradGradGradGradGradGradGradGradGradGradGradGrad
 Berny optimization.
 Search for a local minimum.
 Step number   1 out of a maximum of    2
 All quantities printed in internal units (Hartrees-Bohrs-Radians)
 Second derivative matrix not updated -- analytic derivatives used.
 The second derivative matrix:
                          r1        r2        r3        r4        a1
           r1           0.51238
           r2          -0.01030   0.28465
           r3           0.00379   0.00435   0.11997
           r4          -0.00356   0.00567   0.15301   0.81238
           a1           0.01009   0.06535   0.00309   0.00440   0.21722
           a2           0.00538   0.06654   0.05005   0.02074   0.03146
           a3          -0.00129   0.03869   0.03141   0.08668   0.02140
           d1           0.00000  -0.00000  -0.00000  -0.00000  -0.00000
           d2          -0.00000   0.00000   0.00000   0.00000   0.00000
                          a2        a3        d1        d2
           a2           0.30340
           a3           0.09566   0.48494
           d1          -0.00000  -0.00000  -0.00706
           d2          -0.00000  -0.00000  -0.00390   0.04049
 ITU=  0
     Eigenvalues ---   -0.00738   0.04081   0.07811   0.17617   0.23733
     Eigenvalues ---    0.33339   0.51306   0.52409   0.87280
 Eigenvalue     1 is  -7.38D-03 should be greater than     0.000000 Eigenvector:
                          d1        d2        a3        a2        r3
   1                    0.99670   0.08111   0.00000   0.00000  -0.00000
                          r4        a1        r2        r1
   1                    0.00000  -0.00000   0.00000  -0.00000
 Angle between quadratic step and forces=  26.44 degrees.
 Linear search not attempted -- first point.
 Variable       Old X    -DE/DX   Delta X   Delta X   Delta X     New X
                                 (Linear)    (Quad)   (Total)
    r1        1.83110   0.00013   0.00000  -0.00001  -0.00001   1.83109
    r2        2.74940   0.00135   0.00000  -0.00104  -0.00104   2.74836
    r3        2.75670   0.00106   0.00000  -0.00282  -0.00282   2.75388
    r4        2.21236   0.00092   0.00000   0.00103   0.00103   2.21339
    a1        1.70335   0.00067   0.00000  -0.00019  -0.00019   1.70317
    a2        1.76004   0.00738   0.00000   0.02494   0.02494   1.78498
    a3        1.90362   0.00238   0.00000   0.00008   0.00008   1.90371
    d1        3.14159  -0.00000   0.00000  -0.00000   0.00000   3.14159
    d2        3.14159   0.00000   0.00000   0.00000   0.00000   3.14159
         Item               Value     Threshold  Converged?
 Maximum Force            0.007381     0.000450     NO 
 RMS     Force            0.002675     0.000300     NO 
 Maximum Displacement     0.024943     0.001800     NO 
 RMS     Displacement     0.008382     0.001200     NO 
 Predicted change in Energy=-9.035687D-05
                       ----------------------------
                       ! Non-Optimized Parameters !
                       ! (Angstroms and Degrees)  !
 ----------------------                            ----------------------
 !      Name          Value   Derivative information (Atomic Units)     !
 ------------------------------------------------------------------------
 !       r1          0.969    -DE/DX =    0.0001                        !
 !       r2          1.4544   -DE/DX =    0.0013                        !
 !       r3          1.4573   -DE/DX =    0.0011                        !
 !       r4          1.1713   -DE/DX =    0.0009                        !
 !       a1         97.5843   -DE/DX =    0.0007                        !
 !       a2        102.272    -DE/DX =    0.0074                        !
 !       a3        109.0743   -DE/DX =    0.0024                        !
 !       d1        180.0      -DE/DX =    0.0                           !
 !       d2        180.0      -DE/DX =    0.0                           !
 ------------------------------------------------------------------------
 GradGradGradGradGradGradGradGradGradGradGradGradGradGradGradGradGradGrad

 Leave Link  103 at Mon Feb 21 20:50:21 2022, MaxMem= 16106127360 cpu:               1.3 elap:               0.1
 (Enter /sw/contrib/gaussian/g16/B01/g16/l9999.exe)

 ----------------------------------------------------------------------

 Electric dipole moment (input orientation):
 (Debye = 10**-18 statcoulomb cm , SI units = C m)
                  (au)            (Debye)         (10**-30 SI)
   Tot        0.572021D+00      0.145393D+01      0.484980D+01
   x         -0.146257D+00     -0.371748D+00     -0.124002D+01
   y          0.000000D+00      0.000000D+00      0.000000D+00
   z         -0.553008D+00     -0.140561D+01     -0.468859D+01

 Dipole polarizability, Alpha (input orientation).
 (esu units = cm**3 , SI units = C**2 m**2 J**-1)
 Alpha(0;0):
               (au)            (10**-24 esu)      (10**-40 SI)
   iso        0.272993D+02      0.404533D+01      0.450104D+01
   aniso      0.216510D+02      0.320835D+01      0.356977D+01
   xx         0.316478D+02      0.468972D+01      0.521802D+01
   yx         0.000000D+00      0.000000D+00      0.000000D+00
   yy         0.179098D+02      0.265395D+01      0.295292D+01
   zx         0.948754D+01      0.140591D+01      0.156428D+01
   zy         0.000000D+00      0.000000D+00      0.000000D+00
   zz         0.323402D+02      0.479232D+01      0.533218D+01

 ----------------------------------------------------------------------

 Dipole orientation:
     1          0.00000000          0.00000000         -0.00000000
     8         -0.46818322          0.00000000         -1.77023330
     8          2.07359651          0.00000000         -2.81835106
     7          1.52087454          0.00000000         -5.51907434
     8          3.42443872          0.00000000         -6.64644581

 Electric dipole moment (dipole orientation):
 (Debye = 10**-18 statcoulomb cm , SI units = C m)
                  (au)            (Debye)         (10**-30 SI)
   Tot        0.572021D+00      0.145393D+01      0.484980D+01
   x          0.000000D+00      0.000000D+00      0.000000D+00
   y          0.000000D+00      0.000000D+00      0.000000D+00
   z          0.572021D+00      0.145393D+01      0.484980D+01

 Dipole polarizability, Alpha (dipole orientation).
 (esu units = cm**3 , SI units = C**2 m**2 J**-1)
 Alpha(0;0):
               (au)            (10**-24 esu)      (10**-40 SI)
   iso        0.272993D+02      0.404533D+01      0.450104D+01
   aniso      0.216510D+02      0.320835D+01      0.356977D+01
   xx         0.270027D+02      0.400139D+01      0.445214D+01
   yx         0.000000D+00      0.000000D+00      0.000000D+00
   yy         0.179098D+02      0.265395D+01      0.295292D+01
   zx        -0.807590D+01     -0.119673D+01     -0.133154D+01
   zy         0.000000D+00      0.000000D+00      0.000000D+00
   zz         0.369853D+02      0.548066D+01      0.609805D+01

 ----------------------------------------------------------------------
 1\1\GINC-N2110\Freq\RMP2-FC\Aug-CC-pVTZ\H1N1O3\CGAVINH\21-Feb-2022\1\\
 #p freq mp2/aug-cc-pvtz density=current\\title\\0,1\H\O,1,r1\O,2,r2,1,
 a1\N,3,r3,2,a2,1,d1,0\O,4,r4,3,a3,2,d2,0\\r1=0.96897556\r2=1.45491931\
 r3=1.45878406\r4=1.17072885\a1=97.59494903\a2=100.8428234\a3=109.06955
 123\d1=180.\d2=180.\\Version=ES64L-G16RevB.01\State=1-A'\HF=-279.50145
 6\MP2=-280.4466429\RMSD=3.779e-09\RMSF=1.469e-03\ZeroPoint=0.0219036\T
 hermal=0.0260128\Dipole=-0.1462569,0.,-0.5530076\DipoleDeriv=0.2681339
 ,0.,0.0500854,0.,0.3554682,0.,0.0784862,0.,0.2720077,-0.317379,0.,-0.2
 000421,0.,-0.3160661,0.,-0.1042024,0.,-0.2103556,-0.0413106,0.,0.17302
 87,0.,-0.0849055,0.,-0.7260618,0.,-1.3713272,0.8521987,0.,0.8807722,0.
 ,0.067106,0.,0.9010602,0.,1.6989997,-0.761643,0.,-0.9038443,0.,-0.0216
 026,0.,-0.1492822,0.,-0.3893246\Polar=31.6478016,0.,17.9097593,9.48754
 32,0.,32.3402042\Quadrupole=-1.5233154,-0.7273128,2.2506282,0.,2.04942
 94,0.\PG=CS [SG(H1N1O3)]\NImag=1\\0.06471552,0.,-0.00218606,0.00571309
 ,0.,0.51237538,-0.03586695,0.,-0.01666234,0.27518710,0.,0.00276367,0.,
 0.,0.00197865,0.04796542,0.,-0.50815757,0.03754838,0.,0.59712562,-0.01
 829841,0.,0.01264432,-0.21986442,0.,-0.02204607,0.34014431,0.,0.000980
 09,0.,0.,-0.00692616,0.,0.,0.00548242,-0.05258879,0.,-0.00051727,-0.02
 191568,0.,-0.07660299,0.03949255,0.,0.17756812,-0.00967871,0.,-0.00495
 733,-0.02011531,0.,-0.05659434,-0.08255562,0.,0.17386337,0.83122585,0.
 ,-0.00258450,0.,0.,-0.00400078,0.,0.,0.00686703,0.,0.,0.00953980,0.004
 64763,0.,-0.00523235,0.01072487,0.,0.01241959,0.05966570,0.,-0.0742042
 0,0.00348550,0.,0.19004477,-0.00087145,0.,0.00326226,0.00065958,0.,-0.
 00687337,-0.01942586,0.,-0.13885145,-0.71887621,0.,-0.07852369,0.73851
 395,0.,0.00102680,0.,0.,0.00618463,0.,0.,-0.00640338,0.,0.,-0.00982155
 ,0.,0.,0.00901351,-0.00573735,0.,0.00153181,-0.00969522,0.,-0.02478464
 ,-0.08975650,0.,-0.02624367,-0.11579719,0.,-0.12302781,0.22098626,0.,0
 .17252431\\0.00036787,0.,0.00012503,0.00058119,0.,0.00295697,0.0026472
 4,0.,-0.00221978,-0.00300314,0.,0.00042520,-0.00059316,0.,-0.00128742\
 \\@


 POCKETA-POCKETA
 BARON VON RICHTOFEN
 SLAUGHTERED THE ALLIES WITH
 HARDLY A CARE.
 KILLED EIGHTY-ONE WITH HIS
 BLOOD-COLORED TRIPLANE, THEN
 UN-AEROBATICALLY
 PLUNGED FROM THE AIR.
   -- TONY HOFFMAN
 Job cpu time:       0 days  1 hours 59 minutes 12.4 seconds.
 Elapsed time:       0 days  0 hours  4 minutes 18.6 seconds.
 File lengths (MBytes):  RWF=   7239 Int=      0 D2E=      0 Chk=      8 Scr=      1
 Normal termination of Gaussian 16 at Mon Feb 21 20:50:22 2022.
