 Entering Gaussian System, Link 0=g16
 Input=hoono_r1_0p958995.gjf
 Output=hoono_r1_0p958995.log
 Initial command:
 /sw/contrib/gaussian/g16/B01/g16/l1.exe "/scr/Gau-29822.inp" -scrdir="/scr/"
 Entering Link 1 = /sw/contrib/gaussian/g16/B01/g16/l1.exe PID=     29823.
  
 Copyright (c) 1988-2017, Gaussian, Inc.  All Rights Reserved.
  
 This is part of the Gaussian(R) 16 program.  It is based on
 the Gaussian(R) 09 system (copyright 2009, Gaussian, Inc.),
 the Gaussian(R) 03 system (copyright 2003, Gaussian, Inc.),
 the Gaussian(R) 98 system (copyright 1998, Gaussian, Inc.),
 the Gaussian(R) 94 system (copyright 1995, Gaussian, Inc.),
 the Gaussian 92(TM) system (copyright 1992, Gaussian, Inc.),
 the Gaussian 90(TM) system (copyright 1990, Gaussian, Inc.),
 the Gaussian 88(TM) system (copyright 1988, Gaussian, Inc.),
 the Gaussian 86(TM) system (copyright 1986, Carnegie Mellon
 University), and the Gaussian 82(TM) system (copyright 1983,
 Carnegie Mellon University). Gaussian is a federally registered
 trademark of Gaussian, Inc.
  
 This software contains proprietary and confidential information,
 including trade secrets, belonging to Gaussian, Inc.
  
 This software is provided under written license and may be
 used, copied, transmitted, or stored only in accord with that
 written license.
  
 The following legend is applicable only to US Government
 contracts under FAR:
  
                    RESTRICTED RIGHTS LEGEND
  
 Use, reproduction and disclosure by the US Government is
 subject to restrictions as set forth in subparagraphs (a)
 and (c) of the Commercial Computer Software - Restricted
 Rights clause in FAR 52.227-19.
  
 Gaussian, Inc.
 340 Quinnipiac St., Bldg. 40, Wallingford CT 06492
  
  
 ---------------------------------------------------------------
 Warning -- This program may not be used in any manner that
 competes with the business of Gaussian, Inc. or will provide
 assistance to any competitor of Gaussian, Inc.  The licensee
 of this program is prohibited from giving any competitor of
 Gaussian, Inc. access to this program.  By using this program,
 the user acknowledges that Gaussian, Inc. is engaged in the
 business of creating and licensing software in the field of
 computational chemistry and represents and warrants to the
 licensee that it is not a competitor of Gaussian, Inc. and that
 it will not use this program in any manner prohibited above.
 ---------------------------------------------------------------
  

 Cite this work as:
 Gaussian 16, Revision B.01,
 M. J. Frisch, G. W. Trucks, H. B. Schlegel, G. E. Scuseria, 
 M. A. Robb, J. R. Cheeseman, G. Scalmani, V. Barone, 
 G. A. Petersson, H. Nakatsuji, X. Li, M. Caricato, A. V. Marenich, 
 J. Bloino, B. G. Janesko, R. Gomperts, B. Mennucci, H. P. Hratchian, 
 J. V. Ortiz, A. F. Izmaylov, J. L. Sonnenberg, D. Williams-Young, 
 F. Ding, F. Lipparini, F. Egidi, J. Goings, B. Peng, A. Petrone, 
 T. Henderson, D. Ranasinghe, V. G. Zakrzewski, J. Gao, N. Rega, 
 G. Zheng, W. Liang, M. Hada, M. Ehara, K. Toyota, R. Fukuda, 
 J. Hasegawa, M. Ishida, T. Nakajima, Y. Honda, O. Kitao, H. Nakai, 
 T. Vreven, K. Throssell, J. A. Montgomery, Jr., J. E. Peralta, 
 F. Ogliaro, M. J. Bearpark, J. J. Heyd, E. N. Brothers, K. N. Kudin, 
 V. N. Staroverov, T. A. Keith, R. Kobayashi, J. Normand, 
 K. Raghavachari, A. P. Rendell, J. C. Burant, S. S. Iyengar, 
 J. Tomasi, M. Cossi, J. M. Millam, M. Klene, C. Adamo, R. Cammi, 
 J. W. Ochterski, R. L. Martin, K. Morokuma, O. Farkas, 
 J. B. Foresman, and D. J. Fox, Gaussian, Inc., Wallingford CT, 2016.
 
 ******************************************
 Gaussian 16:  ES64L-G16RevB.01 20-Dec-2017
                21-Feb-2022 
 ******************************************
 %nproc=28
 Will use up to   28 processors via shared memory.
 %mem=120GB
 %chk=hoono_r1_0p958995.chk
 ---------------------------------------
 #p freq mp2/aug-cc-pvtz density=current
 ---------------------------------------
 1/10=4,30=1,38=1/1,3;
 2/12=2,17=6,18=5,40=1/2;
 3/5=16,6=1,7=10,11=9,25=1,30=1,71=2,140=1/1,2,3;
 4//1;
 5/5=2,38=5,98=1/2;
 8/6=3,8=1,10=1,19=11,30=-1/1;
 9/15=3,16=-3/6;
 11/6=1,8=1,15=11,17=12,24=-1,27=1,28=-2,29=300,32=6,42=3/1,2,10;
 10/6=2,21=1/2;
 8/6=4,8=1,10=1,19=11,30=-1/11,4;
 10/5=1,20=4/2;
 11/12=2,14=11,16=1,17=2,28=-2,42=3,76=2/2,10,12;
 6/7=2,8=2,9=2,10=2,22=-1/1;
 7/8=1,10=1,12=2,25=1,44=2/1,2,3,16;
 1/10=4,30=1/3;
 99//99;
 Leave Link    1 at Mon Feb 21 20:02:09 2022, MaxMem= 16106127360 cpu:               2.7 elap:               0.1
 (Enter /sw/contrib/gaussian/g16/B01/g16/l101.exe)
 -----
 title
 -----
 Symbolic Z-matrix:
 Charge =  0 Multiplicity = 1
 H
 O                    1    r1
 O                    2    r2       1    a1
 N                    3    r3       2    a2       1    d1       0
 O                    4    r4       3    a3       2    d2       0
       Variables:
  r1                    0.959                    
  r2                    1.45492                  
  r3                    1.45878                  
  r4                    1.17073                  
  a1                   97.59495                  
  a2                  102.29752                  
  a3                  109.06955                  
  d1                  180.                       
  d2                  180.                       
 
 ITRead=  0  0  0  0  0
 MicOpt= -1 -1 -1 -1 -1
 NAtoms=      5 NQM=        5 NQMF=       0 NMMI=      0 NMMIF=      0
                NMic=       0 NMicF=      0.
                    Isotopes and Nuclear Properties:
 (Nuclear quadrupole moments (NQMom) in fm**2, nuclear magnetic moments (NMagM)
  in nuclear magnetons)

  Atom         1           2           3           4           5
 IAtWgt=           1          16          16          14          16
 AtmWgt=   1.0078250  15.9949146  15.9949146  14.0030740  15.9949146
 NucSpn=           1           0           0           2           0
 AtZEff=  -0.0000000  -0.0000000  -0.0000000  -0.0000000  -0.0000000
 NQMom=    0.0000000   0.0000000   0.0000000   2.0440000   0.0000000
 NMagM=    2.7928460   0.0000000   0.0000000   0.4037610   0.0000000
 AtZNuc=   1.0000000   8.0000000   8.0000000   7.0000000   8.0000000
 Leave Link  101 at Mon Feb 21 20:02:10 2022, MaxMem= 16106127360 cpu:               2.7 elap:               0.1
 (Enter /sw/contrib/gaussian/g16/B01/g16/l103.exe)

 GradGradGradGradGradGradGradGradGradGradGradGradGradGradGradGradGradGrad
 Berny optimization.
 Initialization pass.
                       ----------------------------
                       !    Initial Parameters    !
                       ! (Angstroms and Degrees)  !
 ----------------------                            ----------------------
 !      Name          Value   Derivative information (Atomic Units)     !
 ------------------------------------------------------------------------
 !       r1          0.959    calculate D2E/DX2 analytically            !
 !       r2          1.4549   calculate D2E/DX2 analytically            !
 !       r3          1.4588   calculate D2E/DX2 analytically            !
 !       r4          1.1707   calculate D2E/DX2 analytically            !
 !       a1         97.5949   calculate D2E/DX2 analytically            !
 !       a2        102.2975   calculate D2E/DX2 analytically            !
 !       a3        109.0696   calculate D2E/DX2 analytically            !
 !       d1        180.0      calculate D2E/DX2 analytically            !
 !       d2        180.0      calculate D2E/DX2 analytically            !
 ------------------------------------------------------------------------
 Trust Radius=3.00D-01 FncErr=1.00D-07 GrdErr=1.00D-07 EigMax=2.50D+02 EigMin=1.00D-04
 Number of steps in this run=      2 maximum allowed number of steps=      2.
 GradGradGradGradGradGradGradGradGradGradGradGradGradGradGradGradGradGrad

 Leave Link  103 at Mon Feb 21 20:02:10 2022, MaxMem= 16106127360 cpu:               1.9 elap:               0.1
 (Enter /sw/contrib/gaussian/g16/B01/g16/l202.exe)
                          Input orientation:                          
 ---------------------------------------------------------------------
 Center     Atomic      Atomic             Coordinates (Angstroms)
 Number     Number       Type             X           Y           Z
 ---------------------------------------------------------------------
      1          1           0        0.000000    0.000000    0.000000
      2          8           0        0.000000    0.000000    0.958995
      3          8           0        1.442156    0.000000    1.151290
      4          7           0        1.561752    0.000000    2.605164
      5          8           0        2.695867    0.000000    2.895658
 ---------------------------------------------------------------------
                    Distance matrix (angstroms):
                    1          2          3          4          5
     1  H    0.000000
     2  O    0.958995   0.000000
     3  O    1.845341   1.454919   0.000000
     4  N    3.037424   2.269127   1.458784   0.000000
     5  O    3.956329   3.319392   2.148165   1.170729   0.000000
 Stoichiometry    HNO3
 Framework group  CS[SG(HNO3)]
 Deg. of freedom     7
 Full point group                 CS      NOp   2
 Largest Abelian subgroup         CS      NOp   2
 Largest concise Abelian subgroup C1      NOp   1
                         Standard orientation:                         
 ---------------------------------------------------------------------
 Center     Atomic      Atomic             Coordinates (Angstroms)
 Number     Number       Type             X           Y           Z
 ---------------------------------------------------------------------
      1          1           0        1.548087    1.677664    0.000000
      2          8           0        1.454061    0.723290    0.000000
      3          8           0       -0.000000    0.673319    0.000000
      4          7           0       -0.261567   -0.761823   -0.000000
      5          8           0       -1.418701   -0.939722   -0.000000
 ---------------------------------------------------------------------
 Rotational constants (GHZ):          54.9967002           5.0126377           4.5939273
 Leave Link  202 at Mon Feb 21 20:02:10 2022, MaxMem= 16106127360 cpu:               0.3 elap:               0.0
 (Enter /sw/contrib/gaussian/g16/B01/g16/l301.exe)
 Standard basis: Aug-CC-pVTZ (5D, 7F)
 Ernie: Thresh=  0.10000D-02 Tol=  0.10000D-05 Strict=F.
 Ernie:  12 primitive shells out of 131 were deleted.
 There are   166 symmetry adapted cartesian basis functions of A'  symmetry.
 There are    79 symmetry adapted cartesian basis functions of A"  symmetry.
 There are   136 symmetry adapted basis functions of A'  symmetry.
 There are    71 symmetry adapted basis functions of A"  symmetry.
   207 basis functions,   315 primitive gaussians,   245 cartesian basis functions
    16 alpha electrons       16 beta electrons
       nuclear repulsion energy       116.9306180398 Hartrees.
 IExCor=    0 DFT=F Ex=HF Corr=None ExCW=0 ScaHFX=  1.000000
 ScaDFX=  1.000000  1.000000  1.000000  1.000000 ScalE2=  1.000000  1.000000
 IRadAn=      5 IRanWt=     -1 IRanGd=            0 ICorTp=0 IEmpDi=  4
 NAtoms=    5 NActive=    5 NUniq=    5 SFac= 1.00D+00 NAtFMM=   60 NAOKFM=F Big=F
 Integral buffers will be    131072 words long.
 Raffenetti 1 integral format.
 Two-electron integral symmetry is turned on.
 Leave Link  301 at Mon Feb 21 20:02:10 2022, MaxMem= 16106127360 cpu:               2.3 elap:               0.1
 (Enter /sw/contrib/gaussian/g16/B01/g16/l302.exe)
 NPDir=0 NMtPBC=     1 NCelOv=     1 NCel=       1 NClECP=     1 NCelD=      1
         NCelK=      1 NCelE2=     1 NClLst=     1 CellRange=     0.0.
 One-electron integrals computed using PRISM.
 One-electron integral symmetry used in STVInt
 NBasis=   207 RedAO= T EigKep=  1.81D-04  NBF=   136    71
 NBsUse=   207 1.00D-06 EigRej= -1.00D+00 NBFU=   136    71
 Leave Link  302 at Mon Feb 21 20:02:10 2022, MaxMem= 16106127360 cpu:               4.9 elap:               0.2
 (Enter /sw/contrib/gaussian/g16/B01/g16/l303.exe)
 DipDrv:  MaxL=1.
 Leave Link  303 at Mon Feb 21 20:02:10 2022, MaxMem= 16106127360 cpu:               2.8 elap:               0.1
 (Enter /sw/contrib/gaussian/g16/B01/g16/l401.exe)
 ExpMin= 2.53D-02 ExpMax= 1.53D+04 ExpMxC= 5.22D+02 IAcc=3 IRadAn=         5 AccDes= 0.00D+00
 Harris functional with IExCor=  205 and IRadAn=       5 diagonalized for initial guess.
 HarFok:  IExCor=  205 AccDes= 0.00D+00 IRadAn=         5 IDoV= 1 UseB2=F ITyADJ=14
 ICtDFT=  3500011 ScaDFX=  1.000000  1.000000  1.000000  1.000000
 FoFCou: FMM=F IPFlag=           0 FMFlag=      100000 FMFlg1=           0
         NFxFlg=           0 DoJE=T BraDBF=F KetDBF=T FulRan=T
         wScrn=  0.000000 ICntrl=       500 IOpCl=  0 I1Cent=   200000004 NGrid=           0
         NMat0=    1 NMatS0=      1 NMatT0=    0 NMatD0=    1 NMtDS0=    0 NMtDT0=    0
 Petite list used in FoFCou.
 Harris En= -279.628743065404    
 JPrj=0 DoOrth=F DoCkMO=F.
 Initial guess orbital symmetries:
       Occupied  (A') (A') (A') (A') (A') (A') (A') (A') (A') (A')
                 (A") (A') (A') (A") (A") (A')
       Virtual   (A") (A') (A') (A') (A') (A') (A") (A') (A') (A')
                 (A") (A') (A") (A') (A') (A") (A') (A") (A') (A')
                 (A') (A') (A') (A') (A') (A") (A') (A") (A') (A')
                 (A") (A') (A") (A') (A') (A") (A') (A") (A') (A')
                 (A") (A') (A") (A') (A") (A') (A') (A') (A") (A")
                 (A') (A') (A') (A') (A") (A') (A") (A') (A") (A')
                 (A') (A') (A") (A') (A') (A") (A') (A") (A') (A')
                 (A") (A') (A') (A") (A") (A') (A') (A") (A') (A')
                 (A') (A") (A') (A") (A') (A") (A') (A") (A') (A')
                 (A') (A") (A') (A") (A') (A") (A") (A') (A') (A")
                 (A') (A') (A") (A') (A') (A') (A') (A") (A") (A')
                 (A") (A') (A') (A') (A") (A') (A') (A') (A") (A')
                 (A") (A') (A') (A") (A") (A') (A") (A') (A") (A')
                 (A') (A') (A') (A") (A") (A') (A") (A') (A') (A')
                 (A') (A") (A") (A') (A') (A") (A') (A') (A') (A')
                 (A") (A') (A') (A") (A') (A") (A') (A") (A') (A")
                 (A') (A") (A') (A") (A') (A") (A") (A") (A') (A')
                 (A") (A') (A") (A') (A") (A') (A") (A") (A') (A')
                 (A') (A') (A') (A') (A') (A') (A') (A') (A') (A')
                 (A')
 The electronic state of the initial guess is 1-A'.
 Leave Link  401 at Mon Feb 21 20:02:11 2022, MaxMem= 16106127360 cpu:               7.1 elap:               0.3
 (Enter /sw/contrib/gaussian/g16/B01/g16/l502.exe)
 Keep R1 ints in memory in symmetry-blocked form, NReq=348887737.
 FoFCou: FMM=F IPFlag=           0 FMFlag=           0 FMFlg1=           0
         NFxFlg=           0 DoJE=F BraDBF=F KetDBF=F FulRan=T
         wScrn=  0.000000 ICntrl=       600 IOpCl=  0 I1Cent=           0 NGrid=           0
         NMat0=    1 NMatS0=  21528 NMatT0=    0 NMatD0=    1 NMtDS0=    0 NMtDT0=    0
 Petite list used in FoFCou.
 Closed shell SCF:
 Using DIIS extrapolation, IDIIS=  1040.
 NGot= 16106127360 LenX= 15988850015 LenY= 15988789549
 Requested convergence on RMS density matrix=1.00D-08 within 128 cycles.
 Requested convergence on MAX density matrix=1.00D-06.
 Requested convergence on             energy=1.00D-06.
 No special actions if energy rises.

 Cycle   1  Pass 1  IDiag  1:
 E= -279.370200885651    
 DIIS: error= 2.58D-02 at cycle   1 NSaved=   1.
 NSaved= 1 IEnMin= 1 EnMin= -279.370200885651     IErMin= 1 ErrMin= 2.58D-02
 ErrMax= 2.58D-02  0.00D+00 EMaxC= 1.00D-01 BMatC= 4.40D-01 BMatP= 4.40D-01
 IDIUse=3 WtCom= 7.42D-01 WtEn= 2.58D-01
 Coeff-Com:  0.100D+01
 Coeff-En:   0.100D+01
 Coeff:      0.100D+01
 Gap=     0.513 Goal=   None    Shift=    0.000
 GapD=    0.513 DampG=2.000 DampE=0.500 DampFc=1.0000 IDamp=-1.
 RMSDP=1.63D-03 MaxDP=9.91D-02              OVMax= 1.14D-01

 Cycle   2  Pass 1  IDiag  1:
 E= -279.452302061732     Delta-E=       -0.082101176081 Rises=F Damp=F
 DIIS: error= 1.81D-02 at cycle   2 NSaved=   2.
 NSaved= 2 IEnMin= 2 EnMin= -279.452302061732     IErMin= 2 ErrMin= 1.81D-02
 ErrMax= 1.81D-02  0.00D+00 EMaxC= 1.00D-01 BMatC= 7.26D-02 BMatP= 4.40D-01
 IDIUse=3 WtCom= 8.19D-01 WtEn= 1.81D-01
 Coeff-Com:  0.196D+00 0.804D+00
 Coeff-En:   0.000D+00 0.100D+01
 Coeff:      0.161D+00 0.839D+00
 Gap=     0.530 Goal=   None    Shift=    0.000
 RMSDP=9.05D-04 MaxDP=3.73D-02 DE=-8.21D-02 OVMax= 6.92D-02

 Cycle   3  Pass 1  IDiag  1:
 E= -279.481805812894     Delta-E=       -0.029503751162 Rises=F Damp=F
 DIIS: error= 1.04D-02 at cycle   3 NSaved=   3.
 NSaved= 3 IEnMin= 3 EnMin= -279.481805812894     IErMin= 3 ErrMin= 1.04D-02
 ErrMax= 1.04D-02  0.00D+00 EMaxC= 1.00D-01 BMatC= 2.89D-02 BMatP= 7.26D-02
 IDIUse=3 WtCom= 8.96D-01 WtEn= 1.04D-01
 Coeff-Com: -0.329D-01 0.377D+00 0.655D+00
 Coeff-En:   0.000D+00 0.240D+00 0.760D+00
 Coeff:     -0.295D-01 0.363D+00 0.666D+00
 Gap=     0.511 Goal=   None    Shift=    0.000
 RMSDP=3.78D-04 MaxDP=1.54D-02 DE=-2.95D-02 OVMax= 3.83D-02

 Cycle   4  Pass 1  IDiag  1:
 E= -279.500991036215     Delta-E=       -0.019185223321 Rises=F Damp=F
 DIIS: error= 1.32D-03 at cycle   4 NSaved=   4.
 NSaved= 4 IEnMin= 4 EnMin= -279.500991036215     IErMin= 4 ErrMin= 1.32D-03
 ErrMax= 1.32D-03  0.00D+00 EMaxC= 1.00D-01 BMatC= 5.01D-04 BMatP= 2.89D-02
 IDIUse=3 WtCom= 9.87D-01 WtEn= 1.32D-02
 Coeff-Com: -0.118D-01 0.583D-01 0.161D+00 0.793D+00
 Coeff-En:   0.000D+00 0.000D+00 0.000D+00 0.100D+01
 Coeff:     -0.116D-01 0.575D-01 0.159D+00 0.796D+00
 Gap=     0.503 Goal=   None    Shift=    0.000
 RMSDP=9.03D-05 MaxDP=2.78D-03 DE=-1.92D-02 OVMax= 1.12D-02

 Cycle   5  Pass 1  IDiag  1:
 E= -279.501670940773     Delta-E=       -0.000679904558 Rises=F Damp=F
 DIIS: error= 7.34D-04 at cycle   5 NSaved=   5.
 NSaved= 5 IEnMin= 5 EnMin= -279.501670940773     IErMin= 5 ErrMin= 7.34D-04
 ErrMax= 7.34D-04  0.00D+00 EMaxC= 1.00D-01 BMatC= 8.70D-05 BMatP= 5.01D-04
 IDIUse=3 WtCom= 9.93D-01 WtEn= 7.34D-03
 Coeff-Com:  0.613D-02-0.721D-01-0.118D+00 0.151D-01 0.117D+01
 Coeff-En:   0.000D+00 0.000D+00 0.000D+00 0.000D+00 0.100D+01
 Coeff:      0.609D-02-0.716D-01-0.117D+00 0.150D-01 0.117D+01
 Gap=     0.502 Goal=   None    Shift=    0.000
 RMSDP=7.65D-05 MaxDP=2.11D-03 DE=-6.80D-04 OVMax= 1.11D-02

 Cycle   6  Pass 1  IDiag  1:
 E= -279.501987242670     Delta-E=       -0.000316301898 Rises=F Damp=F
 DIIS: error= 2.87D-04 at cycle   6 NSaved=   6.
 NSaved= 6 IEnMin= 6 EnMin= -279.501987242670     IErMin= 6 ErrMin= 2.87D-04
 ErrMax= 2.87D-04  0.00D+00 EMaxC= 1.00D-01 BMatC= 1.66D-05 BMatP= 8.70D-05
 IDIUse=3 WtCom= 9.97D-01 WtEn= 2.87D-03
 Coeff-Com:  0.571D-03 0.188D-02 0.498D-02-0.128D+00-0.239D+00 0.136D+01
 Coeff-En:   0.000D+00 0.000D+00 0.000D+00 0.000D+00 0.000D+00 0.100D+01
 Coeff:      0.570D-03 0.188D-02 0.497D-02-0.127D+00-0.238D+00 0.136D+01
 Gap=     0.503 Goal=   None    Shift=    0.000
 RMSDP=4.54D-05 MaxDP=1.25D-03 DE=-3.16D-04 OVMax= 5.55D-03

 Cycle   7  Pass 1  IDiag  1:
 E= -279.502060027464     Delta-E=       -0.000072784794 Rises=F Damp=F
 DIIS: error= 1.21D-04 at cycle   7 NSaved=   7.
 NSaved= 7 IEnMin= 7 EnMin= -279.502060027464     IErMin= 7 ErrMin= 1.21D-04
 ErrMax= 1.21D-04  0.00D+00 EMaxC= 1.00D-01 BMatC= 4.45D-06 BMatP= 1.66D-05
 IDIUse=3 WtCom= 9.99D-01 WtEn= 1.21D-03
 Coeff-Com: -0.942D-03 0.135D-01 0.265D-01-0.224D-01-0.288D+00 0.387D+00
 Coeff-Com:  0.884D+00
 Coeff-En:   0.000D+00 0.000D+00 0.000D+00 0.000D+00 0.000D+00 0.000D+00
 Coeff-En:   0.100D+01
 Coeff:     -0.941D-03 0.135D-01 0.265D-01-0.224D-01-0.288D+00 0.387D+00
 Coeff:      0.884D+00
 Gap=     0.503 Goal=   None    Shift=    0.000
 RMSDP=1.32D-05 MaxDP=3.79D-04 DE=-7.28D-05 OVMax= 1.54D-03

 Cycle   8  Pass 1  IDiag  1:
 E= -279.502068838038     Delta-E=       -0.000008810574 Rises=F Damp=F
 DIIS: error= 5.80D-05 at cycle   8 NSaved=   8.
 NSaved= 8 IEnMin= 8 EnMin= -279.502068838038     IErMin= 8 ErrMin= 5.80D-05
 ErrMax= 5.80D-05  0.00D+00 EMaxC= 1.00D-01 BMatC= 6.03D-07 BMatP= 4.45D-06
 IDIUse=1 WtCom= 1.00D+00 WtEn= 0.00D+00
 Coeff-Com: -0.446D-03 0.341D-02 0.756D-02 0.271D-01-0.401D-01-0.198D+00
 Coeff-Com:  0.176D+00 0.102D+01
 Coeff:     -0.446D-03 0.341D-02 0.756D-02 0.271D-01-0.401D-01-0.198D+00
 Coeff:      0.176D+00 0.102D+01
 Gap=     0.503 Goal=   None    Shift=    0.000
 RMSDP=6.86D-06 MaxDP=2.02D-04 DE=-8.81D-06 OVMax= 7.42D-04

 Cycle   9  Pass 1  IDiag  1:
 E= -279.502070594072     Delta-E=       -0.000001756034 Rises=F Damp=F
 DIIS: error= 1.59D-05 at cycle   9 NSaved=   9.
 NSaved= 9 IEnMin= 9 EnMin= -279.502070594072     IErMin= 9 ErrMin= 1.59D-05
 ErrMax= 1.59D-05  0.00D+00 EMaxC= 1.00D-01 BMatC= 6.94D-08 BMatP= 6.03D-07
 IDIUse=1 WtCom= 1.00D+00 WtEn= 0.00D+00
 Coeff-Com:  0.124D-03-0.172D-02-0.309D-02-0.217D-02 0.344D-01 0.106D-03
 Coeff-Com: -0.169D+00-0.101D+00 0.124D+01
 Coeff:      0.124D-03-0.172D-02-0.309D-02-0.217D-02 0.344D-01 0.106D-03
 Coeff:     -0.169D+00-0.101D+00 0.124D+01
 Gap=     0.503 Goal=   None    Shift=    0.000
 RMSDP=1.94D-06 MaxDP=6.65D-05 DE=-1.76D-06 OVMax= 1.75D-04

 Cycle  10  Pass 1  IDiag  1:
 E= -279.502070753845     Delta-E=       -0.000000159773 Rises=F Damp=F
 DIIS: error= 4.11D-06 at cycle  10 NSaved=  10.
 NSaved=10 IEnMin=10 EnMin= -279.502070753845     IErMin=10 ErrMin= 4.11D-06
 ErrMax= 4.11D-06  0.00D+00 EMaxC= 1.00D-01 BMatC= 5.50D-09 BMatP= 6.94D-08
 IDIUse=1 WtCom= 1.00D+00 WtEn= 0.00D+00
 Coeff-Com:  0.302D-04-0.233D-03-0.309D-03-0.265D-02 0.142D-02 0.196D-01
 Coeff-Com: -0.128D-01-0.729D-01-0.841D-01 0.115D+01
 Coeff:      0.302D-04-0.233D-03-0.309D-03-0.265D-02 0.142D-02 0.196D-01
 Coeff:     -0.128D-01-0.729D-01-0.841D-01 0.115D+01
 Gap=     0.503 Goal=   None    Shift=    0.000
 RMSDP=5.03D-07 MaxDP=2.10D-05 DE=-1.60D-07 OVMax= 4.17D-05

 Cycle  11  Pass 1  IDiag  1:
 E= -279.502070766297     Delta-E=       -0.000000012452 Rises=F Damp=F
 DIIS: error= 2.03D-06 at cycle  11 NSaved=  11.
 NSaved=11 IEnMin=11 EnMin= -279.502070766297     IErMin=11 ErrMin= 2.03D-06
 ErrMax= 2.03D-06  0.00D+00 EMaxC= 1.00D-01 BMatC= 6.56D-10 BMatP= 5.50D-09
 IDIUse=1 WtCom= 1.00D+00 WtEn= 0.00D+00
 Coeff-Com: -0.212D-04 0.243D-03 0.486D-03 0.534D-03-0.427D-02-0.354D-02
 Coeff-Com:  0.213D-01 0.305D-01-0.139D+00-0.177D+00 0.127D+01
 Coeff:     -0.212D-04 0.243D-03 0.486D-03 0.534D-03-0.427D-02-0.354D-02
 Coeff:      0.213D-01 0.305D-01-0.139D+00-0.177D+00 0.127D+01
 Gap=     0.503 Goal=   None    Shift=    0.000
 RMSDP=1.77D-07 MaxDP=6.50D-06 DE=-1.25D-08 OVMax= 1.73D-05

 Cycle  12  Pass 1  IDiag  1:
 E= -279.502070768093     Delta-E=       -0.000000001796 Rises=F Damp=F
 DIIS: error= 5.86D-07 at cycle  12 NSaved=  12.
 NSaved=12 IEnMin=12 EnMin= -279.502070768093     IErMin=12 ErrMin= 5.86D-07
 ErrMax= 5.86D-07  0.00D+00 EMaxC= 1.00D-01 BMatC= 7.16D-11 BMatP= 6.56D-10
 IDIUse=1 WtCom= 1.00D+00 WtEn= 0.00D+00
 Coeff-Com:  0.126D-05-0.292D-04-0.636D-04 0.177D-03 0.110D-02-0.232D-02
 Coeff-Com: -0.414D-02 0.553D-02 0.419D-01-0.115D+00-0.278D+00 0.135D+01
 Coeff:      0.126D-05-0.292D-04-0.636D-04 0.177D-03 0.110D-02-0.232D-02
 Coeff:     -0.414D-02 0.553D-02 0.419D-01-0.115D+00-0.278D+00 0.135D+01
 Gap=     0.503 Goal=   None    Shift=    0.000
 RMSDP=7.18D-08 MaxDP=2.83D-06 DE=-1.80D-09 OVMax= 6.67D-06

 Cycle  13  Pass 1  IDiag  1:
 E= -279.502070768322     Delta-E=       -0.000000000230 Rises=F Damp=F
 DIIS: error= 1.69D-07 at cycle  13 NSaved=  13.
 NSaved=13 IEnMin=13 EnMin= -279.502070768322     IErMin=13 ErrMin= 1.69D-07
 ErrMax= 1.69D-07  0.00D+00 EMaxC= 1.00D-01 BMatC= 4.01D-12 BMatP= 7.16D-11
 IDIUse=1 WtCom= 1.00D+00 WtEn= 0.00D+00
 Coeff-Com:  0.127D-05-0.138D-04-0.224D-04-0.884D-04 0.118D-03 0.762D-03
 Coeff-Com: -0.859D-03-0.324D-02 0.538D-03 0.414D-01-0.365D-01-0.325D+00
 Coeff-Com:  0.132D+01
 Coeff:      0.127D-05-0.138D-04-0.224D-04-0.884D-04 0.118D-03 0.762D-03
 Coeff:     -0.859D-03-0.324D-02 0.538D-03 0.414D-01-0.365D-01-0.325D+00
 Coeff:      0.132D+01
 Gap=     0.503 Goal=   None    Shift=    0.000
 RMSDP=1.92D-08 MaxDP=5.59D-07 DE=-2.30D-10 OVMax= 1.56D-06

 Cycle  14  Pass 1  IDiag  1:
 E= -279.502070768335     Delta-E=       -0.000000000013 Rises=F Damp=F
 DIIS: error= 2.44D-08 at cycle  14 NSaved=  14.
 NSaved=14 IEnMin=14 EnMin= -279.502070768335     IErMin=14 ErrMin= 2.44D-08
 ErrMax= 2.44D-08  0.00D+00 EMaxC= 1.00D-01 BMatC= 1.95D-13 BMatP= 4.01D-12
 IDIUse=1 WtCom= 1.00D+00 WtEn= 0.00D+00
 Coeff-Com: -0.189D-06 0.310D-05 0.556D-05 0.464D-05-0.824D-04 0.458D-04
 Coeff-Com:  0.283D-03 0.220D-03-0.244D-02 0.148D-02 0.170D-01-0.255D-01
 Coeff-Com: -0.200D+00 0.121D+01
 Coeff:     -0.189D-06 0.310D-05 0.556D-05 0.464D-05-0.824D-04 0.458D-04
 Coeff:      0.283D-03 0.220D-03-0.244D-02 0.148D-02 0.170D-01-0.255D-01
 Coeff:     -0.200D+00 0.121D+01
 Gap=     0.503 Goal=   None    Shift=    0.000
 RMSDP=3.79D-09 MaxDP=9.14D-08 DE=-1.27D-11 OVMax= 3.41D-07

 SCF Done:  E(RHF) =  -279.502070768     A.U. after   14 cycles
            NFock= 14  Conv=0.38D-08     -V/T= 2.0023
 KE= 2.788643998206D+02 PE=-8.951910505797D+02 EE= 2.198939619509D+02
 Leave Link  502 at Mon Feb 21 20:02:14 2022, MaxMem= 16106127360 cpu:              58.7 elap:               3.8
 (Enter /sw/contrib/gaussian/g16/B01/g16/l801.exe)
 ExpMin= 2.53D-02 ExpMax= 1.53D+04 ExpMxC= 5.22D+02 IAcc=3 IRadAn=         5 AccDes= 0.00D+00
 HarFok:  IExCor=  205 AccDes= 0.00D+00 IRadAn=         5 IDoV=-2 UseB2=F ITyADJ=14
 ICtDFT= 12500011 ScaDFX=  1.000000  1.000000  1.000000  1.000000
 Largest valence mixing into a core orbital is  2.08D-04
 Largest core mixing into a valence orbital is  3.63D-05
 Range of M.O.s used for correlation:     5   207
 NBasis=   207 NAE=    16 NBE=    16 NFC=     4 NFV=     0
 NROrb=    203 NOA=    12 NOB=    12 NVA=   191 NVB=   191

 **** Warning!!: The largest alpha MO coefficient is  0.17856525D+02

 Leave Link  801 at Mon Feb 21 20:02:15 2022, MaxMem= 16106127360 cpu:               3.3 elap:               0.2
 (Enter /sw/contrib/gaussian/g16/B01/g16/l906.exe)
 Frozen-core derivative calculation, NFC=   4 NFV=   0.
 FulOut=F Deriv=T AODrv=T NAtomX=     5
   MMem=           0  MDisk=          12 MDiskD=          12
  W3Min=      811440 MinDsk=     2425030 NBas6D=         245
 NBas2D=       30762    NTT=       30135    LW2=     7400000
    MDV= 16105574283 MDiskM=      328644 NBas2p=       30702
 Disk-based method using ON**2 memory for 12 occupieds at a time.
 Permanent disk used for amplitudes=    11516536 words.
 Estimated scratch disk usage=   321251614 words.
 IMap=   1   2   3   4   5   6   7   8   9  10  11  12  13  14  15  16
 Actual    scratch disk usage=   310331678 words.
 JobTyp=1 Pass  1:  I=   5 to  16 NPSUse= 28 ParTrn=T ParDer=T DoDerP=T.
 (rs|ai) integrals will be sorted in core.
 Spin components of T(2) and E(2):
     alpha-alpha T2 =       0.3397689933D-01 E2=     -0.1223422843D+00
     alpha-beta  T2 =       0.1865601503D+00 E2=     -0.6998862231D+00
     beta-beta   T2 =       0.3397689933D-01 E2=     -0.1223422843D+00
 The integrals were generated   1 times.
 ANorm=    0.1120050869D+01
 E2 =    -0.9445707917D+00 EUMP2 =    -0.28044664156002D+03
 Leave Link  906 at Mon Feb 21 20:03:52 2022, MaxMem= 16106127360 cpu:            2711.9 elap:              97.0
 (Enter /sw/contrib/gaussian/g16/B01/g16/l1101.exe)
 Using compressed Sx but separate Hx and Fx, NAtomX=     5.
 Will process      6 centers per pass.
 Leave Link 1101 at Mon Feb 21 20:03:52 2022, MaxMem= 16106127360 cpu:               5.1 elap:               0.2
 (Enter /sw/contrib/gaussian/g16/B01/g16/l1102.exe)
 Leave Link 1102 at Mon Feb 21 20:03:52 2022, MaxMem= 16106127360 cpu:               0.5 elap:               0.0
 (Enter /sw/contrib/gaussian/g16/B01/g16/l1110.exe)
 Forming Gx(P) for the SCF density, NAtomX=     5.
 Integral derivatives from FoFJK, PRISM(SPDF).
 Do as many integral derivatives as possible in FoFJK.
 G2DrvN: MDV=   16106126844.
 G2DrvN: will do     6 centers at a time, making    1 passes.
 Calling FoFCou, ICntrl=  3107 FMM=F I1Cent=   0 AccDes= 0.00D+00.
 FoFJK:  IHMeth= 1 ICntrl=    3107 DoSepK=F KAlg= 0 I1Cent=           0 FoldK=F
 IRaf=         0 NMat=       1 IRICut=       1 DoRegI=T DoRafI=F ISym2E= 1 IDoP0=0 IntGTp=1.
 FoFCou: FMM=F IPFlag=           0 FMFlag=      100000 FMFlg1=           0
         NFxFlg=           0 DoJE=F BraDBF=F KetDBF=F FulRan=T
         wScrn=  0.000000 ICntrl=      3107 IOpCl=  0 I1Cent=           0 NGrid=           0
         NMat0=    1 NMatS0=      1 NMatT0=    0 NMatD0=    1 NMtDS0=    0 NMtDT0=    0
 Petite list used in FoFCou.
 End of G2Drv F.D. properties file   721 does not exist.
 End of G2Drv F.D. properties file   722 does not exist.
 End of G2Drv F.D. properties file   788 does not exist.
 Leave Link 1110 at Mon Feb 21 20:03:55 2022, MaxMem= 16106127360 cpu:              83.4 elap:               3.0
 (Enter /sw/contrib/gaussian/g16/B01/g16/l1002.exe)
 Minotr:  Closed shell wavefunction.
          IDoAtm=11111
          Frozen-core window.
          Direct CPHF calculation.
          Differentiating once with respect to electric field.
                with respect to dipole field.
          Differentiating once with respect to nuclear coordinates.
          Requested convergence is 1.0D-08 RMS, and 1.0D-07 maximum.
          Secondary convergence is 1.0D-12 RMS, and 1.0D-12 maximum.
          NewPWx=T KeepS1=T KeepF1=T KeepIn=T MapXYZ=F SortEE=F KeepMc=T.
 Keep R1 ints in memory in symmetry-blocked form, NReq=348888983.
 FoFCou: FMM=F IPFlag=           0 FMFlag=           0 FMFlg1=           0
         NFxFlg=           0 DoJE=F BraDBF=F KetDBF=F FulRan=T
         wScrn=  0.000000 ICntrl=       600 IOpCl=  0 I1Cent=           0 NGrid=           0
         NMat0=    1 NMatS0=  21528 NMatT0=    0 NMatD0=    1 NMtDS0=    0 NMtDT0=    0
 Petite list used in FoFCou.
          MDV=   16106127360 using IRadAn=       1.
          Solving linear equations simultaneously, MaxMat=       0.
          There are    18 degrees of freedom in the 1st order CPHF.  IDoFFX=6 NUNeed=    18.
     15 vectors produced by pass  0 Test12= 1.70D-14 5.56D-09 XBig12= 8.28D+00 1.06D+00.
 AX will form    15 AO Fock derivatives at one time.
     15 vectors produced by pass  1 Test12= 1.70D-14 5.56D-09 XBig12= 1.34D+00 2.64D-01.
     15 vectors produced by pass  2 Test12= 1.70D-14 5.56D-09 XBig12= 1.42D-01 9.81D-02.
     15 vectors produced by pass  3 Test12= 1.70D-14 5.56D-09 XBig12= 5.00D-03 1.12D-02.
     15 vectors produced by pass  4 Test12= 1.70D-14 5.56D-09 XBig12= 1.01D-04 1.95D-03.
     15 vectors produced by pass  5 Test12= 1.70D-14 5.56D-09 XBig12= 1.42D-06 1.80D-04.
     15 vectors produced by pass  6 Test12= 1.70D-14 5.56D-09 XBig12= 1.12D-08 1.43D-05.
     13 vectors produced by pass  7 Test12= 1.70D-14 5.56D-09 XBig12= 8.28D-11 1.29D-06.
      3 vectors produced by pass  8 Test12= 1.70D-14 5.56D-09 XBig12= 5.73D-13 1.23D-07.
      2 vectors produced by pass  9 Test12= 1.70D-14 5.56D-09 XBig12= 3.71D-15 9.87D-09.
 InvSVY:  IOpt=1 It=  1 EMax= 1.11D-15
 Solved reduced A of dimension   123 with    15 vectors.
 FullF1:  Do perturbations      1 to      18.
 Saving first derivative matrices.
 End of Minotr F.D. properties file   721 does not exist.
 End of Minotr F.D. properties file   722 does not exist.
 End of Minotr F.D. properties file   788 does not exist.
 Leave Link 1002 at Mon Feb 21 20:03:58 2022, MaxMem= 16106127360 cpu:              84.4 elap:               3.1
 (Enter /sw/contrib/gaussian/g16/B01/g16/l811.exe)
 MDV= 16106127360.
 Form MO integral derivatives with frozen-active canonical formalism.
 MOERI=1 MOERIx=1 NAtoms=     5 NAtomX=     5.
 Discarding MO integrals.
 MO basis two electron integral derivatives will not be stored on disk.
 IAlg= 3 DoFC=T DoPWx=T Debug=F.
 Frozen-core window:  NFC=   4 NFV=   0.
 Reordered first order wavefunction length =     18678272
 In DefCFB: NBatch=  1 ICI= 16 ICA=191 LFMax= 96
            Large arrays: LIAPS=   619940160 LIARS=   288257200 words.
 In StABat: MaxSiz= 55 MinSiz= 25 NAtomB=  5
 DoIAMN: NPSUse= 28.
 Leave Link  811 at Mon Feb 21 20:05:18 2022, MaxMem= 16106127360 cpu:            2242.2 elap:              80.2
 (Enter /sw/contrib/gaussian/g16/B01/g16/l804.exe)
 Frozen-core window:  NFC=   4 NFV=   0.
 Closed-shell transformation, MDV= 16106127360 ITran=4 ISComp=1.
 Semi-Direct transformation.
 ModeAB=           2 MOrb=            16 LenV=   16104923037
 LASXX=     67341636 LTotXX=    67341636 LenRXX=    67341636
 LTotAB=    68301760 MaxLAS=    99807120 LenRXY=    99807120
 NonZer=   134683272 LenScr=   202817536 LnRSAI=           0
 LnScr1=           0 LExtra=           0 Total=    369966292
 MaxDsk=          -1 SrtSym=           F ITran=            4
 DoSDTr:  NPSUse= 28
 JobTyp=0 Pass  1:  I=   1 to  16.
 (rs|ai) integrals will be sorted in core.
 Complete sort for first half transformation.
 First half transformation complete.
 Begin second half transformation for I=  10.
 Begin second half transformation for I=  10.
 Complete sort for second half transformation.
 Second half transformation complete.
 Spin components of T(2) and E(2):
     alpha-alpha T2 =       0.3397689933D-01 E2=     -0.1223422843D+00
     alpha-beta  T2 =       0.1865601503D+00 E2=     -0.6998862231D+00
     beta-beta   T2 =       0.3397689933D-01 E2=     -0.1223422843D+00
 ANorm=    0.1583991129D+01
 E2 =    -0.9445707917D+00 EUMP2 =    -0.28044664156002D+03
 Leave Link  804 at Mon Feb 21 20:05:34 2022, MaxMem= 16106127360 cpu:             435.6 elap:              15.6
 (Enter /sw/contrib/gaussian/g16/B01/g16/l1002.exe)
 Minotr:  Closed shell wavefunction.
          Computing MP2/KS-MP2 derivatives.
          Using Z-Vector for PSCF gradient.
          Skipping F1 and S1 gradient terms here.
          IDoAtm=11111
          Frozen-core window.
          Using MO integrals in the linear equations.
          Forming densities via direct SCF.
          Differentiating once with respect to electric field.
                with respect to dipole field.
          Differentiating once with respect to nuclear coordinates.
          Using symmetry in CPHF.
          Requested convergence is 1.0D-10 RMS, and 1.0D-09 maximum.
          NewPWx=F KeepS1=T KeepF1=T KeepIn=T MapXYZ=F SortEE=F KeepMc=T.
          MDV=   16106127360 using IRadAn=       5.
          Solving linear equations separately, MaxMat=       0.
          There are     1 degrees of freedom in the 1st order CPHF.  IDoFFX=0 NUNeed=     1.
 FoFJK:  IHMeth= 1 ICntrl=       0 DoSepK=F KAlg= 0 I1Cent=           0 FoldK=F
 IRaf=         0 NMat=       1 IRICut=       1 DoRegI=T DoRafI=F ISym2E= 0 IDoP0=0 IntGTp=1.
 FoFCou: FMM=F IPFlag=           0 FMFlag=      100000 FMFlg1=           0
         NFxFlg=           0 DoJE=F BraDBF=F KetDBF=F FulRan=T
         wScrn=  0.000000 ICntrl=         0 IOpCl=  0 I1Cent=           0 NGrid=           0
         NMat0=    1 NMatS0=      1 NMatT0=    0 NMatD0=    1 NMtDS0=    0 NMtDT0=    0
 Symmetry not used in FoFCou.
 LinEq1:  Iter=  0 NonCon=     1 RMS=5.95D-03 Max=1.32D-01 NDo=     1
 LinEq1:  Iter=  1 NonCon=     1 RMS=1.90D-03 Max=3.83D-02 NDo=     1
 LinEq1:  Iter=  2 NonCon=     1 RMS=8.67D-04 Max=1.42D-02 NDo=     1
 LinEq1:  Iter=  3 NonCon=     1 RMS=3.87D-04 Max=7.82D-03 NDo=     1
 LinEq1:  Iter=  4 NonCon=     1 RMS=1.19D-04 Max=1.90D-03 NDo=     1
 LinEq1:  Iter=  5 NonCon=     1 RMS=4.57D-05 Max=7.27D-04 NDo=     1
 LinEq1:  Iter=  6 NonCon=     1 RMS=2.04D-05 Max=2.32D-04 NDo=     1
 LinEq1:  Iter=  7 NonCon=     1 RMS=8.16D-06 Max=1.60D-04 NDo=     1
 LinEq1:  Iter=  8 NonCon=     1 RMS=3.46D-06 Max=3.42D-05 NDo=     1
 LinEq1:  Iter=  9 NonCon=     1 RMS=9.38D-07 Max=1.30D-05 NDo=     1
 LinEq1:  Iter= 10 NonCon=     1 RMS=1.84D-07 Max=2.01D-06 NDo=     1
 LinEq1:  Iter= 11 NonCon=     1 RMS=3.42D-08 Max=3.55D-07 NDo=     1
 LinEq1:  Iter= 12 NonCon=     1 RMS=8.25D-09 Max=1.28D-07 NDo=     1
 LinEq1:  Iter= 13 NonCon=     1 RMS=1.49D-09 Max=2.56D-08 NDo=     1
 LinEq1:  Iter= 14 NonCon=     1 RMS=2.71D-10 Max=3.80D-09 NDo=     1
 LinEq1:  Iter= 15 NonCon=     0 RMS=4.87D-11 Max=5.49D-10 NDo=     1
 Linear equations converged to 1.000D-10 1.000D-09 after    15 iterations.
 End of Minotr F.D. properties file   721 does not exist.
 End of Minotr F.D. properties file   722 does not exist.
 End of Minotr F.D. properties file   788 does not exist.
 Leave Link 1002 at Mon Feb 21 20:05:36 2022, MaxMem= 16106127360 cpu:              63.7 elap:               2.3
 (Enter /sw/contrib/gaussian/g16/B01/g16/l1102.exe)
 Use density number 2.
 Symmetrizing basis deriv contribution to polar:
 IMax=3 JMax=2 DiffMx= 0.00D+00
 Leave Link 1102 at Mon Feb 21 20:05:37 2022, MaxMem= 16106127360 cpu:               0.6 elap:               0.0
 (Enter /sw/contrib/gaussian/g16/B01/g16/l1110.exe)
 Forming Gx(P) for generalized density number  2 NAtomX=     5.
 Integral derivatives from FoFJK, PRISM(SPDF).
 Do as many integral derivatives as possible in FoFJK.
 G2DrvN: MDV=   16106126844.
 G2DrvN: will do     6 centers at a time, making    1 passes.
 Calling FoFCou, ICntrl=  3107 FMM=F I1Cent=   0 AccDes= 0.00D+00.
 FoFJK:  IHMeth= 1 ICntrl=    3107 DoSepK=F KAlg= 0 I1Cent=           0 FoldK=F
 IRaf=         0 NMat=       1 IRICut=       1 DoRegI=T DoRafI=F ISym2E= 1 IDoP0=0 IntGTp=1.
 FoFCou: FMM=F IPFlag=           0 FMFlag=      100000 FMFlg1=           0
         NFxFlg=           0 DoJE=F BraDBF=F KetDBF=F FulRan=T
         wScrn=  0.000000 ICntrl=      3107 IOpCl=  0 I1Cent=           0 NGrid=           0
         NMat0=    1 NMatS0=      1 NMatT0=    0 NMatD0=    1 NMtDS0=    0 NMtDT0=    0
 Petite list used in FoFCou.
 End of G2Drv F.D. properties file   721 does not exist.
 End of G2Drv F.D. properties file   722 does not exist.
 End of G2Drv F.D. properties file   788 does not exist.
 Leave Link 1110 at Mon Feb 21 20:05:40 2022, MaxMem= 16106127360 cpu:              83.4 elap:               3.0
 (Enter /sw/contrib/gaussian/g16/B01/g16/l1112.exe)
 MP22nd: MDV=   16106127360
 This link is doing NAtomX=     5 total of    18 degrees of freedom.
 Using ON3 I/O method in MakUI.
 Frozen-core window:  NFC=   4 NFV=   0.
 Using Ix for Sx.
 Use MO integrals over full window.
 Using OV2 memory method for fx*t*t/D, MaxI=    16 DoOO2=F NP=  28.
 R2 and R3 integrals will be kept in memory, NReq=   915591705.
 FoFCou: FMM=F IPFlag=           0 FMFlag=           0 FMFlg1=           0
         NFxFlg=           0 DoJE=F BraDBF=F KetDBF=F FulRan=T
         wScrn=  0.000000 ICntrl=       600 IOpCl=  0 I1Cent=           0 NGrid=           0
         NMat0=    1 NMatS0=      1 NMatT0=    0 NMatD0=    1 NMtDS0=    0 NMtDT0=    0
 Symmetry not used in FoFCou.
 DD1Dir will call FoFMem   1 times, MxPair=       272
 NAB=   136 NAA=     0 NBB=     0.
 Symmetry is being used.
 FoFJK:  IHMeth= 1 ICntrl=       0 DoSepK=F KAlg= 0 I1Cent=           0 FoldK=F
 IRaf=         0 NMat=      18 IRICut=      45 DoRegI=T DoRafI=T ISym2E= 2 IDoP0=3 IntGTp=3.
 Discarding MO integrals.
 Leave Link 1112 at Mon Feb 21 20:06:13 2022, MaxMem= 16106127360 cpu:             918.2 elap:              33.1
 (Enter /sw/contrib/gaussian/g16/B01/g16/l601.exe)
 Copying SCF densities to generalized density rwf, IOpCl= 0 IROHF=0.

 **********************************************************************

            Population analysis using the MP2 Density.

 **********************************************************************

 Orbital symmetries:
       Occupied  (A') (A') (A') (A') (A') (A') (A') (A') (A') (A')
                 (A") (A') (A") (A') (A") (A')
       Virtual   (A') (A") (A') (A') (A") (A') (A') (A') (A") (A')
                 (A") (A') (A') (A') (A") (A') (A') (A") (A') (A')
                 (A') (A') (A') (A') (A") (A') (A') (A") (A') (A')
                 (A") (A') (A") (A') (A') (A") (A') (A') (A") (A')
                 (A") (A') (A") (A') (A') (A") (A') (A') (A") (A')
                 (A") (A') (A') (A') (A") (A') (A") (A') (A") (A')
                 (A') (A') (A") (A') (A') (A") (A') (A") (A') (A')
                 (A") (A') (A') (A") (A") (A') (A') (A") (A') (A')
                 (A') (A") (A') (A") (A') (A") (A') (A") (A') (A')
                 (A") (A') (A') (A") (A') (A") (A') (A") (A') (A')
                 (A") (A') (A") (A') (A') (A") (A') (A') (A") (A')
                 (A") (A') (A') (A') (A") (A') (A') (A') (A") (A')
                 (A") (A') (A") (A') (A') (A") (A") (A') (A") (A')
                 (A') (A') (A') (A") (A") (A") (A') (A') (A') (A')
                 (A") (A') (A") (A') (A') (A") (A') (A') (A') (A')
                 (A") (A') (A') (A") (A') (A") (A') (A") (A') (A")
                 (A') (A") (A') (A") (A') (A") (A") (A') (A") (A')
                 (A") (A') (A") (A') (A") (A') (A") (A") (A') (A')
                 (A') (A') (A') (A') (A') (A') (A') (A') (A') (A')
                 (A')
 The electronic state is 1-A'.
 Alpha  occ. eigenvalues --  -20.69115 -20.68449 -20.65919 -15.81304  -1.62427
 Alpha  occ. eigenvalues --   -1.49700  -1.25638  -0.94830  -0.77364  -0.75998
 Alpha  occ. eigenvalues --   -0.71203  -0.68089  -0.62076  -0.58991  -0.48557
 Alpha  occ. eigenvalues --   -0.47277
 Alpha virt. eigenvalues --    0.02981   0.07152   0.08590   0.10169   0.13388
 Alpha virt. eigenvalues --    0.13393   0.14448   0.15491   0.17811   0.19415
 Alpha virt. eigenvalues --    0.19977   0.20637   0.22078   0.23514   0.23729
 Alpha virt. eigenvalues --    0.26629   0.29361   0.30434   0.31084   0.34335
 Alpha virt. eigenvalues --    0.34919   0.38735   0.42315   0.43306   0.52726
 Alpha virt. eigenvalues --    0.52911   0.55847   0.58149   0.62583   0.63827
 Alpha virt. eigenvalues --    0.67433   0.68538   0.70635   0.71152   0.72494
 Alpha virt. eigenvalues --    0.72945   0.74487   0.79128   0.79218   0.81047
 Alpha virt. eigenvalues --    0.81260   0.83073   0.86809   0.90809   0.92244
 Alpha virt. eigenvalues --    0.92647   0.95742   0.97633   0.98598   1.01853
 Alpha virt. eigenvalues --    1.05153   1.05486   1.08327   1.11921   1.14238
 Alpha virt. eigenvalues --    1.18915   1.22139   1.23460   1.33855   1.34993
 Alpha virt. eigenvalues --    1.38608   1.45628   1.49056   1.51067   1.53775
 Alpha virt. eigenvalues --    1.56697   1.57911   1.61443   1.66328   1.66913
 Alpha virt. eigenvalues --    1.70337   1.79344   1.83161   1.83448   1.87797
 Alpha virt. eigenvalues --    1.91114   1.96140   1.99252   2.00769   2.07780
 Alpha virt. eigenvalues --    2.12215   2.13189   2.14983   2.22498   2.26351
 Alpha virt. eigenvalues --    2.26531   2.28960   2.31536   2.34460   2.38811
 Alpha virt. eigenvalues --    2.42451   2.42967   2.45410   2.46300   2.47721
 Alpha virt. eigenvalues --    2.50200   2.58574   2.59699   2.62050   2.62594
 Alpha virt. eigenvalues --    2.63427   2.66606   2.75751   2.82163   2.85607
 Alpha virt. eigenvalues --    2.88474   2.89367   2.92509   2.95780   3.02680
 Alpha virt. eigenvalues --    3.06880   3.12029   3.20439   3.22745   3.31806
 Alpha virt. eigenvalues --    3.34266   3.51664   3.64731   3.83856   3.85548
 Alpha virt. eigenvalues --    4.15769   4.16648   4.18608   4.25860   4.36030
 Alpha virt. eigenvalues --    4.39537   4.46659   4.52289   4.66285   4.71448
 Alpha virt. eigenvalues --    4.80624   4.82435   4.84584   4.89594   5.02321
 Alpha virt. eigenvalues --    5.07754   5.11220   5.15062   5.18462   5.25718
 Alpha virt. eigenvalues --    5.27509   5.31047   5.35404   5.35781   5.61171
 Alpha virt. eigenvalues --    5.67362   5.77225   5.83448   5.95851   6.16645
 Alpha virt. eigenvalues --    6.30897   6.33675   6.39693   6.49360   6.50541
 Alpha virt. eigenvalues --    6.61535   6.66704   6.69970   6.75724   6.76315
 Alpha virt. eigenvalues --    6.83293   6.89823   7.01939   7.05745   7.05829
 Alpha virt. eigenvalues --    7.09115   7.12642   7.15189   7.18173   7.22758
 Alpha virt. eigenvalues --    7.25940   7.31723   7.32555   7.35065   7.39895
 Alpha virt. eigenvalues --    7.43327   7.48446   7.60869   7.62002   7.62889
 Alpha virt. eigenvalues --    7.66903   7.80096   7.88717   8.09718   8.31758
 Alpha virt. eigenvalues --    8.42199   8.54785  13.39377  14.40313  15.31004
 Alpha virt. eigenvalues --   16.15238
          Condensed to atoms (all electrons):
               1          2          3          4          5
     1  H    0.600583   0.124489   0.021203   0.012668  -0.000682
     2  O    0.124489   8.319022  -0.174828  -0.091214   0.015616
     3  O    0.021203  -0.174828   8.470325  -0.130205  -0.038690
     4  N    0.012668  -0.091214  -0.130205   6.972078  -0.055745
     5  O   -0.000682   0.015616  -0.038690  -0.055745   8.272768
 Mulliken charges:
               1
     1  H    0.241739
     2  O   -0.193085
     3  O   -0.147806
     4  N    0.292418
     5  O   -0.193266
 Sum of Mulliken charges =  -0.00000
 Mulliken charges with hydrogens summed into heavy atoms:
               1
     2  O    0.048654
     3  O   -0.147806
     4  N    0.292418
     5  O   -0.193266
 APT charges:
               1
     1  H    0.299673
     2  O   -0.289815
     3  O   -0.495055
     4  N    0.876749
     5  O   -0.391553
 Sum of APT charges =  -0.00000
 APT charges with hydrogens summed into heavy atoms:
               1
     2  O    0.009858
     3  O   -0.495055
     4  N    0.876749
     5  O   -0.391553
 Electronic spatial extent (au):  <R**2>=            252.7811
 Charge=             -0.0000 electrons
 Dipole moment (field-independent basis, Debye):
    X=              0.5029    Y=              1.3480    Z=              0.0000  Tot=              1.4388
 Quadrupole moment (field-independent basis, Debye-Ang):
   XX=            -22.4646   YY=            -18.6544   ZZ=            -21.9977
   XY=              3.2362   XZ=             -0.0000   YZ=             -0.0000
 Traceless Quadrupole moment (field-independent basis, Debye-Ang):
   XX=             -1.4257   YY=              2.3845   ZZ=             -0.9588
   XY=              3.2362   XZ=             -0.0000   YZ=             -0.0000
 Octapole moment (field-independent basis, Debye-Ang**2):
  XXX=              2.8801  YYY=             11.1817  ZZZ=             -0.0000  XYY=              7.8396
  XXY=              6.5543  XXZ=              0.0000  XZZ=             -1.5614  YZZ=             -0.8408
  YYZ=              0.0000  XYZ=              0.0000
 Hexadecapole moment (field-independent basis, Debye-Ang**3):
 XXXX=           -158.3226 YYYY=            -89.8725 ZZZZ=            -18.2202 XXXY=            -36.6542
 XXXZ=             -0.0000 YYYX=            -30.8839 YYYZ=             -0.0000 ZZZX=             -0.0000
 ZZZY=             -0.0000 XXYY=            -34.0297 XXZZ=            -30.8339 YYZZ=            -20.6262
 XXYZ=             -0.0000 YYXZ=             -0.0000 ZZXY=            -15.0261
 N-N= 1.169306180398D+02 E-N=-8.959743290009D+02  KE= 2.802149058882D+02
 Symmetry A'   KE= 2.662427473739D+02
 Symmetry A"   KE= 1.397215851430D+01
  Exact polarizability:  33.955   9.425  30.115   0.000   0.000  17.903
 Approx polarizability:  28.980   5.092  23.418   0.000   0.000  15.506
 No NMR shielding tensors so no spin-rotation constants.
 Leave Link  601 at Mon Feb 21 20:06:13 2022, MaxMem= 16106127360 cpu:               4.4 elap:               0.2
 (Enter /sw/contrib/gaussian/g16/B01/g16/l701.exe)
 ... and contract with generalized density number  2.
 Compute integral second derivatives.
 Leave Link  701 at Mon Feb 21 20:06:13 2022, MaxMem= 16106127360 cpu:               5.8 elap:               0.2
 (Enter /sw/contrib/gaussian/g16/B01/g16/l702.exe)
 L702 exits ... SP integral derivatives will be done elsewhere.
 Leave Link  702 at Mon Feb 21 20:06:13 2022, MaxMem= 16106127360 cpu:               1.5 elap:               0.1
 (Enter /sw/contrib/gaussian/g16/B01/g16/l703.exe)
 Integral derivatives from FoFJK, PRISM(SPDF).
 Compute integral second derivatives, UseDBF=F ICtDFT=           0.
 Calling FoFJK, ICntrl=  10100127 FMM=F ISym2X=1 I1Cent= 0 IOpClX= 0 NMat=1 NMatS=1 NMatT=0.
 FoFJK:  IHMeth= 1 ICntrl=10100127 DoSepK=F KAlg= 0 I1Cent=           0 FoldK=F
 IRaf=         0 NMat=       1 IRICut=       1 DoRegI=T DoRafI=F ISym2E= 1 IDoP0=0 IntGTp=1.
 FoFCou: FMM=F IPFlag=           0 FMFlag=      100000 FMFlg1=         800
         NFxFlg=           0 DoJE=F BraDBF=F KetDBF=F FulRan=T
         wScrn=  0.000000 ICntrl=  10100127 IOpCl=  0 I1Cent=           0 NGrid=           0
         NMat0=    1 NMatS0=      1 NMatT0=    0 NMatD0=    1 NMtDS0=    0 NMtDT0=    0
 Petite list used in FoFCou.
 Leave Link  703 at Mon Feb 21 20:06:28 2022, MaxMem= 16106127360 cpu:             422.7 elap:              15.1
 (Enter /sw/contrib/gaussian/g16/B01/g16/l716.exe)
 Dipole        = 1.97872840D-01 5.30343316D-01 1.52098068D-32
 Polarizability= 3.39551721D+01 9.42523670D+00 3.01147053D+01
                 6.65890359D-31 6.76039707D-31 1.79030515D+01
 Full mass-weighted force constant matrix:
 Low frequencies --- -473.4404  -52.7975  -36.9523   -0.0012   -0.0010   -0.0009
 Low frequencies ---    8.1827  228.4039  331.1902
 ******    1 imaginary frequencies (negative Signs) ****** 
 Diagonal vibrational polarizability:
       13.9997460      25.3179067      15.6644521
 Harmonic frequencies (cm**-1), IR intensities (KM/Mole), Raman scattering
 activities (A**4/AMU), depolarization ratios for plane and unpolarized
 incident light, reduced masses (AMU), force constants (mDyne/A),
 and normal coordinates:
                      1                      2                      3
                     A"                     A"                     A'
 Frequencies --   -467.2260               228.2803               331.0760
 Red. masses --      1.1223                12.0516                 8.1615
 Frc consts  --      0.1444                 0.3700                 0.5271
 IR Inten    --    126.4578                 0.1457                 5.4138
  Atom  AN      X      Y      Z        X      Y      Z        X      Y      Z
     1   1     0.00  -0.00   1.00     0.00  -0.00  -0.47     0.57  -0.43   0.00
     2   8    -0.00  -0.00  -0.06    -0.00  -0.00  -0.34    -0.09  -0.36   0.00
     3   8     0.00   0.00  -0.04    -0.00   0.00   0.34    -0.14   0.42  -0.00
     4   7    -0.00   0.00   0.05    -0.00   0.00   0.57     0.04   0.24  -0.00
     5   8     0.00  -0.00  -0.00     0.00  -0.00  -0.47     0.16  -0.24   0.00
                      4                      5                      6
                     A'                     A'                     A'
 Frequencies --    451.8228               781.4337               966.5747
 Red. masses --     12.3042                12.4122                15.5933
 Frc consts  --      1.4799                 4.4656                 8.5834
 IR Inten    --    199.0665               163.1056                25.0362
  Atom  AN      X      Y      Z        X      Y      Z        X      Y      Z
     1   1     0.41   0.20   0.00    -0.39   0.18  -0.00    -0.12  -0.04   0.00
     2   8     0.32   0.21   0.00     0.42   0.07  -0.00    -0.52   0.04   0.00
     3   8     0.18   0.43  -0.00    -0.07  -0.25   0.00     0.75  -0.03  -0.00
     4   7    -0.35  -0.41  -0.00    -0.14   0.61   0.00    -0.12   0.25  -0.00
     5   8    -0.22  -0.30   0.00    -0.21  -0.37  -0.00    -0.12  -0.23   0.00
                      7                      8                      9
                     A'                     A'                     A'
 Frequencies --   1337.4612              1677.1280              3909.8460
 Red. masses --      1.1429                13.4234                 1.0675
 Frc consts  --      1.2046                22.2457                 9.6149
 IR Inten    --    154.7464               142.3343                83.7606
  Atom  AN      X      Y      Z        X      Y      Z        X      Y      Z
     1   1     0.99  -0.05   0.00    -0.32   0.00  -0.00     0.10   0.99  -0.00
     2   8    -0.03   0.06   0.00    -0.01  -0.04  -0.00    -0.01  -0.06   0.00
     3   8    -0.02  -0.06  -0.00     0.00   0.15   0.00     0.00   0.00   0.00
     4   7     0.02   0.01  -0.00     0.71  -0.05   0.00    -0.00  -0.00  -0.00
     5   8    -0.03  -0.01   0.00    -0.60  -0.07  -0.00     0.00   0.00  -0.00

 -------------------
 - Thermochemistry -
 -------------------
 Temperature   298.150 Kelvin.  Pressure   1.00000 Atm.
 Atom     1 has atomic number  1 and mass   1.00783
 Atom     2 has atomic number  8 and mass  15.99491
 Atom     3 has atomic number  8 and mass  15.99491
 Atom     4 has atomic number  7 and mass  14.00307
 Atom     5 has atomic number  8 and mass  15.99491
 Molecular mass:    62.99564 amu.
 Principal axes and moments of inertia in atomic units:
                           1         2         3
     Eigenvalues --    32.81545 360.03823 392.85367
           X            0.81026  -0.58607   0.00000
           Y            0.58607   0.81026   0.00000
           Z            0.00000  -0.00000   1.00000
 This molecule is an asymmetric top.
 Rotational symmetry number  1.
 Rotational temperatures (Kelvin)      2.63943     0.24057     0.22047
 Rotational constants (GHZ):          54.99670     5.01264     4.59393
    1 imaginary frequencies ignored.
 Zero-point vibrational energy      57920.9 (Joules/Mol)
                                   13.84343 (Kcal/Mol)
 Warning -- explicit consideration of   3 degrees of freedom as
           vibrations may cause significant error
 Vibrational temperatures:    328.44   476.34   650.07  1124.31  1390.69
          (Kelvin)           1924.31  2413.01  5625.40
 
 Zero-point correction=                           0.022061 (Hartree/Particle)
 Thermal correction to Energy=                    0.026194
 Thermal correction to Enthalpy=                  0.027138
 Thermal correction to Gibbs Free Energy=        -0.004074
 Sum of electronic and zero-point Energies=           -280.424581
 Sum of electronic and thermal Energies=              -280.420448
 Sum of electronic and thermal Enthalpies=            -280.419503
 Sum of electronic and thermal Free Energies=         -280.450716
 
                     E (Thermal)             CV                S
                      KCal/Mol        Cal/Mol-Kelvin    Cal/Mol-Kelvin
 Total                   16.437             11.997             65.692
 Electronic               0.000              0.000              0.000
 Translational            0.889              2.981             38.341
 Rotational               0.889              2.981             23.055
 Vibrational             14.660              6.036              4.296
 Vibration     1          0.651              1.798              1.892
 Vibration     2          0.713              1.613              1.255
 Vibration     3          0.810              1.357              0.790
                       Q            Log10(Q)             Ln(Q)
 Total Bot       0.748258D+02          1.874052          4.315163
 Total V=0       0.105041D+13         12.021359         27.680203
 Vib (Bot)       0.156120D-09         -9.806543        -22.580399
 Vib (Bot)    1  0.863438D+00         -0.063769         -0.146833
 Vib (Bot)    2  0.563986D+00         -0.248732         -0.572726
 Vib (Bot)    3  0.378983D+00         -0.421381         -0.970264
 Vib (V=0)       0.219162D+01          0.340765          0.784641
 Vib (V=0)    1  0.149776D+01          0.175442          0.403971
 Vib (V=0)    2  0.125371D+01          0.098197          0.226108
 Vib (V=0)    3  0.112740D+01          0.052077          0.119912
 Electronic      0.100000D+01          0.000000          0.000000
 Translational   0.196526D+08          7.293420         16.793719
 Rotational      0.243879D+05          4.387174         10.101843
 
                                                                title
                                                             IR Spectrum
 
     3                                                                        1          1                                           
     9                                                                        6          3           9     7          4   3  2       
     1                                                                        7          3           6     8          5   3  2       
     0                                                                        7          7           7     1          2   1  8       
 
     X                                                                        X          X           X     X          X   X  X       
     X                                                                        X          X           X     X          X              
     X                                                                        X          X           X     X          X              
     X                                                                        X          X                 X          X              
     X                                                                        X          X                 X          X              
     X                                                                        X          X                 X          X              
     X                                                                        X          X                 X          X              
     X                                                                        X          X                 X          X              
                                                                              X          X                 X          X              
                                                                              X          X                 X          X              
                                                                              X          X                 X          X              
                                                                              X          X                 X          X              
                                                                              X          X                 X          X              
                                                                              X          X                 X          X              
                                                                                         X                 X          X              
                                                                                         X                 X          X              
                                                                                                                      X              
                                                                                                                      X              
                                                                                                                      X              
                                                                                                                      X              
 
 ***** Axes restored to original set *****
 -------------------------------------------------------------------
 Center     Atomic                   Forces (Hartrees/Bohr)
 Number     Number              X              Y              Z
 -------------------------------------------------------------------
      1        1          -0.000033503   -0.000000000   -0.009998780
      2        8           0.000478946    0.000000000    0.010024129
      3        8          -0.000429003   -0.000000000   -0.000002798
      4        7          -0.000328275   -0.000000000   -0.000068769
      5        8           0.000311835    0.000000000    0.000046218
 -------------------------------------------------------------------
 Cartesian Forces:  Max     0.010024129 RMS     0.003661377
 -----------------------------------------------------------------------------------------------
                       Internal Coordinate Forces (Hartree/Bohr or radian)
  Cent   Atom   N1       Length/X         N2         Alpha/Y        N3         Beta/Z          J
 -----------------------------------------------------------------------------------------------
      1  H 
      2  O        1   0.009999(     1)
      3  O        2  -0.000445(     2)      1   0.000061(     5)
      4  N        3  -0.000024(     3)      2   0.000032(     6)      1  -0.000000(     8)     0
      5  O        4   0.000314(     4)      3  -0.000072(     7)      2   0.000000(     9)     0
 -----------------------------------------------------------------------------------------------
 Internal  Forces:  Max     0.009998780 RMS     0.003338035
 Force constants in Cartesian coordinates: 
                1             2             3             4             5 
      1  0.607669D-01
      2  0.000000D+00 -0.792421D-02
      3  0.540065D-02  0.000000D+00  0.548536D+00
      4 -0.313822D-01  0.000000D+00 -0.166408D-01  0.268032D+00
      5  0.000000D+00  0.858656D-02  0.000000D+00  0.000000D+00 -0.330934D-02
      6  0.489836D-01  0.000000D+00 -0.544745D+00  0.332490D-01  0.000000D+00
      7 -0.187293D-01  0.000000D+00  0.127696D-01 -0.220009D+00  0.000000D+00
      8  0.000000D+00  0.104501D-02  0.000000D+00  0.000000D+00 -0.672488D-02
      9 -0.539649D-01  0.000000D+00 -0.379540D-03 -0.189660D-01  0.000000D+00
     10 -0.939182D-02  0.000000D+00 -0.488056D-02 -0.170794D-01  0.000000D+00
     11  0.000000D+00 -0.274545D-02  0.000000D+00  0.000000D+00 -0.488681D-02
     12  0.539549D-02  0.000000D+00 -0.484468D-02  0.116188D-01  0.000000D+00
     13 -0.126347D-02  0.000000D+00  0.335109D-02  0.438687D-03  0.000000D+00
     14  0.000000D+00  0.103809D-02  0.000000D+00  0.000000D+00  0.633447D-02
     15 -0.581480D-02  0.000000D+00  0.143304D-02 -0.926096D-02  0.000000D+00
                6             7             8             9            10 
      6  0.631263D+00
      7 -0.215166D-01  0.341737D+00
      8  0.000000D+00  0.000000D+00  0.430897D-02
      9 -0.789812D-01  0.361869D-01  0.000000D+00  0.181480D+00
     10 -0.525857D-01 -0.780780D-01  0.000000D+00  0.175005D+00  0.828496D+00
     11  0.000000D+00  0.000000D+00  0.853794D-02  0.000000D+00  0.000000D+00
     12  0.171536D-01  0.628959D-01  0.000000D+00 -0.818592D-01 -0.178502D-01
     13 -0.813024D-02 -0.249206D-01  0.000000D+00 -0.138261D+00 -0.723947D+00
     14  0.000000D+00  0.000000D+00 -0.716704D-02  0.000000D+00  0.000000D+00
     15 -0.246907D-01 -0.903357D-01  0.000000D+00 -0.202600D-01 -0.996889D-01
               11            12            13            14            15 
     11  0.855077D-02
     12  0.000000D+00  0.186863D+00
     13  0.000000D+00 -0.620599D-01  0.749692D+00
     14 -0.945645D-02  0.000000D+00  0.000000D+00  0.925093D-02
     15  0.000000D+00 -0.117313D+00  0.205100D+00  0.000000D+00  0.160831D+00
 Force constants in internal coordinates: 
                1             2             3             4             5 
      1  0.548536D+00
      2 -0.106404D-01  0.281566D+00
      3  0.352555D-02  0.241983D-02  0.117351D+00
      4 -0.360187D-02  0.587458D-02  0.153051D+00  0.812037D+00
      5  0.975380D-02  0.658110D-01  0.234055D-02  0.483286D-02  0.217692D+00
      6  0.466273D-02  0.592268D-01  0.411936D-01  0.218621D-01  0.315526D-01
      7 -0.123165D-02  0.378189D-01  0.320558D-01  0.847636D-01  0.213286D-01
      8  0.000000D+00  0.000000D+00  0.000000D+00  0.000000D+00  0.000000D+00
      9  0.000000D+00  0.000000D+00  0.000000D+00  0.000000D+00  0.000000D+00
                6             7             8             9 
      6  0.283239D+00
      7  0.957869D-01  0.482734D+00
      8  0.000000D+00  0.000000D+00 -0.777377D-02
      9  0.000000D+00  0.000000D+00 -0.389841D-02  0.410876D-01
 Leave Link  716 at Mon Feb 21 20:06:29 2022, MaxMem= 16106127360 cpu:               1.5 elap:               0.1
 (Enter /sw/contrib/gaussian/g16/B01/g16/l103.exe)

 GradGradGradGradGradGradGradGradGradGradGradGradGradGradGradGradGradGrad
 Berny optimization.
 Search for a local minimum.
 Step number   1 out of a maximum of    2
 All quantities printed in internal units (Hartrees-Bohrs-Radians)
 Second derivative matrix not updated -- analytic derivatives used.
 The second derivative matrix:
                          r1        r2        r3        r4        a1
           r1           0.54854
           r2          -0.01064   0.28157
           r3           0.00353   0.00242   0.11735
           r4          -0.00360   0.00587   0.15305   0.81204
           a1           0.00975   0.06581   0.00234   0.00483   0.21769
           a2           0.00466   0.05923   0.04119   0.02186   0.03155
           a3          -0.00123   0.03782   0.03206   0.08476   0.02133
           d1           0.00000  -0.00000  -0.00000  -0.00000  -0.00000
           d2          -0.00000   0.00000   0.00000   0.00000   0.00000
                          a2        a3        d1        d2
           a2           0.28324
           a3           0.09579   0.48273
           d1          -0.00000  -0.00000  -0.00777
           d2          -0.00000  -0.00000  -0.00390   0.04109
 ITU=  0
     Eigenvalues ---   -0.00808   0.04140   0.07833   0.17567   0.22577
     Eigenvalues ---    0.32578   0.51741   0.54920   0.87099
 Eigenvalue     1 is  -8.08D-03 should be greater than     0.000000 Eigenvector:
                          d1        d2        a3        a2        r3
   1                    0.99687   0.07904   0.00000   0.00000  -0.00000
                          r4        a1        r2        r1
   1                    0.00000  -0.00000   0.00000  -0.00000
 Angle between quadratic step and forces=   5.98 degrees.
 Linear search not attempted -- first point.
 Variable       Old X    -DE/DX   Delta X   Delta X   Delta X     New X
                                 (Linear)    (Quad)   (Total)
    r1        1.81224   0.01000   0.00000   0.01823   0.01823   1.83047
    r2        2.74940  -0.00044   0.00000  -0.00086  -0.00086   2.74853
    r3        2.75670  -0.00002   0.00000  -0.00188  -0.00188   2.75482
    r4        2.21236   0.00031   0.00000   0.00083   0.00083   2.21319
    a1        1.70335   0.00006   0.00000  -0.00030  -0.00030   1.70305
    a2        1.78543   0.00003   0.00000   0.00027   0.00027   1.78570
    a3        1.90362  -0.00007   0.00000  -0.00010  -0.00010   1.90353
    d1        3.14159  -0.00000   0.00000  -0.00000   0.00000   3.14159
    d2        3.14159   0.00000   0.00000  -0.00000   0.00000   3.14159
         Item               Value     Threshold  Converged?
 Maximum Force            0.009999     0.000450     NO 
 RMS     Force            0.003338     0.000300     NO 
 Maximum Displacement     0.018232     0.001800     NO 
 RMS     Displacement     0.006124     0.001200     NO 
 Predicted change in Energy=-9.149174D-05
                       ----------------------------
                       ! Non-Optimized Parameters !
                       ! (Angstroms and Degrees)  !
 ----------------------                            ----------------------
 !      Name          Value   Derivative information (Atomic Units)     !
 ------------------------------------------------------------------------
 !       r1          0.9686   -DE/DX =    0.01                          !
 !       r2          1.4545   -DE/DX =   -0.0004                        !
 !       r3          1.4578   -DE/DX =    0.0                           !
 !       r4          1.1712   -DE/DX =    0.0003                        !
 !       a1         97.5775   -DE/DX =    0.0001                        !
 !       a2        102.313    -DE/DX =    0.0                           !
 !       a3        109.064    -DE/DX =   -0.0001                        !
 !       d1        180.0      -DE/DX =    0.0                           !
 !       d2        180.0      -DE/DX =    0.0                           !
 ------------------------------------------------------------------------
 GradGradGradGradGradGradGradGradGradGradGradGradGradGradGradGradGradGrad

 Leave Link  103 at Mon Feb 21 20:06:29 2022, MaxMem= 16106127360 cpu:               0.6 elap:               0.0
 (Enter /sw/contrib/gaussian/g16/B01/g16/l9999.exe)

 ----------------------------------------------------------------------

 Electric dipole moment (input orientation):
 (Debye = 10**-18 statcoulomb cm , SI units = C m)
                  (au)            (Debye)         (10**-30 SI)
   Tot        0.566054D+00      0.143877D+01      0.479921D+01
   x         -0.144921D+00     -0.368353D+00     -0.122869D+01
   y          0.000000D+00      0.000000D+00      0.000000D+00
   z         -0.547189D+00     -0.139082D+01     -0.463926D+01

 Dipole polarizability, Alpha (input orientation).
 (esu units = cm**3 , SI units = C**2 m**2 J**-1)
 Alpha(0;0):
               (au)            (10**-24 esu)      (10**-40 SI)
   iso        0.273243D+02      0.404904D+01      0.450517D+01
   aniso      0.218467D+02      0.323734D+01      0.360203D+01
   xx         0.320789D+02      0.475361D+01      0.528910D+01
   yx         0.000000D+00      0.000000D+00      0.000000D+00
   yy         0.179031D+02      0.265296D+01      0.295181D+01
   zx         0.961875D+01      0.142535D+01      0.158592D+01
   zy         0.000000D+00      0.000000D+00      0.000000D+00
   zz         0.319909D+02      0.474057D+01      0.527459D+01

 ----------------------------------------------------------------------

 Dipole orientation:
     1          0.00000000          0.00000000         -0.00000000
     8         -0.46396858          0.00000000         -1.75183905
     8          2.07744745          0.00000000         -2.80083836
     7          1.59252451          0.00000000         -5.51455493
     8          3.52372106          0.00000000         -6.59390794

 Electric dipole moment (dipole orientation):
 (Debye = 10**-18 statcoulomb cm , SI units = C m)
                  (au)            (Debye)         (10**-30 SI)
   Tot        0.566054D+00      0.143877D+01      0.479921D+01
   x          0.000000D+00      0.000000D+00      0.000000D+00
   y          0.000000D+00      0.000000D+00      0.000000D+00
   z          0.566054D+00      0.143877D+01      0.479921D+01

 Dipole polarizability, Alpha (dipole orientation).
 (esu units = cm**3 , SI units = C**2 m**2 J**-1)
 Alpha(0;0):
               (au)            (10**-24 esu)      (10**-40 SI)
   iso        0.273243D+02      0.404904D+01      0.450517D+01
   aniso      0.218467D+02      0.323734D+01      0.360203D+01
   xx         0.273121D+02      0.404724D+01      0.450316D+01
   yx         0.000000D+00      0.000000D+00      0.000000D+00
   yy         0.179031D+02      0.265296D+01      0.295181D+01
   zx        -0.837959D+01     -0.124173D+01     -0.138161D+01
   zy         0.000000D+00      0.000000D+00      0.000000D+00
   zz         0.367577D+02      0.544694D+01      0.606053D+01

 ----------------------------------------------------------------------
 1\1\GINC-N2110\Freq\RMP2-FC\Aug-CC-pVTZ\H1N1O3\CGAVINH\21-Feb-2022\1\\
 #p freq mp2/aug-cc-pvtz density=current\\title\\0,1\H\O,1,r1\O,2,r2,1,
 a1\N,3,r3,2,a2,1,d1,0\O,4,r4,3,a3,2,d2,0\\r1=0.9589951\r2=1.45491931\r
 3=1.45878406\r4=1.17072885\a1=97.59494903\a2=102.29752444\a3=109.06955
 123\d1=180.\d2=180.\\Version=ES64L-G16RevB.01\State=1-A'\HF=-279.50207
 08\MP2=-280.4466416\RMSD=3.788e-09\RMSF=3.661e-03\ZeroPoint=0.0220609\
 Thermal=0.026194\Dipole=-0.1449211,0.,-0.5471888\DipoleDeriv=0.2651261
 ,0.,0.0485641,0.,0.3569525,0.,0.0841037,0.,0.2769401,-0.3280967,0.,-0.
 205712,0.,-0.3160968,0.,-0.114984,0.,-0.2252503,-0.0464181,0.,0.145067
 4,0.,-0.0866409,0.,-0.7504036,0.,-1.352106,0.8956197,0.,0.9099179,0.,0
 .0662808,0.,0.9222894,0.,1.6683472,-0.7862311,0.,-0.8978374,0.,-0.0204
 955,0.,-0.1410055,0.,-0.367931\Polar=32.0789329,0.,17.9030515,9.618755
 ,0.,31.9909445\Quadrupole=-1.5022633,-0.7128755,2.2151388,0.,2.0833956
 ,0.\PG=CS [SG(H1N1O3)]\NImag=1\\0.06076687,0.,-0.00792421,0.00540065,0
 .,0.54853586,-0.03138225,0.,-0.01664078,0.26803190,0.,0.00858656,0.,0.
 ,-0.00330934,0.04898355,0.,-0.54474467,0.03324899,0.,0.63126296,-0.018
 72933,0.,0.01276961,-0.22000896,0.,-0.02151663,0.34173697,0.,0.0010450
 1,0.,0.,-0.00672488,0.,0.,0.00430897,-0.05396489,0.,-0.00037954,-0.018
 96602,0.,-0.07898118,0.03618688,0.,0.18147991,-0.00939182,0.,-0.004880
 56,-0.01707937,0.,-0.05258566,-0.07807804,0.,0.17500533,0.82849615,0.,
 -0.00274545,0.,0.,-0.00488681,0.,0.,0.00853794,0.,0.,0.00855077,0.0053
 9549,0.,-0.00484468,0.01161878,0.,0.01715360,0.06289587,0.,-0.08185918
 ,-0.01785023,0.,0.18686315,-0.00126347,0.,0.00335109,0.00043869,0.,-0.
 00813024,-0.02492063,0.,-0.13826130,-0.72394692,0.,-0.06205992,0.74969
 233,0.,0.00103809,0.,0.,0.00633447,0.,0.,-0.00716704,0.,0.,-0.00945645
 ,0.,0.,0.00925093,-0.00581480,0.,0.00143304,-0.00926096,0.,-0.02469070
 ,-0.09033573,0.,-0.02026001,-0.09968888,0.,-0.11731289,0.20510038,0.,0
 .16083056\\0.00003350,0.,0.00999878,-0.00047895,0.,-0.01002413,0.00042
 900,0.,0.00000280,0.00032828,0.,0.00006877,-0.00031183,0.,-0.00004622\
 \\@


 THE TRULY SUCCESSFUL PERFORMANCE OF RESEARCHES IN
 INORGANIC CHEMISTRY IS POSSIBLE ONLY TO ONE WHO IS NOT
 ONLY A THEORETICAL CHEMIST, BUT ALSO AN ACCOMPLISHED
 ANALYST AND, MOREOVER, NOT MERELY A PRACTICALLY TRAINED,
 MECHANICAL WORKER, BUT A THINKING CREATIVE ARTIST.
   --  CLEMENS WINKLER, BER. 33, 1697(1900)
 Job cpu time:       0 days  1 hours 59 minutes 14.7 seconds.
 Elapsed time:       0 days  0 hours  4 minutes 18.7 seconds.
 File lengths (MBytes):  RWF=   7239 Int=      0 D2E=      0 Chk=      8 Scr=      1
 Normal termination of Gaussian 16 at Mon Feb 21 20:06:30 2022.
