 Entering Gaussian System, Link 0=g16
 Input=hoono_r4_1p160241.gjf
 Output=hoono_r4_1p160241.log
 Initial command:
 /sw/contrib/gaussian/g16/B01/g16/l1.exe "/scr/Gau-24645.inp" -scrdir="/scr/"
 Entering Link 1 = /sw/contrib/gaussian/g16/B01/g16/l1.exe PID=     24646.
  
 Copyright (c) 1988-2017, Gaussian, Inc.  All Rights Reserved.
  
 This is part of the Gaussian(R) 16 program.  It is based on
 the Gaussian(R) 09 system (copyright 2009, Gaussian, Inc.),
 the Gaussian(R) 03 system (copyright 2003, Gaussian, Inc.),
 the Gaussian(R) 98 system (copyright 1998, Gaussian, Inc.),
 the Gaussian(R) 94 system (copyright 1995, Gaussian, Inc.),
 the Gaussian 92(TM) system (copyright 1992, Gaussian, Inc.),
 the Gaussian 90(TM) system (copyright 1990, Gaussian, Inc.),
 the Gaussian 88(TM) system (copyright 1988, Gaussian, Inc.),
 the Gaussian 86(TM) system (copyright 1986, Carnegie Mellon
 University), and the Gaussian 82(TM) system (copyright 1983,
 Carnegie Mellon University). Gaussian is a federally registered
 trademark of Gaussian, Inc.
  
 This software contains proprietary and confidential information,
 including trade secrets, belonging to Gaussian, Inc.
  
 This software is provided under written license and may be
 used, copied, transmitted, or stored only in accord with that
 written license.
  
 The following legend is applicable only to US Government
 contracts under FAR:
  
                    RESTRICTED RIGHTS LEGEND
  
 Use, reproduction and disclosure by the US Government is
 subject to restrictions as set forth in subparagraphs (a)
 and (c) of the Commercial Computer Software - Restricted
 Rights clause in FAR 52.227-19.
  
 Gaussian, Inc.
 340 Quinnipiac St., Bldg. 40, Wallingford CT 06492
  
  
 ---------------------------------------------------------------
 Warning -- This program may not be used in any manner that
 competes with the business of Gaussian, Inc. or will provide
 assistance to any competitor of Gaussian, Inc.  The licensee
 of this program is prohibited from giving any competitor of
 Gaussian, Inc. access to this program.  By using this program,
 the user acknowledges that Gaussian, Inc. is engaged in the
 business of creating and licensing software in the field of
 computational chemistry and represents and warrants to the
 licensee that it is not a competitor of Gaussian, Inc. and that
 it will not use this program in any manner prohibited above.
 ---------------------------------------------------------------
  

 Cite this work as:
 Gaussian 16, Revision B.01,
 M. J. Frisch, G. W. Trucks, H. B. Schlegel, G. E. Scuseria, 
 M. A. Robb, J. R. Cheeseman, G. Scalmani, V. Barone, 
 G. A. Petersson, H. Nakatsuji, X. Li, M. Caricato, A. V. Marenich, 
 J. Bloino, B. G. Janesko, R. Gomperts, B. Mennucci, H. P. Hratchian, 
 J. V. Ortiz, A. F. Izmaylov, J. L. Sonnenberg, D. Williams-Young, 
 F. Ding, F. Lipparini, F. Egidi, J. Goings, B. Peng, A. Petrone, 
 T. Henderson, D. Ranasinghe, V. G. Zakrzewski, J. Gao, N. Rega, 
 G. Zheng, W. Liang, M. Hada, M. Ehara, K. Toyota, R. Fukuda, 
 J. Hasegawa, M. Ishida, T. Nakajima, Y. Honda, O. Kitao, H. Nakai, 
 T. Vreven, K. Throssell, J. A. Montgomery, Jr., J. E. Peralta, 
 F. Ogliaro, M. J. Bearpark, J. J. Heyd, E. N. Brothers, K. N. Kudin, 
 V. N. Staroverov, T. A. Keith, R. Kobayashi, J. Normand, 
 K. Raghavachari, A. P. Rendell, J. C. Burant, S. S. Iyengar, 
 J. Tomasi, M. Cossi, J. M. Millam, M. Klene, C. Adamo, R. Cammi, 
 J. W. Ochterski, R. L. Martin, K. Morokuma, O. Farkas, 
 J. B. Foresman, and D. J. Fox, Gaussian, Inc., Wallingford CT, 2016.
 
 ******************************************
 Gaussian 16:  ES64L-G16RevB.01 20-Dec-2017
                21-Feb-2022 
 ******************************************
 %nproc=28
 Will use up to   28 processors via shared memory.
 %mem=120GB
 %chk=hoono_r4_1p160241.chk
 ---------------------------------------
 #p freq mp2/aug-cc-pvtz density=current
 ---------------------------------------
 1/10=4,30=1,38=1/1,3;
 2/12=2,17=6,18=5,40=1/2;
 3/5=16,6=1,7=10,11=9,25=1,30=1,71=2,140=1/1,2,3;
 4//1;
 5/5=2,38=5,98=1/2;
 8/6=3,8=1,10=1,19=11,30=-1/1;
 9/15=3,16=-3/6;
 11/6=1,8=1,15=11,17=12,24=-1,27=1,28=-2,29=300,32=6,42=3/1,2,10;
 10/6=2,21=1/2;
 8/6=4,8=1,10=1,19=11,30=-1/11,4;
 10/5=1,20=4/2;
 11/12=2,14=11,16=1,17=2,28=-2,42=3,76=2/2,10,12;
 6/7=2,8=2,9=2,10=2,22=-1/1;
 7/8=1,10=1,12=2,25=1,44=2/1,2,3,16;
 1/10=4,30=1/3;
 99//99;
 Leave Link    1 at Mon Feb 21 20:29:18 2022, MaxMem= 16106127360 cpu:               2.9 elap:               0.1
 (Enter /sw/contrib/gaussian/g16/B01/g16/l101.exe)
 -----
 title
 -----
 Symbolic Z-matrix:
 Charge =  0 Multiplicity = 1
 H
 O                    1    r1
 O                    2    r2       1    a1
 N                    3    r3       2    a2       1    d1       0
 O                    4    r4       3    a3       2    d2       0
       Variables:
  r1                    0.96898                  
  r2                    1.45492                  
  r3                    1.45878                  
  r4                    1.16024                  
  a1                   97.59495                  
  a2                  102.29752                  
  a3                  109.06955                  
  d1                  180.                       
  d2                  180.                       
 
 ITRead=  0  0  0  0  0
 MicOpt= -1 -1 -1 -1 -1
 NAtoms=      5 NQM=        5 NQMF=       0 NMMI=      0 NMMIF=      0
                NMic=       0 NMicF=      0.
                    Isotopes and Nuclear Properties:
 (Nuclear quadrupole moments (NQMom) in fm**2, nuclear magnetic moments (NMagM)
  in nuclear magnetons)

  Atom         1           2           3           4           5
 IAtWgt=           1          16          16          14          16
 AtmWgt=   1.0078250  15.9949146  15.9949146  14.0030740  15.9949146
 NucSpn=           1           0           0           2           0
 AtZEff=  -0.0000000  -0.0000000  -0.0000000  -0.0000000  -0.0000000
 NQMom=    0.0000000   0.0000000   0.0000000   2.0440000   0.0000000
 NMagM=    2.7928460   0.0000000   0.0000000   0.4037610   0.0000000
 AtZNuc=   1.0000000   8.0000000   8.0000000   7.0000000   8.0000000
 Leave Link  101 at Mon Feb 21 20:29:18 2022, MaxMem= 16106127360 cpu:               2.3 elap:               0.1
 (Enter /sw/contrib/gaussian/g16/B01/g16/l103.exe)

 GradGradGradGradGradGradGradGradGradGradGradGradGradGradGradGradGradGrad
 Berny optimization.
 Initialization pass.
                       ----------------------------
                       !    Initial Parameters    !
                       ! (Angstroms and Degrees)  !
 ----------------------                            ----------------------
 !      Name          Value   Derivative information (Atomic Units)     !
 ------------------------------------------------------------------------
 !       r1          0.969    calculate D2E/DX2 analytically            !
 !       r2          1.4549   calculate D2E/DX2 analytically            !
 !       r3          1.4588   calculate D2E/DX2 analytically            !
 !       r4          1.1602   calculate D2E/DX2 analytically            !
 !       a1         97.5949   calculate D2E/DX2 analytically            !
 !       a2        102.2975   calculate D2E/DX2 analytically            !
 !       a3        109.0696   calculate D2E/DX2 analytically            !
 !       d1        180.0      calculate D2E/DX2 analytically            !
 !       d2        180.0      calculate D2E/DX2 analytically            !
 ------------------------------------------------------------------------
 Trust Radius=3.00D-01 FncErr=1.00D-07 GrdErr=1.00D-07 EigMax=2.50D+02 EigMin=1.00D-04
 Number of steps in this run=      2 maximum allowed number of steps=      2.
 GradGradGradGradGradGradGradGradGradGradGradGradGradGradGradGradGradGrad

 Leave Link  103 at Mon Feb 21 20:29:18 2022, MaxMem= 16106127360 cpu:               1.2 elap:               0.1
 (Enter /sw/contrib/gaussian/g16/B01/g16/l202.exe)
                          Input orientation:                          
 ---------------------------------------------------------------------
 Center     Atomic      Atomic             Coordinates (Angstroms)
 Number     Number       Type             X           Y           Z
 ---------------------------------------------------------------------
      1          1           0        0.000000    0.000000    0.000000
      2          8           0        0.000000    0.000000    0.968976
      3          8           0        1.442156    0.000000    1.161271
      4          7           0        1.561752    0.000000    2.615144
      5          8           0        2.685708    0.000000    2.903037
 ---------------------------------------------------------------------
                    Distance matrix (angstroms):
                    1          2          3          4          5
     1  H    0.000000
     2  O    0.968976   0.000000
     3  O    1.851584   1.454919   0.000000
     4  N    3.045989   2.269127   1.458784   0.000000
     5  O    3.954826   3.309626   2.140134   1.160242   0.000000
 Stoichiometry    HNO3
 Framework group  CS[SG(HNO3)]
 Deg. of freedom     7
 Full point group                 CS      NOp   2
 Largest Abelian subgroup         CS      NOp   2
 Largest concise Abelian subgroup C1      NOp   1
                         Standard orientation:                         
 ---------------------------------------------------------------------
 Center     Atomic      Atomic             Coordinates (Angstroms)
 Number     Number       Type             X           Y           Z
 ---------------------------------------------------------------------
      1          1           0        1.553008    1.680847    0.000000
      2          8           0        1.454245    0.716917    0.000000
      3          8           0       -0.000000    0.672616    0.000000
      4          7           0       -0.267159   -0.761496   -0.000000
      5          8           0       -1.414606   -0.933330   -0.000000
 ---------------------------------------------------------------------
 Rotational constants (GHZ):          55.0256082           5.0358861           4.6136497
 Leave Link  202 at Mon Feb 21 20:29:18 2022, MaxMem= 16106127360 cpu:               0.3 elap:               0.0
 (Enter /sw/contrib/gaussian/g16/B01/g16/l301.exe)
 Standard basis: Aug-CC-pVTZ (5D, 7F)
 Ernie: Thresh=  0.10000D-02 Tol=  0.10000D-05 Strict=F.
 Ernie:  12 primitive shells out of 131 were deleted.
 There are   166 symmetry adapted cartesian basis functions of A'  symmetry.
 There are    79 symmetry adapted cartesian basis functions of A"  symmetry.
 There are   136 symmetry adapted basis functions of A'  symmetry.
 There are    71 symmetry adapted basis functions of A"  symmetry.
   207 basis functions,   315 primitive gaussians,   245 cartesian basis functions
    16 alpha electrons       16 beta electrons
       nuclear repulsion energy       117.1924605116 Hartrees.
 IExCor=    0 DFT=F Ex=HF Corr=None ExCW=0 ScaHFX=  1.000000
 ScaDFX=  1.000000  1.000000  1.000000  1.000000 ScalE2=  1.000000  1.000000
 IRadAn=      5 IRanWt=     -1 IRanGd=            0 ICorTp=0 IEmpDi=  4
 NAtoms=    5 NActive=    5 NUniq=    5 SFac= 1.00D+00 NAtFMM=   60 NAOKFM=F Big=F
 Integral buffers will be    131072 words long.
 Raffenetti 1 integral format.
 Two-electron integral symmetry is turned on.
 Leave Link  301 at Mon Feb 21 20:29:18 2022, MaxMem= 16106127360 cpu:               1.7 elap:               0.1
 (Enter /sw/contrib/gaussian/g16/B01/g16/l302.exe)
 NPDir=0 NMtPBC=     1 NCelOv=     1 NCel=       1 NClECP=     1 NCelD=      1
         NCelK=      1 NCelE2=     1 NClLst=     1 CellRange=     0.0.
 One-electron integrals computed using PRISM.
 One-electron integral symmetry used in STVInt
 NBasis=   207 RedAO= T EigKep=  1.80D-04  NBF=   136    71
 NBsUse=   207 1.00D-06 EigRej= -1.00D+00 NBFU=   136    71
 Leave Link  302 at Mon Feb 21 20:29:19 2022, MaxMem= 16106127360 cpu:               5.5 elap:               0.2
 (Enter /sw/contrib/gaussian/g16/B01/g16/l303.exe)
 DipDrv:  MaxL=1.
 Leave Link  303 at Mon Feb 21 20:29:19 2022, MaxMem= 16106127360 cpu:               0.8 elap:               0.1
 (Enter /sw/contrib/gaussian/g16/B01/g16/l401.exe)
 ExpMin= 2.53D-02 ExpMax= 1.53D+04 ExpMxC= 5.22D+02 IAcc=3 IRadAn=         5 AccDes= 0.00D+00
 Harris functional with IExCor=  205 and IRadAn=       5 diagonalized for initial guess.
 HarFok:  IExCor=  205 AccDes= 0.00D+00 IRadAn=         5 IDoV= 1 UseB2=F ITyADJ=14
 ICtDFT=  3500011 ScaDFX=  1.000000  1.000000  1.000000  1.000000
 FoFCou: FMM=F IPFlag=           0 FMFlag=      100000 FMFlg1=           0
         NFxFlg=           0 DoJE=T BraDBF=F KetDBF=T FulRan=T
         wScrn=  0.000000 ICntrl=       500 IOpCl=  0 I1Cent=   200000004 NGrid=           0
         NMat0=    1 NMatS0=      1 NMatT0=    0 NMatD0=    1 NMtDS0=    0 NMtDT0=    0
 Petite list used in FoFCou.
 Harris En= -279.628404360569    
 JPrj=0 DoOrth=F DoCkMO=F.
 Initial guess orbital symmetries:
       Occupied  (A') (A') (A') (A') (A') (A') (A') (A') (A') (A')
                 (A") (A') (A') (A") (A") (A')
       Virtual   (A") (A') (A') (A') (A') (A') (A") (A') (A') (A')
                 (A") (A') (A") (A') (A') (A") (A') (A") (A') (A')
                 (A') (A') (A') (A') (A') (A") (A') (A") (A') (A')
                 (A") (A') (A") (A') (A') (A") (A') (A") (A') (A')
                 (A") (A') (A") (A') (A") (A') (A') (A') (A") (A")
                 (A') (A') (A') (A') (A") (A') (A") (A') (A") (A')
                 (A') (A') (A") (A') (A') (A") (A') (A") (A') (A')
                 (A") (A') (A') (A") (A") (A') (A') (A") (A') (A')
                 (A') (A") (A') (A") (A') (A") (A') (A") (A') (A')
                 (A') (A") (A') (A") (A') (A") (A") (A') (A') (A")
                 (A') (A') (A") (A') (A') (A') (A') (A") (A") (A')
                 (A") (A') (A') (A') (A") (A') (A') (A') (A") (A')
                 (A") (A') (A") (A') (A") (A') (A') (A") (A") (A')
                 (A') (A') (A') (A") (A") (A') (A") (A') (A') (A')
                 (A') (A") (A") (A') (A') (A") (A') (A') (A') (A')
                 (A") (A') (A') (A") (A') (A") (A') (A") (A') (A")
                 (A') (A") (A') (A") (A') (A") (A") (A") (A') (A')
                 (A") (A') (A") (A') (A') (A") (A") (A") (A') (A')
                 (A') (A') (A') (A') (A') (A') (A') (A') (A') (A')
                 (A')
 The electronic state of the initial guess is 1-A'.
 Leave Link  401 at Mon Feb 21 20:29:19 2022, MaxMem= 16106127360 cpu:               7.6 elap:               0.3
 (Enter /sw/contrib/gaussian/g16/B01/g16/l502.exe)
 Keep R1 ints in memory in symmetry-blocked form, NReq=348887737.
 FoFCou: FMM=F IPFlag=           0 FMFlag=           0 FMFlg1=           0
         NFxFlg=           0 DoJE=F BraDBF=F KetDBF=F FulRan=T
         wScrn=  0.000000 ICntrl=       600 IOpCl=  0 I1Cent=           0 NGrid=           0
         NMat0=    1 NMatS0=  21528 NMatT0=    0 NMatD0=    1 NMtDS0=    0 NMtDT0=    0
 Petite list used in FoFCou.
 Closed shell SCF:
 Using DIIS extrapolation, IDIIS=  1040.
 NGot= 16106127360 LenX= 15988850015 LenY= 15988789549
 Requested convergence on RMS density matrix=1.00D-08 within 128 cycles.
 Requested convergence on MAX density matrix=1.00D-06.
 Requested convergence on             energy=1.00D-06.
 No special actions if energy rises.

 Cycle   1  Pass 1  IDiag  1:
 E= -279.374162432546    
 DIIS: error= 2.69D-02 at cycle   1 NSaved=   1.
 NSaved= 1 IEnMin= 1 EnMin= -279.374162432546     IErMin= 1 ErrMin= 2.69D-02
 ErrMax= 2.69D-02  0.00D+00 EMaxC= 1.00D-01 BMatC= 4.36D-01 BMatP= 4.36D-01
 IDIUse=3 WtCom= 7.31D-01 WtEn= 2.69D-01
 Coeff-Com:  0.100D+01
 Coeff-En:   0.100D+01
 Coeff:      0.100D+01
 Gap=     0.517 Goal=   None    Shift=    0.000
 GapD=    0.517 DampG=2.000 DampE=0.500 DampFc=1.0000 IDamp=-1.
 RMSDP=1.61D-03 MaxDP=9.85D-02              OVMax= 1.09D-01

 Cycle   2  Pass 1  IDiag  1:
 E= -279.456991763184     Delta-E=       -0.082829330639 Rises=F Damp=F
 DIIS: error= 1.75D-02 at cycle   2 NSaved=   2.
 NSaved= 2 IEnMin= 2 EnMin= -279.456991763184     IErMin= 2 ErrMin= 1.75D-02
 ErrMax= 1.75D-02  0.00D+00 EMaxC= 1.00D-01 BMatC= 6.77D-02 BMatP= 4.36D-01
 IDIUse=3 WtCom= 8.25D-01 WtEn= 1.75D-01
 Coeff-Com:  0.187D+00 0.813D+00
 Coeff-En:   0.000D+00 0.100D+01
 Coeff:      0.154D+00 0.846D+00
 Gap=     0.525 Goal=   None    Shift=    0.000
 RMSDP=8.79D-04 MaxDP=3.65D-02 DE=-8.28D-02 OVMax= 6.76D-02

 Cycle   3  Pass 1  IDiag  1:
 E= -279.484290484127     Delta-E=       -0.027298720943 Rises=F Damp=F
 DIIS: error= 1.01D-02 at cycle   3 NSaved=   3.
 NSaved= 3 IEnMin= 3 EnMin= -279.484290484127     IErMin= 3 ErrMin= 1.01D-02
 ErrMax= 1.01D-02  0.00D+00 EMaxC= 1.00D-01 BMatC= 2.72D-02 BMatP= 6.77D-02
 IDIUse=3 WtCom= 8.99D-01 WtEn= 1.01D-01
 Coeff-Com: -0.327D-01 0.379D+00 0.654D+00
 Coeff-En:   0.000D+00 0.239D+00 0.761D+00
 Coeff:     -0.294D-01 0.364D+00 0.665D+00
 Gap=     0.508 Goal=   None    Shift=    0.000
 RMSDP=3.66D-04 MaxDP=1.48D-02 DE=-2.73D-02 OVMax= 3.64D-02

 Cycle   4  Pass 1  IDiag  1:
 E= -279.502267899945     Delta-E=       -0.017977415817 Rises=F Damp=F
 DIIS: error= 1.28D-03 at cycle   4 NSaved=   4.
 NSaved= 4 IEnMin= 4 EnMin= -279.502267899945     IErMin= 4 ErrMin= 1.28D-03
 ErrMax= 1.28D-03  0.00D+00 EMaxC= 1.00D-01 BMatC= 4.81D-04 BMatP= 2.72D-02
 IDIUse=3 WtCom= 9.87D-01 WtEn= 1.28D-02
 Coeff-Com: -0.116D-01 0.596D-01 0.162D+00 0.790D+00
 Coeff-En:   0.000D+00 0.000D+00 0.000D+00 0.100D+01
 Coeff:     -0.115D-01 0.588D-01 0.160D+00 0.793D+00
 Gap=     0.500 Goal=   None    Shift=    0.000
 RMSDP=8.85D-05 MaxDP=2.76D-03 DE=-1.80D-02 OVMax= 1.10D-02

 Cycle   5  Pass 1  IDiag  1:
 E= -279.502916337794     Delta-E=       -0.000648437849 Rises=F Damp=F
 DIIS: error= 7.26D-04 at cycle   5 NSaved=   5.
 NSaved= 5 IEnMin= 5 EnMin= -279.502916337794     IErMin= 5 ErrMin= 7.26D-04
 ErrMax= 7.26D-04  0.00D+00 EMaxC= 1.00D-01 BMatC= 8.43D-05 BMatP= 4.81D-04
 IDIUse=3 WtCom= 9.93D-01 WtEn= 7.26D-03
 Coeff-Com:  0.600D-02-0.720D-01-0.117D+00 0.220D-01 0.116D+01
 Coeff-En:   0.000D+00 0.000D+00 0.000D+00 0.000D+00 0.100D+01
 Coeff:      0.595D-02-0.715D-01-0.116D+00 0.218D-01 0.116D+01
 Gap=     0.500 Goal=   None    Shift=    0.000
 RMSDP=7.46D-05 MaxDP=2.05D-03 DE=-6.48D-04 OVMax= 1.08D-02

 Cycle   6  Pass 1  IDiag  1:
 E= -279.503217963603     Delta-E=       -0.000301625809 Rises=F Damp=F
 DIIS: error= 2.74D-04 at cycle   6 NSaved=   6.
 NSaved= 6 IEnMin= 6 EnMin= -279.503217963603     IErMin= 6 ErrMin= 2.74D-04
 ErrMax= 2.74D-04  0.00D+00 EMaxC= 1.00D-01 BMatC= 1.61D-05 BMatP= 8.43D-05
 IDIUse=3 WtCom= 9.97D-01 WtEn= 2.74D-03
 Coeff-Com:  0.776D-03-0.716D-03 0.210D-03-0.127D+00-0.200D+00 0.133D+01
 Coeff-En:   0.000D+00 0.000D+00 0.000D+00 0.000D+00 0.000D+00 0.100D+01
 Coeff:      0.774D-03-0.714D-03 0.209D-03-0.127D+00-0.199D+00 0.133D+01
 Gap=     0.501 Goal=   None    Shift=    0.000
 RMSDP=4.39D-05 MaxDP=1.21D-03 DE=-3.02D-04 OVMax= 5.31D-03

 Cycle   7  Pass 1  IDiag  1:
 E= -279.503287071990     Delta-E=       -0.000069108387 Rises=F Damp=F
 DIIS: error= 1.21D-04 at cycle   7 NSaved=   7.
 NSaved= 7 IEnMin= 7 EnMin= -279.503287071990     IErMin= 7 ErrMin= 1.21D-04
 ErrMax= 1.21D-04  0.00D+00 EMaxC= 1.00D-01 BMatC= 4.71D-06 BMatP= 1.61D-05
 IDIUse=3 WtCom= 9.99D-01 WtEn= 1.21D-03
 Coeff-Com: -0.909D-03 0.136D-01 0.264D-01-0.265D-01-0.296D+00 0.417D+00
 Coeff-Com:  0.866D+00
 Coeff-En:   0.000D+00 0.000D+00 0.000D+00 0.000D+00 0.000D+00 0.000D+00
 Coeff-En:   0.100D+01
 Coeff:     -0.908D-03 0.136D-01 0.264D-01-0.265D-01-0.296D+00 0.417D+00
 Coeff:      0.866D+00
 Gap=     0.501 Goal=   None    Shift=    0.000
 RMSDP=1.34D-05 MaxDP=3.77D-04 DE=-6.91D-05 OVMax= 1.54D-03

 Cycle   8  Pass 1  IDiag  1:
 E= -279.503296102224     Delta-E=       -0.000009030234 Rises=F Damp=F
 DIIS: error= 5.37D-05 at cycle   8 NSaved=   8.
 NSaved= 8 IEnMin= 8 EnMin= -279.503296102224     IErMin= 8 ErrMin= 5.37D-05
 ErrMax= 5.37D-05  0.00D+00 EMaxC= 1.00D-01 BMatC= 5.65D-07 BMatP= 4.71D-06
 IDIUse=1 WtCom= 1.00D+00 WtEn= 0.00D+00
 Coeff-Com: -0.451D-03 0.362D-02 0.791D-02 0.269D-01-0.446D-01-0.186D+00
 Coeff-Com:  0.132D+00 0.106D+01
 Coeff:     -0.451D-03 0.362D-02 0.791D-02 0.269D-01-0.446D-01-0.186D+00
 Coeff:      0.132D+00 0.106D+01
 Gap=     0.500 Goal=   None    Shift=    0.000
 RMSDP=6.89D-06 MaxDP=1.98D-04 DE=-9.03D-06 OVMax= 7.51D-04

 Cycle   9  Pass 1  IDiag  1:
 E= -279.503297805629     Delta-E=       -0.000001703405 Rises=F Damp=F
 DIIS: error= 1.44D-05 at cycle   9 NSaved=   9.
 NSaved= 9 IEnMin= 9 EnMin= -279.503297805629     IErMin= 9 ErrMin= 1.44D-05
 ErrMax= 1.44D-05  0.00D+00 EMaxC= 1.00D-01 BMatC= 6.06D-08 BMatP= 5.65D-07
 IDIUse=1 WtCom= 1.00D+00 WtEn= 0.00D+00
 Coeff-Com:  0.111D-03-0.163D-02-0.292D-02-0.144D-02 0.327D-01-0.331D-02
 Coeff-Com: -0.149D+00-0.101D+00 0.123D+01
 Coeff:      0.111D-03-0.163D-02-0.292D-02-0.144D-02 0.327D-01-0.331D-02
 Coeff:     -0.149D+00-0.101D+00 0.123D+01
 Gap=     0.500 Goal=   None    Shift=    0.000
 RMSDP=1.81D-06 MaxDP=6.02D-05 DE=-1.70D-06 OVMax= 1.57D-04

 Cycle  10  Pass 1  IDiag  1:
 E= -279.503297943529     Delta-E=       -0.000000137900 Rises=F Damp=F
 DIIS: error= 3.87D-06 at cycle  10 NSaved=  10.
 NSaved=10 IEnMin=10 EnMin= -279.503297943529     IErMin=10 ErrMin= 3.87D-06
 ErrMax= 3.87D-06  0.00D+00 EMaxC= 1.00D-01 BMatC= 4.79D-09 BMatP= 6.06D-08
 IDIUse=1 WtCom= 1.00D+00 WtEn= 0.00D+00
 Coeff-Com:  0.340D-04-0.292D-03-0.429D-03-0.262D-02 0.264D-02 0.188D-01
 Coeff-Com: -0.137D-01-0.804D-01-0.501D-01 0.113D+01
 Coeff:      0.340D-04-0.292D-03-0.429D-03-0.262D-02 0.264D-02 0.188D-01
 Coeff:     -0.137D-01-0.804D-01-0.501D-01 0.113D+01
 Gap=     0.500 Goal=   None    Shift=    0.000
 RMSDP=4.67D-07 MaxDP=1.91D-05 DE=-1.38D-07 OVMax= 3.65D-05

 Cycle  11  Pass 1  IDiag  1:
 E= -279.503297953873     Delta-E=       -0.000000010344 Rises=F Damp=F
 DIIS: error= 1.80D-06 at cycle  11 NSaved=  11.
 NSaved=11 IEnMin=11 EnMin= -279.503297953873     IErMin=11 ErrMin= 1.80D-06
 ErrMax= 1.80D-06  0.00D+00 EMaxC= 1.00D-01 BMatC= 5.40D-10 BMatP= 4.79D-09
 IDIUse=1 WtCom= 1.00D+00 WtEn= 0.00D+00
 Coeff-Com: -0.193D-04 0.227D-03 0.458D-03 0.463D-03-0.406D-02-0.296D-02
 Coeff-Com:  0.176D-01 0.308D-01-0.131D+00-0.180D+00 0.127D+01
 Coeff:     -0.193D-04 0.227D-03 0.458D-03 0.463D-03-0.406D-02-0.296D-02
 Coeff:      0.176D-01 0.308D-01-0.131D+00-0.180D+00 0.127D+01
 Gap=     0.500 Goal=   None    Shift=    0.000
 RMSDP=1.58D-07 MaxDP=5.76D-06 DE=-1.03D-08 OVMax= 1.57D-05

 Cycle  12  Pass 1  IDiag  1:
 E= -279.503297955295     Delta-E=       -0.000000001422 Rises=F Damp=F
 DIIS: error= 5.41D-07 at cycle  12 NSaved=  12.
 NSaved=12 IEnMin=12 EnMin= -279.503297955295     IErMin=12 ErrMin= 5.41D-07
 ErrMax= 5.41D-07  0.00D+00 EMaxC= 1.00D-01 BMatC= 5.86D-11 BMatP= 5.40D-10
 IDIUse=1 WtCom= 1.00D+00 WtEn= 0.00D+00
 Coeff-Com:  0.923D-06-0.246D-04-0.543D-04 0.159D-03 0.964D-03-0.205D-02
 Coeff-Com: -0.374D-02 0.508D-02 0.387D-01-0.996D-01-0.308D+00 0.137D+01
 Coeff:      0.923D-06-0.246D-04-0.543D-04 0.159D-03 0.964D-03-0.205D-02
 Coeff:     -0.374D-02 0.508D-02 0.387D-01-0.996D-01-0.308D+00 0.137D+01
 Gap=     0.500 Goal=   None    Shift=    0.000
 RMSDP=6.36D-08 MaxDP=2.52D-06 DE=-1.42D-09 OVMax= 6.13D-06

 Cycle  13  Pass 1  IDiag  1:
 E= -279.503297955480     Delta-E=       -0.000000000185 Rises=F Damp=F
 DIIS: error= 1.50D-07 at cycle  13 NSaved=  13.
 NSaved=13 IEnMin=13 EnMin= -279.503297955480     IErMin=13 ErrMin= 1.50D-07
 ErrMax= 1.50D-07  0.00D+00 EMaxC= 1.00D-01 BMatC= 3.32D-12 BMatP= 5.86D-11
 IDIUse=1 WtCom= 1.00D+00 WtEn= 0.00D+00
 Coeff-Com:  0.121D-05-0.134D-04-0.218D-04-0.792D-04 0.123D-03 0.679D-03
 Coeff-Com: -0.634D-03-0.323D-02 0.381D-03 0.385D-01-0.252D-01-0.343D+00
 Coeff-Com:  0.133D+01
 Coeff:      0.121D-05-0.134D-04-0.218D-04-0.792D-04 0.123D-03 0.679D-03
 Coeff:     -0.634D-03-0.323D-02 0.381D-03 0.385D-01-0.252D-01-0.343D+00
 Coeff:      0.133D+01
 Gap=     0.500 Goal=   None    Shift=    0.000
 RMSDP=1.74D-08 MaxDP=5.08D-07 DE=-1.85D-10 OVMax= 1.46D-06

 Cycle  14  Pass 1  IDiag  1:
 E= -279.503297955490     Delta-E=       -0.000000000010 Rises=F Damp=F
 DIIS: error= 2.24D-08 at cycle  14 NSaved=  14.
 NSaved=14 IEnMin=14 EnMin= -279.503297955490     IErMin=14 ErrMin= 2.24D-08
 ErrMax= 2.24D-08  0.00D+00 EMaxC= 1.00D-01 BMatC= 1.62D-13 BMatP= 3.32D-12
 IDIUse=1 WtCom= 1.00D+00 WtEn= 0.00D+00
 Coeff-Com: -0.181D-06 0.297D-05 0.542D-05 0.462D-05-0.785D-04 0.388D-04
 Coeff-Com:  0.254D-03 0.244D-03-0.234D-02 0.960D-03 0.179D-01-0.250D-01
 Coeff-Com: -0.206D+00 0.121D+01
 Coeff:     -0.181D-06 0.297D-05 0.542D-05 0.462D-05-0.785D-04 0.388D-04
 Coeff:      0.254D-03 0.244D-03-0.234D-02 0.960D-03 0.179D-01-0.250D-01
 Coeff:     -0.206D+00 0.121D+01
 Gap=     0.500 Goal=   None    Shift=    0.000
 RMSDP=3.52D-09 MaxDP=8.40D-08 DE=-9.78D-12 OVMax= 3.17D-07

 SCF Done:  E(RHF) =  -279.503297955     A.U. after   14 cycles
            NFock= 14  Conv=0.35D-08     -V/T= 2.0022
 KE= 2.788977635374D+02 PE=-8.957527342594D+02 EE= 2.201592122550D+02
 Leave Link  502 at Mon Feb 21 20:29:23 2022, MaxMem= 16106127360 cpu:              55.1 elap:               3.6
 (Enter /sw/contrib/gaussian/g16/B01/g16/l801.exe)
 ExpMin= 2.53D-02 ExpMax= 1.53D+04 ExpMxC= 5.22D+02 IAcc=3 IRadAn=         5 AccDes= 0.00D+00
 HarFok:  IExCor=  205 AccDes= 0.00D+00 IRadAn=         5 IDoV=-2 UseB2=F ITyADJ=14
 ICtDFT= 12500011 ScaDFX=  1.000000  1.000000  1.000000  1.000000
 Largest valence mixing into a core orbital is  2.07D-04
 Largest core mixing into a valence orbital is  3.59D-05
 Range of M.O.s used for correlation:     5   207
 NBasis=   207 NAE=    16 NBE=    16 NFC=     4 NFV=     0
 NROrb=    203 NOA=    12 NOB=    12 NVA=   191 NVB=   191

 **** Warning!!: The largest alpha MO coefficient is  0.17650978D+02

 Leave Link  801 at Mon Feb 21 20:29:23 2022, MaxMem= 16106127360 cpu:               2.3 elap:               0.1
 (Enter /sw/contrib/gaussian/g16/B01/g16/l906.exe)
 Frozen-core derivative calculation, NFC=   4 NFV=   0.
 FulOut=F Deriv=T AODrv=T NAtomX=     5
   MMem=           0  MDisk=          12 MDiskD=          12
  W3Min=      811440 MinDsk=     2425030 NBas6D=         245
 NBas2D=       30762    NTT=       30135    LW2=     7400000
    MDV= 16105574283 MDiskM=      328644 NBas2p=       30702
 Disk-based method using ON**2 memory for 12 occupieds at a time.
 Permanent disk used for amplitudes=    11516536 words.
 Estimated scratch disk usage=   321251614 words.
 IMap=   1   2   3   4   5   6   7   8   9  10  11  12  13  14  15  16
 Actual    scratch disk usage=   310331678 words.
 JobTyp=1 Pass  1:  I=   5 to  16 NPSUse= 28 ParTrn=T ParDer=T DoDerP=T.
 (rs|ai) integrals will be sorted in core.
 Spin components of T(2) and E(2):
     alpha-alpha T2 =       0.3381039251D-01 E2=     -0.1221805208D+00
     alpha-beta  T2 =       0.1856491864D+00 E2=     -0.6989041838D+00
     beta-beta   T2 =       0.3381039251D-01 E2=     -0.1221805208D+00
 The integrals were generated   1 times.
 ANorm=    0.1119495409D+01
 E2 =    -0.9432652254D+00 EUMP2 =    -0.28044656318087D+03
 Leave Link  906 at Mon Feb 21 20:31:00 2022, MaxMem= 16106127360 cpu:            2702.6 elap:              96.7
 (Enter /sw/contrib/gaussian/g16/B01/g16/l1101.exe)
 Using compressed Sx but separate Hx and Fx, NAtomX=     5.
 Will process      6 centers per pass.
 Leave Link 1101 at Mon Feb 21 20:31:00 2022, MaxMem= 16106127360 cpu:               5.8 elap:               0.2
 (Enter /sw/contrib/gaussian/g16/B01/g16/l1102.exe)
 Leave Link 1102 at Mon Feb 21 20:31:00 2022, MaxMem= 16106127360 cpu:               0.7 elap:               0.0
 (Enter /sw/contrib/gaussian/g16/B01/g16/l1110.exe)
 Forming Gx(P) for the SCF density, NAtomX=     5.
 Integral derivatives from FoFJK, PRISM(SPDF).
 Do as many integral derivatives as possible in FoFJK.
 G2DrvN: MDV=   16106126844.
 G2DrvN: will do     6 centers at a time, making    1 passes.
 Calling FoFCou, ICntrl=  3107 FMM=F I1Cent=   0 AccDes= 0.00D+00.
 FoFJK:  IHMeth= 1 ICntrl=    3107 DoSepK=F KAlg= 0 I1Cent=           0 FoldK=F
 IRaf=         0 NMat=       1 IRICut=       1 DoRegI=T DoRafI=F ISym2E= 1 IDoP0=0 IntGTp=1.
 FoFCou: FMM=F IPFlag=           0 FMFlag=      100000 FMFlg1=           0
         NFxFlg=           0 DoJE=F BraDBF=F KetDBF=F FulRan=T
         wScrn=  0.000000 ICntrl=      3107 IOpCl=  0 I1Cent=           0 NGrid=           0
         NMat0=    1 NMatS0=      1 NMatT0=    0 NMatD0=    1 NMtDS0=    0 NMtDT0=    0
 Petite list used in FoFCou.
 End of G2Drv F.D. properties file   721 does not exist.
 End of G2Drv F.D. properties file   722 does not exist.
 End of G2Drv F.D. properties file   788 does not exist.
 Leave Link 1110 at Mon Feb 21 20:31:03 2022, MaxMem= 16106127360 cpu:              95.4 elap:               3.4
 (Enter /sw/contrib/gaussian/g16/B01/g16/l1002.exe)
 Minotr:  Closed shell wavefunction.
          IDoAtm=11111
          Frozen-core window.
          Direct CPHF calculation.
          Differentiating once with respect to electric field.
                with respect to dipole field.
          Differentiating once with respect to nuclear coordinates.
          Requested convergence is 1.0D-08 RMS, and 1.0D-07 maximum.
          Secondary convergence is 1.0D-12 RMS, and 1.0D-12 maximum.
          NewPWx=T KeepS1=T KeepF1=T KeepIn=T MapXYZ=F SortEE=F KeepMc=T.
 Keep R1 ints in memory in symmetry-blocked form, NReq=348888983.
 FoFCou: FMM=F IPFlag=           0 FMFlag=           0 FMFlg1=           0
         NFxFlg=           0 DoJE=F BraDBF=F KetDBF=F FulRan=T
         wScrn=  0.000000 ICntrl=       600 IOpCl=  0 I1Cent=           0 NGrid=           0
         NMat0=    1 NMatS0=  21528 NMatT0=    0 NMatD0=    1 NMtDS0=    0 NMtDT0=    0
 Petite list used in FoFCou.
          MDV=   16106127360 using IRadAn=       1.
          Solving linear equations simultaneously, MaxMat=       0.
          There are    18 degrees of freedom in the 1st order CPHF.  IDoFFX=6 NUNeed=    18.
     15 vectors produced by pass  0 Test12= 1.70D-14 5.56D-09 XBig12= 8.18D+00 1.09D+00.
 AX will form    15 AO Fock derivatives at one time.
     15 vectors produced by pass  1 Test12= 1.70D-14 5.56D-09 XBig12= 1.29D+00 2.57D-01.
     15 vectors produced by pass  2 Test12= 1.70D-14 5.56D-09 XBig12= 1.35D-01 9.30D-02.
     15 vectors produced by pass  3 Test12= 1.70D-14 5.56D-09 XBig12= 4.68D-03 1.07D-02.
     15 vectors produced by pass  4 Test12= 1.70D-14 5.56D-09 XBig12= 8.99D-05 1.64D-03.
     15 vectors produced by pass  5 Test12= 1.70D-14 5.56D-09 XBig12= 1.29D-06 1.60D-04.
     15 vectors produced by pass  6 Test12= 1.70D-14 5.56D-09 XBig12= 1.03D-08 1.43D-05.
     13 vectors produced by pass  7 Test12= 1.70D-14 5.56D-09 XBig12= 7.48D-11 1.13D-06.
      3 vectors produced by pass  8 Test12= 1.70D-14 5.56D-09 XBig12= 5.27D-13 1.18D-07.
      2 vectors produced by pass  9 Test12= 1.70D-14 5.56D-09 XBig12= 3.52D-15 1.06D-08.
 InvSVY:  IOpt=1 It=  1 EMax= 8.88D-16
 Solved reduced A of dimension   123 with    15 vectors.
 FullF1:  Do perturbations      1 to      18.
 Saving first derivative matrices.
 End of Minotr F.D. properties file   721 does not exist.
 End of Minotr F.D. properties file   722 does not exist.
 End of Minotr F.D. properties file   788 does not exist.
 Leave Link 1002 at Mon Feb 21 20:31:06 2022, MaxMem= 16106127360 cpu:              80.8 elap:               2.9
 (Enter /sw/contrib/gaussian/g16/B01/g16/l811.exe)
 MDV= 16106127360.
 Form MO integral derivatives with frozen-active canonical formalism.
 MOERI=1 MOERIx=1 NAtoms=     5 NAtomX=     5.
 Discarding MO integrals.
 MO basis two electron integral derivatives will not be stored on disk.
 IAlg= 3 DoFC=T DoPWx=T Debug=F.
 Frozen-core window:  NFC=   4 NFV=   0.
 Reordered first order wavefunction length =     18678272
 In DefCFB: NBatch=  1 ICI= 16 ICA=191 LFMax= 96
            Large arrays: LIAPS=   619940160 LIARS=   288257200 words.
 In StABat: MaxSiz= 55 MinSiz= 25 NAtomB=  5
 DoIAMN: NPSUse= 28.
 Leave Link  811 at Mon Feb 21 20:32:29 2022, MaxMem= 16106127360 cpu:            2320.4 elap:              83.1
 (Enter /sw/contrib/gaussian/g16/B01/g16/l804.exe)
 Frozen-core window:  NFC=   4 NFV=   0.
 Closed-shell transformation, MDV= 16106127360 ITran=4 ISComp=1.
 Semi-Direct transformation.
 ModeAB=           2 MOrb=            16 LenV=   16104923023
 LASXX=     67341636 LTotXX=    67341636 LenRXX=    67341636
 LTotAB=    68301760 MaxLAS=    99807120 LenRXY=    99807120
 NonZer=   134683272 LenScr=   202817536 LnRSAI=           0
 LnScr1=           0 LExtra=           0 Total=    369966292
 MaxDsk=          -1 SrtSym=           F ITran=            4
 DoSDTr:  NPSUse= 28
 JobTyp=0 Pass  1:  I=   1 to  16.
 (rs|ai) integrals will be sorted in core.
 Complete sort for first half transformation.
 First half transformation complete.
 Begin second half transformation for I=  10.
 Begin second half transformation for I=  10.
 Complete sort for second half transformation.
 Second half transformation complete.
 Spin components of T(2) and E(2):
     alpha-alpha T2 =       0.3381039251D-01 E2=     -0.1221805208D+00
     alpha-beta  T2 =       0.1856491864D+00 E2=     -0.6989041838D+00
     beta-beta   T2 =       0.3381039251D-01 E2=     -0.1221805208D+00
 ANorm=    0.1583205591D+01
 E2 =    -0.9432652254D+00 EUMP2 =    -0.28044656318087D+03
 Leave Link  804 at Mon Feb 21 20:32:45 2022, MaxMem= 16106127360 cpu:             444.5 elap:              15.9
 (Enter /sw/contrib/gaussian/g16/B01/g16/l1002.exe)
 Minotr:  Closed shell wavefunction.
          Computing MP2/KS-MP2 derivatives.
          Using Z-Vector for PSCF gradient.
          Skipping F1 and S1 gradient terms here.
          IDoAtm=11111
          Frozen-core window.
          Using MO integrals in the linear equations.
          Forming densities via direct SCF.
          Differentiating once with respect to electric field.
                with respect to dipole field.
          Differentiating once with respect to nuclear coordinates.
          Using symmetry in CPHF.
          Requested convergence is 1.0D-10 RMS, and 1.0D-09 maximum.
          NewPWx=F KeepS1=T KeepF1=T KeepIn=T MapXYZ=F SortEE=F KeepMc=T.
          MDV=   16106127360 using IRadAn=       5.
          Solving linear equations separately, MaxMat=       0.
          There are     1 degrees of freedom in the 1st order CPHF.  IDoFFX=0 NUNeed=     1.
 FoFJK:  IHMeth= 1 ICntrl=       0 DoSepK=F KAlg= 0 I1Cent=           0 FoldK=F
 IRaf=         0 NMat=       1 IRICut=       1 DoRegI=T DoRafI=F ISym2E= 0 IDoP0=0 IntGTp=1.
 FoFCou: FMM=F IPFlag=           0 FMFlag=      100000 FMFlg1=           0
         NFxFlg=           0 DoJE=F BraDBF=F KetDBF=F FulRan=T
         wScrn=  0.000000 ICntrl=         0 IOpCl=  0 I1Cent=           0 NGrid=           0
         NMat0=    1 NMatS0=      1 NMatT0=    0 NMatD0=    1 NMtDS0=    0 NMtDT0=    0
 Symmetry not used in FoFCou.
 LinEq1:  Iter=  0 NonCon=     1 RMS=5.90D-03 Max=1.29D-01 NDo=     1
 LinEq1:  Iter=  1 NonCon=     1 RMS=1.87D-03 Max=3.68D-02 NDo=     1
 LinEq1:  Iter=  2 NonCon=     1 RMS=8.47D-04 Max=1.37D-02 NDo=     1
 LinEq1:  Iter=  3 NonCon=     1 RMS=3.74D-04 Max=7.32D-03 NDo=     1
 LinEq1:  Iter=  4 NonCon=     1 RMS=1.16D-04 Max=1.83D-03 NDo=     1
 LinEq1:  Iter=  5 NonCon=     1 RMS=4.22D-05 Max=6.64D-04 NDo=     1
 LinEq1:  Iter=  6 NonCon=     1 RMS=1.89D-05 Max=2.26D-04 NDo=     1
 LinEq1:  Iter=  7 NonCon=     1 RMS=7.56D-06 Max=1.54D-04 NDo=     1
 LinEq1:  Iter=  8 NonCon=     1 RMS=3.23D-06 Max=3.23D-05 NDo=     1
 LinEq1:  Iter=  9 NonCon=     1 RMS=8.84D-07 Max=1.27D-05 NDo=     1
 LinEq1:  Iter= 10 NonCon=     1 RMS=1.74D-07 Max=1.88D-06 NDo=     1
 LinEq1:  Iter= 11 NonCon=     1 RMS=3.27D-08 Max=3.35D-07 NDo=     1
 LinEq1:  Iter= 12 NonCon=     1 RMS=7.82D-09 Max=1.22D-07 NDo=     1
 LinEq1:  Iter= 13 NonCon=     1 RMS=1.40D-09 Max=2.45D-08 NDo=     1
 LinEq1:  Iter= 14 NonCon=     1 RMS=2.55D-10 Max=3.58D-09 NDo=     1
 LinEq1:  Iter= 15 NonCon=     0 RMS=4.71D-11 Max=5.44D-10 NDo=     1
 Linear equations converged to 1.000D-10 1.000D-09 after    15 iterations.
 End of Minotr F.D. properties file   721 does not exist.
 End of Minotr F.D. properties file   722 does not exist.
 End of Minotr F.D. properties file   788 does not exist.
 Leave Link 1002 at Mon Feb 21 20:32:48 2022, MaxMem= 16106127360 cpu:              65.9 elap:               2.4
 (Enter /sw/contrib/gaussian/g16/B01/g16/l1102.exe)
 Use density number 2.
 Symmetrizing basis deriv contribution to polar:
 IMax=3 JMax=2 DiffMx= 0.00D+00
 Leave Link 1102 at Mon Feb 21 20:32:48 2022, MaxMem= 16106127360 cpu:               0.6 elap:               0.1
 (Enter /sw/contrib/gaussian/g16/B01/g16/l1110.exe)
 Forming Gx(P) for generalized density number  2 NAtomX=     5.
 Integral derivatives from FoFJK, PRISM(SPDF).
 Do as many integral derivatives as possible in FoFJK.
 G2DrvN: MDV=   16106126844.
 G2DrvN: will do     6 centers at a time, making    1 passes.
 Calling FoFCou, ICntrl=  3107 FMM=F I1Cent=   0 AccDes= 0.00D+00.
 FoFJK:  IHMeth= 1 ICntrl=    3107 DoSepK=F KAlg= 0 I1Cent=           0 FoldK=F
 IRaf=         0 NMat=       1 IRICut=       1 DoRegI=T DoRafI=F ISym2E= 1 IDoP0=0 IntGTp=1.
 FoFCou: FMM=F IPFlag=           0 FMFlag=      100000 FMFlg1=           0
         NFxFlg=           0 DoJE=F BraDBF=F KetDBF=F FulRan=T
         wScrn=  0.000000 ICntrl=      3107 IOpCl=  0 I1Cent=           0 NGrid=           0
         NMat0=    1 NMatS0=      1 NMatT0=    0 NMatD0=    1 NMtDS0=    0 NMtDT0=    0
 Petite list used in FoFCou.
 End of G2Drv F.D. properties file   721 does not exist.
 End of G2Drv F.D. properties file   722 does not exist.
 End of G2Drv F.D. properties file   788 does not exist.
 Leave Link 1110 at Mon Feb 21 20:32:51 2022, MaxMem= 16106127360 cpu:              83.4 elap:               3.0
 (Enter /sw/contrib/gaussian/g16/B01/g16/l1112.exe)
 MP22nd: MDV=   16106127360
 This link is doing NAtomX=     5 total of    18 degrees of freedom.
 Using ON3 I/O method in MakUI.
 Frozen-core window:  NFC=   4 NFV=   0.
 Using Ix for Sx.
 Use MO integrals over full window.
 Using OV2 memory method for fx*t*t/D, MaxI=    16 DoOO2=F NP=  28.
 R2 and R3 integrals will be kept in memory, NReq=   915591705.
 FoFCou: FMM=F IPFlag=           0 FMFlag=           0 FMFlg1=           0
         NFxFlg=           0 DoJE=F BraDBF=F KetDBF=F FulRan=T
         wScrn=  0.000000 ICntrl=       600 IOpCl=  0 I1Cent=           0 NGrid=           0
         NMat0=    1 NMatS0=      1 NMatT0=    0 NMatD0=    1 NMtDS0=    0 NMtDT0=    0
 Symmetry not used in FoFCou.
 DD1Dir will call FoFMem   1 times, MxPair=       272
 NAB=   136 NAA=     0 NBB=     0.
 Symmetry is being used.
 FoFJK:  IHMeth= 1 ICntrl=       0 DoSepK=F KAlg= 0 I1Cent=           0 FoldK=F
 IRaf=         0 NMat=      18 IRICut=      45 DoRegI=T DoRafI=T ISym2E= 2 IDoP0=3 IntGTp=3.
 Discarding MO integrals.
 Leave Link 1112 at Mon Feb 21 20:33:35 2022, MaxMem= 16106127360 cpu:            1222.1 elap:              44.3
 (Enter /sw/contrib/gaussian/g16/B01/g16/l601.exe)
 Copying SCF densities to generalized density rwf, IOpCl= 0 IROHF=0.

 **********************************************************************

            Population analysis using the MP2 Density.

 **********************************************************************

 Orbital symmetries:
       Occupied  (A') (A') (A') (A') (A') (A') (A') (A') (A') (A')
                 (A") (A') (A") (A') (A") (A')
       Virtual   (A') (A") (A') (A') (A") (A') (A') (A') (A") (A')
                 (A") (A') (A') (A') (A") (A') (A') (A") (A') (A')
                 (A') (A') (A') (A') (A") (A') (A') (A") (A') (A')
                 (A") (A') (A") (A') (A') (A") (A') (A') (A") (A')
                 (A") (A') (A") (A') (A') (A") (A') (A') (A") (A')
                 (A") (A') (A') (A') (A") (A') (A") (A') (A") (A')
                 (A') (A') (A") (A') (A') (A") (A') (A") (A') (A')
                 (A") (A') (A') (A") (A") (A') (A') (A") (A') (A')
                 (A') (A") (A') (A") (A") (A') (A') (A") (A') (A')
                 (A") (A') (A') (A") (A') (A") (A') (A") (A') (A')
                 (A") (A') (A") (A') (A') (A") (A') (A') (A") (A')
                 (A") (A') (A') (A') (A") (A') (A') (A') (A") (A')
                 (A") (A') (A") (A') (A') (A") (A") (A') (A") (A')
                 (A') (A') (A') (A") (A") (A") (A') (A') (A') (A')
                 (A") (A') (A") (A') (A') (A") (A') (A') (A') (A')
                 (A") (A') (A') (A") (A') (A") (A') (A") (A') (A")
                 (A') (A") (A') (A") (A') (A") (A") (A') (A") (A')
                 (A") (A') (A") (A') (A") (A') (A") (A") (A') (A')
                 (A') (A') (A') (A') (A') (A') (A') (A') (A') (A')
                 (A')
 The electronic state is 1-A'.
 Alpha  occ. eigenvalues --  -20.68840 -20.68474 -20.65863 -15.81130  -1.63273
 Alpha  occ. eigenvalues --   -1.49579  -1.25334  -0.94665  -0.77409  -0.76198
 Alpha  occ. eigenvalues --   -0.71409  -0.68057  -0.62248  -0.58872  -0.48432
 Alpha  occ. eigenvalues --   -0.47043
 Alpha virt. eigenvalues --    0.02991   0.07491   0.08576   0.10172   0.13376
 Alpha virt. eigenvalues --    0.13409   0.14431   0.15479   0.17845   0.19405
 Alpha virt. eigenvalues --    0.20020   0.20637   0.22116   0.23633   0.23746
 Alpha virt. eigenvalues --    0.26617   0.29450   0.30430   0.31096   0.34331
 Alpha virt. eigenvalues --    0.35010   0.38763   0.42250   0.43180   0.52712
 Alpha virt. eigenvalues --    0.53060   0.55906   0.58188   0.63147   0.63797
 Alpha virt. eigenvalues --    0.67121   0.68531   0.70651   0.71144   0.72448
 Alpha virt. eigenvalues --    0.73004   0.74466   0.79212   0.79272   0.80998
 Alpha virt. eigenvalues --    0.81368   0.83340   0.86912   0.90928   0.92293
 Alpha virt. eigenvalues --    0.92729   0.95718   0.97978   0.98555   1.01699
 Alpha virt. eigenvalues --    1.05270   1.05582   1.08464   1.11914   1.14221
 Alpha virt. eigenvalues --    1.19016   1.22228   1.23425   1.33964   1.35115
 Alpha virt. eigenvalues --    1.38795   1.45406   1.48833   1.51032   1.53831
 Alpha virt. eigenvalues --    1.56690   1.57950   1.61406   1.66656   1.67028
 Alpha virt. eigenvalues --    1.70292   1.79369   1.83035   1.83507   1.88116
 Alpha virt. eigenvalues --    1.90975   1.95339   1.99493   2.00579   2.07833
 Alpha virt. eigenvalues --    2.12132   2.13310   2.15107   2.22501   2.26531
 Alpha virt. eigenvalues --    2.26581   2.29056   2.31562   2.34744   2.38710
 Alpha virt. eigenvalues --    2.42685   2.43138   2.45450   2.46423   2.47842
 Alpha virt. eigenvalues --    2.50330   2.59100   2.59886   2.62294   2.62893
 Alpha virt. eigenvalues --    2.63608   2.67093   2.76165   2.82954   2.85973
 Alpha virt. eigenvalues --    2.88935   2.89709   2.92826   2.96076   3.02755
 Alpha virt. eigenvalues --    3.06649   3.12525   3.20564   3.22956   3.31876
 Alpha virt. eigenvalues --    3.34339   3.52162   3.64432   3.83980   3.84765
 Alpha virt. eigenvalues --    4.15005   4.16465   4.18554   4.28282   4.35299
 Alpha virt. eigenvalues --    4.39495   4.46618   4.52153   4.67498   4.71262
 Alpha virt. eigenvalues --    4.81020   4.82700   4.83195   4.89527   5.02161
 Alpha virt. eigenvalues --    5.07850   5.10763   5.13905   5.18226   5.24643
 Alpha virt. eigenvalues --    5.27309   5.30691   5.33140   5.36624   5.60835
 Alpha virt. eigenvalues --    5.69131   5.78000   5.83381   5.95472   6.17146
 Alpha virt. eigenvalues --    6.31081   6.33944   6.39601   6.49363   6.50559
 Alpha virt. eigenvalues --    6.61534   6.66943   6.70393   6.75953   6.76535
 Alpha virt. eigenvalues --    6.83917   6.90222   7.01710   7.05894   7.05964
 Alpha virt. eigenvalues --    7.09175   7.12981   7.15262   7.18314   7.23286
 Alpha virt. eigenvalues --    7.24406   7.31242   7.34462   7.35539   7.41102
 Alpha virt. eigenvalues --    7.43338   7.48595   7.61033   7.63324   7.64240
 Alpha virt. eigenvalues --    7.66922   7.79834   7.90439   8.09779   8.31910
 Alpha virt. eigenvalues --    8.41055   8.54691  13.41012  14.47735  15.16674
 Alpha virt. eigenvalues --   16.48097
          Condensed to atoms (all electrons):
               1          2          3          4          5
     1  H    0.589809   0.128396   0.020043   0.012503  -0.000652
     2  O    0.128396   8.322805  -0.173836  -0.090462   0.015541
     3  O    0.020043  -0.173836   8.478727  -0.134381  -0.041051
     4  N    0.012503  -0.090462  -0.134381   6.976081  -0.056530
     5  O   -0.000652   0.015541  -0.041051  -0.056530   8.273432
 Mulliken charges:
               1
     1  H    0.249901
     2  O   -0.202445
     3  O   -0.149503
     4  N    0.292788
     5  O   -0.190742
 Sum of Mulliken charges =  -0.00000
 Mulliken charges with hydrogens summed into heavy atoms:
               1
     2  O    0.047456
     3  O   -0.149503
     4  N    0.292788
     5  O   -0.190742
 APT charges:
               1
     1  H    0.298628
     2  O   -0.288103
     3  O   -0.502033
     4  N    0.890998
     5  O   -0.399490
 Sum of APT charges =  -0.00000
 APT charges with hydrogens summed into heavy atoms:
               1
     2  O    0.010524
     3  O   -0.502033
     4  N    0.890998
     5  O   -0.399490
 Electronic spatial extent (au):  <R**2>=            251.9171
 Charge=              0.0000 electrons
 Dipole moment (field-independent basis, Debye):
    X=              0.4679    Y=              1.3141    Z=              0.0000  Tot=              1.3949
 Quadrupole moment (field-independent basis, Debye-Ang):
   XX=            -22.4128   YY=            -18.6158   ZZ=            -21.9929
   XY=              3.2919   XZ=             -0.0000   YZ=              0.0000
 Traceless Quadrupole moment (field-independent basis, Debye-Ang):
   XX=             -1.4056   YY=              2.3914   ZZ=             -0.9857
   XY=              3.2919   XZ=             -0.0000   YZ=              0.0000
 Octapole moment (field-independent basis, Debye-Ang**2):
  XXX=              2.7763  YYY=             11.0394  ZZZ=             -0.0000  XYY=              7.8132
  XXY=              6.5430  XXZ=              0.0000  XZZ=             -1.6135  YZZ=             -0.8895
  YYZ=              0.0000  XYZ=              0.0000
 Hexadecapole moment (field-independent basis, Debye-Ang**3):
 XXXX=           -158.0298 YYYY=            -89.0345 ZZZZ=            -18.2256 XXXY=            -36.2913
 XXXZ=             -0.0000 YYYX=            -30.4156 YYYZ=             -0.0000 ZZZX=             -0.0000
 ZZZY=             -0.0000 XXYY=            -33.7437 XXZZ=            -30.8084 YYZZ=            -20.5163
 XXYZ=             -0.0000 YYXZ=             -0.0000 ZZXY=            -14.9306
 N-N= 1.171924605116D+02 E-N=-8.965236191805D+02  KE= 2.802429368278D+02
 Symmetry A'   KE= 2.662669836562D+02
 Symmetry A"   KE= 1.397595317153D+01
  Exact polarizability:  33.892   9.358  30.114   0.000  -0.000  17.908
 Approx polarizability:  28.781   5.023  23.432   0.000   0.000  15.477
 No NMR shielding tensors so no spin-rotation constants.
 Leave Link  601 at Mon Feb 21 20:33:36 2022, MaxMem= 16106127360 cpu:               5.8 elap:               0.3
 (Enter /sw/contrib/gaussian/g16/B01/g16/l701.exe)
 ... and contract with generalized density number  2.
 Compute integral second derivatives.
 Leave Link  701 at Mon Feb 21 20:33:36 2022, MaxMem= 16106127360 cpu:               6.6 elap:               0.3
 (Enter /sw/contrib/gaussian/g16/B01/g16/l702.exe)
 L702 exits ... SP integral derivatives will be done elsewhere.
 Leave Link  702 at Mon Feb 21 20:33:36 2022, MaxMem= 16106127360 cpu:               0.5 elap:               0.0
 (Enter /sw/contrib/gaussian/g16/B01/g16/l703.exe)
 Integral derivatives from FoFJK, PRISM(SPDF).
 Compute integral second derivatives, UseDBF=F ICtDFT=           0.
 Calling FoFJK, ICntrl=  10100127 FMM=F ISym2X=1 I1Cent= 0 IOpClX= 0 NMat=1 NMatS=1 NMatT=0.
 FoFJK:  IHMeth= 1 ICntrl=10100127 DoSepK=F KAlg= 0 I1Cent=           0 FoldK=F
 IRaf=         0 NMat=       1 IRICut=       1 DoRegI=T DoRafI=F ISym2E= 1 IDoP0=0 IntGTp=1.
 FoFCou: FMM=F IPFlag=           0 FMFlag=      100000 FMFlg1=         800
         NFxFlg=           0 DoJE=F BraDBF=F KetDBF=F FulRan=T
         wScrn=  0.000000 ICntrl=  10100127 IOpCl=  0 I1Cent=           0 NGrid=           0
         NMat0=    1 NMatS0=      1 NMatT0=    0 NMatD0=    1 NMtDS0=    0 NMtDT0=    0
 Petite list used in FoFCou.
 Leave Link  703 at Mon Feb 21 20:33:51 2022, MaxMem= 16106127360 cpu:             421.4 elap:              15.1
 (Enter /sw/contrib/gaussian/g16/B01/g16/l716.exe)
 Dipole        = 1.84096942D-01 5.17002767D-01 1.94293870D-32
 Polarizability= 3.38915380D+01 9.35791125D+00 3.01139230D+01
                 1.85243859D-30-1.00424804D-30 1.79084060D+01
 Full mass-weighted force constant matrix:
 Low frequencies --- -268.2186 -108.7152  -57.5159  -40.3344   -0.0012   -0.0007
 Low frequencies ---   -0.0004  196.4171  332.4684
 ******    1 imaginary frequencies (negative Signs) ****** 
 Diagonal vibrational polarizability:
       13.8559644      24.3976703      47.6846842
 Harmonic frequencies (cm**-1), IR intensities (KM/Mole), Raman scattering
 activities (A**4/AMU), depolarization ratios for plane and unpolarized
 incident light, reduced masses (AMU), force constants (mDyne/A),
 and normal coordinates:
                      1                      2                      3
                     A"                     A"                     A'
 Frequencies --   -267.8704               188.3342               332.1854
 Red. masses --      1.1531                 9.4418                 8.7419
 Frc consts  --      0.0488                 0.1973                 0.5683
 IR Inten    --    123.8569                 1.6248                 2.6454
  Atom  AN      X      Y      Z        X      Y      Z        X      Y      Z
     1   1    -0.00   0.00   0.99    -0.00   0.00  -0.64     0.52  -0.45   0.00
     2   8    -0.00   0.00  -0.07    -0.00   0.00  -0.28    -0.10  -0.38  -0.00
     3   8     0.00  -0.00  -0.04    -0.00  -0.00   0.31    -0.15   0.42   0.00
     4   7     0.00  -0.00   0.06     0.00  -0.00   0.49     0.05   0.28   0.00
     5   8    -0.00   0.00  -0.01     0.00   0.00  -0.42     0.17  -0.25  -0.00
                      4                      5                      6
                     A'                     A'                     A'
 Frequencies --    457.7292               784.5616               968.3728
 Red. masses --     12.1764                12.6803                15.4040
 Frc consts  --      1.5031                 4.5987                 8.5108
 IR Inten    --    200.6865               171.3115                21.2100
  Atom  AN      X      Y      Z        X      Y      Z        X      Y      Z
     1   1     0.43   0.17  -0.00    -0.36   0.20  -0.00    -0.17  -0.04   0.00
     2   8     0.32   0.19  -0.00     0.42   0.09  -0.00    -0.52   0.03   0.00
     3   8     0.17   0.45   0.00    -0.06  -0.28   0.00     0.75  -0.02  -0.00
     4   7    -0.34  -0.39   0.00    -0.15   0.61   0.00    -0.12   0.24  -0.00
     5   8    -0.21  -0.31  -0.00    -0.21  -0.36  -0.00    -0.11  -0.22   0.00
                      7                      8                      9
                     A'                     A'                     A'
 Frequencies --   1371.9566              1745.9171              3778.6030
 Red. masses --      1.1298                13.8677                 1.0675
 Frc consts  --      1.2529                24.9059                 8.9804
 IR Inten    --    148.1972               165.3857                81.7400
  Atom  AN      X      Y      Z        X      Y      Z        X      Y      Z
     1   1     0.99  -0.06   0.00    -0.27   0.00  -0.00     0.11   0.99  -0.00
     2   8    -0.03   0.05   0.00    -0.00  -0.03  -0.00    -0.01  -0.06   0.00
     3   8    -0.02  -0.05  -0.00     0.00   0.14   0.00     0.00   0.00   0.00
     4   7     0.01   0.01  -0.00     0.72  -0.04   0.00    -0.00  -0.00  -0.00
     5   8    -0.03  -0.01   0.00    -0.61  -0.07  -0.00     0.00   0.00  -0.00

 -------------------
 - Thermochemistry -
 -------------------
 Temperature   298.150 Kelvin.  Pressure   1.00000 Atm.
 Atom     1 has atomic number  1 and mass   1.00783
 Atom     2 has atomic number  8 and mass  15.99491
 Atom     3 has atomic number  8 and mass  15.99491
 Atom     4 has atomic number  7 and mass  14.00307
 Atom     5 has atomic number  8 and mass  15.99491
 Molecular mass:    62.99564 amu.
 Principal axes and moments of inertia in atomic units:
                           1         2         3
     Eigenvalues --    32.79821 358.37610 391.17430
           X            0.81152  -0.58432   0.00000
           Y            0.58432   0.81152   0.00000
           Z           -0.00000   0.00000   1.00000
 This molecule is an asymmetric top.
 Rotational symmetry number  1.
 Rotational temperatures (Kelvin)      2.64081     0.24168     0.22142
 Rotational constants (GHZ):          55.02561     5.03589     4.61365
    1 imaginary frequencies ignored.
 Zero-point vibrational energy      57586.2 (Joules/Mol)
                                   13.76343 (Kcal/Mol)
 Warning -- explicit consideration of   3 degrees of freedom as
           vibrations may cause significant error
 Vibrational temperatures:    270.97   477.94   658.57  1128.81  1393.27
          (Kelvin)           1973.94  2511.99  5436.57
 
 Zero-point correction=                           0.021933 (Hartree/Particle)
 Thermal correction to Energy=                    0.026119
 Thermal correction to Enthalpy=                  0.027063
 Thermal correction to Gibbs Free Energy=        -0.004298
 Sum of electronic and zero-point Energies=           -280.424630
 Sum of electronic and thermal Energies=              -280.420445
 Sum of electronic and thermal Enthalpies=            -280.419500
 Sum of electronic and thermal Free Energies=         -280.450861
 
                     E (Thermal)             CV                S
                      KCal/Mol        Cal/Mol-Kelvin    Cal/Mol-Kelvin
 Total                   16.390             12.010             66.004
 Electronic               0.000              0.000              0.000
 Translational            0.889              2.981             38.341
 Rotational               0.889              2.981             23.046
 Vibrational             14.612              6.048              4.617
 Vibration     1          0.633              1.856              2.244
 Vibration     2          0.714              1.611              1.249
 Vibration     3          0.816              1.344              0.773
                       Q            Log10(Q)             Ln(Q)
 Total Bot       0.947874D+02          1.976751          4.551636
 Total V=0       0.116256D+13         12.065416         27.781647
 Vib (Bot)       0.198704D-09         -9.701794        -22.339207
 Vib (Bot)    1  0.106333D+01          0.026667          0.061403
 Vib (Bot)    2  0.561718D+00         -0.250482         -0.576756
 Vib (Bot)    3  0.372287D+00         -0.429122         -0.988089
 Vib (V=0)       0.243709D+01          0.386871          0.890803
 Vib (V=0)    1  0.167502D+01          0.224019          0.515823
 Vib (V=0)    2  0.125202D+01          0.097610          0.224754
 Vib (V=0)    3  0.112338D+01          0.050525          0.116339
 Electronic      0.100000D+01          0.000000          0.000000
 Translational   0.196526D+08          7.293420         16.793719
 Rotational      0.242731D+05          4.385125         10.097124
 
                                                                title
                                                             IR Spectrum
 
     3                                                                    1           1                                              
     7                                                                    7           3             9     7          4   3    1      
     7                                                                    4           7             6     8          5   3    8      
     9                                                                    6           2             8     5          8   2    8      
 
     X                                                                    X           X             X     X          X   X    X      
     X                                                                    X           X             X     X          X               
     X                                                                    X           X                   X          X               
     X                                                                    X           X                   X          X               
     X                                                                    X           X                   X          X               
     X                                                                    X           X                   X          X               
     X                                                                    X           X                   X          X               
     X                                                                    X           X                   X          X               
                                                                          X           X                   X          X               
                                                                          X           X                   X          X               
                                                                          X           X                   X          X               
                                                                          X           X                   X          X               
                                                                          X           X                   X          X               
                                                                          X           X                   X          X               
                                                                          X           X                   X          X               
                                                                          X                               X          X               
                                                                                                          X          X               
                                                                                                                     X               
                                                                                                                     X               
                                                                                                                     X               
 
 ***** Axes restored to original set *****
 -------------------------------------------------------------------
 Center     Atomic                   Forces (Hartrees/Bohr)
 Number     Number              X              Y              Z
 -------------------------------------------------------------------
      1        1           0.000015103    0.000000000    0.000073431
      2        8           0.000129443   -0.000000000   -0.000183442
      3        8          -0.001120342   -0.000000000   -0.002808903
      4        7          -0.015469242    0.000000000   -0.002066080
      5        8           0.016445037   -0.000000000    0.004984994
 -------------------------------------------------------------------
 Cartesian Forces:  Max     0.016445037 RMS     0.006044594
 -----------------------------------------------------------------------------------------------
                       Internal Coordinate Forces (Hartree/Bohr or radian)
  Cent   Atom   N1       Length/X         N2         Alpha/Y        N3         Beta/Z          J
 -----------------------------------------------------------------------------------------------
      1  H 
      2  O        1  -0.000073(     1)
      3  O        2  -0.000129(     2)      1  -0.000028(     5)
      4  N        3   0.002989(     3)      2   0.000380(     6)      1  -0.000000(     8)     0
      5  O        4   0.017168(     4)      3   0.001641(     7)      2  -0.000000(     9)     0
 -----------------------------------------------------------------------------------------------
 Internal  Forces:  Max     0.017167675 RMS     0.005835948
 Force constants in Cartesian coordinates: 
                1             2             3             4             5 
      1  0.645967D-01
      2  0.000000D+00 -0.229962D-02
      3  0.534545D-02  0.000000D+00  0.512336D+00
      4 -0.356614D-01  0.000000D+00 -0.163840D-01  0.273097D+00
      5  0.000000D+00  0.297532D-02  0.000000D+00  0.000000D+00  0.217366D-02
      6  0.480988D-01  0.000000D+00 -0.508499D+00  0.338666D-01  0.000000D+00
      7 -0.184508D-01  0.000000D+00  0.125992D-01 -0.220573D+00  0.000000D+00
      8  0.000000D+00  0.999872D-03  0.000000D+00  0.000000D+00 -0.661456D-02
      9 -0.531105D-01  0.000000D+00 -0.496069D-03 -0.197822D-01  0.000000D+00
     10 -0.924624D-02  0.000000D+00 -0.493883D-02 -0.172622D-01  0.000000D+00
     11  0.000000D+00 -0.271389D-02  0.000000D+00  0.000000D+00 -0.492426D-02
     12  0.554072D-02  0.000000D+00 -0.473906D-02  0.117867D-01  0.000000D+00
     13 -0.123823D-02  0.000000D+00  0.337824D-02  0.399788D-03  0.000000D+00
     14  0.000000D+00  0.103832D-02  0.000000D+00  0.000000D+00  0.638983D-02
     15 -0.587449D-02  0.000000D+00  0.139827D-02 -0.948703D-02  0.000000D+00
                6             7             8             9            10 
      6  0.594319D+00
      7 -0.213001D-01  0.342207D+00
      8  0.000000D+00  0.000000D+00  0.329780D-02
      9 -0.783733D-01  0.372801D-01  0.000000D+00  0.183149D+00
     10 -0.525219D-01 -0.780084D-01  0.000000D+00  0.178055D+00  0.893750D+00
     11  0.000000D+00  0.000000D+00  0.924024D-02  0.000000D+00  0.000000D+00
     12  0.177530D-01  0.639847D-01  0.000000D+00 -0.825442D-01 -0.427176D-02
     13 -0.814341D-02 -0.251747D-01  0.000000D+00 -0.142442D+00 -0.789233D+00
     14  0.000000D+00  0.000000D+00 -0.692334D-02  0.000000D+00  0.000000D+00
     15 -0.252000D-01 -0.925639D-01  0.000000D+00 -0.217356D-01 -0.116322D+00
               11            12            13            14            15 
     11  0.744647D-03
     12  0.000000D+00  0.185602D+00
     13  0.000000D+00 -0.770404D-01  0.815246D+00
     14 -0.234674D-02  0.000000D+00  0.000000D+00  0.184193D-02
     15  0.000000D+00 -0.116071D+00  0.224248D+00  0.000000D+00  0.161609D+00
 Force constants in internal coordinates: 
                1             2             3             4             5 
      1  0.512336D+00
      2 -0.104346D-01  0.281868D+00
      3  0.345748D-02  0.237546D-02  0.119520D+00
      4 -0.361955D-02  0.597403D-02  0.157646D+00  0.882808D+00
      5  0.980319D-02  0.654528D-01  0.218320D-02  0.486547D-02  0.216454D+00
      6  0.466458D-02  0.589602D-01  0.409178D-01  0.221300D-01  0.309927D-01
      7 -0.113200D-02  0.382281D-01  0.342104D-01  0.858967D-01  0.216148D-01
      8  0.000000D+00  0.000000D+00  0.000000D+00  0.000000D+00  0.000000D+00
      9  0.000000D+00  0.000000D+00  0.000000D+00  0.000000D+00  0.000000D+00
                6             7             8             9 
      6  0.281796D+00
      7  0.974037D-01  0.489748D+00
      8  0.000000D+00  0.000000D+00 -0.770358D-02
      9  0.000000D+00  0.000000D+00 -0.390465D-02  0.410255D-01
 Leave Link  716 at Mon Feb 21 20:33:51 2022, MaxMem= 16106127360 cpu:               2.3 elap:               0.1
 (Enter /sw/contrib/gaussian/g16/B01/g16/l103.exe)

 GradGradGradGradGradGradGradGradGradGradGradGradGradGradGradGradGradGrad
 Berny optimization.
 Search for a local minimum.
 Step number   1 out of a maximum of    2
 All quantities printed in internal units (Hartrees-Bohrs-Radians)
 Second derivative matrix not updated -- analytic derivatives used.
 The second derivative matrix:
                          r1        r2        r3        r4        a1
           r1           0.51234
           r2          -0.01043   0.28187
           r3           0.00346   0.00238   0.11952
           r4          -0.00362   0.00597   0.15765   0.88281
           a1           0.00980   0.06545   0.00218   0.00487   0.21645
           a2           0.00466   0.05896   0.04092   0.02213   0.03099
           a3          -0.00113   0.03823   0.03421   0.08590   0.02161
           d1           0.00000   0.00000  -0.00000  -0.00000   0.00000
           d2           0.00000   0.00000  -0.00000  -0.00000   0.00000
                          a2        a3        d1        d2
           a2           0.28180
           a3           0.09740   0.48975
           d1           0.00000   0.00000  -0.00770
           d2           0.00000   0.00000  -0.00390   0.04103
 ITU=  0
     Eigenvalues ---   -0.00801   0.04134   0.08129   0.17513   0.22479
     Eigenvalues ---    0.32562   0.51303   0.52731   0.93735
 Eigenvalue     1 is  -8.01D-03 should be greater than     0.000000 Eigenvector:
                          d1        d2        r3        a2        a3
   1                    0.99685   0.07937   0.00000  -0.00000  -0.00000
                          a1        r4        r1        r2
   1                    0.00000  -0.00000  -0.00000  -0.00000
 Angle between quadratic step and forces=  13.71 degrees.
 Linear search not attempted -- first point.
 Variable       Old X    -DE/DX   Delta X   Delta X   Delta X     New X
                                 (Linear)    (Quad)   (Total)
    r1        1.83110  -0.00007   0.00000  -0.00001  -0.00001   1.83109
    r2        2.74940  -0.00013   0.00000  -0.00082  -0.00082   2.74858
    r3        2.75670   0.00299   0.00000  -0.00088  -0.00088   2.75582
    r4        2.19254   0.01717   0.00000   0.01961   0.01961   2.21214
    a1        1.70335  -0.00003   0.00000  -0.00033  -0.00033   1.70302
    a2        1.78543   0.00038   0.00000   0.00014   0.00014   1.78556
    a3        1.90362   0.00164   0.00000   0.00003   0.00003   1.90365
    d1        3.14159  -0.00000   0.00000   0.00000   0.00000   3.14159
    d2        3.14159  -0.00000   0.00000  -0.00000   0.00000   3.14159
         Item               Value     Threshold  Converged?
 Maximum Force            0.017168     0.000450     NO 
 RMS     Force            0.005836     0.000300     NO 
 Maximum Displacement     0.019606     0.001800     NO 
 RMS     Displacement     0.006549     0.001200     NO 
 Predicted change in Energy=-1.670779D-04
                       ----------------------------
                       ! Non-Optimized Parameters !
                       ! (Angstroms and Degrees)  !
 ----------------------                            ----------------------
 !      Name          Value   Derivative information (Atomic Units)     !
 ------------------------------------------------------------------------
 !       r1          0.969    -DE/DX =   -0.0001                        !
 !       r2          1.4545   -DE/DX =   -0.0001                        !
 !       r3          1.4583   -DE/DX =    0.003                         !
 !       r4          1.1706   -DE/DX =    0.0172                        !
 !       a1         97.5759   -DE/DX =    0.0                           !
 !       a2        102.3053   -DE/DX =    0.0004                        !
 !       a3        109.071    -DE/DX =    0.0016                        !
 !       d1        180.0      -DE/DX =    0.0                           !
 !       d2        180.0      -DE/DX =    0.0                           !
 ------------------------------------------------------------------------
 GradGradGradGradGradGradGradGradGradGradGradGradGradGradGradGradGradGrad

 Leave Link  103 at Mon Feb 21 20:33:51 2022, MaxMem= 16106127360 cpu:               1.3 elap:               0.1
 (Enter /sw/contrib/gaussian/g16/B01/g16/l9999.exe)

 ----------------------------------------------------------------------

 Electric dipole moment (input orientation):
 (Debye = 10**-18 statcoulomb cm , SI units = C m)
                  (au)            (Debye)         (10**-30 SI)
   Tot        0.548802D+00      0.139492D+01      0.465294D+01
   x         -0.130443D+00     -0.331552D+00     -0.110594D+01
   y          0.000000D+00      0.000000D+00      0.000000D+00
   z         -0.533074D+00     -0.135494D+01     -0.451959D+01

 Dipole polarizability, Alpha (input orientation).
 (esu units = cm**3 , SI units = C**2 m**2 J**-1)
 Alpha(0;0):
               (au)            (10**-24 esu)      (10**-40 SI)
   iso        0.273046D+02      0.404613D+01      0.450192D+01
   aniso      0.217270D+02      0.321962D+01      0.358231D+01
   xx         0.319546D+02      0.473519D+01      0.526860D+01
   yx         0.000000D+00      0.000000D+00      0.000000D+00
   yy         0.179084D+02      0.265375D+01      0.295270D+01
   zx         0.954651D+01      0.141465D+01      0.157401D+01
   zy         0.000000D+00      0.000000D+00      0.000000D+00
   zz         0.320508D+02      0.474945D+01      0.528447D+01

 ----------------------------------------------------------------------

 Dipole orientation:
     1         -0.00000000          0.00000000          0.00000000
     8         -0.43522656          0.00000000         -1.77862287
     8          2.12557994          0.00000000         -2.77935515
     7          1.69208270          0.00000000         -5.50175997
     8          3.62587402          0.00000000         -6.53504520

 Electric dipole moment (dipole orientation):
 (Debye = 10**-18 statcoulomb cm , SI units = C m)
                  (au)            (Debye)         (10**-30 SI)
   Tot        0.548802D+00      0.139492D+01      0.465294D+01
   x          0.000000D+00      0.000000D+00      0.000000D+00
   y          0.000000D+00      0.000000D+00      0.000000D+00
   z          0.548802D+00      0.139492D+01      0.465294D+01

 Dipole polarizability, Alpha (dipole orientation).
 (esu units = cm**3 , SI units = C**2 m**2 J**-1)
 Alpha(0;0):
               (au)            (10**-24 esu)      (10**-40 SI)
   iso        0.273046D+02      0.404613D+01      0.450192D+01
   aniso      0.217270D+02      0.321962D+01      0.358231D+01
   xx         0.275520D+02      0.408278D+01      0.454270D+01
   yx         0.000000D+00      0.000000D+00      0.000000D+00
   yy         0.179084D+02      0.265375D+01      0.295270D+01
   zx        -0.844564D+01     -0.125151D+01     -0.139250D+01
   zy         0.000000D+00      0.000000D+00      0.000000D+00
   zz         0.364535D+02      0.540185D+01      0.601037D+01

 ----------------------------------------------------------------------
 1\1\GINC-N2127\Freq\RMP2-FC\Aug-CC-pVTZ\H1N1O3\CGAVINH\21-Feb-2022\1\\
 #p freq mp2/aug-cc-pvtz density=current\\title\\0,1\H\O,1,r1\O,2,r2,1,
 a1\N,3,r3,2,a2,1,d1,0\O,4,r4,3,a3,2,d2,0\\r1=0.96897556\r2=1.45491931\
 r3=1.45878406\r4=1.16024167\a1=97.59494903\a2=102.29752444\a3=109.0695
 5123\d1=180.\d2=180.\\Version=ES64L-G16RevB.01\State=1-A'\HF=-279.5032
 98\MP2=-280.4465632\RMSD=3.516e-09\RMSF=6.045e-03\ZeroPoint=0.0219334\
 Thermal=0.0261186\Dipole=-0.1304426,0.,-0.5330744\DipoleDeriv=0.266334
 1,0.,0.0481238,0.,0.3552017,0.,0.0814474,0.,0.2743471,-0.3261198,0.,-0
 .2048329,0.,-0.315224,0.,-0.1100047,0.,-0.2229664,-0.0534455,0.,0.1462
 545,0.,-0.0910524,0.,-0.7546389,0.,-1.3616011,0.9233204,0.,0.9348211,0
 .,0.0666281,0.,0.9326056,0.,1.6830465,-0.8100892,0.,-0.9243665,0.,-0.0
 155534,0.,-0.1494093,0.,-0.3728261\Polar=31.9546139,0.,17.908406,9.546
 5062,0.,32.0508471\Quadrupole=-1.5120546,-0.732868,2.2449226,0.,2.1103
 794,0.\PG=CS [SG(H1N1O3)]\NImag=1\\0.06459669,0.,-0.00229962,0.0053454
 5,0.,0.51233554,-0.03566143,0.,-0.01638404,0.27309699,0.,0.00297532,0.
 ,0.,0.00217366,0.04809878,0.,-0.50849868,0.03386656,0.,0.59431901,-0.0
 1845079,0.,0.01259919,-0.22057312,0.,-0.02130006,0.34220699,0.,0.00099
 987,0.,0.,-0.00661456,0.,0.,0.00329780,-0.05311045,0.,-0.00049607,-0.0
 1978222,0.,-0.07837333,0.03728005,0.,0.18314919,-0.00924624,0.,-0.0049
 3883,-0.01726223,0.,-0.05252187,-0.07800836,0.,0.17805466,0.89374972,0
 .,-0.00271389,0.,0.,-0.00492426,0.,0.,0.00924024,0.,0.,0.00074465,0.00
 554072,0.,-0.00473906,0.01178673,0.,0.01775301,0.06398467,0.,-0.082544
 21,-0.00427176,0.,0.18560175,-0.00123823,0.,0.00337824,0.00039979,0.,-
 0.00814341,-0.02517472,0.,-0.14244203,-0.78923290,0.,-0.07704036,0.815
 24607,0.,0.00103832,0.,0.,0.00638983,0.,0.,-0.00692334,0.,0.,-0.002346
 74,0.,0.,0.00184193,-0.00587449,0.,0.00139827,-0.00948703,0.,-0.025200
 01,-0.09256386,0.,-0.02173558,-0.11632219,0.,-0.11607149,0.22424757,0.
 ,0.16160881\\-0.00001510,0.,-0.00007343,-0.00012944,0.,0.00018344,0.00
 112034,0.,0.00280890,0.01546924,0.,0.00206608,-0.01644504,0.,-0.004984
 99\\\@


 ERWIN WITH HIS PSI CAN DO
 CALCULATIONS QUITE A FEW.
 BUT ONE THING HAS NOT BEEN SEEN
 JUST WHAT DOES PSI REALLY MEAN.
 -- WALTER HUCKEL, TRANS. BY FELIX BLOCH
 Job cpu time:       0 days  2 hours  5 minutes 43.4 seconds.
 Elapsed time:       0 days  0 hours  4 minutes 33.0 seconds.
 File lengths (MBytes):  RWF=   7239 Int=      0 D2E=      0 Chk=      8 Scr=      1
 Normal termination of Gaussian 16 at Mon Feb 21 20:33:52 2022.
