 Entering Gaussian System, Link 0=g16
 Input=hoono_a3_110p0337.gjf
 Output=hoono_a3_110p0337.log
 Initial command:
 /sw/contrib/gaussian/g16/B01/g16/l1.exe "/scr/Gau-30293.inp" -scrdir="/scr/"
 Entering Link 1 = /sw/contrib/gaussian/g16/B01/g16/l1.exe PID=     30294.
  
 Copyright (c) 1988-2017, Gaussian, Inc.  All Rights Reserved.
  
 This is part of the Gaussian(R) 16 program.  It is based on
 the Gaussian(R) 09 system (copyright 2009, Gaussian, Inc.),
 the Gaussian(R) 03 system (copyright 2003, Gaussian, Inc.),
 the Gaussian(R) 98 system (copyright 1998, Gaussian, Inc.),
 the Gaussian(R) 94 system (copyright 1995, Gaussian, Inc.),
 the Gaussian 92(TM) system (copyright 1992, Gaussian, Inc.),
 the Gaussian 90(TM) system (copyright 1990, Gaussian, Inc.),
 the Gaussian 88(TM) system (copyright 1988, Gaussian, Inc.),
 the Gaussian 86(TM) system (copyright 1986, Carnegie Mellon
 University), and the Gaussian 82(TM) system (copyright 1983,
 Carnegie Mellon University). Gaussian is a federally registered
 trademark of Gaussian, Inc.
  
 This software contains proprietary and confidential information,
 including trade secrets, belonging to Gaussian, Inc.
  
 This software is provided under written license and may be
 used, copied, transmitted, or stored only in accord with that
 written license.
  
 The following legend is applicable only to US Government
 contracts under FAR:
  
                    RESTRICTED RIGHTS LEGEND
  
 Use, reproduction and disclosure by the US Government is
 subject to restrictions as set forth in subparagraphs (a)
 and (c) of the Commercial Computer Software - Restricted
 Rights clause in FAR 52.227-19.
  
 Gaussian, Inc.
 340 Quinnipiac St., Bldg. 40, Wallingford CT 06492
  
  
 ---------------------------------------------------------------
 Warning -- This program may not be used in any manner that
 competes with the business of Gaussian, Inc. or will provide
 assistance to any competitor of Gaussian, Inc.  The licensee
 of this program is prohibited from giving any competitor of
 Gaussian, Inc. access to this program.  By using this program,
 the user acknowledges that Gaussian, Inc. is engaged in the
 business of creating and licensing software in the field of
 computational chemistry and represents and warrants to the
 licensee that it is not a competitor of Gaussian, Inc. and that
 it will not use this program in any manner prohibited above.
 ---------------------------------------------------------------
  

 Cite this work as:
 Gaussian 16, Revision B.01,
 M. J. Frisch, G. W. Trucks, H. B. Schlegel, G. E. Scuseria, 
 M. A. Robb, J. R. Cheeseman, G. Scalmani, V. Barone, 
 G. A. Petersson, H. Nakatsuji, X. Li, M. Caricato, A. V. Marenich, 
 J. Bloino, B. G. Janesko, R. Gomperts, B. Mennucci, H. P. Hratchian, 
 J. V. Ortiz, A. F. Izmaylov, J. L. Sonnenberg, D. Williams-Young, 
 F. Ding, F. Lipparini, F. Egidi, J. Goings, B. Peng, A. Petrone, 
 T. Henderson, D. Ranasinghe, V. G. Zakrzewski, J. Gao, N. Rega, 
 G. Zheng, W. Liang, M. Hada, M. Ehara, K. Toyota, R. Fukuda, 
 J. Hasegawa, M. Ishida, T. Nakajima, Y. Honda, O. Kitao, H. Nakai, 
 T. Vreven, K. Throssell, J. A. Montgomery, Jr., J. E. Peralta, 
 F. Ogliaro, M. J. Bearpark, J. J. Heyd, E. N. Brothers, K. N. Kudin, 
 V. N. Staroverov, T. A. Keith, R. Kobayashi, J. Normand, 
 K. Raghavachari, A. P. Rendell, J. C. Burant, S. S. Iyengar, 
 J. Tomasi, M. Cossi, J. M. Millam, M. Klene, C. Adamo, R. Cammi, 
 J. W. Ochterski, R. L. Martin, K. Morokuma, O. Farkas, 
 J. B. Foresman, and D. J. Fox, Gaussian, Inc., Wallingford CT, 2016.
 
 ******************************************
 Gaussian 16:  ES64L-G16RevB.01 20-Dec-2017
                21-Feb-2022 
 ******************************************
 %nproc=28
 Will use up to   28 processors via shared memory.
 %mem=120GB
 %chk=hoono_a3_110p0337.chk
 ---------------------------------------
 #p freq mp2/aug-cc-pvtz density=current
 ---------------------------------------
 1/10=4,30=1,38=1/1,3;
 2/12=2,17=6,18=5,40=1/2;
 3/5=16,6=1,7=10,11=9,25=1,30=1,71=2,140=1/1,2,3;
 4//1;
 5/5=2,38=5,98=1/2;
 8/6=3,8=1,10=1,19=11,30=-1/1;
 9/15=3,16=-3/6;
 11/6=1,8=1,15=11,17=12,24=-1,27=1,28=-2,29=300,32=6,42=3/1,2,10;
 10/6=2,21=1/2;
 8/6=4,8=1,10=1,19=11,30=-1/11,4;
 10/5=1,20=4/2;
 11/12=2,14=11,16=1,17=2,28=-2,42=3,76=2/2,10,12;
 6/7=2,8=2,9=2,10=2,22=-1/1;
 7/8=1,10=1,12=2,25=1,44=2/1,2,3,16;
 1/10=4,30=1/3;
 99//99;
 Leave Link    1 at Mon Feb 21 20:50:02 2022, MaxMem= 16106127360 cpu:              33.1 elap:               1.2
 (Enter /sw/contrib/gaussian/g16/B01/g16/l101.exe)
 -----
 title
 -----
 Symbolic Z-matrix:
 Charge =  0 Multiplicity = 1
 H
 O                    1    r1
 O                    2    r2       1    a1
 N                    3    r3       2    a2       1    d1       0
 O                    4    r4       3    a3       2    d2       0
       Variables:
  r1                    0.96898                  
  r2                    1.45492                  
  r3                    1.45878                  
  r4                    1.17073                  
  a1                   97.59495                  
  a2                  102.29752                  
  a3                  110.03374                  
  d1                  180.                       
  d2                  180.                       
 
 ITRead=  0  0  0  0  0
 MicOpt= -1 -1 -1 -1 -1
 NAtoms=      5 NQM=        5 NQMF=       0 NMMI=      0 NMMIF=      0
                NMic=       0 NMicF=      0.
                    Isotopes and Nuclear Properties:
 (Nuclear quadrupole moments (NQMom) in fm**2, nuclear magnetic moments (NMagM)
  in nuclear magnetons)

  Atom         1           2           3           4           5
 IAtWgt=           1          16          16          14          16
 AtmWgt=   1.0078250  15.9949146  15.9949146  14.0030740  15.9949146
 NucSpn=           1           0           0           2           0
 AtZEff=  -0.0000000  -0.0000000  -0.0000000  -0.0000000  -0.0000000
 NQMom=    0.0000000   0.0000000   0.0000000   2.0440000   0.0000000
 NMagM=    2.7928460   0.0000000   0.0000000   0.4037610   0.0000000
 AtZNuc=   1.0000000   8.0000000   8.0000000   7.0000000   8.0000000
 Leave Link  101 at Mon Feb 21 20:50:02 2022, MaxMem= 16106127360 cpu:               2.1 elap:               0.1
 (Enter /sw/contrib/gaussian/g16/B01/g16/l103.exe)

 GradGradGradGradGradGradGradGradGradGradGradGradGradGradGradGradGradGrad
 Berny optimization.
 Initialization pass.
                       ----------------------------
                       !    Initial Parameters    !
                       ! (Angstroms and Degrees)  !
 ----------------------                            ----------------------
 !      Name          Value   Derivative information (Atomic Units)     !
 ------------------------------------------------------------------------
 !       r1          0.969    calculate D2E/DX2 analytically            !
 !       r2          1.4549   calculate D2E/DX2 analytically            !
 !       r3          1.4588   calculate D2E/DX2 analytically            !
 !       r4          1.1707   calculate D2E/DX2 analytically            !
 !       a1         97.5949   calculate D2E/DX2 analytically            !
 !       a2        102.2975   calculate D2E/DX2 analytically            !
 !       a3        110.0337   calculate D2E/DX2 analytically            !
 !       d1        180.0      calculate D2E/DX2 analytically            !
 !       d2        180.0      calculate D2E/DX2 analytically            !
 ------------------------------------------------------------------------
 Trust Radius=3.00D-01 FncErr=1.00D-07 GrdErr=1.00D-07 EigMax=2.50D+02 EigMin=1.00D-04
 Number of steps in this run=      2 maximum allowed number of steps=      2.
 GradGradGradGradGradGradGradGradGradGradGradGradGradGradGradGradGradGrad

 Leave Link  103 at Mon Feb 21 20:50:02 2022, MaxMem= 16106127360 cpu:               0.8 elap:               0.1
 (Enter /sw/contrib/gaussian/g16/B01/g16/l202.exe)
                          Input orientation:                          
 ---------------------------------------------------------------------
 Center     Atomic      Atomic             Coordinates (Angstroms)
 Number     Number       Type             X           Y           Z
 ---------------------------------------------------------------------
      1          1           0        0.000000    0.000000    0.000000
      2          8           0        0.000000    0.000000    0.968976
      3          8           0        1.442156    0.000000    1.161271
      4          7           0        1.561752    0.000000    2.615144
      5          8           0        2.690819    0.000000    2.924682
 ---------------------------------------------------------------------
                    Distance matrix (angstroms):
                    1          2          3          4          5
     1  H    0.000000
     2  O    0.968976   0.000000
     3  O    1.851584   1.454919   0.000000
     4  N    3.045989   2.269127   1.458784   0.000000
     5  O    3.974201   3.326453   2.160736   1.170729   0.000000
 Stoichiometry    HNO3
 Framework group  CS[SG(HNO3)]
 Deg. of freedom     7
 Full point group                 CS      NOp   2
 Largest Abelian subgroup         CS      NOp   2
 Largest concise Abelian subgroup C1      NOp   1
                         Standard orientation:                         
 ---------------------------------------------------------------------
 Center     Atomic      Atomic             Coordinates (Angstroms)
 Number     Number       Type             X           Y           Z
 ---------------------------------------------------------------------
      1          1           0        1.550291    1.690274   -0.000000
      2          8           0        1.454120    0.726083   -0.000000
      3          8           0        0.000000    0.677871    0.000000
      4          7           0       -0.263303   -0.756954    0.000000
      5          8           0       -1.417517   -0.952903    0.000000
 ---------------------------------------------------------------------
 Rotational constants (GHZ):          55.2085035           4.9876761           4.5744121
 Leave Link  202 at Mon Feb 21 20:50:02 2022, MaxMem= 16106127360 cpu:               0.5 elap:               0.0
 (Enter /sw/contrib/gaussian/g16/B01/g16/l301.exe)
 Standard basis: Aug-CC-pVTZ (5D, 7F)
 Ernie: Thresh=  0.10000D-02 Tol=  0.10000D-05 Strict=F.
 Ernie:  12 primitive shells out of 131 were deleted.
 There are   166 symmetry adapted cartesian basis functions of A'  symmetry.
 There are    79 symmetry adapted cartesian basis functions of A"  symmetry.
 There are   136 symmetry adapted basis functions of A'  symmetry.
 There are    71 symmetry adapted basis functions of A"  symmetry.
   207 basis functions,   315 primitive gaussians,   245 cartesian basis functions
    16 alpha electrons       16 beta electrons
       nuclear repulsion energy       116.7557954943 Hartrees.
 IExCor=    0 DFT=F Ex=HF Corr=None ExCW=0 ScaHFX=  1.000000
 ScaDFX=  1.000000  1.000000  1.000000  1.000000 ScalE2=  1.000000  1.000000
 IRadAn=      5 IRanWt=     -1 IRanGd=            0 ICorTp=0 IEmpDi=  4
 NAtoms=    5 NActive=    5 NUniq=    5 SFac= 1.00D+00 NAtFMM=   60 NAOKFM=F Big=F
 Integral buffers will be    131072 words long.
 Raffenetti 1 integral format.
 Two-electron integral symmetry is turned on.
 Leave Link  301 at Mon Feb 21 20:50:02 2022, MaxMem= 16106127360 cpu:               2.4 elap:               0.1
 (Enter /sw/contrib/gaussian/g16/B01/g16/l302.exe)
 NPDir=0 NMtPBC=     1 NCelOv=     1 NCel=       1 NClECP=     1 NCelD=      1
         NCelK=      1 NCelE2=     1 NClLst=     1 CellRange=     0.0.
 One-electron integrals computed using PRISM.
 One-electron integral symmetry used in STVInt
 NBasis=   207 RedAO= T EigKep=  1.82D-04  NBF=   136    71
 NBsUse=   207 1.00D-06 EigRej= -1.00D+00 NBFU=   136    71
 Leave Link  302 at Mon Feb 21 20:50:03 2022, MaxMem= 16106127360 cpu:               4.1 elap:               0.2
 (Enter /sw/contrib/gaussian/g16/B01/g16/l303.exe)
 DipDrv:  MaxL=1.
 Leave Link  303 at Mon Feb 21 20:50:03 2022, MaxMem= 16106127360 cpu:               1.0 elap:               0.1
 (Enter /sw/contrib/gaussian/g16/B01/g16/l401.exe)
 ExpMin= 2.53D-02 ExpMax= 1.53D+04 ExpMxC= 5.22D+02 IAcc=3 IRadAn=         5 AccDes= 0.00D+00
 Harris functional with IExCor=  205 and IRadAn=       5 diagonalized for initial guess.
 HarFok:  IExCor=  205 AccDes= 0.00D+00 IRadAn=         5 IDoV= 1 UseB2=F ITyADJ=14
 ICtDFT=  3500011 ScaDFX=  1.000000  1.000000  1.000000  1.000000
 FoFCou: FMM=F IPFlag=           0 FMFlag=      100000 FMFlg1=           0
         NFxFlg=           0 DoJE=T BraDBF=F KetDBF=T FulRan=T
         wScrn=  0.000000 ICntrl=       500 IOpCl=  0 I1Cent=   200000004 NGrid=           0
         NMat0=    1 NMatS0=      1 NMatT0=    0 NMatD0=    1 NMtDS0=    0 NMtDT0=    0
 Petite list used in FoFCou.
 Harris En= -279.628630521743    
 JPrj=0 DoOrth=F DoCkMO=F.
 Initial guess orbital symmetries:
       Occupied  (A') (A') (A') (A') (A') (A') (A') (A') (A') (A')
                 (A") (A') (A') (A") (A") (A')
       Virtual   (A") (A') (A') (A') (A') (A') (A") (A') (A') (A')
                 (A") (A') (A") (A') (A') (A") (A') (A") (A') (A')
                 (A') (A') (A') (A') (A') (A") (A') (A") (A') (A')
                 (A") (A') (A") (A') (A') (A") (A') (A") (A') (A')
                 (A") (A') (A") (A') (A") (A') (A') (A') (A") (A")
                 (A') (A') (A') (A') (A") (A') (A") (A') (A") (A')
                 (A') (A') (A") (A') (A') (A") (A') (A") (A') (A')
                 (A") (A') (A') (A") (A") (A') (A') (A") (A') (A')
                 (A') (A") (A') (A") (A') (A") (A') (A") (A') (A')
                 (A') (A") (A') (A") (A') (A") (A") (A') (A') (A")
                 (A') (A') (A") (A') (A') (A') (A') (A") (A") (A')
                 (A") (A') (A') (A') (A") (A') (A') (A') (A") (A')
                 (A") (A') (A') (A") (A") (A') (A') (A") (A") (A')
                 (A') (A') (A') (A") (A") (A') (A") (A') (A') (A')
                 (A') (A") (A") (A') (A') (A") (A') (A') (A') (A')
                 (A") (A') (A') (A") (A') (A") (A') (A") (A') (A")
                 (A') (A") (A') (A") (A') (A") (A") (A") (A') (A')
                 (A") (A') (A") (A') (A") (A') (A") (A") (A') (A')
                 (A') (A') (A') (A') (A') (A') (A') (A') (A') (A')
                 (A')
 The electronic state of the initial guess is 1-A'.
 Leave Link  401 at Mon Feb 21 20:50:03 2022, MaxMem= 16106127360 cpu:               6.3 elap:               0.3
 (Enter /sw/contrib/gaussian/g16/B01/g16/l502.exe)
 Keep R1 ints in memory in symmetry-blocked form, NReq=348887737.
 FoFCou: FMM=F IPFlag=           0 FMFlag=           0 FMFlg1=           0
         NFxFlg=           0 DoJE=F BraDBF=F KetDBF=F FulRan=T
         wScrn=  0.000000 ICntrl=       600 IOpCl=  0 I1Cent=           0 NGrid=           0
         NMat0=    1 NMatS0=  21528 NMatT0=    0 NMatD0=    1 NMtDS0=    0 NMtDT0=    0
 Petite list used in FoFCou.
 Closed shell SCF:
 Using DIIS extrapolation, IDIIS=  1040.
 NGot= 16106127360 LenX= 15988850015 LenY= 15988789549
 Requested convergence on RMS density matrix=1.00D-08 within 128 cycles.
 Requested convergence on MAX density matrix=1.00D-06.
 Requested convergence on             energy=1.00D-06.
 No special actions if energy rises.

 Cycle   1  Pass 1  IDiag  1:
 E= -279.370634908825    
 DIIS: error= 2.83D-02 at cycle   1 NSaved=   1.
 NSaved= 1 IEnMin= 1 EnMin= -279.370634908825     IErMin= 1 ErrMin= 2.83D-02
 ErrMax= 2.83D-02  0.00D+00 EMaxC= 1.00D-01 BMatC= 4.38D-01 BMatP= 4.38D-01
 IDIUse=3 WtCom= 7.17D-01 WtEn= 2.83D-01
 Coeff-Com:  0.100D+01
 Coeff-En:   0.100D+01
 Coeff:      0.100D+01
 Gap=     0.514 Goal=   None    Shift=    0.000
 GapD=    0.514 DampG=2.000 DampE=0.500 DampFc=1.0000 IDamp=-1.
 RMSDP=1.62D-03 MaxDP=9.81D-02              OVMax= 1.13D-01

 Cycle   2  Pass 1  IDiag  1:
 E= -279.452347817389     Delta-E=       -0.081712908563 Rises=F Damp=F
 DIIS: error= 1.77D-02 at cycle   2 NSaved=   2.
 NSaved= 2 IEnMin= 2 EnMin= -279.452347817389     IErMin= 2 ErrMin= 1.77D-02
 ErrMax= 1.77D-02  0.00D+00 EMaxC= 1.00D-01 BMatC= 7.16D-02 BMatP= 4.38D-01
 IDIUse=3 WtCom= 8.23D-01 WtEn= 1.77D-01
 Coeff-Com:  0.194D+00 0.806D+00
 Coeff-En:   0.000D+00 0.100D+01
 Coeff:      0.160D+00 0.840D+00
 Gap=     0.528 Goal=   None    Shift=    0.000
 RMSDP=9.00D-04 MaxDP=3.72D-02 DE=-8.17D-02 OVMax= 6.91D-02

 Cycle   3  Pass 1  IDiag  1:
 E= -279.481273680461     Delta-E=       -0.028925863073 Rises=F Damp=F
 DIIS: error= 1.03D-02 at cycle   3 NSaved=   3.
 NSaved= 3 IEnMin= 3 EnMin= -279.481273680461     IErMin= 3 ErrMin= 1.03D-02
 ErrMax= 1.03D-02  0.00D+00 EMaxC= 1.00D-01 BMatC= 2.89D-02 BMatP= 7.16D-02
 IDIUse=3 WtCom= 8.97D-01 WtEn= 1.03D-01
 Coeff-Com: -0.330D-01 0.379D+00 0.654D+00
 Coeff-En:   0.000D+00 0.243D+00 0.757D+00
 Coeff:     -0.296D-01 0.365D+00 0.664D+00
 Gap=     0.509 Goal=   None    Shift=    0.000
 RMSDP=3.77D-04 MaxDP=1.52D-02 DE=-2.89D-02 OVMax= 3.82D-02

 Cycle   4  Pass 1  IDiag  1:
 E= -279.500472536986     Delta-E=       -0.019198856524 Rises=F Damp=F
 DIIS: error= 1.30D-03 at cycle   4 NSaved=   4.
 NSaved= 4 IEnMin= 4 EnMin= -279.500472536986     IErMin= 4 ErrMin= 1.30D-03
 ErrMax= 1.30D-03  0.00D+00 EMaxC= 1.00D-01 BMatC= 4.91D-04 BMatP= 2.89D-02
 IDIUse=3 WtCom= 9.87D-01 WtEn= 1.30D-02
 Coeff-Com: -0.117D-01 0.577D-01 0.158D+00 0.796D+00
 Coeff-En:   0.000D+00 0.000D+00 0.000D+00 0.100D+01
 Coeff:     -0.115D-01 0.569D-01 0.155D+00 0.799D+00
 Gap=     0.501 Goal=   None    Shift=    0.000
 RMSDP=9.06D-05 MaxDP=2.79D-03 DE=-1.92D-02 OVMax= 1.12D-02

 Cycle   5  Pass 1  IDiag  1:
 E= -279.501148243198     Delta-E=       -0.000675706213 Rises=F Damp=F
 DIIS: error= 7.41D-04 at cycle   5 NSaved=   5.
 NSaved= 5 IEnMin= 5 EnMin= -279.501148243198     IErMin= 5 ErrMin= 7.41D-04
 ErrMax= 7.41D-04  0.00D+00 EMaxC= 1.00D-01 BMatC= 8.74D-05 BMatP= 4.91D-04
 IDIUse=3 WtCom= 9.93D-01 WtEn= 7.41D-03
 Coeff-Com:  0.610D-02-0.722D-01-0.117D+00 0.227D-01 0.116D+01
 Coeff-En:   0.000D+00 0.000D+00 0.000D+00 0.000D+00 0.100D+01
 Coeff:      0.605D-02-0.717D-01-0.116D+00 0.225D-01 0.116D+01
 Gap=     0.501 Goal=   None    Shift=    0.000
 RMSDP=7.61D-05 MaxDP=2.09D-03 DE=-6.76D-04 OVMax= 1.11D-02

 Cycle   6  Pass 1  IDiag  1:
 E= -279.501463508724     Delta-E=       -0.000315265525 Rises=F Damp=F
 DIIS: error= 2.91D-04 at cycle   6 NSaved=   6.
 NSaved= 6 IEnMin= 6 EnMin= -279.501463508724     IErMin= 6 ErrMin= 2.91D-04
 ErrMax= 2.91D-04  0.00D+00 EMaxC= 1.00D-01 BMatC= 1.68D-05 BMatP= 8.74D-05
 IDIUse=3 WtCom= 9.97D-01 WtEn= 2.91D-03
 Coeff-Com:  0.623D-03 0.132D-02 0.394D-02-0.130D+00-0.228D+00 0.135D+01
 Coeff-En:   0.000D+00 0.000D+00 0.000D+00 0.000D+00 0.000D+00 0.100D+01
 Coeff:      0.621D-03 0.131D-02 0.393D-02-0.130D+00-0.227D+00 0.135D+01
 Gap=     0.501 Goal=   None    Shift=    0.000
 RMSDP=4.55D-05 MaxDP=1.26D-03 DE=-3.15D-04 OVMax= 5.55D-03

 Cycle   7  Pass 1  IDiag  1:
 E= -279.501536823894     Delta-E=       -0.000073315171 Rises=F Damp=F
 DIIS: error= 1.23D-04 at cycle   7 NSaved=   7.
 NSaved= 7 IEnMin= 7 EnMin= -279.501536823894     IErMin= 7 ErrMin= 1.23D-04
 ErrMax= 1.23D-04  0.00D+00 EMaxC= 1.00D-01 BMatC= 4.61D-06 BMatP= 1.68D-05
 IDIUse=3 WtCom= 9.99D-01 WtEn= 1.23D-03
 Coeff-Com: -0.939D-03 0.136D-01 0.265D-01-0.251D-01-0.290D+00 0.398D+00
 Coeff-Com:  0.878D+00
 Coeff-En:   0.000D+00 0.000D+00 0.000D+00 0.000D+00 0.000D+00 0.000D+00
 Coeff-En:   0.100D+01
 Coeff:     -0.938D-03 0.136D-01 0.265D-01-0.250D-01-0.290D+00 0.397D+00
 Coeff:      0.878D+00
 Gap=     0.501 Goal=   None    Shift=    0.000
 RMSDP=1.34D-05 MaxDP=3.84D-04 DE=-7.33D-05 OVMax= 1.56D-03

 Cycle   8  Pass 1  IDiag  1:
 E= -279.501545893931     Delta-E=       -0.000009070037 Rises=F Damp=F
 DIIS: error= 5.84D-05 at cycle   8 NSaved=   8.
 NSaved= 8 IEnMin= 8 EnMin= -279.501545893931     IErMin= 8 ErrMin= 5.84D-05
 ErrMax= 5.84D-05  0.00D+00 EMaxC= 1.00D-01 BMatC= 6.09D-07 BMatP= 4.61D-06
 IDIUse=1 WtCom= 1.00D+00 WtEn= 0.00D+00
 Coeff-Com: -0.450D-03 0.347D-02 0.760D-02 0.276D-01-0.413D-01-0.197D+00
 Coeff-Com:  0.164D+00 0.104D+01
 Coeff:     -0.450D-03 0.347D-02 0.760D-02 0.276D-01-0.413D-01-0.197D+00
 Coeff:      0.164D+00 0.104D+01
 Gap=     0.501 Goal=   None    Shift=    0.000
 RMSDP=6.99D-06 MaxDP=2.04D-04 DE=-9.07D-06 OVMax= 7.60D-04

 Cycle   9  Pass 1  IDiag  1:
 E= -279.501547697401     Delta-E=       -0.000001803469 Rises=F Damp=F
 DIIS: error= 1.55D-05 at cycle   9 NSaved=   9.
 NSaved= 9 IEnMin= 9 EnMin= -279.501547697401     IErMin= 9 ErrMin= 1.55D-05
 ErrMax= 1.55D-05  0.00D+00 EMaxC= 1.00D-01 BMatC= 6.90D-08 BMatP= 6.09D-07
 IDIUse=1 WtCom= 1.00D+00 WtEn= 0.00D+00
 Coeff-Com:  0.122D-03-0.172D-02-0.305D-02-0.200D-02 0.341D-01-0.225D-03
 Coeff-Com: -0.164D+00-0.105D+00 0.124D+01
 Coeff:      0.122D-03-0.172D-02-0.305D-02-0.200D-02 0.341D-01-0.225D-03
 Coeff:     -0.164D+00-0.105D+00 0.124D+01
 Gap=     0.501 Goal=   None    Shift=    0.000
 RMSDP=1.95D-06 MaxDP=6.62D-05 DE=-1.80D-06 OVMax= 1.76D-04

 Cycle  10  Pass 1  IDiag  1:
 E= -279.501547858069     Delta-E=       -0.000000160668 Rises=F Damp=F
 DIIS: error= 4.09D-06 at cycle  10 NSaved=  10.
 NSaved=10 IEnMin=10 EnMin= -279.501547858069     IErMin=10 ErrMin= 4.09D-06
 ErrMax= 4.09D-06  0.00D+00 EMaxC= 1.00D-01 BMatC= 5.61D-09 BMatP= 6.90D-08
 IDIUse=1 WtCom= 1.00D+00 WtEn= 0.00D+00
 Coeff-Com:  0.315D-04-0.248D-03-0.330D-03-0.272D-02 0.169D-02 0.197D-01
 Coeff-Com: -0.128D-01-0.752D-01-0.794D-01 0.115D+01
 Coeff:      0.315D-04-0.248D-03-0.330D-03-0.272D-02 0.169D-02 0.197D-01
 Coeff:     -0.128D-01-0.752D-01-0.794D-01 0.115D+01
 Gap=     0.501 Goal=   None    Shift=    0.000
 RMSDP=5.11D-07 MaxDP=2.11D-05 DE=-1.61D-07 OVMax= 4.22D-05

 Cycle  11  Pass 1  IDiag  1:
 E= -279.501547870756     Delta-E=       -0.000000012687 Rises=F Damp=F
 DIIS: error= 2.05D-06 at cycle  11 NSaved=  11.
 NSaved=11 IEnMin=11 EnMin= -279.501547870756     IErMin=11 ErrMin= 2.05D-06
 ErrMax= 2.05D-06  0.00D+00 EMaxC= 1.00D-01 BMatC= 6.67D-10 BMatP= 5.61D-09
 IDIUse=1 WtCom= 1.00D+00 WtEn= 0.00D+00
 Coeff-Com: -0.213D-04 0.245D-03 0.486D-03 0.537D-03-0.429D-02-0.355D-02
 Coeff-Com:  0.206D-01 0.317D-01-0.139D+00-0.181D+00 0.127D+01
 Coeff:     -0.213D-04 0.245D-03 0.486D-03 0.537D-03-0.429D-02-0.355D-02
 Coeff:      0.206D-01 0.317D-01-0.139D+00-0.181D+00 0.127D+01
 Gap=     0.501 Goal=   None    Shift=    0.000
 RMSDP=1.80D-07 MaxDP=6.69D-06 DE=-1.27D-08 OVMax= 1.74D-05

 Cycle  12  Pass 1  IDiag  1:
 E= -279.501547872587     Delta-E=       -0.000000001831 Rises=F Damp=F
 DIIS: error= 5.97D-07 at cycle  12 NSaved=  12.
 NSaved=12 IEnMin=12 EnMin= -279.501547872587     IErMin=12 ErrMin= 5.97D-07
 ErrMax= 5.97D-07  0.00D+00 EMaxC= 1.00D-01 BMatC= 7.21D-11 BMatP= 6.67D-10
 IDIUse=1 WtCom= 1.00D+00 WtEn= 0.00D+00
 Coeff-Com:  0.122D-05-0.290D-04-0.625D-04 0.184D-03 0.108D-02-0.228D-02
 Coeff-Com: -0.412D-02 0.541D-02 0.418D-01-0.112D+00-0.282D+00 0.135D+01
 Coeff:      0.122D-05-0.290D-04-0.625D-04 0.184D-03 0.108D-02-0.228D-02
 Coeff:     -0.412D-02 0.541D-02 0.418D-01-0.112D+00-0.282D+00 0.135D+01
 Gap=     0.501 Goal=   None    Shift=    0.000
 RMSDP=7.22D-08 MaxDP=2.90D-06 DE=-1.83D-09 OVMax= 6.69D-06

 Cycle  13  Pass 1  IDiag  1:
 E= -279.501547872817     Delta-E=       -0.000000000231 Rises=F Damp=F
 DIIS: error= 1.72D-07 at cycle  13 NSaved=  13.
 NSaved=13 IEnMin=13 EnMin= -279.501547872817     IErMin=13 ErrMin= 1.72D-07
 ErrMax= 1.72D-07  0.00D+00 EMaxC= 1.00D-01 BMatC= 4.08D-12 BMatP= 7.21D-11
 IDIUse=1 WtCom= 1.00D+00 WtEn= 0.00D+00
 Coeff-Com:  0.128D-05-0.140D-04-0.223D-04-0.903D-04 0.120D-03 0.764D-03
 Coeff-Com: -0.805D-03-0.329D-02 0.431D-03 0.412D-01-0.346D-01-0.330D+00
 Coeff-Com:  0.133D+01
 Coeff:      0.128D-05-0.140D-04-0.223D-04-0.903D-04 0.120D-03 0.764D-03
 Coeff:     -0.805D-03-0.329D-02 0.431D-03 0.412D-01-0.346D-01-0.330D+00
 Coeff:      0.133D+01
 Gap=     0.501 Goal=   None    Shift=    0.000
 RMSDP=1.93D-08 MaxDP=5.63D-07 DE=-2.31D-10 OVMax= 1.57D-06

 Cycle  14  Pass 1  IDiag  1:
 E= -279.501547872830     Delta-E=       -0.000000000013 Rises=F Damp=F
 DIIS: error= 2.43D-08 at cycle  14 NSaved=  14.
 NSaved=14 IEnMin=14 EnMin= -279.501547872830     IErMin=14 ErrMin= 2.43D-08
 ErrMax= 2.43D-08  0.00D+00 EMaxC= 1.00D-01 BMatC= 2.00D-13 BMatP= 4.08D-12
 IDIUse=1 WtCom= 1.00D+00 WtEn= 0.00D+00
 Coeff-Com: -0.192D-06 0.315D-05 0.558D-05 0.466D-05-0.827D-04 0.441D-04
 Coeff-Com:  0.278D-03 0.236D-03-0.244D-02 0.134D-02 0.171D-01-0.251D-01
 Coeff-Com: -0.202D+00 0.121D+01
 Coeff:     -0.192D-06 0.315D-05 0.558D-05 0.466D-05-0.827D-04 0.441D-04
 Coeff:      0.278D-03 0.236D-03-0.244D-02 0.134D-02 0.171D-01-0.251D-01
 Coeff:     -0.202D+00 0.121D+01
 Gap=     0.501 Goal=   None    Shift=    0.000
 RMSDP=3.84D-09 MaxDP=9.26D-08 DE=-1.30D-11 OVMax= 3.46D-07

 SCF Done:  E(RHF) =  -279.501547873     A.U. after   14 cycles
            NFock= 14  Conv=0.38D-08     -V/T= 2.0024
 KE= 2.788389837696D+02 PE=-8.948273810069D+02 EE= 2.197310538702D+02
 Leave Link  502 at Mon Feb 21 20:50:06 2022, MaxMem= 16106127360 cpu:              53.9 elap:               3.5
 (Enter /sw/contrib/gaussian/g16/B01/g16/l801.exe)
 ExpMin= 2.53D-02 ExpMax= 1.53D+04 ExpMxC= 5.22D+02 IAcc=3 IRadAn=         5 AccDes= 0.00D+00
 HarFok:  IExCor=  205 AccDes= 0.00D+00 IRadAn=         5 IDoV=-2 UseB2=F ITyADJ=14
 ICtDFT= 12500011 ScaDFX=  1.000000  1.000000  1.000000  1.000000
 Largest valence mixing into a core orbital is  2.08D-04
 Largest core mixing into a valence orbital is  3.62D-05
 Range of M.O.s used for correlation:     5   207
 NBasis=   207 NAE=    16 NBE=    16 NFC=     4 NFV=     0
 NROrb=    203 NOA=    12 NOB=    12 NVA=   191 NVB=   191

 **** Warning!!: The largest alpha MO coefficient is  0.17727407D+02

 Leave Link  801 at Mon Feb 21 20:50:07 2022, MaxMem= 16106127360 cpu:               2.1 elap:               0.1
 (Enter /sw/contrib/gaussian/g16/B01/g16/l906.exe)
 Frozen-core derivative calculation, NFC=   4 NFV=   0.
 FulOut=F Deriv=T AODrv=T NAtomX=     5
   MMem=           0  MDisk=          12 MDiskD=          12
  W3Min=      811440 MinDsk=     2425030 NBas6D=         245
 NBas2D=       30762    NTT=       30135    LW2=     7400000
    MDV= 16105574311 MDiskM=      328644 NBas2p=       30702
 Disk-based method using ON**2 memory for 12 occupieds at a time.
 Permanent disk used for amplitudes=    11516536 words.
 Estimated scratch disk usage=   321251614 words.
 IMap=   1   2   3   4   5   6   7   8   9  10  11  12  13  14  15  16
 Actual    scratch disk usage=   310331678 words.
 JobTyp=1 Pass  1:  I=   5 to  16 NPSUse= 28 ParTrn=T ParDer=T DoDerP=T.
 (rs|ai) integrals will be sorted in core.
 Spin components of T(2) and E(2):
     alpha-alpha T2 =       0.3404863267D-01 E2=     -0.1224238950D+00
     alpha-beta  T2 =       0.1869021283D+00 E2=     -0.7002705332D+00
     beta-beta   T2 =       0.3404863267D-01 E2=     -0.1224238950D+00
 The integrals were generated   1 times.
 ANorm=    0.1120267555D+01
 E2 =    -0.9451183233D+00 EUMP2 =    -0.28044666619617D+03
 Leave Link  906 at Mon Feb 21 20:51:44 2022, MaxMem= 16106127360 cpu:            2719.7 elap:              97.3
 (Enter /sw/contrib/gaussian/g16/B01/g16/l1101.exe)
 Using compressed Sx but separate Hx and Fx, NAtomX=     5.
 Will process      6 centers per pass.
 Leave Link 1101 at Mon Feb 21 20:51:44 2022, MaxMem= 16106127360 cpu:               5.3 elap:               0.2
 (Enter /sw/contrib/gaussian/g16/B01/g16/l1102.exe)
 Leave Link 1102 at Mon Feb 21 20:51:44 2022, MaxMem= 16106127360 cpu:               2.0 elap:               0.1
 (Enter /sw/contrib/gaussian/g16/B01/g16/l1110.exe)
 Forming Gx(P) for the SCF density, NAtomX=     5.
 Integral derivatives from FoFJK, PRISM(SPDF).
 Do as many integral derivatives as possible in FoFJK.
 G2DrvN: MDV=   16106126844.
 G2DrvN: will do     6 centers at a time, making    1 passes.
 Calling FoFCou, ICntrl=  3107 FMM=F I1Cent=   0 AccDes= 0.00D+00.
 FoFJK:  IHMeth= 1 ICntrl=    3107 DoSepK=F KAlg= 0 I1Cent=           0 FoldK=F
 IRaf=         0 NMat=       1 IRICut=       1 DoRegI=T DoRafI=F ISym2E= 1 IDoP0=0 IntGTp=1.
 FoFCou: FMM=F IPFlag=           0 FMFlag=      100000 FMFlg1=           0
         NFxFlg=           0 DoJE=F BraDBF=F KetDBF=F FulRan=T
         wScrn=  0.000000 ICntrl=      3107 IOpCl=  0 I1Cent=           0 NGrid=           0
         NMat0=    1 NMatS0=      1 NMatT0=    0 NMatD0=    1 NMtDS0=    0 NMtDT0=    0
 Petite list used in FoFCou.
 End of G2Drv F.D. properties file   721 does not exist.
 End of G2Drv F.D. properties file   722 does not exist.
 End of G2Drv F.D. properties file   788 does not exist.
 Leave Link 1110 at Mon Feb 21 20:51:47 2022, MaxMem= 16106127360 cpu:              86.1 elap:               3.1
 (Enter /sw/contrib/gaussian/g16/B01/g16/l1002.exe)
 Minotr:  Closed shell wavefunction.
          IDoAtm=11111
          Frozen-core window.
          Direct CPHF calculation.
          Differentiating once with respect to electric field.
                with respect to dipole field.
          Differentiating once with respect to nuclear coordinates.
          Requested convergence is 1.0D-08 RMS, and 1.0D-07 maximum.
          Secondary convergence is 1.0D-12 RMS, and 1.0D-12 maximum.
          NewPWx=T KeepS1=T KeepF1=T KeepIn=T MapXYZ=F SortEE=F KeepMc=T.
 Keep R1 ints in memory in symmetry-blocked form, NReq=348888983.
 FoFCou: FMM=F IPFlag=           0 FMFlag=           0 FMFlg1=           0
         NFxFlg=           0 DoJE=F BraDBF=F KetDBF=F FulRan=T
         wScrn=  0.000000 ICntrl=       600 IOpCl=  0 I1Cent=           0 NGrid=           0
         NMat0=    1 NMatS0=  21528 NMatT0=    0 NMatD0=    1 NMtDS0=    0 NMtDT0=    0
 Petite list used in FoFCou.
          MDV=   16106127360 using IRadAn=       1.
          Solving linear equations simultaneously, MaxMat=       0.
          There are    18 degrees of freedom in the 1st order CPHF.  IDoFFX=6 NUNeed=    18.
     15 vectors produced by pass  0 Test12= 1.70D-14 5.56D-09 XBig12= 8.28D+00 1.04D+00.
 AX will form    15 AO Fock derivatives at one time.
     15 vectors produced by pass  1 Test12= 1.70D-14 5.56D-09 XBig12= 1.33D+00 2.62D-01.
     15 vectors produced by pass  2 Test12= 1.70D-14 5.56D-09 XBig12= 1.41D-01 9.72D-02.
     15 vectors produced by pass  3 Test12= 1.70D-14 5.56D-09 XBig12= 4.94D-03 1.10D-02.
     15 vectors produced by pass  4 Test12= 1.70D-14 5.56D-09 XBig12= 9.84D-05 1.89D-03.
     15 vectors produced by pass  5 Test12= 1.70D-14 5.56D-09 XBig12= 1.38D-06 1.71D-04.
     15 vectors produced by pass  6 Test12= 1.70D-14 5.56D-09 XBig12= 1.08D-08 1.46D-05.
     13 vectors produced by pass  7 Test12= 1.70D-14 5.56D-09 XBig12= 7.97D-11 1.27D-06.
      3 vectors produced by pass  8 Test12= 1.70D-14 5.56D-09 XBig12= 5.55D-13 1.17D-07.
      2 vectors produced by pass  9 Test12= 1.70D-14 5.56D-09 XBig12= 3.64D-15 9.84D-09.
 InvSVY:  IOpt=1 It=  1 EMax= 9.99D-16
 Solved reduced A of dimension   123 with    15 vectors.
 FullF1:  Do perturbations      1 to      18.
 Saving first derivative matrices.
 End of Minotr F.D. properties file   721 does not exist.
 End of Minotr F.D. properties file   722 does not exist.
 End of Minotr F.D. properties file   788 does not exist.
 Leave Link 1002 at Mon Feb 21 20:51:50 2022, MaxMem= 16106127360 cpu:              79.2 elap:               2.9
 (Enter /sw/contrib/gaussian/g16/B01/g16/l811.exe)
 MDV= 16106127360.
 Form MO integral derivatives with frozen-active canonical formalism.
 MOERI=1 MOERIx=1 NAtoms=     5 NAtomX=     5.
 Discarding MO integrals.
 MO basis two electron integral derivatives will not be stored on disk.
 IAlg= 3 DoFC=T DoPWx=T Debug=F.
 Frozen-core window:  NFC=   4 NFV=   0.
 Reordered first order wavefunction length =     18678272
 In DefCFB: NBatch=  1 ICI= 16 ICA=191 LFMax= 96
            Large arrays: LIAPS=   619940160 LIARS=   288257200 words.
 In StABat: MaxSiz= 55 MinSiz= 25 NAtomB=  5
 DoIAMN: NPSUse= 28.
 Leave Link  811 at Mon Feb 21 20:53:11 2022, MaxMem= 16106127360 cpu:            2247.8 elap:              80.4
 (Enter /sw/contrib/gaussian/g16/B01/g16/l804.exe)
 Frozen-core window:  NFC=   4 NFV=   0.
 Closed-shell transformation, MDV= 16106127360 ITran=4 ISComp=1.
 Semi-Direct transformation.
 ModeAB=           2 MOrb=            16 LenV=   16104923079
 LASXX=     67341636 LTotXX=    67341636 LenRXX=    67341636
 LTotAB=    68301760 MaxLAS=    99807120 LenRXY=    99807120
 NonZer=   134683272 LenScr=   202817536 LnRSAI=           0
 LnScr1=           0 LExtra=           0 Total=    369966292
 MaxDsk=          -1 SrtSym=           F ITran=            4
 DoSDTr:  NPSUse= 28
 JobTyp=0 Pass  1:  I=   1 to  16.
 (rs|ai) integrals will be sorted in core.
 Complete sort for first half transformation.
 First half transformation complete.
 Begin second half transformation for I=  10.
 Begin second half transformation for I=  10.
 Complete sort for second half transformation.
 Second half transformation complete.
 Spin components of T(2) and E(2):
     alpha-alpha T2 =       0.3404863267D-01 E2=     -0.1224238950D+00
     alpha-beta  T2 =       0.1869021283D+00 E2=     -0.7002705332D+00
     beta-beta   T2 =       0.3404863267D-01 E2=     -0.1224238950D+00
 ANorm=    0.1584297569D+01
 E2 =    -0.9451183233D+00 EUMP2 =    -0.28044666619617D+03
 Leave Link  804 at Mon Feb 21 20:53:26 2022, MaxMem= 16106127360 cpu:             425.8 elap:              15.3
 (Enter /sw/contrib/gaussian/g16/B01/g16/l1002.exe)
 Minotr:  Closed shell wavefunction.
          Computing MP2/KS-MP2 derivatives.
          Using Z-Vector for PSCF gradient.
          Skipping F1 and S1 gradient terms here.
          IDoAtm=11111
          Frozen-core window.
          Using MO integrals in the linear equations.
          Forming densities via direct SCF.
          Differentiating once with respect to electric field.
                with respect to dipole field.
          Differentiating once with respect to nuclear coordinates.
          Using symmetry in CPHF.
          Requested convergence is 1.0D-10 RMS, and 1.0D-09 maximum.
          NewPWx=F KeepS1=T KeepF1=T KeepIn=T MapXYZ=F SortEE=F KeepMc=T.
          MDV=   16106127360 using IRadAn=       5.
          Solving linear equations separately, MaxMat=       0.
          There are     1 degrees of freedom in the 1st order CPHF.  IDoFFX=0 NUNeed=     1.
 FoFJK:  IHMeth= 1 ICntrl=       0 DoSepK=F KAlg= 0 I1Cent=           0 FoldK=F
 IRaf=         0 NMat=       1 IRICut=       1 DoRegI=T DoRafI=F ISym2E= 0 IDoP0=0 IntGTp=1.
 FoFCou: FMM=F IPFlag=           0 FMFlag=      100000 FMFlg1=           0
         NFxFlg=           0 DoJE=F BraDBF=F KetDBF=F FulRan=T
         wScrn=  0.000000 ICntrl=         0 IOpCl=  0 I1Cent=           0 NGrid=           0
         NMat0=    1 NMatS0=      1 NMatT0=    0 NMatD0=    1 NMtDS0=    0 NMtDT0=    0
 Symmetry not used in FoFCou.
 LinEq1:  Iter=  0 NonCon=     1 RMS=5.97D-03 Max=1.33D-01 NDo=     1
 LinEq1:  Iter=  1 NonCon=     1 RMS=1.91D-03 Max=3.84D-02 NDo=     1
 LinEq1:  Iter=  2 NonCon=     1 RMS=8.72D-04 Max=1.41D-02 NDo=     1
 LinEq1:  Iter=  3 NonCon=     1 RMS=3.88D-04 Max=7.82D-03 NDo=     1
 LinEq1:  Iter=  4 NonCon=     1 RMS=1.20D-04 Max=1.94D-03 NDo=     1
 LinEq1:  Iter=  5 NonCon=     1 RMS=4.68D-05 Max=7.46D-04 NDo=     1
 LinEq1:  Iter=  6 NonCon=     1 RMS=2.08D-05 Max=2.38D-04 NDo=     1
 LinEq1:  Iter=  7 NonCon=     1 RMS=8.30D-06 Max=1.59D-04 NDo=     1
 LinEq1:  Iter=  8 NonCon=     1 RMS=3.51D-06 Max=3.45D-05 NDo=     1
 LinEq1:  Iter=  9 NonCon=     1 RMS=9.48D-07 Max=1.32D-05 NDo=     1
 LinEq1:  Iter= 10 NonCon=     1 RMS=1.86D-07 Max=2.01D-06 NDo=     1
 LinEq1:  Iter= 11 NonCon=     1 RMS=3.45D-08 Max=3.54D-07 NDo=     1
 LinEq1:  Iter= 12 NonCon=     1 RMS=8.32D-09 Max=1.26D-07 NDo=     1
 LinEq1:  Iter= 13 NonCon=     1 RMS=1.51D-09 Max=2.59D-08 NDo=     1
 LinEq1:  Iter= 14 NonCon=     1 RMS=2.73D-10 Max=3.83D-09 NDo=     1
 LinEq1:  Iter= 15 NonCon=     0 RMS=4.87D-11 Max=5.58D-10 NDo=     1
 Linear equations converged to 1.000D-10 1.000D-09 after    15 iterations.
 End of Minotr F.D. properties file   721 does not exist.
 End of Minotr F.D. properties file   722 does not exist.
 End of Minotr F.D. properties file   788 does not exist.
 Leave Link 1002 at Mon Feb 21 20:53:28 2022, MaxMem= 16106127360 cpu:              65.2 elap:               2.4
 (Enter /sw/contrib/gaussian/g16/B01/g16/l1102.exe)
 Use density number 2.
 Symmetrizing basis deriv contribution to polar:
 IMax=3 JMax=2 DiffMx= 0.00D+00
 Leave Link 1102 at Mon Feb 21 20:53:29 2022, MaxMem= 16106127360 cpu:               1.2 elap:               0.1
 (Enter /sw/contrib/gaussian/g16/B01/g16/l1110.exe)
 Forming Gx(P) for generalized density number  2 NAtomX=     5.
 Integral derivatives from FoFJK, PRISM(SPDF).
 Do as many integral derivatives as possible in FoFJK.
 G2DrvN: MDV=   16106126844.
 G2DrvN: will do     6 centers at a time, making    1 passes.
 Calling FoFCou, ICntrl=  3107 FMM=F I1Cent=   0 AccDes= 0.00D+00.
 FoFJK:  IHMeth= 1 ICntrl=    3107 DoSepK=F KAlg= 0 I1Cent=           0 FoldK=F
 IRaf=         0 NMat=       1 IRICut=       1 DoRegI=T DoRafI=F ISym2E= 1 IDoP0=0 IntGTp=1.
 FoFCou: FMM=F IPFlag=           0 FMFlag=      100000 FMFlg1=           0
         NFxFlg=           0 DoJE=F BraDBF=F KetDBF=F FulRan=T
         wScrn=  0.000000 ICntrl=      3107 IOpCl=  0 I1Cent=           0 NGrid=           0
         NMat0=    1 NMatS0=      1 NMatT0=    0 NMatD0=    1 NMtDS0=    0 NMtDT0=    0
 Petite list used in FoFCou.
 End of G2Drv F.D. properties file   721 does not exist.
 End of G2Drv F.D. properties file   722 does not exist.
 End of G2Drv F.D. properties file   788 does not exist.
 Leave Link 1110 at Mon Feb 21 20:53:32 2022, MaxMem= 16106127360 cpu:              85.1 elap:               3.1
 (Enter /sw/contrib/gaussian/g16/B01/g16/l1112.exe)
 MP22nd: MDV=   16106127360
 This link is doing NAtomX=     5 total of    18 degrees of freedom.
 Using ON3 I/O method in MakUI.
 Frozen-core window:  NFC=   4 NFV=   0.
 Using Ix for Sx.
 Use MO integrals over full window.
 Using OV2 memory method for fx*t*t/D, MaxI=    16 DoOO2=F NP=  28.
 R2 and R3 integrals will be kept in memory, NReq=   915591705.
 FoFCou: FMM=F IPFlag=           0 FMFlag=           0 FMFlg1=           0
         NFxFlg=           0 DoJE=F BraDBF=F KetDBF=F FulRan=T
         wScrn=  0.000000 ICntrl=       600 IOpCl=  0 I1Cent=           0 NGrid=           0
         NMat0=    1 NMatS0=      1 NMatT0=    0 NMatD0=    1 NMtDS0=    0 NMtDT0=    0
 Symmetry not used in FoFCou.
 DD1Dir will call FoFMem   1 times, MxPair=       272
 NAB=   136 NAA=     0 NBB=     0.
 Symmetry is being used.
 FoFJK:  IHMeth= 1 ICntrl=       0 DoSepK=F KAlg= 0 I1Cent=           0 FoldK=F
 IRaf=         0 NMat=      18 IRICut=      45 DoRegI=T DoRafI=T ISym2E= 2 IDoP0=3 IntGTp=3.
 Discarding MO integrals.
 Leave Link 1112 at Mon Feb 21 20:54:08 2022, MaxMem= 16106127360 cpu:             993.9 elap:              35.9
 (Enter /sw/contrib/gaussian/g16/B01/g16/l601.exe)
 Copying SCF densities to generalized density rwf, IOpCl= 0 IROHF=0.

 **********************************************************************

            Population analysis using the MP2 Density.

 **********************************************************************

 Orbital symmetries:
       Occupied  (A') (A') (A') (A') (A') (A') (A') (A') (A') (A')
                 (A") (A') (A") (A') (A") (A')
       Virtual   (A') (A") (A') (A') (A') (A") (A') (A') (A") (A')
                 (A") (A') (A') (A') (A") (A') (A') (A") (A') (A')
                 (A') (A') (A') (A') (A") (A') (A') (A") (A') (A')
                 (A") (A') (A") (A') (A') (A") (A') (A') (A") (A')
                 (A") (A') (A") (A') (A') (A") (A') (A') (A") (A')
                 (A") (A') (A') (A') (A") (A') (A") (A') (A") (A')
                 (A') (A') (A") (A') (A') (A") (A') (A") (A') (A')
                 (A") (A') (A') (A") (A") (A') (A') (A") (A') (A')
                 (A') (A") (A') (A") (A') (A") (A') (A") (A') (A')
                 (A") (A') (A') (A") (A') (A") (A') (A") (A') (A')
                 (A") (A') (A") (A') (A') (A") (A') (A') (A") (A')
                 (A") (A') (A') (A') (A") (A') (A') (A') (A") (A')
                 (A") (A') (A") (A') (A') (A") (A") (A') (A") (A')
                 (A') (A') (A') (A") (A") (A") (A') (A') (A') (A')
                 (A") (A') (A") (A') (A') (A") (A') (A') (A') (A')
                 (A") (A') (A') (A") (A') (A") (A') (A") (A') (A")
                 (A') (A") (A') (A') (A") (A") (A") (A') (A") (A')
                 (A") (A') (A") (A') (A") (A') (A") (A") (A') (A')
                 (A') (A') (A') (A') (A') (A') (A') (A') (A') (A')
                 (A')
 The electronic state is 1-A'.
 Alpha  occ. eigenvalues --  -20.69129 -20.68463 -20.66059 -15.81249  -1.62324
 Alpha  occ. eigenvalues --   -1.49645  -1.25518  -0.94782  -0.77329  -0.75886
 Alpha  occ. eigenvalues --   -0.71161  -0.67962  -0.62083  -0.59025  -0.48567
 Alpha  occ. eigenvalues --   -0.47131
 Alpha virt. eigenvalues --    0.02955   0.07208   0.08575   0.10173   0.13401
 Alpha virt. eigenvalues --    0.13401   0.14404   0.15460   0.17816   0.19421
 Alpha virt. eigenvalues --    0.19977   0.20617   0.22082   0.23448   0.23725
 Alpha virt. eigenvalues --    0.26537   0.29416   0.30419   0.31063   0.34312
 Alpha virt. eigenvalues --    0.34988   0.38689   0.42159   0.43132   0.52644
 Alpha virt. eigenvalues --    0.53000   0.55890   0.58261   0.62651   0.63621
 Alpha virt. eigenvalues --    0.67420   0.68429   0.70784   0.71082   0.72444
 Alpha virt. eigenvalues --    0.72963   0.74563   0.78998   0.79157   0.80981
 Alpha virt. eigenvalues --    0.81235   0.83019   0.86827   0.90764   0.92170
 Alpha virt. eigenvalues --    0.92428   0.95672   0.97931   0.98442   1.01609
 Alpha virt. eigenvalues --    1.05211   1.05469   1.08186   1.11808   1.14062
 Alpha virt. eigenvalues --    1.18894   1.22272   1.23221   1.33838   1.34915
 Alpha virt. eigenvalues --    1.38459   1.45200   1.48797   1.50996   1.53866
 Alpha virt. eigenvalues --    1.56596   1.57997   1.61385   1.66371   1.66833
 Alpha virt. eigenvalues --    1.70419   1.79348   1.83256   1.83419   1.87658
 Alpha virt. eigenvalues --    1.91159   1.95575   1.99112   2.00831   2.07526
 Alpha virt. eigenvalues --    2.11950   2.13312   2.14886   2.22320   2.26211
 Alpha virt. eigenvalues --    2.26392   2.28977   2.31421   2.34147   2.38605
 Alpha virt. eigenvalues --    2.42258   2.42881   2.45617   2.46573   2.47592
 Alpha virt. eigenvalues --    2.50190   2.58977   2.59492   2.61811   2.62638
 Alpha virt. eigenvalues --    2.63486   2.66511   2.76065   2.83118   2.86091
 Alpha virt. eigenvalues --    2.87808   2.89442   2.91254   2.96248   3.02352
 Alpha virt. eigenvalues --    3.07138   3.11792   3.20473   3.22912   3.31477
 Alpha virt. eigenvalues --    3.34478   3.51014   3.64741   3.83849   3.84475
 Alpha virt. eigenvalues --    4.14802   4.15954   4.18310   4.25734   4.35426
 Alpha virt. eigenvalues --    4.39300   4.46330   4.51836   4.66598   4.70955
 Alpha virt. eigenvalues --    4.80731   4.82113   4.82744   4.89515   5.02208
 Alpha virt. eigenvalues --    5.07829   5.10050   5.14288   5.18316   5.24112
 Alpha virt. eigenvalues --    5.27041   5.31097   5.32877   5.35767   5.60888
 Alpha virt. eigenvalues --    5.67361   5.75830   5.82911   5.95789   6.16782
 Alpha virt. eigenvalues --    6.30720   6.33962   6.39395   6.49168   6.50276
 Alpha virt. eigenvalues --    6.61268   6.66774   6.69544   6.75717   6.76204
 Alpha virt. eigenvalues --    6.82830   6.90195   7.01241   7.05504   7.05690
 Alpha virt. eigenvalues --    7.08866   7.12555   7.14792   7.18088   7.22440
 Alpha virt. eigenvalues --    7.24106   7.30697   7.32485   7.34787   7.39996
 Alpha virt. eigenvalues --    7.43219   7.48583   7.60681   7.61738   7.62800
 Alpha virt. eigenvalues --    7.66249   7.78291   7.89206   8.09201   8.31420
 Alpha virt. eigenvalues --    8.40916   8.54500  13.38222  14.40487  15.15625
 Alpha virt. eigenvalues --   16.15051
          Condensed to atoms (all electrons):
               1          2          3          4          5
     1  H    0.589457   0.128671   0.019932   0.012325  -0.000678
     2  O    0.128671   8.318867  -0.171948  -0.091356   0.015286
     3  O    0.019932  -0.171948   8.469700  -0.133896  -0.035296
     4  N    0.012325  -0.091356  -0.133896   6.979644  -0.057347
     5  O   -0.000678   0.015286  -0.035296  -0.057347   8.270946
 Mulliken charges:
               1
     1  H    0.250292
     2  O   -0.199521
     3  O   -0.148492
     4  N    0.290630
     5  O   -0.192910
 Sum of Mulliken charges =  -0.00000
 Mulliken charges with hydrogens summed into heavy atoms:
               1
     2  O    0.050772
     3  O   -0.148492
     4  N    0.290630
     5  O   -0.192910
 APT charges:
               1
     1  H    0.299892
     2  O   -0.287095
     3  O   -0.502686
     4  N    0.883510
     5  O   -0.393621
 Sum of APT charges =  -0.00000
 APT charges with hydrogens summed into heavy atoms:
               1
     2  O    0.012797
     3  O   -0.502686
     4  N    0.883510
     5  O   -0.393621
 Electronic spatial extent (au):  <R**2>=            253.6775
 Charge=             -0.0000 electrons
 Dipole moment (field-independent basis, Debye):
    X=              0.5053    Y=              1.3731    Z=             -0.0000  Tot=              1.4631
 Quadrupole moment (field-independent basis, Debye-Ang):
   XX=            -22.4383   YY=            -18.6220   ZZ=            -22.0152
   XY=              3.2796   XZ=              0.0000   YZ=             -0.0000
 Traceless Quadrupole moment (field-independent basis, Debye-Ang):
   XX=             -1.4131   YY=              2.4031   ZZ=             -0.9900
   XY=              3.2796   XZ=              0.0000   YZ=             -0.0000
 Octapole moment (field-independent basis, Debye-Ang**2):
  XXX=              2.9106  YYY=             11.3149  ZZZ=              0.0000  XYY=              7.9390
  XXY=              6.5915  XXZ=             -0.0000  XZZ=             -1.5723  YZZ=             -0.8594
  YYZ=             -0.0000  XYZ=             -0.0000
 Hexadecapole moment (field-independent basis, Debye-Ang**3):
 XXXX=           -158.3137 YYYY=            -90.5529 ZZZZ=            -18.2556 XXXY=            -36.9010
 XXXZ=              0.0000 YYYX=            -30.9486 YYYZ=              0.0000 ZZZX=              0.0000
 ZZZY=              0.0000 XXYY=            -33.9670 XXZZ=            -30.8607 YYZZ=            -20.8235
 XXYZ=              0.0000 YYXZ=              0.0000 ZZXY=            -15.1639
 N-N= 1.167557954943D+02 E-N=-8.956125696985D+02  KE= 2.801912792203D+02
 Symmetry A'   KE= 2.662223435627D+02
 Symmetry A"   KE= 1.396893565761D+01
  Exact polarizability:  34.026   9.561  30.399  -0.000  -0.000  17.945
 Approx polarizability:  28.979   5.230  23.621  -0.000  -0.000  15.530
 No NMR shielding tensors so no spin-rotation constants.
 Leave Link  601 at Mon Feb 21 20:54:08 2022, MaxMem= 16106127360 cpu:               4.2 elap:               0.2
 (Enter /sw/contrib/gaussian/g16/B01/g16/l701.exe)
 ... and contract with generalized density number  2.
 Compute integral second derivatives.
 Leave Link  701 at Mon Feb 21 20:54:08 2022, MaxMem= 16106127360 cpu:               6.4 elap:               0.3
 (Enter /sw/contrib/gaussian/g16/B01/g16/l702.exe)
 L702 exits ... SP integral derivatives will be done elsewhere.
 Leave Link  702 at Mon Feb 21 20:54:08 2022, MaxMem= 16106127360 cpu:               0.7 elap:               0.0
 (Enter /sw/contrib/gaussian/g16/B01/g16/l703.exe)
 Integral derivatives from FoFJK, PRISM(SPDF).
 Compute integral second derivatives, UseDBF=F ICtDFT=           0.
 Calling FoFJK, ICntrl=  10100127 FMM=F ISym2X=1 I1Cent= 0 IOpClX= 0 NMat=1 NMatS=1 NMatT=0.
 FoFJK:  IHMeth= 1 ICntrl=10100127 DoSepK=F KAlg= 0 I1Cent=           0 FoldK=F
 IRaf=         0 NMat=       1 IRICut=       1 DoRegI=T DoRafI=F ISym2E= 1 IDoP0=0 IntGTp=1.
 FoFCou: FMM=F IPFlag=           0 FMFlag=      100000 FMFlg1=         800
         NFxFlg=           0 DoJE=F BraDBF=F KetDBF=F FulRan=T
         wScrn=  0.000000 ICntrl=  10100127 IOpCl=  0 I1Cent=           0 NGrid=           0
         NMat0=    1 NMatS0=      1 NMatT0=    0 NMatD0=    1 NMtDS0=    0 NMtDT0=    0
 Petite list used in FoFCou.
 Leave Link  703 at Mon Feb 21 20:54:23 2022, MaxMem= 16106127360 cpu:             420.2 elap:              15.1
 (Enter /sw/contrib/gaussian/g16/B01/g16/l716.exe)
 Dipole        = 1.98796009D-01 5.40227185D-01-4.02070733D-32
 Polarizability= 3.40256093D+01 9.56105058D+00 3.03988439D+01
                -3.59729179D-30-3.63368664D-30 1.79454900D+01
 Full mass-weighted force constant matrix:
 Low frequencies --- -272.3931  -79.4088   -0.0008    0.0010    0.0015   20.0236
 Low frequencies ---   31.5524  228.4958  340.8745
 ******    1 imaginary frequencies (negative Signs) ****** 
 Diagonal vibrational polarizability:
       14.4324719      26.2833872      45.6877914
 Harmonic frequencies (cm**-1), IR intensities (KM/Mole), Raman scattering
 activities (A**4/AMU), depolarization ratios for plane and unpolarized
 incident light, reduced masses (AMU), force constants (mDyne/A),
 and normal coordinates:
                      1                      2                      3
                     A"                     A"                     A'
 Frequencies --   -272.3730               227.7286               340.8735
 Red. masses --      1.1426                10.1431                 8.5825
 Frc consts  --      0.0499                 0.3099                 0.5876
 IR Inten    --    124.4652                 1.0373                 6.1316
  Atom  AN      X      Y      Z        X      Y      Z        X      Y      Z
     1   1     0.00  -0.00   1.00     0.00   0.00  -0.60     0.54  -0.44   0.00
     2   8    -0.00  -0.00  -0.07     0.00   0.00  -0.30    -0.09  -0.37  -0.00
     3   8     0.00   0.00  -0.04     0.00   0.00   0.31    -0.14   0.44   0.00
     4   7     0.00   0.00   0.06    -0.00  -0.00   0.52     0.03   0.25   0.00
     5   8     0.00  -0.00  -0.01    -0.00  -0.00  -0.43     0.16  -0.26  -0.00
                      4                      5                      6
                     A'                     A'                     A'
 Frequencies --    443.5633               786.6344               966.4177
 Red. masses --     12.4400                12.9068                15.3239
 Frc consts  --      1.4421                 4.7056                 8.4323
 IR Inten    --    199.2428               174.6976                24.3552
  Atom  AN      X      Y      Z        X      Y      Z        X      Y      Z
     1   1     0.39   0.21  -0.00    -0.34   0.19  -0.00    -0.18  -0.04   0.00
     2   8     0.32   0.22   0.00     0.42   0.08  -0.00    -0.52   0.03  -0.00
     3   8     0.19   0.43  -0.00    -0.07  -0.27   0.00     0.75  -0.03   0.00
     4   7    -0.35  -0.41  -0.00    -0.14   0.62   0.00    -0.12   0.25   0.00
     5   8    -0.23  -0.30   0.00    -0.21  -0.37  -0.00    -0.11  -0.22  -0.00
                      7                      8                      9
                     A'                     A'                     A'
 Frequencies --   1371.0565              1677.0398              3778.8686
 Red. masses --      1.1336                13.1652                 1.0675
 Frc consts  --      1.2555                21.8155                 8.9818
 IR Inten    --    154.8179               143.2475                83.3003
  Atom  AN      X      Y      Z        X      Y      Z        X      Y      Z
     1   1     0.99  -0.05   0.00    -0.35   0.01  -0.00     0.10   0.99  -0.00
     2   8    -0.03   0.05   0.00    -0.00  -0.04  -0.00    -0.01  -0.06   0.00
     3   8    -0.02  -0.05  -0.00     0.00   0.15   0.00     0.00   0.00   0.00
     4   7     0.02   0.01  -0.00     0.70  -0.04   0.00    -0.00  -0.00  -0.00
     5   8    -0.03  -0.01   0.00    -0.59  -0.07  -0.00     0.00   0.00  -0.00

 -------------------
 - Thermochemistry -
 -------------------
 Temperature   298.150 Kelvin.  Pressure   1.00000 Atm.
 Atom     1 has atomic number  1 and mass   1.00783
 Atom     2 has atomic number  8 and mass  15.99491
 Atom     3 has atomic number  8 and mass  15.99491
 Atom     4 has atomic number  7 and mass  14.00307
 Atom     5 has atomic number  8 and mass  15.99491
 Molecular mass:    62.99564 amu.
 Principal axes and moments of inertia in atomic units:
                           1         2         3
     Eigenvalues --    32.68955 361.84010 394.52965
           X            0.80791  -0.58931   0.00000
           Y            0.58931   0.80791   0.00000
           Z           -0.00000   0.00000   1.00000
 This molecule is an asymmetric top.
 Rotational symmetry number  1.
 Rotational temperatures (Kelvin)      2.64959     0.23937     0.21954
 Rotational constants (GHZ):          55.20850     4.98768     4.57441
    1 imaginary frequencies ignored.
 Zero-point vibrational energy      57374.0 (Joules/Mol)
                                   13.71271 (Kcal/Mol)
 Warning -- explicit consideration of   3 degrees of freedom as
           vibrations may cause significant error
 Vibrational temperatures:    327.65   490.44   638.19  1131.79  1390.46
          (Kelvin)           1972.64  2412.89  5436.95
 
 Zero-point correction=                           0.021853 (Hartree/Particle)
 Thermal correction to Energy=                    0.025980
 Thermal correction to Enthalpy=                  0.026924
 Thermal correction to Gibbs Free Energy=        -0.004280
 Sum of electronic and zero-point Energies=           -280.424814
 Sum of electronic and thermal Energies=              -280.420687
 Sum of electronic and thermal Enthalpies=            -280.419742
 Sum of electronic and thermal Free Energies=         -280.450946
 
                     E (Thermal)             CV                S
                      KCal/Mol        Cal/Mol-Kelvin    Cal/Mol-Kelvin
 Total                   16.302             11.974             65.673
 Electronic               0.000              0.000              0.000
 Translational            0.889              2.981             38.341
 Rotational               0.889              2.981             23.061
 Vibrational             14.525              6.013              4.272
 Vibration     1          0.651              1.799              1.897
 Vibration     2          0.720              1.594              1.208
 Vibration     3          0.803              1.375              0.815
                       Q            Log10(Q)             Ln(Q)
 Total Bot       0.929961D+02          1.968465          4.532558
 Total V=0       0.104702D+13         12.019954         27.676966
 Vib (Bot)       0.193507D-09         -9.713303        -22.365707
 Vib (Bot)    1  0.865737D+00         -0.062614         -0.144174
 Vib (Bot)    2  0.544431D+00         -0.264057         -0.608014
 Vib (Bot)    3  0.388625D+00         -0.410470         -0.945142
 Vib (V=0)       0.217864D+01          0.338186          0.778702
 Vib (V=0)    1  0.149975D+01          0.176019          0.405298
 Vib (V=0)    2  0.123919D+01          0.093139          0.214460
 Vib (V=0)    3  0.113327D+01          0.054333          0.125106
 Electronic      0.100000D+01          0.000000          0.000000
 Translational   0.196526D+08          7.293420         16.793719
 Rotational      0.244539D+05          4.388348         10.104545
 
                                                                title
                                                             IR Spectrum
 
     3                                                                      1         1                                              
     7                                                                      6         3             9     7           4  3   2       
     7                                                                      7         7             6     8           4  4   2       
     9                                                                      7         1             6     7           4  1   8       
 
     X                                                                      X         X             X     X           X  X   X       
     X                                                                      X         X             X     X           X              
     X                                                                      X         X                   X           X              
     X                                                                      X         X                   X           X              
     X                                                                      X         X                   X           X              
     X                                                                      X         X                   X           X              
     X                                                                      X         X                   X           X              
     X                                                                      X         X                   X           X              
                                                                            X         X                   X           X              
                                                                            X         X                   X           X              
                                                                            X         X                   X           X              
                                                                            X         X                   X           X              
                                                                            X         X                   X           X              
                                                                            X         X                   X           X              
                                                                                      X                   X           X              
                                                                                      X                   X           X              
                                                                                                          X           X              
                                                                                                          X           X              
                                                                                                                      X              
                                                                                                                      X              
 
 ***** Axes restored to original set *****
 -------------------------------------------------------------------
 Center     Atomic                   Forces (Hartrees/Bohr)
 Number     Number              X              Y              Z
 -------------------------------------------------------------------
      1        1           0.000262307   -0.000000000   -0.000018156
      2        8           0.000495373    0.000000000    0.000903360
      3        8           0.002803867   -0.000000000   -0.000596017
      4        7          -0.003566000    0.000000000    0.003488563
      5        8           0.000004453   -0.000000000   -0.003777751
 -------------------------------------------------------------------
 Cartesian Forces:  Max     0.003777751 RMS     0.001798246
 -----------------------------------------------------------------------------------------------
                       Internal Coordinate Forces (Hartree/Bohr or radian)
  Cent   Atom   N1       Length/X         N2         Alpha/Y        N3         Beta/Z          J
 -----------------------------------------------------------------------------------------------
      1  H 
      2  O        1   0.000018(     1)
      3  O        2  -0.000868(     2)      1  -0.000480(     5)
      4  N        3  -0.000580(     3)      2  -0.001657(     6)      1  -0.000000(     8)     0
      5  O        4  -0.000995(     4)      3  -0.008063(     7)      2  -0.000000(     9)     0
 -----------------------------------------------------------------------------------------------
 Internal  Forces:  Max     0.008062917 RMS     0.002790178
 Force constants in Cartesian coordinates: 
                1             2             3             4             5 
      1  0.646440D-01
      2  0.000000D+00 -0.240559D-02
      3  0.520053D-02  0.000000D+00  0.512409D+00
      4 -0.358527D-01  0.000000D+00 -0.162766D-01  0.272432D+00
      5  0.000000D+00  0.316339D-02  0.000000D+00  0.000000D+00  0.209866D-02
      6  0.483451D-01  0.000000D+00 -0.508563D+00  0.328859D-01  0.000000D+00
      7 -0.183546D-01  0.000000D+00  0.126316D-01 -0.220566D+00  0.000000D+00
      8  0.000000D+00  0.957216D-03  0.000000D+00  0.000000D+00 -0.638133D-02
      9 -0.531538D-01  0.000000D+00 -0.384164D-03 -0.193653D-01  0.000000D+00
     10 -0.940295D-02  0.000000D+00 -0.489537D-02 -0.165708D-01  0.000000D+00
     11  0.000000D+00 -0.274180D-02  0.000000D+00  0.000000D+00 -0.525123D-02
     12  0.528565D-02  0.000000D+00 -0.495384D-02  0.114002D-01  0.000000D+00
     13 -0.103379D-02  0.000000D+00  0.333981D-02  0.557442D-03  0.000000D+00
     14  0.000000D+00  0.102679D-02  0.000000D+00  0.000000D+00  0.637051D-02
     15 -0.567745D-02  0.000000D+00  0.149203D-02 -0.864415D-02  0.000000D+00
                6             7             8             9            10 
      6  0.594713D+00
      7 -0.209596D-01  0.340303D+00
      8  0.000000D+00  0.000000D+00  0.348832D-02
      9 -0.786264D-01  0.328740D-01  0.000000D+00  0.179323D+00
     10 -0.530363D-01 -0.798679D-01  0.000000D+00  0.177353D+00  0.827645D+00
     11  0.000000D+00  0.000000D+00  0.103832D-01  0.000000D+00  0.000000D+00
     12  0.167908D-01  0.637743D-01  0.000000D+00 -0.799692D-01 -0.106082D-01
     13 -0.723508D-02 -0.215150D-01  0.000000D+00 -0.137708D+00 -0.721803D+00
     14  0.000000D+00  0.000000D+00 -0.844744D-02  0.000000D+00  0.000000D+00
     15 -0.243144D-01 -0.883202D-01  0.000000D+00 -0.203435D-01 -0.108813D+00
               11            12            13            14            15 
     11  0.589458D-02
     12  0.000000D+00  0.188694D+00
     13  0.000000D+00 -0.698520D-01  0.743794D+00
     14 -0.828479D-02  0.000000D+00  0.000000D+00  0.933493D-02
     15  0.000000D+00 -0.120561D+00  0.211455D+00  0.000000D+00  0.163727D+00
 Force constants in internal coordinates: 
                1             2             3             4             5 
      1  0.512409D+00
      2 -0.104706D-01  0.280689D+00
      3  0.357769D-02  0.193080D-02  0.115034D+00
      4 -0.361545D-02  0.550279D-02  0.151442D+00  0.811081D+00
      5  0.978503D-02  0.652161D-01  0.228192D-02  0.457427D-02  0.216780D+00
      6  0.472121D-02  0.585369D-01  0.414376D-01  0.205656D-01  0.312683D-01
      7 -0.122983D-02  0.361475D-01  0.261389D-01  0.788209D-01  0.210751D-01
      8  0.000000D+00  0.000000D+00  0.000000D+00  0.000000D+00  0.000000D+00
      9  0.000000D+00  0.000000D+00  0.000000D+00  0.000000D+00  0.000000D+00
                6             7             8             9 
      6  0.282799D+00
      7  0.944185D-01  0.469828D+00
      8  0.000000D+00  0.000000D+00 -0.782862D-02
      9  0.000000D+00  0.000000D+00 -0.387296D-02  0.409810D-01
 Leave Link  716 at Mon Feb 21 20:54:23 2022, MaxMem= 16106127360 cpu:               1.2 elap:               0.1
 (Enter /sw/contrib/gaussian/g16/B01/g16/l103.exe)

 GradGradGradGradGradGradGradGradGradGradGradGradGradGradGradGradGradGrad
 Berny optimization.
 Search for a local minimum.
 Step number   1 out of a maximum of    2
 All quantities printed in internal units (Hartrees-Bohrs-Radians)
 Second derivative matrix not updated -- analytic derivatives used.
 The second derivative matrix:
                          r1        r2        r3        r4        a1
           r1           0.51241
           r2          -0.01047   0.28069
           r3           0.00358   0.00193   0.11503
           r4          -0.00362   0.00550   0.15144   0.81108
           a1           0.00979   0.06522   0.00228   0.00457   0.21678
           a2           0.00472   0.05854   0.04144   0.02057   0.03127
           a3          -0.00123   0.03615   0.02614   0.07882   0.02108
           d1          -0.00000   0.00000  -0.00000  -0.00000   0.00000
           d2           0.00000   0.00000  -0.00000  -0.00000   0.00000
                          a2        a3        d1        d2
           a2           0.28280
           a3           0.09442   0.46983
           d1           0.00000   0.00000  -0.00783
           d2           0.00000   0.00000  -0.00387   0.04098
 ITU=  0
     Eigenvalues ---   -0.00813   0.04129   0.07644   0.17528   0.22570
     Eigenvalues ---    0.32355   0.50940   0.51322   0.86504
 Eigenvalue     1 is  -8.13D-03 should be greater than     0.000000 Eigenvector:
                          d1        d2        r3        a2        a3
   1                    0.99691   0.07861   0.00000  -0.00000  -0.00000
                          a1        r4        r1        r2
   1                    0.00000  -0.00000  -0.00000  -0.00000
 Angle between quadratic step and forces=  16.99 degrees.
 Linear search not attempted -- first point.
 Variable       Old X    -DE/DX   Delta X   Delta X   Delta X     New X
                                 (Linear)    (Quad)   (Total)
    r1        1.83110   0.00002   0.00000   0.00000   0.00000   1.83110
    r2        2.74940  -0.00087   0.00000  -0.00089  -0.00089   2.74851
    r3        2.75670  -0.00058   0.00000  -0.00244  -0.00244   2.75426
    r4        2.21236  -0.00099   0.00000   0.00090   0.00090   2.21325
    a1        1.70335  -0.00048   0.00000  -0.00033  -0.00033   1.70302
    a2        1.78543  -0.00166   0.00000   0.00039   0.00039   1.78581
    a3        1.92045  -0.00806   0.00000  -0.01717  -0.01717   1.90328
    d1        3.14159  -0.00000   0.00000  -0.00000   0.00000   3.14159
    d2        3.14159  -0.00000   0.00000  -0.00000   0.00000   3.14159
         Item               Value     Threshold  Converged?
 Maximum Force            0.008063     0.000450     NO 
 RMS     Force            0.002790     0.000300     NO 
 Maximum Displacement     0.017171     0.001800     NO 
 RMS     Displacement     0.005799     0.001200     NO 
 Predicted change in Energy=-6.962870D-05
                       ----------------------------
                       ! Non-Optimized Parameters !
                       ! (Angstroms and Degrees)  !
 ----------------------                            ----------------------
 !      Name          Value   Derivative information (Atomic Units)     !
 ------------------------------------------------------------------------
 !       r1          0.969    -DE/DX =    0.0                           !
 !       r2          1.4545   -DE/DX =   -0.0009                        !
 !       r3          1.4575   -DE/DX =   -0.0006                        !
 !       r4          1.1712   -DE/DX =   -0.001                         !
 !       a1         97.5761   -DE/DX =   -0.0005                        !
 !       a2        102.3197   -DE/DX =   -0.0017                        !
 !       a3        109.0499   -DE/DX =   -0.0081                        !
 !       d1        180.0      -DE/DX =    0.0                           !
 !       d2        180.0      -DE/DX =    0.0                           !
 ------------------------------------------------------------------------
 GradGradGradGradGradGradGradGradGradGradGradGradGradGradGradGradGradGrad

 Leave Link  103 at Mon Feb 21 20:54:23 2022, MaxMem= 16106127360 cpu:               2.3 elap:               0.1
 (Enter /sw/contrib/gaussian/g16/B01/g16/l9999.exe)

 ----------------------------------------------------------------------

 Electric dipole moment (input orientation):
 (Debye = 10**-18 statcoulomb cm , SI units = C m)
                  (au)            (Debye)         (10**-30 SI)
   Tot        0.575643D+00      0.146314D+01      0.488051D+01
   x         -0.144197D+00     -0.366512D+00     -0.122255D+01
   y          0.000000D+00      0.000000D+00      0.000000D+00
   z         -0.557290D+00     -0.141649D+01     -0.472490D+01

 Dipole polarizability, Alpha (input orientation).
 (esu units = cm**3 , SI units = C**2 m**2 J**-1)
 Alpha(0;0):
               (au)            (10**-24 esu)      (10**-40 SI)
   iso        0.274566D+02      0.406866D+01      0.452699D+01
   aniso      0.220827D+02      0.327232D+01      0.364095D+01
   xx         0.321014D+02      0.475693D+01      0.529280D+01
   yx         0.000000D+00      0.000000D+00      0.000000D+00
   yy         0.179455D+02      0.265925D+01      0.295881D+01
   zx         0.973087D+01      0.144197D+01      0.160440D+01
   zy         0.000000D+00      0.000000D+00      0.000000D+00
   zz         0.323231D+02      0.478979D+01      0.532935D+01

 ----------------------------------------------------------------------

 Dipole orientation:
     1          0.00000000          0.00000000         -0.00000000
     8         -0.45868406          0.00000000         -1.77271836
     8          2.08867940          0.00000000         -2.80719139
     7          1.61925723          0.00000000         -5.52363220
     8          3.53833313          0.00000000         -6.62439135

 Electric dipole moment (dipole orientation):
 (Debye = 10**-18 statcoulomb cm , SI units = C m)
                  (au)            (Debye)         (10**-30 SI)
   Tot        0.575643D+00      0.146314D+01      0.488051D+01
   x          0.000000D+00      0.000000D+00      0.000000D+00
   y          0.000000D+00      0.000000D+00      0.000000D+00
   z          0.575643D+00      0.146314D+01      0.488051D+01

 Dipole polarizability, Alpha (dipole orientation).
 (esu units = cm**3 , SI units = C**2 m**2 J**-1)
 Alpha(0;0):
               (au)            (10**-24 esu)      (10**-40 SI)
   iso        0.274566D+02      0.406866D+01      0.452699D+01
   aniso      0.220827D+02      0.327232D+01      0.364095D+01
   xx         0.273956D+02      0.405961D+01      0.451693D+01
   yx         0.000000D+00      0.000000D+00      0.000000D+00
   yy         0.179455D+02      0.265925D+01      0.295881D+01
   zx        -0.845591D+01     -0.125304D+01     -0.139419D+01
   zy         0.000000D+00      0.000000D+00      0.000000D+00
   zz         0.370288D+02      0.548711D+01      0.610523D+01

 ----------------------------------------------------------------------
 1\1\GINC-N2109\Freq\RMP2-FC\Aug-CC-pVTZ\H1N1O3\CGAVINH\21-Feb-2022\1\\
 #p freq mp2/aug-cc-pvtz density=current\\title\\0,1\H\O,1,r1\O,2,r2,1,
 a1\N,3,r3,2,a2,1,d1,0\O,4,r4,3,a3,2,d2,0\\r1=0.96897556\r2=1.45491931\
 r3=1.45878406\r4=1.17072885\a1=97.59494903\a2=102.29752444\a3=110.0337
 4161\d1=180.\d2=180.\\Version=ES64L-G16RevB.01\State=1-A'\HF=-279.5015
 479\MP2=-280.4466662\RMSD=3.837e-09\RMSF=1.798e-03\ZeroPoint=0.0218526
 \Thermal=0.0259795\Dipole=-0.1441967,0.,-0.5572904\DipoleDeriv=0.26690
 5,0.,0.0485705,0.,0.3557319,0.,0.0829378,0.,0.2770386,-0.3260995,0.,-0
 .2063642,0.,-0.3140388,0.,-0.1097971,0.,-0.2211473,-0.0514523,0.,0.144
 424,0.,-0.0854924,0.,-0.7567428,0.,-1.3711127,0.8925088,0.,0.9140759,0
 .,0.062767,0.,0.9305698,0.,1.6952541,-0.781862,0.,-0.9007062,0.,-0.018
 9677,0.,-0.1469677,0.,-0.3800327\Polar=32.1013798,0.,17.94549,9.730866
 3,0.,32.3230734\Quadrupole=-1.5042608,-0.7360749,2.2403357,0.,2.110057
 1,0.\PG=CS [SG(H1N1O3)]\NImag=1\\0.06464401,0.,-0.00240559,0.00520053,
 0.,0.51240925,-0.03585268,0.,-0.01627659,0.27243156,0.,0.00316339,0.,0
 .,0.00209866,0.04834512,0.,-0.50856327,0.03288586,0.,0.59471329,-0.018
 35458,0.,0.01263161,-0.22056556,0.,-0.02095963,0.34030307,0.,0.0009572
 2,0.,0.,-0.00638133,0.,0.,0.00348832,-0.05315384,0.,-0.00038416,-0.019
 36533,0.,-0.07862644,0.03287397,0.,0.17932336,-0.00940295,0.,-0.004895
 37,-0.01657077,0.,-0.05303627,-0.07986794,0.,0.17735279,0.82764478,0.,
 -0.00274180,0.,0.,-0.00525123,0.,0.,0.01038323,0.,0.,0.00589458,0.0052
 8565,0.,-0.00495384,0.01140020,0.,0.01679083,0.06377429,0.,-0.07996924
 ,-0.01060817,0.,0.18869351,-0.00103379,0.,0.00333981,0.00055744,0.,-0.
 00723508,-0.02151499,0.,-0.13770759,-0.72180311,0.,-0.06985198,0.74379
 445,0.,0.00102679,0.,0.,0.00637051,0.,0.,-0.00844744,0.,0.,-0.00828479
 ,0.,0.,0.00933493,-0.00567745,0.,0.00149203,-0.00864415,0.,-0.02431440
 ,-0.08832024,0.,-0.02034351,-0.10881299,0.,-0.12056125,0.21145484,0.,0
 .16372713\\-0.00026231,0.,0.00001816,-0.00049537,0.,-0.00090336,-0.002
 80387,0.,0.00059602,0.00356600,0.,-0.00348856,-0.00000445,0.,0.0037777
 5\\\@


 WHAT, THEN, IS TIME?  IF NO ONE ASKS ME, I KNOW WHAT IT IS.
 IF I WISH TO EXPLAIN WHAT IT IS TO HIM WHO ASKS ME, I DO NOT KNOW.
                                   -- ST. AUGUSTINE (FIFTH CENTURY)
 Job cpu time:       0 days  2 hours  0 minutes 54.0 seconds.
 Elapsed time:       0 days  0 hours  4 minutes 22.2 seconds.
 File lengths (MBytes):  RWF=   7239 Int=      0 D2E=      0 Chk=      8 Scr=      1
 Normal termination of Gaussian 16 at Mon Feb 21 20:54:24 2022.
