title                                                                   
Freq      RMP2-FC                                                     Aug-CC-pVTZ         
Number of atoms                            I                5
Info1-9                                    I   N=           9
          33          24           0           0           0         100
           6           2           1
Full Title                                 C   N=           1
title       
Route                                      C   N=           4
#p freq mp2/aug-cc-pvtz density=current         
Charge                                     I                0
Multiplicity                               I                1
Number of electrons                        I               32
Number of alpha electrons                  I               16
Number of beta electrons                   I               16
Number of basis functions                  I              207
Number of independent functions            I              207
Number of point charges in /Mol/           I                0
Number of translation vectors              I                0
Atomic numbers                             I   N=           5
           1           8           8           7           8
Nuclear charges                            R   N=           5
  1.00000000E+00  8.00000000E+00  8.00000000E+00  7.00000000E+00  8.00000000E+00
Current cartesian coordinates              R   N=          15
  2.92311619E+00  3.21064967E+00  7.13972389E-31  2.74756409E+00  1.38798598E+00
  3.76294339E-31 -8.51497288E-17  1.28755402E+00 -9.82889587E-32 -4.94414771E-01
 -1.45915486E+00 -7.64102204E-32 -2.68034069E+00 -1.80011071E+00 -6.60820102E-31
Number of symbols in /Mol/                 I                0
Force Field                                I                0
Atom Types                                 C   N=           5
                                                            
Int Atom Types                             I   N=           5
           0           0           0           0           0
MM charges                                 R   N=           5
  0.00000000E+00  0.00000000E+00  0.00000000E+00  0.00000000E+00  0.00000000E+00
Integer atomic weights                     I   N=           5
           1          16          16          14          16
Real atomic weights                        R   N=           5
  1.00782504E+00  1.59949146E+01  1.59949146E+01  1.40030740E+01  1.59949146E+01
Atom fragment info                         I   N=           5
           0           0           0           0           0
Atom residue num                           I   N=           5
           0           0           0           0           0
Nuclear spins                              I   N=           5
           1           0           0           2           0
Nuclear ZEff                               R   N=           5
 -1.00000000E+00 -5.60000000E+00 -5.60000000E+00 -4.55000000E+00 -5.60000000E+00
Nuclear ZNuc                               R   N=           5
  1.00000000E+00  8.00000000E+00  8.00000000E+00  7.00000000E+00  8.00000000E+00
Nuclear QMom                               R   N=           5
  0.00000000E+00  0.00000000E+00  0.00000000E+00  2.04400000E+00  0.00000000E+00
Nuclear GFac                               R   N=           5
  2.79284600E+00  0.00000000E+00  0.00000000E+00  4.03761000E-01  0.00000000E+00
MicOpt                                     I   N=           5
          -1          -1          -1          -1          -1
Number of residues                         I                0
Number of secondary structures             I                0
SymInf integers                            I   N=          26
           1           2           1           1           1           1
           1          -1           0           0           0           0
           0           0           0           0           0           0
           0           0           0           0           0           0
           0           0
RotTr to input orientation                 R   N=          12
 -9.95393616E-01  6.67836170E-16 -9.58725632E-02  9.58725632E-02 -9.09274850E-16
 -9.95393616E-01 -7.51934371E-16 -1.00000000E+00  8.41059216E-16  2.60183799E+00
  0.00000000E+00  3.47610683E+00
Number of contracted shells                I               65
Number of primitive shells                 I              119
Pure/Cartesian d shells                    I                0
Pure/Cartesian f shells                    I                0
Highest angular momentum                   I                3
Largest degree of contraction              I                7
Shell types                                I   N=          65
           0           0           0           0           1           1
           1          -2          -2           0           0           0
           0           0           1           1           1           1
          -2          -2          -2          -3          -3           0
           0           0           0           0           1           1
           1           1          -2          -2          -2          -3
          -3           0           0           0           0           0
           1           1           1           1          -2          -2
          -2          -3          -3           0           0           0
           0           0           1           1           1           1
          -2          -2          -2          -3          -3
Number of primitives per shell             I   N=          65
           3           1           1           1           1           1
           1           1           1           7           6           1
           1           1           3           1           1           1
           1           1           1           1           1           7
           6           1           1           1           3           1
           1           1           1           1           1           1
           1           7           6           1           1           1
           3           1           1           1           1           1
           1           1           1           7           6           1
           1           1           3           1           1           1
           1           1           1           1           1
Shell to atom map                          I   N=          65
           1           1           1           1           1           1
           1           1           1           2           2           2
           2           2           2           2           2           2
           2           2           2           2           2           3
           3           3           3           3           3           3
           3           3           3           3           3           3
           3           4           4           4           4           4
           4           4           4           4           4           4
           4           4           4           5           5           5
           5           5           5           5           5           5
           5           5           5           5           5
Primitive exponents                        R   N=         119
  3.38700000E+01  5.09500000E+00  1.15900000E+00  3.25800000E-01  1.02700000E-01
  2.52600000E-02  1.40700000E+00  3.88000000E-01  1.02000000E-01  1.05700000E+00
  2.47000000E-01  1.53300000E+04  2.29900000E+03  5.22400000E+02  1.47300000E+02
  4.75500000E+01  1.67600000E+01  6.20700000E+00  5.22400000E+02  1.47300000E+02
  4.75500000E+01  1.67600000E+01  6.20700000E+00  6.88200000E-01  1.75200000E+00
  2.38400000E-01  7.37600000E-02  3.44600000E+01  7.74900000E+00  2.28000000E+00
  7.15600000E-01  2.14000000E-01  5.97400000E-02  2.31400000E+00  6.45000000E-01
  2.14000000E-01  1.42800000E+00  5.00000000E-01  1.53300000E+04  2.29900000E+03
  5.22400000E+02  1.47300000E+02  4.75500000E+01  1.67600000E+01  6.20700000E+00
  5.22400000E+02  1.47300000E+02  4.75500000E+01  1.67600000E+01  6.20700000E+00
  6.88200000E-01  1.75200000E+00  2.38400000E-01  7.37600000E-02  3.44600000E+01
  7.74900000E+00  2.28000000E+00  7.15600000E-01  2.14000000E-01  5.97400000E-02
  2.31400000E+00  6.45000000E-01  2.14000000E-01  1.42800000E+00  5.00000000E-01
  1.14200000E+04  1.71200000E+03  3.89300000E+02  1.10000000E+02  3.55700000E+01
  1.25400000E+01  4.64400000E+00  3.89300000E+02  1.10000000E+02  3.55700000E+01
  1.25400000E+01  4.64400000E+00  5.11800000E-01  1.29300000E+00  1.78700000E-01
  5.76000000E-02  2.66300000E+01  5.94800000E+00  1.74200000E+00  5.55000000E-01
  1.72500000E-01  4.91000000E-02  1.65400000E+00  4.69000000E-01  1.51000000E-01
  1.09300000E+00  3.64000000E-01  1.53300000E+04  2.29900000E+03  5.22400000E+02
  1.47300000E+02  4.75500000E+01  1.67600000E+01  6.20700000E+00  5.22400000E+02
  1.47300000E+02  4.75500000E+01  1.67600000E+01  6.20700000E+00  6.88200000E-01
  1.75200000E+00  2.38400000E-01  7.37600000E-02  3.44600000E+01  7.74900000E+00
  2.28000000E+00  7.15600000E-01  2.14000000E-01  5.97400000E-02  2.31400000E+00
  6.45000000E-01  2.14000000E-01  1.42800000E+00  5.00000000E-01
Contraction coefficients                   R   N=         119
  2.54948632E-02  1.90362766E-01  8.52162022E-01  1.00000000E+00  1.00000000E+00
  1.00000000E+00  1.00000000E+00  1.00000000E+00  1.00000000E+00  1.00000000E+00
  1.00000000E+00  5.19808943E-04  4.02025621E-03  2.07128267E-02  8.10105536E-02
  2.35962985E-01  4.42653446E-01  3.57064423E-01 -4.42115008E-05 -1.22591041E-03
 -1.05517725E-02 -6.74452633E-02 -1.71198607E-01  1.07329856E+00  1.00000000E+00
  1.00000000E+00  1.00000000E+00  4.11634896E-02  2.57762836E-01  8.02419274E-01
  1.00000000E+00  1.00000000E+00  1.00000000E+00  1.00000000E+00  1.00000000E+00
  1.00000000E+00  1.00000000E+00  1.00000000E+00  5.19808943E-04  4.02025621E-03
  2.07128267E-02  8.10105536E-02  2.35962985E-01  4.42653446E-01  3.57064423E-01
 -4.42115008E-05 -1.22591041E-03 -1.05517725E-02 -6.74452633E-02 -1.71198607E-01
  1.07329856E+00  1.00000000E+00  1.00000000E+00  1.00000000E+00  4.11634896E-02
  2.57762836E-01  8.02419274E-01  1.00000000E+00  1.00000000E+00  1.00000000E+00
  1.00000000E+00  1.00000000E+00  1.00000000E+00  1.00000000E+00  1.00000000E+00
  5.34563860E-04  4.13435660E-03  2.12335358E-02  8.25006224E-02  2.38138871E-01
  4.42551547E-01  3.53757422E-01 -4.89867350E-05 -1.19527323E-03 -1.03490714E-02
 -6.48680190E-02 -1.71552477E-01  1.07289568E+00  1.00000000E+00  1.00000000E+00
  1.00000000E+00  3.98072123E-02  2.49002660E-01  8.10479727E-01  1.00000000E+00
  1.00000000E+00  1.00000000E+00  1.00000000E+00  1.00000000E+00  1.00000000E+00
  1.00000000E+00  1.00000000E+00  5.19808943E-04  4.02025621E-03  2.07128267E-02
  8.10105536E-02  2.35962985E-01  4.42653446E-01  3.57064423E-01 -4.42115008E-05
 -1.22591041E-03 -1.05517725E-02 -6.74452633E-02 -1.71198607E-01  1.07329856E+00
  1.00000000E+00  1.00000000E+00  1.00000000E+00  4.11634896E-02  2.57762836E-01
  8.02419274E-01  1.00000000E+00  1.00000000E+00  1.00000000E+00  1.00000000E+00
  1.00000000E+00  1.00000000E+00  1.00000000E+00  1.00000000E+00
Coordinates of each shell                  R   N=         195
  2.92311619E+00  3.21064967E+00  3.15506054E-31  2.92311619E+00  3.21064967E+00
  3.15506054E-31  2.92311619E+00  3.21064967E+00  3.15506054E-31  2.92311619E+00
  3.21064967E+00  3.15506054E-31  2.92311619E+00  3.21064967E+00  3.15506054E-31
  2.92311619E+00  3.21064967E+00  3.15506054E-31  2.92311619E+00  3.21064967E+00
  3.15506054E-31  2.92311619E+00  3.21064967E+00  3.15506054E-31  2.92311619E+00
  3.21064967E+00  3.15506054E-31  2.74756409E+00  1.38798598E+00  2.16570544E-31
  2.74756409E+00  1.38798598E+00  2.16570544E-31  2.74756409E+00  1.38798598E+00
  2.16570544E-31  2.74756409E+00  1.38798598E+00  2.16570544E-31  2.74756409E+00
  1.38798598E+00  2.16570544E-31  2.74756409E+00  1.38798598E+00  2.16570544E-31
  2.74756409E+00  1.38798598E+00  2.16570544E-31  2.74756409E+00  1.38798598E+00
  2.16570544E-31  2.74756409E+00  1.38798598E+00  2.16570544E-31  2.74756409E+00
  1.38798598E+00  2.16570544E-31  2.74756409E+00  1.38798598E+00  2.16570544E-31
  2.74756409E+00  1.38798598E+00  2.16570544E-31  2.74756409E+00  1.38798598E+00
  2.16570544E-31  2.74756409E+00  1.38798598E+00  2.16570544E-31  4.58418620E-18
  1.28755402E+00  6.31888951E-32  4.58418620E-18  1.28755402E+00  6.31888951E-32
  4.58418620E-18  1.28755402E+00  6.31888951E-32  4.58418620E-18  1.28755402E+00
  6.31888951E-32  4.58418620E-18  1.28755402E+00  6.31888951E-32  4.58418620E-18
  1.28755402E+00  6.31888951E-32  4.58418620E-18  1.28755402E+00  6.31888951E-32
  4.58418620E-18  1.28755402E+00  6.31888951E-32  4.58418620E-18  1.28755402E+00
  6.31888951E-32  4.58418620E-18  1.28755402E+00  6.31888951E-32  4.58418620E-18
  1.28755402E+00  6.31888951E-32  4.58418620E-18  1.28755402E+00  6.31888951E-32
  4.58418620E-18  1.28755402E+00  6.31888951E-32  4.58418620E-18  1.28755402E+00
  6.31888951E-32 -4.94414771E-01 -1.45915486E+00 -9.83240677E-32 -4.94414771E-01
 -1.45915486E+00 -9.83240677E-32 -4.94414771E-01 -1.45915486E+00 -9.83240677E-32
 -4.94414771E-01 -1.45915486E+00 -9.83240677E-32 -4.94414771E-01 -1.45915486E+00
 -9.83240677E-32 -4.94414771E-01 -1.45915486E+00 -9.83240677E-32 -4.94414771E-01
 -1.45915486E+00 -9.83240677E-32 -4.94414771E-01 -1.45915486E+00 -9.83240677E-32
 -4.94414771E-01 -1.45915486E+00 -9.83240677E-32 -4.94414771E-01 -1.45915486E+00
 -9.83240677E-32 -4.94414771E-01 -1.45915486E+00 -9.83240677E-32 -4.94414771E-01
 -1.45915486E+00 -9.83240677E-32 -4.94414771E-01 -1.45915486E+00 -9.83240677E-32
 -4.94414771E-01 -1.45915486E+00 -9.83240677E-32 -2.68034069E+00 -1.80011071E+00
 -2.33164137E-31 -2.68034069E+00 -1.80011071E+00 -2.33164137E-31 -2.68034069E+00
 -1.80011071E+00 -2.33164137E-31 -2.68034069E+00 -1.80011071E+00 -2.33164137E-31
 -2.68034069E+00 -1.80011071E+00 -2.33164137E-31 -2.68034069E+00 -1.80011071E+00
 -2.33164137E-31 -2.68034069E+00 -1.80011071E+00 -2.33164137E-31 -2.68034069E+00
 -1.80011071E+00 -2.33164137E-31 -2.68034069E+00 -1.80011071E+00 -2.33164137E-31
 -2.68034069E+00 -1.80011071E+00 -2.33164137E-31 -2.68034069E+00 -1.80011071E+00
 -2.33164137E-31 -2.68034069E+00 -1.80011071E+00 -2.33164137E-31 -2.68034069E+00
 -1.80011071E+00 -2.33164137E-31 -2.68034069E+00 -1.80011071E+00 -2.33164137E-31
Num ILSW                                   I              100
ILSW                                       I   N=         100
           0           0           0           0           2           0
           0           0           0           0           0          -1
           5           0           0           0           2           0
           0           0           0           0           1           0
           1           0           0           0           0           0
           0           0      100000           0          -1           0
           0           0           0           0           0           0
           0           0           0           1           1           0
           0 -2000000000           1           0           0           0
           0           0           4          52           0           0
           0           0           0           0           0           0
           0           0           0           5           4           1
           0           0           0           0           0           0
           0           0           0           0           0           0
           0           0           0           0           0           0
           0           0           0           0           0           0
           0           0           0           0
Num RLSW                                   I               52
RLSW                                       R   N=          52
  1.00000000E+00  1.00000000E+00  1.00000000E+00  1.00000000E+00  1.00000000E+00
  0.00000000E+00  0.00000000E+00  1.00000000E+00  0.00000000E+00  0.00000000E+00
  0.00000000E+00  0.00000000E+00  1.00000000E+00  0.00000000E+00  0.00000000E+00
  0.00000000E+00  0.00000000E+00  1.00000000E+00  0.00000000E+00  0.00000000E+00
  0.00000000E+00  0.00000000E+00  1.00000000E+00  0.00000000E+00  0.00000000E+00
  0.00000000E+00  0.00000000E+00  1.00000000E+00  0.00000000E+00  0.00000000E+00
  0.00000000E+00  0.00000000E+00  1.00000000E+00  0.00000000E+00  0.00000000E+00
  0.00000000E+00  0.00000000E+00  0.00000000E+00  1.00000000E+00  1.00000000E+00
  0.00000000E+00  1.00000000E+00  0.00000000E+00  0.00000000E+00  0.00000000E+00
  0.00000000E+00  0.00000000E+00  0.00000000E+00  0.00000000E+00  0.00000000E+00
  0.00000000E+00  0.00000000E+00
MxBond                                     I                2
NBond                                      I   N=           5
           1           2           2           2           1
IBond                                      I   N=          10
           2           0           1           3           2           4
           3           5           4           0
RBond                                      R   N=          10
  1.00000000E+00  0.00000000E+00  1.00000000E+00  1.00000000E+00  1.00000000E+00
  1.00000000E+00  1.00000000E+00  2.00000000E+00  2.00000000E+00  0.00000000E+00
Virial Ratio                               R      2.002449902479936E+00
SCF Energy                                 R     -2.794998635503097E+02
MP2 Energy                                 R     -2.804466664001919E+02
Total Energy                               R     -2.804466664001919E+02
Post-SCF wavefunction norm                 R      1.585318959608830E+00
RMS Force                                  R      1.814858374663418E-03
RMS Density                                R      4.054256938071329E-09
NImag                                      I                1
Job Status                                 I                1
Nuclear derivative order                   I                2
External E-field                           R   N=          35
  0.00000000E+00  0.00000000E+00  0.00000000E+00  0.00000000E+00  0.00000000E+00
  0.00000000E+00  0.00000000E+00  0.00000000E+00  0.00000000E+00  0.00000000E+00
  0.00000000E+00  0.00000000E+00  0.00000000E+00  0.00000000E+00  0.00000000E+00
  0.00000000E+00  0.00000000E+00  0.00000000E+00  0.00000000E+00  0.00000000E+00
  0.00000000E+00  0.00000000E+00  0.00000000E+00  0.00000000E+00  0.00000000E+00
  0.00000000E+00  0.00000000E+00  0.00000000E+00  0.00000000E+00  0.00000000E+00
  0.00000000E+00  0.00000000E+00  0.00000000E+00  0.00000000E+00  0.00000000E+00
IOpCl                                      I                0
IROHF                                      I                0
Alpha Orbital Energies                     R   N=         207
 -2.06885679E+01 -2.06878287E+01 -2.06577686E+01 -1.58157499E+01 -1.62334691E+00
 -1.49311759E+00 -1.24901026E+00 -9.49504716E-01 -7.71361527E-01 -7.57145601E-01
 -7.08854532E-01 -6.80288413E-01 -6.21335946E-01 -5.88446204E-01 -4.83305827E-01
 -4.71639460E-01  3.01238465E-02  6.93474337E-02  8.55993052E-02  1.01507304E-01
  1.33854428E-01  1.34076170E-01  1.44455452E-01  1.54888077E-01  1.78653826E-01
  1.94087003E-01  1.99716479E-01  2.03748035E-01  2.21289936E-01  2.36208618E-01
  2.37172848E-01  2.65632667E-01  2.86460213E-01  3.04278876E-01  3.09853994E-01
  3.42087865E-01  3.49103667E-01  3.86909776E-01  4.22655829E-01  4.32265621E-01
  5.26442514E-01  5.28455089E-01  5.56547454E-01  5.80656479E-01  6.24626131E-01
  6.37247633E-01  6.73815414E-01  6.84495322E-01  7.06995185E-01  7.11515100E-01
  7.24324474E-01  7.30666887E-01  7.45336778E-01  7.90421518E-01  7.92700662E-01
  8.09603914E-01  8.14001393E-01  8.29768405E-01  8.66857843E-01  9.08223334E-01
  9.22630489E-01  9.24991462E-01  9.58310548E-01  9.74992964E-01  9.85367187E-01
  1.01799782E+00  1.05124961E+00  1.05387543E+00  1.08074407E+00  1.11627001E+00
  1.13942713E+00  1.18856255E+00  1.22022169E+00  1.23222435E+00  1.33682993E+00
  1.34705247E+00  1.38813936E+00  1.45066665E+00  1.48766736E+00  1.50964844E+00
  1.53683344E+00  1.56474096E+00  1.57638094E+00  1.61234192E+00  1.66269265E+00
  1.66960714E+00  1.70153046E+00  1.79300695E+00  1.83030912E+00  1.83163639E+00
  1.87879284E+00  1.90789935E+00  1.95594366E+00  1.98855806E+00  2.00357372E+00
  2.07209014E+00  2.11885938E+00  2.12951986E+00  2.15217249E+00  2.22092813E+00
  2.26307061E+00  2.26609415E+00  2.28761461E+00  2.31384722E+00  2.33960243E+00
  2.38612761E+00  2.42169891E+00  2.42457668E+00  2.45234096E+00  2.46091566E+00
  2.47361484E+00  2.49859596E+00  2.59115855E+00  2.59523959E+00  2.61656189E+00
  2.62315253E+00  2.63603973E+00  2.66576869E+00  2.75451791E+00  2.81615070E+00
  2.84758125E+00  2.87762857E+00  2.89512431E+00  2.90902872E+00  2.95709326E+00
  3.01859896E+00  3.06073027E+00  3.11660379E+00  3.20593968E+00  3.22441676E+00
  3.31354155E+00  3.33675877E+00  3.51407578E+00  3.63677334E+00  3.82980511E+00
  3.84046942E+00  4.14847453E+00  4.16765967E+00  4.18155184E+00  4.24988107E+00
  4.35181521E+00  4.39289335E+00  4.46455638E+00  4.51688037E+00  4.65537235E+00
  4.70771964E+00  4.80069918E+00  4.81284448E+00  4.83125032E+00  4.89379757E+00
  5.01716238E+00  5.07219462E+00  5.09568791E+00  5.14530215E+00  5.17373884E+00
  5.23809691E+00  5.26560445E+00  5.30460037E+00  5.32852834E+00  5.34768701E+00
  5.60080440E+00  5.67032522E+00  5.75842423E+00  5.83029312E+00  5.94921733E+00
  6.16079089E+00  6.30854894E+00  6.33100121E+00  6.39173196E+00  6.48926829E+00
  6.50159650E+00  6.61304580E+00  6.66875484E+00  6.69403670E+00  6.76034336E+00
  6.76349755E+00  6.82716109E+00  6.89270841E+00  7.00915307E+00  7.05389813E+00
  7.05865396E+00  7.09034114E+00  7.11893127E+00  7.14481427E+00  7.18088028E+00
  7.21614760E+00  7.24280707E+00  7.31063867E+00  7.32222380E+00  7.34195802E+00
  7.39387826E+00  7.42241882E+00  7.47975515E+00  7.60494854E+00  7.60635125E+00
  7.61576125E+00  7.65727443E+00  7.78209169E+00  7.88259542E+00  8.07219428E+00
  8.30636803E+00  8.40888746E+00  8.53584728E+00  1.33540281E+01  1.42981554E+01
  1.51473912E+01  1.61186357E+01
Alpha MO coefficients                      R   N=       42849
  3.58354511E-05 -9.63836958E-04 -4.68147207E-04 -1.22107824E-05 -2.20554554E-05
  1.71946537E-05  0.00000000E+00  4.40326225E-06  2.73828759E-04  0.00000000E+00
 -4.23867941E-05  1.32877382E-04  0.00000000E+00  2.49998620E-05  0.00000000E+00
  0.00000000E+00  1.43823691E-05  9.90423394E-06 -2.51987816E-05  0.00000000E+00
  0.00000000E+00  1.29032923E-05  2.89066998E-05 -2.91369532E-05  9.16387947E-05
 -2.90176089E-05  6.86918729E-04  5.93002960E-04  7.05213901E-06  2.14625168E-06
  0.00000000E+00 -5.33408705E-05  1.95195433E-05  0.00000000E+00  3.64676847E-04
  8.54721416E-04  0.00000000E+00  1.60276560E-05  7.70559544E-05  0.00000000E+00
 -3.00267734E-06  0.00000000E+00  0.00000000E+00  1.44784152E-06 -6.79052157E-06
 -2.55865173E-05  0.00000000E+00  0.00000000E+00 -4.26616223E-05  8.63229266E-05
 -1.11252756E-05  0.00000000E+00  0.00000000E+00 -2.71899809E-04 -1.50353522E-04
  0.00000000E+00  6.92831994E-06  5.39203424E-06  0.00000000E+00  0.00000000E+00
  5.92653228E-06 -1.84136786E-05  0.00000000E+00 -4.69873570E-05 -3.60156109E-05
  0.00000000E+00  0.00000000E+00 -6.53084423E-05  1.40742322E-05 -2.26201295E-02
  2.77285765E-04 -1.02791092E-03 -1.43443287E-04 -4.62032531E-04 -3.02045645E-05
  4.98875502E-05  0.00000000E+00 -2.74703702E-05 -8.66937358E-05  0.00000000E+00
  2.47589432E-04 -8.85957496E-05  0.00000000E+00 -1.76135900E-04 -5.19849462E-05
  0.00000000E+00 -9.61761733E-06  0.00000000E+00  0.00000000E+00  2.16312954E-05
  1.78369662E-05 -1.51142394E-05  0.00000000E+00  0.00000000E+00 -9.86482312E-05
 -2.83269800E-05  8.65102059E-06  0.00000000E+00  0.00000000E+00 -1.86114447E-04
 -1.84536059E-04  0.00000000E+00  3.61549514E-06  1.81650203E-06  0.00000000E+00
  0.00000000E+00  5.00235405E-06 -1.60244813E-05  0.00000000E+00 -4.88390239E-05
 -1.05618387E-06  0.00000000E+00  0.00000000E+00 -6.85043076E-05  1.88633710E-04
  2.58953939E-04  1.46678399E-03 -7.49711422E-05 -1.45637841E-03  4.27298936E-04
 -1.45060979E-04  1.45172173E-06  0.00000000E+00 -2.07667920E-03 -4.11962105E-04
  0.00000000E+00  1.04358821E-03  7.87861112E-04  0.00000000E+00 -1.69516468E-04
  5.86013050E-05  0.00000000E+00 -1.23107499E-04  0.00000000E+00  0.00000000E+00
  2.41626432E-04  9.38257311E-05 -4.37108639E-04  0.00000000E+00  0.00000000E+00
  9.15418260E-04 -4.80727439E-05  7.83181271E-06  0.00000000E+00  0.00000000E+00
 -3.37465347E-04 -1.12987852E-04  0.00000000E+00 -1.74596216E-06  1.78324879E-05
  0.00000000E+00  0.00000000E+00  1.90735706E-05  1.67372182E-05  0.00000000E+00
  1.67461674E-04 -6.49452591E-05  0.00000000E+00  0.00000000E+00 -2.48869961E-04
  4.29642973E-05  9.76394164E-01 -9.85178960E-03  4.35467222E-02  4.48356067E-03
 -4.55150692E-04  2.14355112E-03  4.82624917E-04  0.00000000E+00 -2.38274029E-03
 -6.06922309E-04  0.00000000E+00  1.13621037E-03 -4.84681163E-07  0.00000000E+00
  9.08185520E-07 -4.09587430E-05  0.00000000E+00 -2.31854182E-04  0.00000000E+00
  0.00000000E+00  1.04264455E-04  3.12893519E-05  3.87366892E-04  0.00000000E+00
  0.00000000E+00 -8.30508710E-04 -4.19543121E-04 -1.53852532E-04  0.00000000E+00
  0.00000000E+00  2.57001883E-04  1.81793972E-05  0.00000000E+00  5.15821292E-05
  1.77632802E-05  0.00000000E+00  0.00000000E+00 -2.22433483E-05 -1.32119517E-05
  0.00000000E+00  1.36895797E-04  8.14677951E-06  0.00000000E+00  0.00000000E+00
 -1.89774738E-04 -1.41273583E-04  9.40344379E-05 -6.91366273E-04 -7.68947069E-04
 -5.19044109E-06 -2.30681736E-05 -2.64851241E-05  0.00000000E+00 -4.82604124E-05
  7.59867355E-05  0.00000000E+00  8.71925760E-05  4.90639976E-05  0.00000000E+00
  3.30840381E-05  0.00000000E+00  0.00000000E+00 -4.85466392E-05  2.21350773E-05
 -5.18417845E-06  0.00000000E+00  0.00000000E+00 -1.39837135E-04  1.18069973E-04
  4.71323862E-03 -2.77653853E-04  1.86600406E-05  1.56180771E-03  1.84403494E-03
  1.06472065E-04  8.04209572E-06  0.00000000E+00 -6.17119310E-04 -3.55474393E-05
  0.00000000E+00 -1.05989509E-03  8.29131624E-04  0.00000000E+00 -3.99489609E-04
  6.72146611E-05  0.00000000E+00  2.87036468E-05  0.00000000E+00  0.00000000E+00
 -5.45571062E-05  4.71578273E-06 -3.79511649E-04  0.00000000E+00  0.00000000E+00
  7.39823032E-04 -2.13967332E-05 -4.48428120E-04  0.00000000E+00  0.00000000E+00
  2.23343687E-04 -1.03152664E-05  0.00000000E+00  8.05033616E-05  1.31136065E-05
  0.00000000E+00  0.00000000E+00 -1.09662548E-04 -4.55428323E-06  0.00000000E+00
  2.53697202E-04 -2.80032185E-05  0.00000000E+00  0.00000000E+00 -3.59877716E-04
  4.48070124E-05  9.76662867E-01 -9.20210477E-03  4.32829909E-02  2.18064383E-03
 -8.65464351E-04  1.50599908E-03 -1.31238339E-03  0.00000000E+00 -1.45888424E-03
  1.32007268E-03  0.00000000E+00  1.11434043E-04 -1.21183062E-03  0.00000000E+00
 -1.40934766E-04 -2.45390112E-05  0.00000000E+00  5.08105128E-05  0.00000000E+00
  0.00000000E+00 -2.99896305E-05  2.02296607E-05  7.30946355E-04  0.00000000E+00
  0.00000000E+00 -2.61859975E-04 -3.78431829E-04 -3.72829464E-04  0.00000000E+00
  0.00000000E+00 -3.17102034E-04 -3.72648679E-04  0.00000000E+00  4.91969443E-05
 -4.69806200E-05  0.00000000E+00  0.00000000E+00 -3.78808499E-05 -1.54119320E-05
  0.00000000E+00  1.95489337E-05  2.95724086E-05  0.00000000E+00  0.00000000E+00
 -3.02007707E-04 -1.23763148E-04  3.92275442E-05  4.40269005E-05 -2.49806153E-04
 -7.93076480E-04 -1.51582986E-04 -3.05766171E-05 -9.34711796E-05  0.00000000E+00
  2.03322725E-04  6.13499344E-04  0.00000000E+00 -8.27126042E-04 -5.53406188E-04
  0.00000000E+00 -1.30999199E-04 -3.50277666E-05  0.00000000E+00 -1.43216310E-05
  0.00000000E+00  0.00000000E+00 -1.03033097E-05  1.37277765E-05 -3.20647411E-04
  0.00000000E+00  0.00000000E+00 -7.72026717E-04  1.20173009E-04 -2.82565932E-05
  0.00000000E+00  0.00000000E+00  9.86498345E-05 -1.11433943E-04  0.00000000E+00
 -2.00213022E-05 -1.16413563E-04  0.00000000E+00  0.00000000E+00 -5.77987716E-05
 -1.35768162E-04  0.00000000E+00  1.25833229E-05 -1.47009353E-04  0.00000000E+00
  0.00000000E+00  5.39074312E-05 -4.22795603E-04  2.26532206E-02 -1.27699845E-04
  1.00054953E-03 -1.54312237E-04  9.88689273E-05  4.79421907E-05 -1.73318664E-05
  0.00000000E+00  5.00948532E-06  1.57224158E-04  0.00000000E+00  2.40606918E-04
  2.28330918E-04  0.00000000E+00  1.19169224E-04  2.21188907E-05  0.00000000E+00
 -1.00673936E-05  0.00000000E+00  0.00000000E+00 -1.47541958E-05  1.44687146E-06
  1.32341175E-05  0.00000000E+00  0.00000000E+00  5.31948223E-05  8.63588448E-05
 -1.00147842E-04  0.00000000E+00  0.00000000E+00  1.66820466E-04  1.72615374E-04
  0.00000000E+00  1.65453649E-05 -4.38139746E-06  0.00000000E+00  0.00000000E+00
 -7.17453859E-06 -1.09175568E-05  0.00000000E+00 -2.67209203E-05  4.71998844E-05
  0.00000000E+00  0.00000000E+00  7.83205343E-05  8.96666419E-05  4.75141713E-04
  2.03280299E-03  9.34717092E-05  1.39122290E-05 -4.11254331E-05 -2.46074507E-04
  0.00000000E+00  1.15901619E-04 -1.26505807E-03  0.00000000E+00  3.09717445E-04
 -3.29599024E-04  0.00000000E+00 -1.91008211E-06  0.00000000E+00  0.00000000E+00
  7.64872377E-05  1.55989085E-05 -1.59649918E-04  0.00000000E+00  0.00000000E+00
 -5.37013140E-04 -2.60676853E-05  9.76829642E-01 -9.15994065E-03  4.34490636E-02
  1.83566530E-04 -1.11149414E-03 -1.56269350E-03  1.43649789E-03  0.00000000E+00
  1.57368784E-03 -1.27727386E-03  0.00000000E+00 -5.62679953E-04 -8.42804971E-04
  0.00000000E+00  5.47362842E-05 -2.55942981E-05  0.00000000E+00  2.93934826E-05
  0.00000000E+00  0.00000000E+00 -1.17482395E-04 -3.78612933E-06  7.54934436E-04
  0.00000000E+00  0.00000000E+00 -2.00137530E-04 -2.35500726E-04 -2.69823507E-04
  0.00000000E+00  0.00000000E+00  1.66406438E-04  1.27532574E-04  0.00000000E+00
 -6.41218049E-05  1.11467302E-06  0.00000000E+00  0.00000000E+00  1.89007696E-05