title                                                                   
Freq      RMP2-FC                                                     Aug-CC-pVTZ         
Number of atoms                            I                5
Info1-9                                    I   N=           9
          33          24           0           0           0         100
           6           2           1
Full Title                                 C   N=           1
title       
Route                                      C   N=           4
#p freq mp2/aug-cc-pvtz density=current         
Charge                                     I                0
Multiplicity                               I                1
Number of electrons                        I               32
Number of alpha electrons                  I               16
Number of beta electrons                   I               16
Number of basis functions                  I              207
Number of independent functions            I              207
Number of point charges in /Mol/           I                0
Number of translation vectors              I                0
Atomic numbers                             I   N=           5
           1           8           8           7           8
Nuclear charges                            R   N=           5
  1.00000000E+00  8.00000000E+00  8.00000000E+00  7.00000000E+00  8.00000000E+00
Current cartesian coordinates              R   N=          15
  2.95873362E+00  3.17454047E+00  8.93578838E-31  2.77024105E+00  1.35316955E+00
  9.64717424E-31  1.76520486E-16  1.27160512E+00  1.30588032E-31 -5.07621565E-01
 -1.43795724E+00  1.86795766E-31 -2.69591389E+00 -1.76337964E+00 -2.90977800E-31
Number of symbols in /Mol/                 I                0
Force Field                                I                0
Atom Types                                 C   N=           5
                                                            
Int Atom Types                             I   N=           5
           0           0           0           0           0
MM charges                                 R   N=           5
  0.00000000E+00  0.00000000E+00  0.00000000E+00  0.00000000E+00  0.00000000E+00
Integer atomic weights                     I   N=           5
           1          16          16          14          16
Real atomic weights                        R   N=           5
  1.00782504E+00  1.59949146E+01  1.59949146E+01  1.40030740E+01  1.59949146E+01
Atom fragment info                         I   N=           5
           0           0           0           0           0
Atom residue num                           I   N=           5
           0           0           0           0           0
Nuclear spins                              I   N=           5
           1           0           0           2           0
Nuclear ZEff                               R   N=           5
 -1.00000000E+00 -5.60000000E+00 -5.60000000E+00 -4.55000000E+00 -5.60000000E+00
Nuclear ZNuc                               R   N=           5
  1.00000000E+00  8.00000000E+00  8.00000000E+00  7.00000000E+00  8.00000000E+00
Nuclear QMom                               R   N=           5
  0.00000000E+00  0.00000000E+00  0.00000000E+00  2.04400000E+00  0.00000000E+00
Nuclear GFac                               R   N=           5
  2.79284600E+00  0.00000000E+00  0.00000000E+00  4.03761000E-01  0.00000000E+00
MicOpt                                     I   N=           5
          -1          -1          -1          -1          -1
Number of residues                         I                0
Number of secondary structures             I                0
SymInf integers                            I   N=          26
           1           2           1           1           1           1
           1          -1           0           0           0           0
           0           0           0           0           0           0
           0           0           0           0           0           0
           0           0
RotTr to input orientation                 R   N=          12
 -9.94687607E-01  6.54736403E-16 -1.02939615E-01  1.02939615E-01 -9.17753182E-16
 -9.94687607E-01 -7.45731345E-16 -1.00000000E+00  8.45479404E-16  2.61622969E+00
  0.00000000E+00  3.46224696E+00
Number of contracted shells                I               65
Number of primitive shells                 I              119
Pure/Cartesian d shells                    I                0
Pure/Cartesian f shells                    I                0
Highest angular momentum                   I                3
Largest degree of contraction              I                7
Shell types                                I   N=          65
           0           0           0           0           1           1
           1          -2          -2           0           0           0
           0           0           1           1           1           1
          -2          -2          -2          -3          -3           0
           0           0           0           0           1           1
           1           1          -2          -2          -2          -3
          -3           0           0           0           0           0
           1           1           1           1          -2          -2
          -2          -3          -3           0           0           0
           0           0           1           1           1           1
          -2          -2          -2          -3          -3
Number of primitives per shell             I   N=          65
           3           1           1           1           1           1
           1           1           1           7           6           1
           1           1           3           1           1           1
           1           1           1           1           1           7
           6           1           1           1           3           1
           1           1           1           1           1           1
           1           7           6           1           1           1
           3           1           1           1           1           1
           1           1           1           7           6           1
           1           1           3           1           1           1
           1           1           1           1           1
Shell to atom map                          I   N=          65
           1           1           1           1           1           1
           1           1           1           2           2           2
           2           2           2           2           2           2
           2           2           2           2           2           3
           3           3           3           3           3           3
           3           3           3           3           3           3
           3           4           4           4           4           4
           4           4           4           4           4           4
           4           4           4           5           5           5
           5           5           5           5           5           5
           5           5           5           5           5
Primitive exponents                        R   N=         119
  3.38700000E+01  5.09500000E+00  1.15900000E+00  3.25800000E-01  1.02700000E-01
  2.52600000E-02  1.40700000E+00  3.88000000E-01  1.02000000E-01  1.05700000E+00
  2.47000000E-01  1.53300000E+04  2.29900000E+03  5.22400000E+02  1.47300000E+02
  4.75500000E+01  1.67600000E+01  6.20700000E+00  5.22400000E+02  1.47300000E+02
  4.75500000E+01  1.67600000E+01  6.20700000E+00  6.88200000E-01  1.75200000E+00
  2.38400000E-01  7.37600000E-02  3.44600000E+01  7.74900000E+00  2.28000000E+00
  7.15600000E-01  2.14000000E-01  5.97400000E-02  2.31400000E+00  6.45000000E-01
  2.14000000E-01  1.42800000E+00  5.00000000E-01  1.53300000E+04  2.29900000E+03
  5.22400000E+02  1.47300000E+02  4.75500000E+01  1.67600000E+01  6.20700000E+00
  5.22400000E+02  1.47300000E+02  4.75500000E+01  1.67600000E+01  6.20700000E+00
  6.88200000E-01  1.75200000E+00  2.38400000E-01  7.37600000E-02  3.44600000E+01
  7.74900000E+00  2.28000000E+00  7.15600000E-01  2.14000000E-01  5.97400000E-02
  2.31400000E+00  6.45000000E-01  2.14000000E-01  1.42800000E+00  5.00000000E-01
  1.14200000E+04  1.71200000E+03  3.89300000E+02  1.10000000E+02  3.55700000E+01
  1.25400000E+01  4.64400000E+00  3.89300000E+02  1.10000000E+02  3.55700000E+01
  1.25400000E+01  4.64400000E+00  5.11800000E-01  1.29300000E+00  1.78700000E-01
  5.76000000E-02  2.66300000E+01  5.94800000E+00  1.74200000E+00  5.55000000E-01
  1.72500000E-01  4.91000000E-02  1.65400000E+00  4.69000000E-01  1.51000000E-01
  1.09300000E+00  3.64000000E-01  1.53300000E+04  2.29900000E+03  5.22400000E+02
  1.47300000E+02  4.75500000E+01  1.67600000E+01  6.20700000E+00  5.22400000E+02
  1.47300000E+02  4.75500000E+01  1.67600000E+01  6.20700000E+00  6.88200000E-01
  1.75200000E+00  2.38400000E-01  7.37600000E-02  3.44600000E+01  7.74900000E+00
  2.28000000E+00  7.15600000E-01  2.14000000E-01  5.97400000E-02  2.31400000E+00
  6.45000000E-01  2.14000000E-01  1.42800000E+00  5.00000000E-01
Contraction coefficients                   R   N=         119
  2.54948632E-02  1.90362766E-01  8.52162022E-01  1.00000000E+00  1.00000000E+00
  1.00000000E+00  1.00000000E+00  1.00000000E+00  1.00000000E+00  1.00000000E+00
  1.00000000E+00  5.19808943E-04  4.02025621E-03  2.07128267E-02  8.10105536E-02
  2.35962985E-01  4.42653446E-01  3.57064423E-01 -4.42115008E-05 -1.22591041E-03
 -1.05517725E-02 -6.74452633E-02 -1.71198607E-01  1.07329856E+00  1.00000000E+00
  1.00000000E+00  1.00000000E+00  4.11634896E-02  2.57762836E-01  8.02419274E-01
  1.00000000E+00  1.00000000E+00  1.00000000E+00  1.00000000E+00  1.00000000E+00
  1.00000000E+00  1.00000000E+00  1.00000000E+00  5.19808943E-04  4.02025621E-03
  2.07128267E-02  8.10105536E-02  2.35962985E-01  4.42653446E-01  3.57064423E-01
 -4.42115008E-05 -1.22591041E-03 -1.05517725E-02 -6.74452633E-02 -1.71198607E-01
  1.07329856E+00  1.00000000E+00  1.00000000E+00  1.00000000E+00  4.11634896E-02
  2.57762836E-01  8.02419274E-01  1.00000000E+00  1.00000000E+00  1.00000000E+00
  1.00000000E+00  1.00000000E+00  1.00000000E+00  1.00000000E+00  1.00000000E+00
  5.34563860E-04  4.13435660E-03  2.12335358E-02  8.25006224E-02  2.38138871E-01
  4.42551547E-01  3.53757422E-01 -4.89867350E-05 -1.19527323E-03 -1.03490714E-02
 -6.48680190E-02 -1.71552477E-01  1.07289568E+00  1.00000000E+00  1.00000000E+00
  1.00000000E+00  3.98072123E-02  2.49002660E-01  8.10479727E-01  1.00000000E+00
  1.00000000E+00  1.00000000E+00  1.00000000E+00  1.00000000E+00  1.00000000E+00
  1.00000000E+00  1.00000000E+00  5.19808943E-04  4.02025621E-03  2.07128267E-02
  8.10105536E-02  2.35962985E-01  4.42653446E-01  3.57064423E-01 -4.42115008E-05
 -1.22591041E-03 -1.05517725E-02 -6.74452633E-02 -1.71198607E-01  1.07329856E+00
  1.00000000E+00  1.00000000E+00  1.00000000E+00  4.11634896E-02  2.57762836E-01
  8.02419274E-01  1.00000000E+00  1.00000000E+00  1.00000000E+00  1.00000000E+00
  1.00000000E+00  1.00000000E+00  1.00000000E+00  1.00000000E+00
Coordinates of each shell                  R   N=         195
  2.95873362E+00  3.17454047E+00  4.37630490E-31  2.95873362E+00  3.17454047E+00
  4.37630490E-31  2.95873362E+00  3.17454047E+00  4.37630490E-31  2.95873362E+00
  3.17454047E+00  4.37630490E-31  2.95873362E+00  3.17454047E+00  4.37630490E-31
  2.95873362E+00  3.17454047E+00  4.37630490E-31  2.95873362E+00  3.17454047E+00
  4.37630490E-31  2.95873362E+00  3.17454047E+00  4.37630490E-31  2.95873362E+00
  3.17454047E+00  4.37630490E-31  2.77024105E+00  1.35316955E+00  4.09750287E-31
  2.77024105E+00  1.35316955E+00  4.09750287E-31  2.77024105E+00  1.35316955E+00
  4.09750287E-31  2.77024105E+00  1.35316955E+00  4.09750287E-31  2.77024105E+00
  1.35316955E+00  4.09750287E-31  2.77024105E+00  1.35316955E+00  4.09750287E-31
  2.77024105E+00  1.35316955E+00  4.09750287E-31  2.77024105E+00  1.35316955E+00
  4.09750287E-31  2.77024105E+00  1.35316955E+00  4.09750287E-31  2.77024105E+00
  1.35316955E+00  4.09750287E-31  2.77024105E+00  1.35316955E+00  4.09750287E-31
  2.77024105E+00  1.35316955E+00  4.09750287E-31  2.77024105E+00  1.35316955E+00
  4.09750287E-31  2.77024105E+00  1.35316955E+00  4.09750287E-31  1.24883265E-17
  1.27160512E+00  0.00000000E+00  1.24883265E-17  1.27160512E+00  0.00000000E+00
  1.24883265E-17  1.27160512E+00  0.00000000E+00  1.24883265E-17  1.27160512E+00
  0.00000000E+00  1.24883265E-17  1.27160512E+00  0.00000000E+00  1.24883265E-17
  1.27160512E+00  0.00000000E+00  1.24883265E-17  1.27160512E+00  0.00000000E+00
  1.24883265E-17  1.27160512E+00  0.00000000E+00  1.24883265E-17  1.27160512E+00
  0.00000000E+00  1.24883265E-17  1.27160512E+00  0.00000000E+00  1.24883265E-17
  1.27160512E+00  0.00000000E+00  1.24883265E-17  1.27160512E+00  0.00000000E+00
  1.24883265E-17  1.27160512E+00  0.00000000E+00  1.24883265E-17  1.27160512E+00
  0.00000000E+00 -5.07621565E-01 -1.43795724E+00 -7.50830264E-32 -5.07621565E-01
 -1.43795724E+00 -7.50830264E-32 -5.07621565E-01 -1.43795724E+00 -7.50830264E-32
 -5.07621565E-01 -1.43795724E+00 -7.50830264E-32 -5.07621565E-01 -1.43795724E+00
 -7.50830264E-32 -5.07621565E-01 -1.43795724E+00 -7.50830264E-32 -5.07621565E-01
 -1.43795724E+00 -7.50830264E-32 -5.07621565E-01 -1.43795724E+00 -7.50830264E-32
 -5.07621565E-01 -1.43795724E+00 -7.50830264E-32 -5.07621565E-01 -1.43795724E+00
 -7.50830264E-32 -5.07621565E-01 -1.43795724E+00 -7.50830264E-32 -5.07621565E-01
 -1.43795724E+00 -7.50830264E-32 -5.07621565E-01 -1.43795724E+00 -7.50830264E-32
 -5.07621565E-01 -1.43795724E+00 -7.50830264E-32 -2.69591389E+00 -1.76337964E+00
 -3.98756450E-31 -2.69591389E+00 -1.76337964E+00 -3.98756450E-31 -2.69591389E+00
 -1.76337964E+00 -3.98756450E-31 -2.69591389E+00 -1.76337964E+00 -3.98756450E-31
 -2.69591389E+00 -1.76337964E+00 -3.98756450E-31 -2.69591389E+00 -1.76337964E+00
 -3.98756450E-31 -2.69591389E+00 -1.76337964E+00 -3.98756450E-31 -2.69591389E+00
 -1.76337964E+00 -3.98756450E-31 -2.69591389E+00 -1.76337964E+00 -3.98756450E-31
 -2.69591389E+00 -1.76337964E+00 -3.98756450E-31 -2.69591389E+00 -1.76337964E+00
 -3.98756450E-31 -2.69591389E+00 -1.76337964E+00 -3.98756450E-31 -2.69591389E+00
 -1.76337964E+00 -3.98756450E-31 -2.69591389E+00 -1.76337964E+00 -3.98756450E-31
Num ILSW                                   I              100
ILSW                                       I   N=         100
           0           0           0           0           2           0
           0           0           0           0           0          -1
           5           0           0           0           2           0
           0           0           0           0           1           0
           1           0           0           0           0           0
           0           0      100000           0          -1           0
           0           0           0           0           0           0
           0           0           0           1           1           0
           0 -2000000000           1           0           0           0
           0           0           4          52           0           0
           0           0           0           0           0           0
           0           0           0           5           4           1
           0           0           0           0           0           0
           0           0           0           0           0           0
           0           0           0           0           0           0
           0           0           0           0           0           0
           0           0           0           0
Num RLSW                                   I               52
RLSW                                       R   N=          52
  1.00000000E+00  1.00000000E+00  1.00000000E+00  1.00000000E+00  1.00000000E+00
  0.00000000E+00  0.00000000E+00  1.00000000E+00  0.00000000E+00  0.00000000E+00
  0.00000000E+00  0.00000000E+00  1.00000000E+00  0.00000000E+00  0.00000000E+00
  0.00000000E+00  0.00000000E+00  1.00000000E+00  0.00000000E+00  0.00000000E+00
  0.00000000E+00  0.00000000E+00  1.00000000E+00  0.00000000E+00  0.00000000E+00
  0.00000000E+00  0.00000000E+00  1.00000000E+00  0.00000000E+00  0.00000000E+00
  0.00000000E+00  0.00000000E+00  1.00000000E+00  0.00000000E+00  0.00000000E+00
  0.00000000E+00  0.00000000E+00  0.00000000E+00  1.00000000E+00  1.00000000E+00
  0.00000000E+00  1.00000000E+00  0.00000000E+00  0.00000000E+00  0.00000000E+00
  0.00000000E+00  0.00000000E+00  0.00000000E+00  0.00000000E+00  0.00000000E+00
  0.00000000E+00  0.00000000E+00
MxBond                                     I                2
NBond                                      I   N=           5
           1           2           2           2           1
IBond                                      I   N=          10
           2           0           1           3           2           4
           3           5           4           0
RBond                                      R   N=          10
  1.00000000E+00  0.00000000E+00  1.00000000E+00  1.00000000E+00  1.00000000E+00
  1.00000000E+00  1.00000000E+00  2.00000000E+00  2.00000000E+00  0.00000000E+00
Virial Ratio                               R      2.002420714237443E+00
SCF Energy                                 R     -2.795006563796727E+02
MP2 Energy                                 R     -2.804466625065181E+02
Total Energy                               R     -2.804466625065181E+02
Post-SCF wavefunction norm                 R      1.584909778476046E+00
RMS Force                                  R      2.073448645178521E-03
RMS Density                                R      3.906773111407280E-09
NImag                                      I                1
Job Status                                 I                1
Nuclear derivative order                   I                2
External E-field                           R   N=          35
  0.00000000E+00  0.00000000E+00  0.00000000E+00  0.00000000E+00  0.00000000E+00
  0.00000000E+00  0.00000000E+00  0.00000000E+00  0.00000000E+00  0.00000000E+00
  0.00000000E+00  0.00000000E+00  0.00000000E+00  0.00000000E+00  0.00000000E+00
  0.00000000E+00  0.00000000E+00  0.00000000E+00  0.00000000E+00  0.00000000E+00
  0.00000000E+00  0.00000000E+00  0.00000000E+00  0.00000000E+00  0.00000000E+00
  0.00000000E+00  0.00000000E+00  0.00000000E+00  0.00000000E+00  0.00000000E+00
  0.00000000E+00  0.00000000E+00  0.00000000E+00  0.00000000E+00  0.00000000E+00
IOpCl                                      I                0
IROHF                                      I                0
Alpha Orbital Energies                     R   N=         207
 -2.06915380E+01 -2.06844977E+01 -2.06609829E+01 -1.58130631E+01 -1.62370496E+00
 -1.49116431E+00 -1.25647792E+00 -9.47907678E-01 -7.71576667E-01 -7.58256944E-01
 -7.10769747E-01 -6.79367912E-01 -6.19346123E-01 -5.87798933E-01 -4.87293405E-01
 -4.72760295E-01  2.96048271E-02  7.16585764E-02  8.56440555E-02  1.01664048E-01
  1.33353801E-01  1.33967694E-01  1.44017817E-01  1.54480791E-01  1.78282917E-01
  1.94281889E-01  1.99854731E-01  2.06233513E-01  2.18757662E-01  2.31147288E-01
  2.37284567E-01  2.65966636E-01  2.93339821E-01  3.03785599E-01  3.10189465E-01
  3.42759285E-01  3.49289317E-01  3.87051582E-01  4.21435815E-01  4.31451647E-01
  5.27147590E-01  5.29012585E-01  5.58308367E-01  5.81321541E-01  6.25730329E-01
  6.38374082E-01  6.74528496E-01  6.84593479E-01  7.05440072E-01  7.11477065E-01
  7.23483817E-01  7.29687195E-01  7.44770903E-01  7.90735019E-01  7.91920556E-01
  8.10320905E-01  8.12507504E-01  8.29786764E-01  8.68111546E-01  9.07119188E-01
  9.21747432E-01  9.25333051E-01  9.57065808E-01  9.76920819E-01  9.83871044E-01
  1.01642126E+00  1.05117244E+00  1.05508037E+00  1.08127435E+00  1.11639921E+00
  1.13946434E+00  1.18868913E+00  1.22076815E+00  1.23181735E+00  1.33852388E+00
  1.34974060E+00  1.38610675E+00  1.45310705E+00  1.48798754E+00  1.50977220E+00
  1.53734547E+00  1.56600749E+00  1.57899506E+00  1.61254045E+00  1.66214949E+00
  1.66900132E+00  1.70309831E+00  1.79169390E+00  1.83046814E+00  1.83446216E+00
  1.87713547E+00  1.90913485E+00  1.95602963E+00  1.99073728E+00  2.00692160E+00
  2.07704292E+00  2.11837747E+00  2.13183577E+00  2.14756327E+00  2.22388999E+00
  2.26208213E+00  2.26386993E+00  2.28887297E+00  2.31306464E+00  2.34073641E+00
  2.38746579E+00  2.42253810E+00  2.42698533E+00  2.45331167E+00  2.46300062E+00
  2.47531676E+00  2.50009303E+00  2.58798684E+00  2.59502848E+00  2.61732393E+00
  2.62283683E+00  2.63130765E+00  2.66391109E+00  2.75677191E+00  2.82407462E+00
  2.85240860E+00  2.87849619E+00  2.88818556E+00  2.92032994E+00  2.95521316E+00
  3.01722453E+00  3.06827816E+00  3.12407193E+00  3.19033337E+00  3.22304257E+00
  3.31246223E+00  3.34583011E+00  3.51292031E+00  3.64151879E+00  3.83829228E+00
  3.84168823E+00  4.14661895E+00  4.15921633E+00  4.18196975E+00  4.25618360E+00
  4.34886578E+00  4.39060203E+00  4.45235597E+00  4.52096593E+00  4.66008946E+00
  4.70446647E+00  4.80395335E+00  4.82420322E+00  4.82995289E+00  4.89476326E+00
  5.02233985E+00  5.07706366E+00  5.10100238E+00  5.14462010E+00  5.17861060E+00
  5.24092708E+00  5.27206031E+00  5.30790358E+00  5.32799777E+00  5.35235359E+00
  5.59970390E+00  5.67344830E+00  5.76617832E+00  5.80849065E+00  5.95324682E+00
  6.16611537E+00  6.32703608E+00  6.33649636E+00  6.39709916E+00  6.49454229E+00
  6.50555215E+00  6.61640975E+00  6.67556998E+00  6.70092661E+00  6.75830051E+00
  6.75854352E+00  6.83226702E+00  6.89724471E+00  7.00410765E+00  7.04046248E+00
  7.04769159E+00  7.08174509E+00  7.12295458E+00  7.14202195E+00  7.17783261E+00
  7.22201941E+00  7.23868932E+00  7.30520108E+00  7.32474920E+00  7.34741520E+00
  7.39656616E+00  7.41719224E+00  7.48335580E+00  7.59935570E+00  7.61379340E+00
  7.62123239E+00  7.66151145E+00  7.77761205E+00  7.88400880E+00  8.07365760E+00
  8.29931277E+00  8.39650959E+00  8.54454665E+00  1.33569323E+01  1.43791534E+01
  1.51490292E+01  1.61509443E+01
Alpha MO coefficients                      R   N=       42849
  9.51856970E-05 -6.50524277E-04 -7.50070678E-04 -7.19831437E-06 -2.45675906E-05
 -2.76899240E-05  0.00000000E+00 -4.70687552E-05  7.60361382E-05  0.00000000E+00
  8.97380539E-05  4.61420283E-05  0.00000000E+00  3.42398492E-05  0.00000000E+00
  0.00000000E+00 -4.78532037E-05  2.24787638E-05 -1.75754817E-06  0.00000000E+00
  0.00000000E+00 -1.34456181E-04  1.18045080E-04  4.48773080E-03 -2.95229112E-04
  2.30007698E-05  1.46637653E-03  1.76473418E-03  1.00833854E-04  6.74299565E-06
  0.00000000E+00 -5.62942079E-04 -2.82940907E-05  0.00000000E+00 -1.01806704E-03
  8.04581490E-04  0.00000000E+00 -3.88044897E-04  6.90370221E-05  0.00000000E+00
  3.16491744E-05  0.00000000E+00  0.00000000E+00 -5.94828354E-05  6.15480060E-06
 -3.64740172E-04  0.00000000E+00  0.00000000E+00  7.13955501E-04 -3.84367553E-05
 -4.36929548E-04  0.00000000E+00  0.00000000E+00  2.32621889E-04 -1.82637489E-05
  0.00000000E+00  7.66754320E-05  1.23501526E-05  0.00000000E+00  0.00000000E+00
 -1.04962930E-04 -1.77204053E-06  0.00000000E+00  2.54359169E-04 -2.95036309E-05
  0.00000000E+00  0.00000000E+00 -3.56186540E-04  6.07975300E-05  9.76920446E-01
 -9.21356909E-03  4.32985681E-02  2.15953630E-03 -8.53419855E-04  1.46074962E-03
 -1.36527273E-03  0.00000000E+00 -1.38748043E-03  1.39658193E-03  0.00000000E+00
  1.42310971E-04 -1.15820995E-03  0.00000000E+00 -1.20254916E-04 -1.07506661E-05
  0.00000000E+00  4.90377873E-05  0.00000000E+00  0.00000000E+00 -4.00616371E-05
  2.13024284E-05  7.33402008E-04  0.00000000E+00  0.00000000E+00 -2.10955847E-04
 -3.83679510E-04 -3.69408456E-04  0.00000000E+00  0.00000000E+00 -2.98320722E-04
 -3.66203632E-04  0.00000000E+00  4.52475347E-05 -4.98086371E-05  0.00000000E+00
  0.00000000E+00 -3.70460392E-05 -1.46712194E-05  0.00000000E+00  1.68437625E-05
  2.28300951E-05  0.00000000E+00  0.00000000E+00 -2.95921908E-04 -1.37305392E-04
  3.90946727E-05  4.54809582E-05 -2.65640906E-04 -6.90062454E-04 -1.25725812E-04
 -2.79656033E-05 -9.74659074E-05  0.00000000E+00  2.74739473E-04  7.06899663E-04
  0.00000000E+00 -8.41037377E-04 -4.84578444E-04  0.00000000E+00 -1.25999790E-04
 -2.56587164E-05  0.00000000E+00 -1.82949807E-05  0.00000000E+00  0.00000000E+00
 -2.94476247E-05  1.47171677E-05 -3.29755702E-04  0.00000000E+00  0.00000000E+00
 -8.26957283E-04  1.45545949E-04 -3.90793992E-05  0.00000000E+00  0.00000000E+00
  1.00252926E-04 -1.08783223E-04  0.00000000E+00 -2.14307116E-05 -1.20272972E-04
  0.00000000E+00  0.00000000E+00 -6.56135483E-05 -1.37580244E-04  0.00000000E+00
  2.02022926E-06 -1.52085673E-04  0.00000000E+00  0.00000000E+00  3.46421986E-05
 -4.21917326E-04 -2.39882106E-03  1.18815649E-04 -1.15884748E-04 -2.57718130E-04
  1.23754291E-04 -7.65292643E-06 -2.81042899E-05  0.00000000E+00  6.78457795E-05
  1.65874579E-04  0.00000000E+00  2.30281383E-04  2.07976757E-04  0.00000000E+00
  1.23624150E-04  2.40385672E-05  0.00000000E+00 -3.29153158E-06  0.00000000E+00
  0.00000000E+00 -1.78273586E-05  1.16327667E-06  3.51163068E-07  0.00000000E+00
  0.00000000E+00  7.94436861E-05  8.97176013E-05 -1.00569781E-04  0.00000000E+00
  0.00000000E+00  1.67275498E-04  1.63302621E-04  0.00000000E+00  1.58299311E-05
 -3.79864848E-06  0.00000000E+00  0.00000000E+00 -4.83939681E-06 -1.16122983E-05
  0.00000000E+00 -3.35370934E-05  4.57099033E-05  0.00000000E+00  0.00000000E+00
  8.42820445E-05  8.94307801E-05  3.82292201E-05 -9.79968148E-04 -4.84903475E-04
 -1.02690797E-05 -2.19617716E-05  1.65843685E-05  0.00000000E+00  1.95865308E-06
  2.73898629E-04  0.00000000E+00 -4.07545473E-05  1.33546268E-04  0.00000000E+00
  2.57218181E-05  0.00000000E+00  0.00000000E+00  1.33674525E-05  1.07701388E-05
 -2.64283513E-05  0.00000000E+00  0.00000000E+00  1.13978857E-05  3.36092880E-05
  1.12610611E-04  8.12239813E-05 -2.77685918E-05  7.53231715E-04  6.55466878E-04
  1.02576176E-05  2.17644233E-06  0.00000000E+00 -7.10036300E-05  1.98902566E-05
  0.00000000E+00  3.28509612E-04  8.77357425E-04  0.00000000E+00  1.69828124E-06
  7.90305386E-05  0.00000000E+00 -2.04224143E-06  0.00000000E+00  0.00000000E+00
 -3.13635701E-07 -6.52794336E-06 -3.65113640E-05  0.00000000E+00  0.00000000E+00
 -2.04132028E-05  8.42000225E-05 -2.38145354E-05  0.00000000E+00  0.00000000E+00
 -2.67272743E-04 -1.50680689E-04  0.00000000E+00  9.30740661E-06  5.69375794E-06
  0.00000000E+00  0.00000000E+00  2.20475053E-06 -1.87338717E-05  0.00000000E+00
 -4.02929692E-05 -3.67178306E-05  0.00000000E+00  0.00000000E+00 -7.37044559E-05
  1.92357764E-05  2.43781826E-03  4.22668607E-05  8.28446486E-05 -7.34574407E-05
 -4.66780642E-04  6.55016596E-06  1.59961909E-05  0.00000000E+00 -5.96844268E-05
 -5.51230462E-05  0.00000000E+00  2.30673816E-04 -1.77382520E-04  0.00000000E+00
 -1.89217969E-04 -6.27454826E-05  0.00000000E+00 -8.76923923E-06  0.00000000E+00
  0.00000000E+00  2.23743096E-05  1.95616016E-05  4.01721119E-06  0.00000000E+00
  0.00000000E+00 -1.16080571E-04 -4.49493499E-05 -3.88114101E-06  0.00000000E+00
  0.00000000E+00 -2.22495328E-04 -1.96436128E-04  0.00000000E+00  2.87135804E-06
 -6.00701672E-07  0.00000000E+00  0.00000000E+00  1.46289230E-06 -1.35692493E-05
  0.00000000E+00 -4.54930340E-05  3.91838999E-06  0.00000000E+00  0.00000000E+00
 -7.17192399E-05  1.88549970E-04  2.58783104E-04  1.46548374E-03 -7.83614820E-05
 -1.54054405E-03  3.92825117E-04 -1.44747436E-04  7.90981299E-07  0.00000000E+00
 -2.08781163E-03 -3.92422867E-04  0.00000000E+00  1.03354422E-03  7.49658197E-04
  0.00000000E+00 -1.71929221E-04  5.49002059E-05  0.00000000E+00 -1.23400071E-04
  0.00000000E+00  0.00000000E+00  2.43919652E-04  9.16483726E-05 -4.41824885E-04
  0.00000000E+00  0.00000000E+00  8.98105385E-04 -7.36115323E-05  1.24871970E-05
  0.00000000E+00  0.00000000E+00 -3.37982454E-04 -1.20309442E-04  0.00000000E+00
 -1.52550720E-06  1.51687247E-05  0.00000000E+00  0.00000000E+00  1.90433477E-05
  1.34779965E-05  0.00000000E+00  1.65679126E-04 -7.14301686E-05  0.00000000E+00
  0.00000000E+00 -2.40570241E-04  4.30965665E-05  9.76649898E-01 -9.84869248E-03
  4.35673101E-02  4.49630977E-03 -4.46496485E-04  2.15024930E-03  4.71140548E-04
  0.00000000E+00 -2.38659747E-03 -5.91366291E-04  0.00000000E+00  1.14006216E-03
 -7.48648483E-06  0.00000000E+00  4.95556072E-06 -4.23163683E-05  0.00000000E+00
 -2.32263844E-04  0.00000000E+00  0.00000000E+00  1.03111480E-04  3.06703714E-05
  3.90400582E-04  0.00000000E+00  0.00000000E+00 -8.37413429E-04 -4.10376363E-04
 -1.54426761E-04  0.00000000E+00  0.00000000E+00  2.57552467E-04  1.55619224E-05
  0.00000000E+00  5.23120727E-05  1.74096657E-05  0.00000000E+00  0.00000000E+00
 -2.23208573E-05 -1.30079515E-05  0.00000000E+00  1.38128403E-04  8.63321709E-06
  0.00000000E+00  0.00000000E+00 -1.91286589E-04 -1.37516577E-04  4.77078243E-04
  2.08832521E-03  1.36517401E-04  1.60220839E-05 -4.32618408E-05 -2.50556883E-04
  0.00000000E+00  1.00924343E-04 -1.28733892E-03  0.00000000E+00  2.99686008E-04
 -3.45718050E-04  0.00000000E+00 -3.06782148E-06  0.00000000E+00  0.00000000E+00
  7.28173567E-05  1.55345116E-05 -1.61217662E-04  0.00000000E+00  0.00000000E+00
 -5.38178243E-04 -1.43470987E-05  9.76838692E-01 -9.16447221E-03  4.34299076E-02
  2.59555014E-04 -1.08117792E-03 -1.52876209E-03  1.45580283E-03  0.00000000E+00
  1.52706259E-03 -1.30624492E-03  0.00000000E+00 -6.55231007E-04 -8.73714546E-04
  0.00000000E+00  4.57618782E-05 -2.65184101E-05  0.00000000E+00  3.25991137E-05
  0.00000000E+00  0.00000000E+00 -1.23231999E-04 -1.29019231E-06  7.45577931E-04
  0.00000000E+00  0.00000000E+00 -1.75942405E-04 -2.33466594E-04 -2.76467266E-04
  0.00000000E+00  0.00000000E+00  1.98011740E-04  1.25932145E-04  0.00000000E+00
 -6.22476457E-05  2.68890330E-06  0.00000000E+00  0.00000000E+00  1.69252434E-05