 Entering Gaussian System, Link 0=g16
 Input=hoono_a1_95p73743.gjf
 Output=hoono_a1_95p73743.log
 Initial command:
 /sw/contrib/gaussian/g16/B01/g16/l1.exe "/scr/Gau-16271.inp" -scrdir="/scr/"
 Entering Link 1 = /sw/contrib/gaussian/g16/B01/g16/l1.exe PID=     16272.
  
 Copyright (c) 1988-2017, Gaussian, Inc.  All Rights Reserved.
  
 This is part of the Gaussian(R) 16 program.  It is based on
 the Gaussian(R) 09 system (copyright 2009, Gaussian, Inc.),
 the Gaussian(R) 03 system (copyright 2003, Gaussian, Inc.),
 the Gaussian(R) 98 system (copyright 1998, Gaussian, Inc.),
 the Gaussian(R) 94 system (copyright 1995, Gaussian, Inc.),
 the Gaussian 92(TM) system (copyright 1992, Gaussian, Inc.),
 the Gaussian 90(TM) system (copyright 1990, Gaussian, Inc.),
 the Gaussian 88(TM) system (copyright 1988, Gaussian, Inc.),
 the Gaussian 86(TM) system (copyright 1986, Carnegie Mellon
 University), and the Gaussian 82(TM) system (copyright 1983,
 Carnegie Mellon University). Gaussian is a federally registered
 trademark of Gaussian, Inc.
  
 This software contains proprietary and confidential information,
 including trade secrets, belonging to Gaussian, Inc.
  
 This software is provided under written license and may be
 used, copied, transmitted, or stored only in accord with that
 written license.
  
 The following legend is applicable only to US Government
 contracts under FAR:
  
                    RESTRICTED RIGHTS LEGEND
  
 Use, reproduction and disclosure by the US Government is
 subject to restrictions as set forth in subparagraphs (a)
 and (c) of the Commercial Computer Software - Restricted
 Rights clause in FAR 52.227-19.
  
 Gaussian, Inc.
 340 Quinnipiac St., Bldg. 40, Wallingford CT 06492
  
  
 ---------------------------------------------------------------
 Warning -- This program may not be used in any manner that
 competes with the business of Gaussian, Inc. or will provide
 assistance to any competitor of Gaussian, Inc.  The licensee
 of this program is prohibited from giving any competitor of
 Gaussian, Inc. access to this program.  By using this program,
 the user acknowledges that Gaussian, Inc. is engaged in the
 business of creating and licensing software in the field of
 computational chemistry and represents and warrants to the
 licensee that it is not a competitor of Gaussian, Inc. and that
 it will not use this program in any manner prohibited above.
 ---------------------------------------------------------------
  

 Cite this work as:
 Gaussian 16, Revision B.01,
 M. J. Frisch, G. W. Trucks, H. B. Schlegel, G. E. Scuseria, 
 M. A. Robb, J. R. Cheeseman, G. Scalmani, V. Barone, 
 G. A. Petersson, H. Nakatsuji, X. Li, M. Caricato, A. V. Marenich, 
 J. Bloino, B. G. Janesko, R. Gomperts, B. Mennucci, H. P. Hratchian, 
 J. V. Ortiz, A. F. Izmaylov, J. L. Sonnenberg, D. Williams-Young, 
 F. Ding, F. Lipparini, F. Egidi, J. Goings, B. Peng, A. Petrone, 
 T. Henderson, D. Ranasinghe, V. G. Zakrzewski, J. Gao, N. Rega, 
 G. Zheng, W. Liang, M. Hada, M. Ehara, K. Toyota, R. Fukuda, 
 J. Hasegawa, M. Ishida, T. Nakajima, Y. Honda, O. Kitao, H. Nakai, 
 T. Vreven, K. Throssell, J. A. Montgomery, Jr., J. E. Peralta, 
 F. Ogliaro, M. J. Bearpark, J. J. Heyd, E. N. Brothers, K. N. Kudin, 
 V. N. Staroverov, T. A. Keith, R. Kobayashi, J. Normand, 
 K. Raghavachari, A. P. Rendell, J. C. Burant, S. S. Iyengar, 
 J. Tomasi, M. Cossi, J. M. Millam, M. Klene, C. Adamo, R. Cammi, 
 J. W. Ochterski, R. L. Martin, K. Morokuma, O. Farkas, 
 J. B. Foresman, and D. J. Fox, Gaussian, Inc., Wallingford CT, 2016.
 
 ******************************************
 Gaussian 16:  ES64L-G16RevB.01 20-Dec-2017
                21-Feb-2022 
 ******************************************
 %nproc=28
 Will use up to   28 processors via shared memory.
 %mem=120GB
 %chk=hoono_a1_95p73743.chk
 ---------------------------------------
 #p freq mp2/aug-cc-pvtz density=current
 ---------------------------------------
 1/10=4,30=1,38=1/1,3;
 2/12=2,17=6,18=5,40=1/2;
 3/5=16,6=1,7=10,11=9,25=1,30=1,71=2,140=1/1,2,3;
 4//1;
 5/5=2,38=5,98=1/2;
 8/6=3,8=1,10=1,19=11,30=-1/1;
 9/15=3,16=-3/6;
 11/6=1,8=1,15=11,17=12,24=-1,27=1,28=-2,29=300,32=6,42=3/1,2,10;
 10/6=2,21=1/2;
 8/6=4,8=1,10=1,19=11,30=-1/11,4;
 10/5=1,20=4/2;
 11/12=2,14=11,16=1,17=2,28=-2,42=3,76=2/2,10,12;
 6/7=2,8=2,9=2,10=2,22=-1/1;
 7/8=1,10=1,12=2,25=1,44=2/1,2,3,16;
 1/10=4,30=1/3;
 99//99;
 Leave Link    1 at Mon Feb 21 20:37:46 2022, MaxMem= 16106127360 cpu:               2.0 elap:               0.1
 (Enter /sw/contrib/gaussian/g16/B01/g16/l101.exe)
 -----
 title
 -----
 Symbolic Z-matrix:
 Charge =  0 Multiplicity = 1
 H
 O                    1    r1
 O                    2    r2       1    a1
 N                    3    r3       2    a2       1    d1       0
 O                    4    r4       3    a3       2    d2       0
       Variables:
  r1                    0.96898                  
  r2                    1.45492                  
  r3                    1.45878                  
  r4                    1.17073                  
  a1                   95.73743                  
  a2                  102.29752                  
  a3                  109.06955                  
  d1                  180.                       
  d2                  180.                       
 
 ITRead=  0  0  0  0  0
 MicOpt= -1 -1 -1 -1 -1
 NAtoms=      5 NQM=        5 NQMF=       0 NMMI=      0 NMMIF=      0
                NMic=       0 NMicF=      0.
                    Isotopes and Nuclear Properties:
 (Nuclear quadrupole moments (NQMom) in fm**2, nuclear magnetic moments (NMagM)
  in nuclear magnetons)

  Atom         1           2           3           4           5
 IAtWgt=           1          16          16          14          16
 AtmWgt=   1.0078250  15.9949146  15.9949146  14.0030740  15.9949146
 NucSpn=           1           0           0           2           0
 AtZEff=  -0.0000000  -0.0000000  -0.0000000  -0.0000000  -0.0000000
 NQMom=    0.0000000   0.0000000   0.0000000   2.0440000   0.0000000
 NMagM=    2.7928460   0.0000000   0.0000000   0.4037610   0.0000000
 AtZNuc=   1.0000000   8.0000000   8.0000000   7.0000000   8.0000000
 Leave Link  101 at Mon Feb 21 20:37:46 2022, MaxMem= 16106127360 cpu:               3.1 elap:               0.1
 (Enter /sw/contrib/gaussian/g16/B01/g16/l103.exe)

 GradGradGradGradGradGradGradGradGradGradGradGradGradGradGradGradGradGrad
 Berny optimization.
 Initialization pass.
                       ----------------------------
                       !    Initial Parameters    !
                       ! (Angstroms and Degrees)  !
 ----------------------                            ----------------------
 !      Name          Value   Derivative information (Atomic Units)     !
 ------------------------------------------------------------------------
 !       r1          0.969    calculate D2E/DX2 analytically            !
 !       r2          1.4549   calculate D2E/DX2 analytically            !
 !       r3          1.4588   calculate D2E/DX2 analytically            !
 !       r4          1.1707   calculate D2E/DX2 analytically            !
 !       a1         95.7374   calculate D2E/DX2 analytically            !
 !       a2        102.2975   calculate D2E/DX2 analytically            !
 !       a3        109.0696   calculate D2E/DX2 analytically            !
 !       d1        180.0      calculate D2E/DX2 analytically            !
 !       d2        180.0      calculate D2E/DX2 analytically            !
 ------------------------------------------------------------------------
 Trust Radius=3.00D-01 FncErr=1.00D-07 GrdErr=1.00D-07 EigMax=2.50D+02 EigMin=1.00D-04
 Number of steps in this run=      2 maximum allowed number of steps=      2.
 GradGradGradGradGradGradGradGradGradGradGradGradGradGradGradGradGradGrad

 Leave Link  103 at Mon Feb 21 20:37:46 2022, MaxMem= 16106127360 cpu:               2.0 elap:               0.1
 (Enter /sw/contrib/gaussian/g16/B01/g16/l202.exe)
                          Input orientation:                          
 ---------------------------------------------------------------------
 Center     Atomic      Atomic             Coordinates (Angstroms)
 Number     Number       Type             X           Y           Z
 ---------------------------------------------------------------------
      1          1           0        0.000000    0.000000    0.000000
      2          8           0        0.000000    0.000000    0.968976
      3          8           0        1.447631    0.000000    1.114424
      4          7           0        1.614290    0.000000    2.563656
      5          8           0        2.757226    0.000000    2.817237
 ---------------------------------------------------------------------
                    Distance matrix (angstroms):
                    1          2          3          4          5
     1  H    0.000000
     2  O    0.968976   0.000000
     3  O    1.826903   1.454919   0.000000
     4  N    3.029565   2.269127   1.458784   0.000000
     5  O    3.941969   3.319392   2.148165   1.170729   0.000000
 Stoichiometry    HNO3
 Framework group  CS[SG(HNO3)]
 Deg. of freedom     7
 Full point group                 CS      NOp   2
 Largest Abelian subgroup         CS      NOp   2
 Largest concise Abelian subgroup C1      NOp   1
                         Standard orientation:                         
 ---------------------------------------------------------------------
 Center     Atomic      Atomic             Coordinates (Angstroms)
 Number     Number       Type             X           Y           Z
 ---------------------------------------------------------------------
      1          1           0        1.516325    1.691916   -0.000000
      2          8           0        1.453989    0.724947   -0.000000
      3          8           0       -0.000000    0.672929   -0.000000
      4          7           0       -0.259546   -0.762580    0.000000
      5          8           0       -1.416427   -0.942109    0.000000
 ---------------------------------------------------------------------
 Rotational constants (GHZ):          54.8381399           5.0165524           4.5961042
 Leave Link  202 at Mon Feb 21 20:37:47 2022, MaxMem= 16106127360 cpu:               0.6 elap:               0.0
 (Enter /sw/contrib/gaussian/g16/B01/g16/l301.exe)
 Standard basis: Aug-CC-pVTZ (5D, 7F)
 Ernie: Thresh=  0.10000D-02 Tol=  0.10000D-05 Strict=F.
 Ernie:  12 primitive shells out of 131 were deleted.
 There are   166 symmetry adapted cartesian basis functions of A'  symmetry.
 There are    79 symmetry adapted cartesian basis functions of A"  symmetry.
 There are   136 symmetry adapted basis functions of A'  symmetry.
 There are    71 symmetry adapted basis functions of A"  symmetry.
   207 basis functions,   315 primitive gaussians,   245 cartesian basis functions
    16 alpha electrons       16 beta electrons
       nuclear repulsion energy       116.9153636184 Hartrees.
 IExCor=    0 DFT=F Ex=HF Corr=None ExCW=0 ScaHFX=  1.000000
 ScaDFX=  1.000000  1.000000  1.000000  1.000000 ScalE2=  1.000000  1.000000
 IRadAn=      5 IRanWt=     -1 IRanGd=            0 ICorTp=0 IEmpDi=  4
 NAtoms=    5 NActive=    5 NUniq=    5 SFac= 1.00D+00 NAtFMM=   60 NAOKFM=F Big=F
 Integral buffers will be    131072 words long.
 Raffenetti 1 integral format.
 Two-electron integral symmetry is turned on.
 Leave Link  301 at Mon Feb 21 20:37:47 2022, MaxMem= 16106127360 cpu:               2.1 elap:               0.1
 (Enter /sw/contrib/gaussian/g16/B01/g16/l302.exe)
 NPDir=0 NMtPBC=     1 NCelOv=     1 NCel=       1 NClECP=     1 NCelD=      1
         NCelK=      1 NCelE2=     1 NClLst=     1 CellRange=     0.0.
 One-electron integrals computed using PRISM.
 One-electron integral symmetry used in STVInt
 NBasis=   207 RedAO= T EigKep=  1.81D-04  NBF=   136    71
 NBsUse=   207 1.00D-06 EigRej= -1.00D+00 NBFU=   136    71
 Leave Link  302 at Mon Feb 21 20:37:47 2022, MaxMem= 16106127360 cpu:               4.5 elap:               0.2
 (Enter /sw/contrib/gaussian/g16/B01/g16/l303.exe)
 DipDrv:  MaxL=1.
 Leave Link  303 at Mon Feb 21 20:37:47 2022, MaxMem= 16106127360 cpu:               0.8 elap:               0.1
 (Enter /sw/contrib/gaussian/g16/B01/g16/l401.exe)
 ExpMin= 2.53D-02 ExpMax= 1.53D+04 ExpMxC= 5.22D+02 IAcc=3 IRadAn=         5 AccDes= 0.00D+00
 Harris functional with IExCor=  205 and IRadAn=       5 diagonalized for initial guess.
 HarFok:  IExCor=  205 AccDes= 0.00D+00 IRadAn=         5 IDoV= 1 UseB2=F ITyADJ=14
 ICtDFT=  3500011 ScaDFX=  1.000000  1.000000  1.000000  1.000000
 FoFCou: FMM=F IPFlag=           0 FMFlag=      100000 FMFlg1=           0
         NFxFlg=           0 DoJE=T BraDBF=F KetDBF=T FulRan=T
         wScrn=  0.000000 ICntrl=       500 IOpCl=  0 I1Cent=   200000004 NGrid=           0
         NMat0=    1 NMatS0=      1 NMatT0=    0 NMatD0=    1 NMtDS0=    0 NMtDT0=    0
 Petite list used in FoFCou.
 Harris En= -279.628202049344    
 JPrj=0 DoOrth=F DoCkMO=F.
 Initial guess orbital symmetries:
       Occupied  (A') (A') (A') (A') (A') (A') (A') (A') (A') (A')
                 (A") (A') (A') (A") (A") (A')
       Virtual   (A") (A') (A') (A') (A') (A') (A") (A') (A') (A')
                 (A") (A') (A") (A') (A') (A") (A') (A") (A') (A')
                 (A') (A') (A') (A') (A') (A") (A') (A") (A') (A')
                 (A") (A') (A") (A') (A') (A") (A') (A") (A') (A')
                 (A") (A') (A") (A') (A") (A') (A') (A') (A") (A")
                 (A') (A') (A') (A') (A") (A') (A") (A') (A") (A')
                 (A') (A') (A") (A') (A') (A") (A') (A") (A') (A')
                 (A") (A') (A') (A") (A") (A') (A') (A") (A') (A')
                 (A') (A") (A') (A") (A') (A") (A') (A") (A') (A')
                 (A') (A") (A') (A") (A') (A") (A") (A') (A') (A")
                 (A') (A') (A") (A') (A') (A') (A") (A') (A") (A')
                 (A") (A') (A') (A') (A") (A') (A') (A') (A") (A')
                 (A") (A') (A') (A") (A") (A') (A") (A') (A") (A')
                 (A') (A') (A') (A") (A") (A') (A") (A') (A') (A')
                 (A') (A") (A") (A') (A') (A") (A') (A') (A') (A')
                 (A') (A") (A') (A") (A') (A") (A') (A") (A") (A')
                 (A') (A") (A') (A") (A') (A") (A") (A") (A') (A')
                 (A") (A') (A") (A') (A") (A') (A") (A") (A') (A')
                 (A') (A') (A') (A') (A') (A') (A') (A') (A') (A')
                 (A')
 The electronic state of the initial guess is 1-A'.
 Leave Link  401 at Mon Feb 21 20:37:47 2022, MaxMem= 16106127360 cpu:               6.8 elap:               0.3
 (Enter /sw/contrib/gaussian/g16/B01/g16/l502.exe)
 Keep R1 ints in memory in symmetry-blocked form, NReq=348887737.
 FoFCou: FMM=F IPFlag=           0 FMFlag=           0 FMFlg1=           0
         NFxFlg=           0 DoJE=F BraDBF=F KetDBF=F FulRan=T
         wScrn=  0.000000 ICntrl=       600 IOpCl=  0 I1Cent=           0 NGrid=           0
         NMat0=    1 NMatS0=  21528 NMatT0=    0 NMatD0=    1 NMtDS0=    0 NMtDT0=    0
 Petite list used in FoFCou.
 Closed shell SCF:
 Using DIIS extrapolation, IDIIS=  1040.
 NGot= 16106127360 LenX= 15988850015 LenY= 15988789549
 Requested convergence on RMS density matrix=1.00D-08 within 128 cycles.
 Requested convergence on MAX density matrix=1.00D-06.
 Requested convergence on             energy=1.00D-06.
 No special actions if energy rises.

 Cycle   1  Pass 1  IDiag  1:
 E= -279.370098475472    
 DIIS: error= 2.79D-02 at cycle   1 NSaved=   1.
 NSaved= 1 IEnMin= 1 EnMin= -279.370098475472     IErMin= 1 ErrMin= 2.79D-02
 ErrMax= 2.79D-02  0.00D+00 EMaxC= 1.00D-01 BMatC= 4.38D-01 BMatP= 4.38D-01
 IDIUse=3 WtCom= 7.21D-01 WtEn= 2.79D-01
 Coeff-Com:  0.100D+01
 Coeff-En:   0.100D+01
 Coeff:      0.100D+01
 Gap=     0.513 Goal=   None    Shift=    0.000
 GapD=    0.513 DampG=2.000 DampE=0.500 DampFc=1.0000 IDamp=-1.
 RMSDP=1.62D-03 MaxDP=9.94D-02              OVMax= 1.13D-01

 Cycle   2  Pass 1  IDiag  1:
 E= -279.451948054288     Delta-E=       -0.081849578816 Rises=F Damp=F
 DIIS: error= 1.79D-02 at cycle   2 NSaved=   2.
 NSaved= 2 IEnMin= 2 EnMin= -279.451948054288     IErMin= 2 ErrMin= 1.79D-02
 ErrMax= 1.79D-02  0.00D+00 EMaxC= 1.00D-01 BMatC= 7.19D-02 BMatP= 4.38D-01
 IDIUse=3 WtCom= 8.21D-01 WtEn= 1.79D-01
 Coeff-Com:  0.195D+00 0.805D+00
 Coeff-En:   0.000D+00 0.100D+01
 Coeff:      0.160D+00 0.840D+00
 Gap=     0.530 Goal=   None    Shift=    0.000
 RMSDP=9.01D-04 MaxDP=3.74D-02 DE=-8.18D-02 OVMax= 6.92D-02

 Cycle   3  Pass 1  IDiag  1:
 E= -279.481094314595     Delta-E=       -0.029146260307 Rises=F Damp=F
 DIIS: error= 1.04D-02 at cycle   3 NSaved=   3.
 NSaved= 3 IEnMin= 3 EnMin= -279.481094314595     IErMin= 3 ErrMin= 1.04D-02
 ErrMax= 1.04D-02  0.00D+00 EMaxC= 1.00D-01 BMatC= 2.88D-02 BMatP= 7.19D-02
 IDIUse=3 WtCom= 8.96D-01 WtEn= 1.04D-01
 Coeff-Com: -0.330D-01 0.378D+00 0.655D+00
 Coeff-En:   0.000D+00 0.241D+00 0.759D+00
 Coeff:     -0.296D-01 0.364D+00 0.665D+00
 Gap=     0.511 Goal=   None    Shift=    0.000
 RMSDP=3.77D-04 MaxDP=1.54D-02 DE=-2.91D-02 OVMax= 3.82D-02

 Cycle   4  Pass 1  IDiag  1:
 E= -279.500227945942     Delta-E=       -0.019133631347 Rises=F Damp=F
 DIIS: error= 1.27D-03 at cycle   4 NSaved=   4.
 NSaved= 4 IEnMin= 4 EnMin= -279.500227945942     IErMin= 4 ErrMin= 1.27D-03
 ErrMax= 1.27D-03  0.00D+00 EMaxC= 1.00D-01 BMatC= 4.94D-04 BMatP= 2.88D-02
 IDIUse=3 WtCom= 9.87D-01 WtEn= 1.27D-02
 Coeff-Com: -0.117D-01 0.573D-01 0.158D+00 0.796D+00
 Coeff-En:   0.000D+00 0.000D+00 0.000D+00 0.100D+01
 Coeff:     -0.115D-01 0.566D-01 0.156D+00 0.799D+00
 Gap=     0.502 Goal=   None    Shift=    0.000
 RMSDP=9.05D-05 MaxDP=2.79D-03 DE=-1.91D-02 OVMax= 1.12D-02

 Cycle   5  Pass 1  IDiag  1:
 E= -279.500905898493     Delta-E=       -0.000677952551 Rises=F Damp=F
 DIIS: error= 7.22D-04 at cycle   5 NSaved=   5.
 NSaved= 5 IEnMin= 5 EnMin= -279.500905898493     IErMin= 5 ErrMin= 7.22D-04
 ErrMax= 7.22D-04  0.00D+00 EMaxC= 1.00D-01 BMatC= 8.75D-05 BMatP= 4.94D-04
 IDIUse=3 WtCom= 9.93D-01 WtEn= 7.22D-03
 Coeff-Com:  0.614D-02-0.725D-01-0.118D+00 0.211D-01 0.116D+01
 Coeff-En:   0.000D+00 0.000D+00 0.000D+00 0.000D+00 0.100D+01
 Coeff:      0.610D-02-0.720D-01-0.117D+00 0.209D-01 0.116D+01
 Gap=     0.502 Goal=   None    Shift=    0.000
 RMSDP=7.64D-05 MaxDP=2.10D-03 DE=-6.78D-04 OVMax= 1.11D-02

 Cycle   6  Pass 1  IDiag  1:
 E= -279.501221963483     Delta-E=       -0.000316064990 Rises=F Damp=F
 DIIS: error= 2.92D-04 at cycle   6 NSaved=   6.
 NSaved= 6 IEnMin= 6 EnMin= -279.501221963483     IErMin= 6 ErrMin= 2.92D-04
 ErrMax= 2.92D-04  0.00D+00 EMaxC= 1.00D-01 BMatC= 1.68D-05 BMatP= 8.75D-05
 IDIUse=3 WtCom= 9.97D-01 WtEn= 2.92D-03
 Coeff-Com:  0.644D-03 0.982D-03 0.344D-02-0.129D+00-0.222D+00 0.135D+01
 Coeff-En:   0.000D+00 0.000D+00 0.000D+00 0.000D+00 0.000D+00 0.100D+01
 Coeff:      0.643D-03 0.979D-03 0.343D-02-0.129D+00-0.221D+00 0.134D+01
 Gap=     0.503 Goal=   None    Shift=    0.000
 RMSDP=4.53D-05 MaxDP=1.25D-03 DE=-3.16D-04 OVMax= 5.54D-03

 Cycle   7  Pass 1  IDiag  1:
 E= -279.501294733723     Delta-E=       -0.000072770240 Rises=F Damp=F
 DIIS: error= 1.26D-04 at cycle   7 NSaved=   7.
 NSaved= 7 IEnMin= 7 EnMin= -279.501294733723     IErMin= 7 ErrMin= 1.26D-04
 ErrMax= 1.26D-04  0.00D+00 EMaxC= 1.00D-01 BMatC= 4.72D-06 BMatP= 1.68D-05
 IDIUse=3 WtCom= 9.99D-01 WtEn= 1.26D-03
 Coeff-Com: -0.943D-03 0.137D-01 0.267D-01-0.260D-01-0.292D+00 0.410D+00
 Coeff-Com:  0.870D+00
 Coeff-En:   0.000D+00 0.000D+00 0.000D+00 0.000D+00 0.000D+00 0.000D+00
 Coeff-En:   0.100D+01
 Coeff:     -0.941D-03 0.137D-01 0.267D-01-0.260D-01-0.292D+00 0.409D+00
 Coeff:      0.870D+00
 Gap=     0.503 Goal=   None    Shift=    0.000
 RMSDP=1.34D-05 MaxDP=3.79D-04 DE=-7.28D-05 OVMax= 1.56D-03

 Cycle   8  Pass 1  IDiag  1:
 E= -279.501303868633     Delta-E=       -0.000009134911 Rises=F Damp=F
 DIIS: error= 5.68D-05 at cycle   8 NSaved=   8.
 NSaved= 8 IEnMin= 8 EnMin= -279.501303868633     IErMin= 8 ErrMin= 5.68D-05
 ErrMax= 5.68D-05  0.00D+00 EMaxC= 1.00D-01 BMatC= 6.07D-07 BMatP= 4.72D-06
 IDIUse=1 WtCom= 1.00D+00 WtEn= 0.00D+00
 Coeff-Com: -0.450D-03 0.346D-02 0.762D-02 0.275D-01-0.413D-01-0.195D+00
 Coeff-Com:  0.152D+00 0.105D+01
 Coeff:     -0.450D-03 0.346D-02 0.762D-02 0.275D-01-0.413D-01-0.195D+00
 Coeff:      0.152D+00 0.105D+01
 Gap=     0.502 Goal=   None    Shift=    0.000
 RMSDP=7.03D-06 MaxDP=2.05D-04 DE=-9.13D-06 OVMax= 7.58D-04

 Cycle   9  Pass 1  IDiag  1:
 E= -279.501305686633     Delta-E=       -0.000001818000 Rises=F Damp=F
 DIIS: error= 1.54D-05 at cycle   9 NSaved=   9.
 NSaved= 9 IEnMin= 9 EnMin= -279.501305686633     IErMin= 9 ErrMin= 1.54D-05
 ErrMax= 1.54D-05  0.00D+00 EMaxC= 1.00D-01 BMatC= 6.87D-08 BMatP= 6.07D-07
 IDIUse=1 WtCom= 1.00D+00 WtEn= 0.00D+00
 Coeff-Com:  0.123D-03-0.172D-02-0.307D-02-0.203D-02 0.343D-01-0.351D-03
 Coeff-Com: -0.161D+00-0.112D+00 0.125D+01
 Coeff:      0.123D-03-0.172D-02-0.307D-02-0.203D-02 0.343D-01-0.351D-03
 Coeff:     -0.161D+00-0.112D+00 0.125D+01
 Gap=     0.502 Goal=   None    Shift=    0.000
 RMSDP=1.94D-06 MaxDP=6.63D-05 DE=-1.82D-06 OVMax= 1.76D-04

 Cycle  10  Pass 1  IDiag  1:
 E= -279.501305846787     Delta-E=       -0.000000160153 Rises=F Damp=F
 DIIS: error= 4.36D-06 at cycle  10 NSaved=  10.
 NSaved=10 IEnMin=10 EnMin= -279.501305846787     IErMin=10 ErrMin= 4.36D-06
 ErrMax= 4.36D-06  0.00D+00 EMaxC= 1.00D-01 BMatC= 5.58D-09 BMatP= 6.87D-08
 IDIUse=1 WtCom= 1.00D+00 WtEn= 0.00D+00
 Coeff-Com:  0.309D-04-0.241D-03-0.320D-03-0.270D-02 0.161D-02 0.195D-01
 Coeff-Com: -0.116D-01-0.753D-01-0.808D-01 0.115D+01
 Coeff:      0.309D-04-0.241D-03-0.320D-03-0.270D-02 0.161D-02 0.195D-01
 Coeff:     -0.116D-01-0.753D-01-0.808D-01 0.115D+01
 Gap=     0.502 Goal=   None    Shift=    0.000
 RMSDP=5.05D-07 MaxDP=2.11D-05 DE=-1.60D-07 OVMax= 4.19D-05

 Cycle  11  Pass 1  IDiag  1:
 E= -279.501305859357     Delta-E=       -0.000000012571 Rises=F Damp=F
 DIIS: error= 2.04D-06 at cycle  11 NSaved=  11.
 NSaved=11 IEnMin=11 EnMin= -279.501305859357     IErMin=11 ErrMin= 2.04D-06
 ErrMax= 2.04D-06  0.00D+00 EMaxC= 1.00D-01 BMatC= 6.63D-10 BMatP= 5.58D-09
 IDIUse=1 WtCom= 1.00D+00 WtEn= 0.00D+00
 Coeff-Com: -0.213D-04 0.245D-03 0.488D-03 0.527D-03-0.430D-02-0.344D-02
 Coeff-Com:  0.200D-01 0.323D-01-0.139D+00-0.179D+00 0.127D+01
 Coeff:     -0.213D-04 0.245D-03 0.488D-03 0.527D-03-0.430D-02-0.344D-02
 Coeff:      0.200D-01 0.323D-01-0.139D+00-0.179D+00 0.127D+01
 Gap=     0.502 Goal=   None    Shift=    0.000
 RMSDP=1.78D-07 MaxDP=6.55D-06 DE=-1.26D-08 OVMax= 1.74D-05

 Cycle  12  Pass 1  IDiag  1:
 E= -279.501305861171     Delta-E=       -0.000000001814 Rises=F Damp=F
 DIIS: error= 5.90D-07 at cycle  12 NSaved=  12.
 NSaved=12 IEnMin=12 EnMin= -279.501305861171     IErMin=12 ErrMin= 5.90D-07
 ErrMax= 5.90D-07  0.00D+00 EMaxC= 1.00D-01 BMatC= 7.16D-11 BMatP= 6.63D-10
 IDIUse=1 WtCom= 1.00D+00 WtEn= 0.00D+00
 Coeff-Com:  0.124D-05-0.292D-04-0.630D-04 0.184D-03 0.108D-02-0.229D-02
 Coeff-Com: -0.409D-02 0.536D-02 0.417D-01-0.114D+00-0.278D+00 0.135D+01
 Coeff:      0.124D-05-0.292D-04-0.630D-04 0.184D-03 0.108D-02-0.229D-02
 Coeff:     -0.409D-02 0.536D-02 0.417D-01-0.114D+00-0.278D+00 0.135D+01
 Gap=     0.502 Goal=   None    Shift=    0.000
 RMSDP=7.17D-08 MaxDP=2.83D-06 DE=-1.81D-09 OVMax= 6.69D-06

 Cycle  13  Pass 1  IDiag  1:
 E= -279.501305861401     Delta-E=       -0.000000000229 Rises=F Damp=F
 DIIS: error= 1.67D-07 at cycle  13 NSaved=  13.
 NSaved=13 IEnMin=13 EnMin= -279.501305861401     IErMin=13 ErrMin= 1.67D-07
 ErrMax= 1.67D-07  0.00D+00 EMaxC= 1.00D-01 BMatC= 4.00D-12 BMatP= 7.16D-11
 IDIUse=1 WtCom= 1.00D+00 WtEn= 0.00D+00
 Coeff-Com:  0.128D-05-0.140D-04-0.223D-04-0.886D-04 0.122D-03 0.747D-03
 Coeff-Com: -0.760D-03-0.332D-02 0.518D-03 0.411D-01-0.355D-01-0.326D+00
 Coeff-Com:  0.132D+01
 Coeff:      0.128D-05-0.140D-04-0.223D-04-0.886D-04 0.122D-03 0.747D-03
 Coeff:     -0.760D-03-0.332D-02 0.518D-03 0.411D-01-0.355D-01-0.326D+00
 Coeff:      0.132D+01
 Gap=     0.502 Goal=   None    Shift=    0.000
 RMSDP=1.91D-08 MaxDP=5.60D-07 DE=-2.29D-10 OVMax= 1.55D-06

 Cycle  14  Pass 1  IDiag  1:
 E= -279.501305861414     Delta-E=       -0.000000000014 Rises=F Damp=F
 DIIS: error= 2.43D-08 at cycle  14 NSaved=  14.
 NSaved=14 IEnMin=14 EnMin= -279.501305861414     IErMin=14 ErrMin= 2.43D-08
 ErrMax= 2.43D-08  0.00D+00 EMaxC= 1.00D-01 BMatC= 1.94D-13 BMatP= 4.00D-12
 IDIUse=1 WtCom= 1.00D+00 WtEn= 0.00D+00
 Coeff-Com: -0.188D-06 0.309D-05 0.552D-05 0.443D-05-0.820D-04 0.463D-04
 Coeff-Com:  0.269D-03 0.234D-03-0.242D-02 0.144D-02 0.169D-01-0.257D-01
 Coeff-Com: -0.198D+00 0.121D+01
 Coeff:     -0.188D-06 0.309D-05 0.552D-05 0.443D-05-0.820D-04 0.463D-04
 Coeff:      0.269D-03 0.234D-03-0.242D-02 0.144D-02 0.169D-01-0.257D-01
 Coeff:     -0.198D+00 0.121D+01
 Gap=     0.502 Goal=   None    Shift=    0.000
 RMSDP=3.77D-09 MaxDP=9.10D-08 DE=-1.40D-11 OVMax= 3.39D-07

 SCF Done:  E(RHF) =  -279.501305861     A.U. after   14 cycles
            NFock= 14  Conv=0.38D-08     -V/T= 2.0023
 KE= 2.788523145252D+02 PE=-8.951571356353D+02 EE= 2.198881516303D+02
 Leave Link  502 at Mon Feb 21 20:37:51 2022, MaxMem= 16106127360 cpu:              54.7 elap:               3.6
 (Enter /sw/contrib/gaussian/g16/B01/g16/l801.exe)
 ExpMin= 2.53D-02 ExpMax= 1.53D+04 ExpMxC= 5.22D+02 IAcc=3 IRadAn=         5 AccDes= 0.00D+00
 HarFok:  IExCor=  205 AccDes= 0.00D+00 IRadAn=         5 IDoV=-2 UseB2=F ITyADJ=14
 ICtDFT= 12500011 ScaDFX=  1.000000  1.000000  1.000000  1.000000
 DSYEVD-2 returned Info=          93 IAlg= 4 N=    46 NDim=    46 NE2=   350130240 trying  DSYEV.
 Largest valence mixing into a core orbital is  2.08D-04
 Largest core mixing into a valence orbital is  3.63D-05
 Range of M.O.s used for correlation:     5   207
 NBasis=   207 NAE=    16 NBE=    16 NFC=     4 NFV=     0
 NROrb=    203 NOA=    12 NOB=    12 NVA=   191 NVB=   191

 **** Warning!!: The largest alpha MO coefficient is  0.17272134D+02

 Leave Link  801 at Mon Feb 21 20:37:51 2022, MaxMem= 16106127360 cpu:               2.0 elap:               0.1
 (Enter /sw/contrib/gaussian/g16/B01/g16/l906.exe)
 Frozen-core derivative calculation, NFC=   4 NFV=   0.
 FulOut=F Deriv=T AODrv=T NAtomX=     5
   MMem=           0  MDisk=          12 MDiskD=          12
  W3Min=      811440 MinDsk=     2425030 NBas6D=         245
 NBas2D=       30762    NTT=       30135    LW2=     7400000
    MDV= 16105574269 MDiskM=      328644 NBas2p=       30702
 Disk-based method using ON**2 memory for 12 occupieds at a time.
 Permanent disk used for amplitudes=    11516536 words.
 Estimated scratch disk usage=   321251614 words.
 IMap=   1   2   3   4   5   6   7   8   9  10  11  12  13  14  15  16
 Actual    scratch disk usage=   310331678 words.
 JobTyp=1 Pass  1:  I=   5 to  16 NPSUse= 28 ParTrn=T ParDer=T DoDerP=T.
 (rs|ai) integrals will be sorted in core.
 Spin components of T(2) and E(2):
     alpha-alpha T2 =       0.3404468597D-01 E2=     -0.1224548095D+00
     alpha-beta  T2 =       0.1869318931D+00 E2=     -0.7004084107D+00
     beta-beta   T2 =       0.3404468597D-01 E2=     -0.1224548095D+00
 The integrals were generated   1 times.
 ANorm=    0.1120277316D+01
 E2 =    -0.9453180297D+00 EUMP2 =    -0.28044662389115D+03
 Leave Link  906 at Mon Feb 21 20:39:28 2022, MaxMem= 16106127360 cpu:            2719.2 elap:              97.2
 (Enter /sw/contrib/gaussian/g16/B01/g16/l1101.exe)
 Using compressed Sx but separate Hx and Fx, NAtomX=     5.
 Will process      6 centers per pass.
 Leave Link 1101 at Mon Feb 21 20:39:28 2022, MaxMem= 16106127360 cpu:               5.9 elap:               0.2
 (Enter /sw/contrib/gaussian/g16/B01/g16/l1102.exe)
 Leave Link 1102 at Mon Feb 21 20:39:29 2022, MaxMem= 16106127360 cpu:               1.2 elap:               0.1
 (Enter /sw/contrib/gaussian/g16/B01/g16/l1110.exe)
 Forming Gx(P) for the SCF density, NAtomX=     5.
 Integral derivatives from FoFJK, PRISM(SPDF).
 Do as many integral derivatives as possible in FoFJK.
 G2DrvN: MDV=   16106126844.
 G2DrvN: will do     6 centers at a time, making    1 passes.
 Calling FoFCou, ICntrl=  3107 FMM=F I1Cent=   0 AccDes= 0.00D+00.
 FoFJK:  IHMeth= 1 ICntrl=    3107 DoSepK=F KAlg= 0 I1Cent=           0 FoldK=F
 IRaf=         0 NMat=       1 IRICut=       1 DoRegI=T DoRafI=F ISym2E= 1 IDoP0=0 IntGTp=1.
 FoFCou: FMM=F IPFlag=           0 FMFlag=      100000 FMFlg1=           0
         NFxFlg=           0 DoJE=F BraDBF=F KetDBF=F FulRan=T
         wScrn=  0.000000 ICntrl=      3107 IOpCl=  0 I1Cent=           0 NGrid=           0
         NMat0=    1 NMatS0=      1 NMatT0=    0 NMatD0=    1 NMtDS0=    0 NMtDT0=    0
 Petite list used in FoFCou.
 End of G2Drv F.D. properties file   721 does not exist.
 End of G2Drv F.D. properties file   722 does not exist.
 End of G2Drv F.D. properties file   788 does not exist.
 Leave Link 1110 at Mon Feb 21 20:39:32 2022, MaxMem= 16106127360 cpu:              82.6 elap:               3.0
 (Enter /sw/contrib/gaussian/g16/B01/g16/l1002.exe)
 Minotr:  Closed shell wavefunction.
          IDoAtm=11111
          Frozen-core window.
          Direct CPHF calculation.
          Differentiating once with respect to electric field.
                with respect to dipole field.
          Differentiating once with respect to nuclear coordinates.
          Requested convergence is 1.0D-08 RMS, and 1.0D-07 maximum.
          Secondary convergence is 1.0D-12 RMS, and 1.0D-12 maximum.
          NewPWx=T KeepS1=T KeepF1=T KeepIn=T MapXYZ=F SortEE=F KeepMc=T.
 Keep R1 ints in memory in symmetry-blocked form, NReq=348888983.
 FoFCou: FMM=F IPFlag=           0 FMFlag=           0 FMFlg1=           0
         NFxFlg=           0 DoJE=F BraDBF=F KetDBF=F FulRan=T
         wScrn=  0.000000 ICntrl=       600 IOpCl=  0 I1Cent=           0 NGrid=           0
         NMat0=    1 NMatS0=  21528 NMatT0=    0 NMatD0=    1 NMtDS0=    0 NMtDT0=    0
 Petite list used in FoFCou.
          MDV=   16106127360 using IRadAn=       1.
          Solving linear equations simultaneously, MaxMat=       0.
          There are    18 degrees of freedom in the 1st order CPHF.  IDoFFX=6 NUNeed=    18.
     15 vectors produced by pass  0 Test12= 1.70D-14 5.56D-09 XBig12= 8.28D+00 1.07D+00.
 AX will form    15 AO Fock derivatives at one time.
     15 vectors produced by pass  1 Test12= 1.70D-14 5.56D-09 XBig12= 1.34D+00 2.67D-01.
     15 vectors produced by pass  2 Test12= 1.70D-14 5.56D-09 XBig12= 1.40D-01 9.69D-02.
     15 vectors produced by pass  3 Test12= 1.70D-14 5.56D-09 XBig12= 4.91D-03 1.10D-02.
     15 vectors produced by pass  4 Test12= 1.70D-14 5.56D-09 XBig12= 9.93D-05 1.95D-03.
     15 vectors produced by pass  5 Test12= 1.70D-14 5.56D-09 XBig12= 1.43D-06 1.86D-04.
     15 vectors produced by pass  6 Test12= 1.70D-14 5.56D-09 XBig12= 1.13D-08 1.45D-05.
     12 vectors produced by pass  7 Test12= 1.70D-14 5.56D-09 XBig12= 8.23D-11 1.32D-06.
      3 vectors produced by pass  8 Test12= 1.70D-14 5.56D-09 XBig12= 5.68D-13 1.20D-07.
      2 vectors produced by pass  9 Test12= 1.70D-14 5.56D-09 XBig12= 3.71D-15 1.06D-08.
 InvSVY:  IOpt=1 It=  1 EMax= 7.77D-16
 Solved reduced A of dimension   122 with    15 vectors.
 FullF1:  Do perturbations      1 to      18.
 Saving first derivative matrices.
 End of Minotr F.D. properties file   721 does not exist.
 End of Minotr F.D. properties file   722 does not exist.
 End of Minotr F.D. properties file   788 does not exist.
 Leave Link 1002 at Mon Feb 21 20:39:34 2022, MaxMem= 16106127360 cpu:              79.5 elap:               2.9
 (Enter /sw/contrib/gaussian/g16/B01/g16/l811.exe)
 MDV= 16106127360.
 Form MO integral derivatives with frozen-active canonical formalism.
 MOERI=1 MOERIx=1 NAtoms=     5 NAtomX=     5.
 Discarding MO integrals.
 MO basis two electron integral derivatives will not be stored on disk.
 IAlg= 3 DoFC=T DoPWx=T Debug=F.
 Frozen-core window:  NFC=   4 NFV=   0.
 Reordered first order wavefunction length =     18678272
 In DefCFB: NBatch=  1 ICI= 16 ICA=191 LFMax= 96
            Large arrays: LIAPS=   619940160 LIARS=   288257200 words.
 In StABat: MaxSiz= 55 MinSiz= 25 NAtomB=  5
 DoIAMN: NPSUse= 28.
 Leave Link  811 at Mon Feb 21 20:40:54 2022, MaxMem= 16106127360 cpu:            2228.5 elap:              79.7
 (Enter /sw/contrib/gaussian/g16/B01/g16/l804.exe)
 Frozen-core window:  NFC=   4 NFV=   0.
 Closed-shell transformation, MDV= 16106127360 ITran=4 ISComp=1.
 Semi-Direct transformation.
 ModeAB=           2 MOrb=            16 LenV=   16104923037
 LASXX=     67341636 LTotXX=    67341636 LenRXX=    67341636
 LTotAB=    68301760 MaxLAS=    99807120 LenRXY=    99807120
 NonZer=   134683272 LenScr=   202817536 LnRSAI=           0
 LnScr1=           0 LExtra=           0 Total=    369966292
 MaxDsk=          -1 SrtSym=           F ITran=            4
 DoSDTr:  NPSUse= 28
 JobTyp=0 Pass  1:  I=   1 to  16.
 (rs|ai) integrals will be sorted in core.
 Complete sort for first half transformation.
 First half transformation complete.
 Begin second half transformation for I=  10.
 Begin second half transformation for I=  10.
 Complete sort for second half transformation.
 Second half transformation complete.
 Spin components of T(2) and E(2):
     alpha-alpha T2 =       0.3404468597D-01 E2=     -0.1224548095D+00
     alpha-beta  T2 =       0.1869318931D+00 E2=     -0.7004084107D+00
     beta-beta   T2 =       0.3404468597D-01 E2=     -0.1224548095D+00
 ANorm=    0.1584311374D+01
 E2 =    -0.9453180297D+00 EUMP2 =    -0.28044662389115D+03
 Leave Link  804 at Mon Feb 21 20:41:10 2022, MaxMem= 16106127360 cpu:             428.9 elap:              15.4
 (Enter /sw/contrib/gaussian/g16/B01/g16/l1002.exe)
 Minotr:  Closed shell wavefunction.
          Computing MP2/KS-MP2 derivatives.
          Using Z-Vector for PSCF gradient.
          Skipping F1 and S1 gradient terms here.
          IDoAtm=11111
          Frozen-core window.
          Using MO integrals in the linear equations.
          Forming densities via direct SCF.
          Differentiating once with respect to electric field.
                with respect to dipole field.
          Differentiating once with respect to nuclear coordinates.
          Using symmetry in CPHF.
          Requested convergence is 1.0D-10 RMS, and 1.0D-09 maximum.
          NewPWx=F KeepS1=T KeepF1=T KeepIn=T MapXYZ=F SortEE=F KeepMc=T.
          MDV=   16106127360 using IRadAn=       5.
          Solving linear equations separately, MaxMat=       0.
          There are     1 degrees of freedom in the 1st order CPHF.  IDoFFX=0 NUNeed=     1.
 FoFJK:  IHMeth= 1 ICntrl=       0 DoSepK=F KAlg= 0 I1Cent=           0 FoldK=F
 IRaf=         0 NMat=       1 IRICut=       1 DoRegI=T DoRafI=F ISym2E= 0 IDoP0=0 IntGTp=1.
 FoFCou: FMM=F IPFlag=           0 FMFlag=      100000 FMFlg1=           0
         NFxFlg=           0 DoJE=F BraDBF=F KetDBF=F FulRan=T
         wScrn=  0.000000 ICntrl=         0 IOpCl=  0 I1Cent=           0 NGrid=           0
         NMat0=    1 NMatS0=      1 NMatT0=    0 NMatD0=    1 NMtDS0=    0 NMtDT0=    0
 Symmetry not used in FoFCou.
 LinEq1:  Iter=  0 NonCon=     1 RMS=5.96D-03 Max=1.32D-01 NDo=     1
 LinEq1:  Iter=  1 NonCon=     1 RMS=1.90D-03 Max=3.82D-02 NDo=     1
 LinEq1:  Iter=  2 NonCon=     1 RMS=8.68D-04 Max=1.44D-02 NDo=     1
 LinEq1:  Iter=  3 NonCon=     1 RMS=3.86D-04 Max=7.76D-03 NDo=     1
 LinEq1:  Iter=  4 NonCon=     1 RMS=1.19D-04 Max=1.92D-03 NDo=     1
 LinEq1:  Iter=  5 NonCon=     1 RMS=4.48D-05 Max=7.17D-04 NDo=     1
 LinEq1:  Iter=  6 NonCon=     1 RMS=2.01D-05 Max=2.35D-04 NDo=     1
 LinEq1:  Iter=  7 NonCon=     1 RMS=8.11D-06 Max=1.59D-04 NDo=     1
 LinEq1:  Iter=  8 NonCon=     1 RMS=3.47D-06 Max=3.39D-05 NDo=     1
 LinEq1:  Iter=  9 NonCon=     1 RMS=9.46D-07 Max=1.31D-05 NDo=     1
 LinEq1:  Iter= 10 NonCon=     1 RMS=1.86D-07 Max=2.04D-06 NDo=     1
 LinEq1:  Iter= 11 NonCon=     1 RMS=3.47D-08 Max=3.54D-07 NDo=     1
 LinEq1:  Iter= 12 NonCon=     1 RMS=8.36D-09 Max=1.28D-07 NDo=     1
 LinEq1:  Iter= 13 NonCon=     1 RMS=1.50D-09 Max=2.54D-08 NDo=     1
 LinEq1:  Iter= 14 NonCon=     1 RMS=2.72D-10 Max=3.83D-09 NDo=     1
 LinEq1:  Iter= 15 NonCon=     0 RMS=4.93D-11 Max=5.54D-10 NDo=     1
 Linear equations converged to 1.000D-10 1.000D-09 after    15 iterations.
 End of Minotr F.D. properties file   721 does not exist.
 End of Minotr F.D. properties file   722 does not exist.
 End of Minotr F.D. properties file   788 does not exist.
 Leave Link 1002 at Mon Feb 21 20:41:12 2022, MaxMem= 16106127360 cpu:              64.7 elap:               2.4
 (Enter /sw/contrib/gaussian/g16/B01/g16/l1102.exe)
 Use density number 2.
 Symmetrizing basis deriv contribution to polar:
 IMax=3 JMax=2 DiffMx= 0.00D+00
 Leave Link 1102 at Mon Feb 21 20:41:12 2022, MaxMem= 16106127360 cpu:               1.1 elap:               0.1
 (Enter /sw/contrib/gaussian/g16/B01/g16/l1110.exe)
 Forming Gx(P) for generalized density number  2 NAtomX=     5.
 Integral derivatives from FoFJK, PRISM(SPDF).
 Do as many integral derivatives as possible in FoFJK.
 G2DrvN: MDV=   16106126844.
 G2DrvN: will do     6 centers at a time, making    1 passes.
 Calling FoFCou, ICntrl=  3107 FMM=F I1Cent=   0 AccDes= 0.00D+00.
 FoFJK:  IHMeth= 1 ICntrl=    3107 DoSepK=F KAlg= 0 I1Cent=           0 FoldK=F
 IRaf=         0 NMat=       1 IRICut=       1 DoRegI=T DoRafI=F ISym2E= 1 IDoP0=0 IntGTp=1.
 FoFCou: FMM=F IPFlag=           0 FMFlag=      100000 FMFlg1=           0
         NFxFlg=           0 DoJE=F BraDBF=F KetDBF=F FulRan=T
         wScrn=  0.000000 ICntrl=      3107 IOpCl=  0 I1Cent=           0 NGrid=           0
         NMat0=    1 NMatS0=      1 NMatT0=    0 NMatD0=    1 NMtDS0=    0 NMtDT0=    0
 Petite list used in FoFCou.
 End of G2Drv F.D. properties file   721 does not exist.
 End of G2Drv F.D. properties file   722 does not exist.
 End of G2Drv F.D. properties file   788 does not exist.
 Leave Link 1110 at Mon Feb 21 20:41:15 2022, MaxMem= 16106127360 cpu:              86.9 elap:               3.1
 (Enter /sw/contrib/gaussian/g16/B01/g16/l1112.exe)
 MP22nd: MDV=   16106127360
 This link is doing NAtomX=     5 total of    18 degrees of freedom.
 Using ON3 I/O method in MakUI.
 Frozen-core window:  NFC=   4 NFV=   0.
 Using Ix for Sx.
 Use MO integrals over full window.
 Using OV2 memory method for fx*t*t/D, MaxI=    16 DoOO2=F NP=  28.
 R2 and R3 integrals will be kept in memory, NReq=   915591705.
 FoFCou: FMM=F IPFlag=           0 FMFlag=           0 FMFlg1=           0
         NFxFlg=           0 DoJE=F BraDBF=F KetDBF=F FulRan=T
         wScrn=  0.000000 ICntrl=       600 IOpCl=  0 I1Cent=           0 NGrid=           0
         NMat0=    1 NMatS0=      1 NMatT0=    0 NMatD0=    1 NMtDS0=    0 NMtDT0=    0
 Symmetry not used in FoFCou.
 DD1Dir will call FoFMem   1 times, MxPair=       272
 NAB=   136 NAA=     0 NBB=     0.
 Symmetry is being used.
 FoFJK:  IHMeth= 1 ICntrl=       0 DoSepK=F KAlg= 0 I1Cent=           0 FoldK=F
 IRaf=         0 NMat=      18 IRICut=      45 DoRegI=T DoRafI=T ISym2E= 2 IDoP0=3 IntGTp=3.
 Discarding MO integrals.
 Leave Link 1112 at Mon Feb 21 20:41:53 2022, MaxMem= 16106127360 cpu:            1055.4 elap:              38.2
 (Enter /sw/contrib/gaussian/g16/B01/g16/l601.exe)
 Copying SCF densities to generalized density rwf, IOpCl= 0 IROHF=0.

 **********************************************************************

            Population analysis using the MP2 Density.

 **********************************************************************

 Orbital symmetries:
       Occupied  (A') (A') (A') (A') (A') (A') (A') (A') (A') (A')
                 (A") (A') (A") (A') (A") (A')
       Virtual   (A') (A") (A') (A') (A") (A') (A') (A') (A") (A')
                 (A") (A') (A') (A') (A") (A') (A') (A") (A') (A')
                 (A') (A') (A') (A') (A") (A') (A') (A") (A') (A')
                 (A") (A') (A") (A') (A') (A") (A') (A') (A") (A')
                 (A") (A') (A") (A') (A') (A") (A') (A') (A") (A')
                 (A") (A') (A') (A') (A") (A') (A") (A') (A") (A')
                 (A') (A') (A") (A') (A') (A") (A') (A") (A') (A')
                 (A") (A') (A') (A") (A") (A') (A') (A") (A') (A')
                 (A') (A") (A') (A") (A') (A") (A') (A") (A') (A')
                 (A") (A') (A') (A") (A') (A") (A') (A") (A') (A')
                 (A") (A') (A") (A') (A') (A") (A') (A') (A") (A')
                 (A") (A') (A') (A') (A") (A') (A') (A') (A") (A')
                 (A") (A') (A") (A') (A') (A") (A") (A') (A") (A')
                 (A') (A') (A') (A") (A") (A") (A') (A') (A') (A')
                 (A") (A') (A") (A') (A') (A") (A') (A') (A') (A')
                 (A") (A') (A') (A") (A') (A") (A') (A") (A") (A')
                 (A') (A") (A') (A') (A") (A") (A") (A') (A") (A')
                 (A") (A') (A") (A') (A") (A') (A") (A") (A') (A')
                 (A') (A') (A') (A') (A') (A') (A') (A') (A') (A')
                 (A')
 The electronic state is 1-A'.
 Alpha  occ. eigenvalues --  -20.69068 -20.68427 -20.66069 -15.81280  -1.62412
 Alpha  occ. eigenvalues --   -1.49691  -1.25413  -0.94817  -0.77374  -0.75798
 Alpha  occ. eigenvalues --   -0.71201  -0.67884  -0.62079  -0.59114  -0.48546
 Alpha  occ. eigenvalues --   -0.47253
 Alpha virt. eigenvalues --    0.02984   0.07159   0.08593   0.10165   0.13386
 Alpha virt. eigenvalues --    0.13407   0.14412   0.15463   0.17820   0.19398
 Alpha virt. eigenvalues --    0.19964   0.20641   0.22071   0.23534   0.23736
 Alpha virt. eigenvalues --    0.26524   0.29344   0.30372   0.31101   0.34327
 Alpha virt. eigenvalues --    0.35002   0.38729   0.42348   0.43109   0.52764
 Alpha virt. eigenvalues --    0.52938   0.55811   0.58116   0.62610   0.63812
 Alpha virt. eigenvalues --    0.67463   0.68481   0.70650   0.70999   0.72781
 Alpha virt. eigenvalues --    0.72850   0.74442   0.79330   0.79436   0.81165
 Alpha virt. eigenvalues --    0.81220   0.82943   0.86773   0.90863   0.92093
 Alpha virt. eigenvalues --    0.92740   0.95476   0.97651   0.98602   1.01741
 Alpha virt. eigenvalues --    1.05156   1.05447   1.08265   1.11741   1.14373
 Alpha virt. eigenvalues --    1.19016   1.22091   1.23529   1.33946   1.35178
 Alpha virt. eigenvalues --    1.38566   1.45671   1.48712   1.50615   1.53730
 Alpha virt. eigenvalues --    1.56655   1.57954   1.61061   1.66250   1.67070
 Alpha virt. eigenvalues --    1.70312   1.79738   1.83068   1.83599   1.87739
 Alpha virt. eigenvalues --    1.91113   1.95495   1.99396   2.00394   2.07905
 Alpha virt. eigenvalues --    2.12620   2.13208   2.14966   2.22650   2.26264
 Alpha virt. eigenvalues --    2.26416   2.29094   2.31379   2.34249   2.38662
 Alpha virt. eigenvalues --    2.42754   2.43357   2.45331   2.46245   2.47961
 Alpha virt. eigenvalues --    2.49948   2.59062   2.59893   2.62013   2.62578
 Alpha virt. eigenvalues --    2.63515   2.66551   2.75797   2.82723   2.84654
 Alpha virt. eigenvalues --    2.87948   2.89223   2.92787   2.95412   3.02418
 Alpha virt. eigenvalues --    3.06905   3.12026   3.20870   3.22378   3.31435
 Alpha virt. eigenvalues --    3.34277   3.51896   3.63815   3.83718   3.84104
 Alpha virt. eigenvalues --    4.14616   4.17123   4.18345   4.25859   4.34517
 Alpha virt. eigenvalues --    4.39613   4.46169   4.52725   4.65901   4.73070
 Alpha virt. eigenvalues --    4.80279   4.82407   4.82799   4.89559   5.02476
 Alpha virt. eigenvalues --    5.07700   5.10220   5.13716   5.17364   5.25032
 Alpha virt. eigenvalues --    5.27023   5.30656   5.32853   5.35783   5.60225
 Alpha virt. eigenvalues --    5.67352   5.76504   5.84162   5.95804   6.17436
 Alpha virt. eigenvalues --    6.31130   6.33268   6.39345   6.49380   6.50521
 Alpha virt. eigenvalues --    6.61503   6.66794   6.70262   6.76118   6.76129
 Alpha virt. eigenvalues --    6.83463   6.89909   7.02459   7.04950   7.05676
 Alpha virt. eigenvalues --    7.08913   7.12526   7.14245   7.18217   7.22681
 Alpha virt. eigenvalues --    7.24157   7.30292   7.32446   7.35000   7.39979
 Alpha virt. eigenvalues --    7.44828   7.48479   7.60714   7.62079   7.62640
 Alpha virt. eigenvalues --    7.66689   7.79623   7.88708   8.09411   8.31863
 Alpha virt. eigenvalues --    8.39515   8.54278  13.38922  14.38894  15.18412
 Alpha virt. eigenvalues --   16.15401
          Condensed to atoms (all electrons):
               1          2          3          4          5
     1  H    0.586524   0.129703   0.019326   0.012077  -0.000543
     2  O    0.129703   8.322571  -0.176533  -0.089311   0.015390
     3  O    0.019326  -0.176533   8.475715  -0.131334  -0.038506
     4  N    0.012077  -0.089311  -0.131334   6.972983  -0.055408
     5  O   -0.000543   0.015390  -0.038506  -0.055408   8.272487
 Mulliken charges:
               1
     1  H    0.252912
     2  O   -0.201819
     3  O   -0.148667
     4  N    0.290994
     5  O   -0.193419
 Sum of Mulliken charges =  -0.00000
 Mulliken charges with hydrogens summed into heavy atoms:
               1
     2  O    0.051093
     3  O   -0.148667
     4  N    0.290994
     5  O   -0.193419
 APT charges:
               1
     1  H    0.299790
     2  O   -0.286197
     3  O   -0.496930
     4  N    0.875384
     5  O   -0.392046
 Sum of APT charges =  -0.00000
 APT charges with hydrogens summed into heavy atoms:
               1
     2  O    0.013593
     3  O   -0.496930
     4  N    0.875384
     5  O   -0.392046
 Electronic spatial extent (au):  <R**2>=            252.6824
 Charge=             -0.0000 electrons
 Dipole moment (field-independent basis, Debye):
    X=              0.4651    Y=              1.3570    Z=             -0.0000  Tot=              1.4345
 Quadrupole moment (field-independent basis, Debye-Ang):
   XX=            -22.6234   YY=            -18.5978   ZZ=            -22.0072
   XY=              3.1447   XZ=             -0.0000   YZ=              0.0000
 Traceless Quadrupole moment (field-independent basis, Debye-Ang):
   XX=             -1.5473   YY=              2.4783   ZZ=             -0.9310
   XY=              3.1447   XZ=             -0.0000   YZ=              0.0000
 Octapole moment (field-independent basis, Debye-Ang**2):
  XXX=              2.4660  YYY=             11.3774  ZZZ=              0.0000  XYY=              7.7434
  XXY=              6.2493  XXZ=             -0.0000  XZZ=             -1.5751  YZZ=             -0.8552
  YYZ=             -0.0000  XYZ=             -0.0000
 Hexadecapole moment (field-independent basis, Debye-Ang**3):
 XXXX=           -158.6975 YYYY=            -89.8224 ZZZZ=            -18.2323 XXXY=            -37.4485
 XXXZ=              0.0000 YYYX=            -30.9638 YYYZ=              0.0000 ZZZX=              0.0000
 ZZZY=              0.0000 XXYY=            -34.4883 XXZZ=            -30.7662 YYZZ=            -20.7134
 XXYZ=              0.0000 YYXZ=              0.0000 ZZXY=            -15.0488
 N-N= 1.169153636184D+02 E-N=-8.959411334151D+02  KE= 2.802044859591D+02
 Symmetry A'   KE= 2.662319898290D+02
 Symmetry A"   KE= 1.397249613004D+01
  Exact polarizability:  33.898   9.412  30.251  -0.000  -0.000  17.911
 Approx polarizability:  28.996   5.057  23.539  -0.000  -0.000  15.513
 No NMR shielding tensors so no spin-rotation constants.
 Leave Link  601 at Mon Feb 21 20:41:54 2022, MaxMem= 16106127360 cpu:               5.3 elap:               0.2
 (Enter /sw/contrib/gaussian/g16/B01/g16/l701.exe)
 ... and contract with generalized density number  2.
 Compute integral second derivatives.
 Leave Link  701 at Mon Feb 21 20:41:54 2022, MaxMem= 16106127360 cpu:               5.9 elap:               0.2
 (Enter /sw/contrib/gaussian/g16/B01/g16/l702.exe)
 L702 exits ... SP integral derivatives will be done elsewhere.
 Leave Link  702 at Mon Feb 21 20:41:54 2022, MaxMem= 16106127360 cpu:               0.5 elap:               0.0
 (Enter /sw/contrib/gaussian/g16/B01/g16/l703.exe)
 Integral derivatives from FoFJK, PRISM(SPDF).
 Compute integral second derivatives, UseDBF=F ICtDFT=           0.
 Calling FoFJK, ICntrl=  10100127 FMM=F ISym2X=1 I1Cent= 0 IOpClX= 0 NMat=1 NMatS=1 NMatT=0.
 FoFJK:  IHMeth= 1 ICntrl=10100127 DoSepK=F KAlg= 0 I1Cent=           0 FoldK=F
 IRaf=         0 NMat=       1 IRICut=       1 DoRegI=T DoRafI=F ISym2E= 1 IDoP0=0 IntGTp=1.
 FoFCou: FMM=F IPFlag=           0 FMFlag=      100000 FMFlg1=         800
         NFxFlg=           0 DoJE=F BraDBF=F KetDBF=F FulRan=T
         wScrn=  0.000000 ICntrl=  10100127 IOpCl=  0 I1Cent=           0 NGrid=           0
         NMat0=    1 NMatS0=      1 NMatT0=    0 NMatD0=    1 NMtDS0=    0 NMtDT0=    0
 Petite list used in FoFCou.
 Leave Link  703 at Mon Feb 21 20:42:10 2022, MaxMem= 16106127360 cpu:             436.4 elap:              15.6
 (Enter /sw/contrib/gaussian/g16/B01/g16/l716.exe)
 Dipole        = 1.82970986D-01 5.33888018D-01-1.31136684D-32
 Polarizability= 3.38982325D+01 9.41156923D+00 3.02509838D+01
                -1.08782268D-31-1.06156124D-31 1.79107483D+01
 Full mass-weighted force constant matrix:
 Low frequencies --- -259.2053  -27.0286  -22.1886   -0.0006    0.0002    0.0012
 Low frequencies ---   78.0929  225.8640  338.2071
 ******    1 imaginary frequencies (negative Signs) ****** 
 Diagonal vibrational polarizability:
       13.9460119      25.0825705      50.8005365
 Harmonic frequencies (cm**-1), IR intensities (KM/Mole), Raman scattering
 activities (A**4/AMU), depolarization ratios for plane and unpolarized
 incident light, reduced masses (AMU), force constants (mDyne/A),
 and normal coordinates:
                      1                      2                      3
                     A"                     A"                     A'
 Frequencies --   -256.0421               225.7996               338.2008
 Red. masses --      1.1173                12.9610                 8.7089
 Frc consts  --      0.0432                 0.3893                 0.5869
 IR Inten    --    123.7441                 0.0074                 5.3903
  Atom  AN      X      Y      Z        X      Y      Z        X      Y      Z
     1   1     0.00  -0.00   1.00     0.00  -0.00  -0.39     0.55  -0.42  -0.00
     2   8     0.00  -0.00  -0.06     0.00  -0.00  -0.36    -0.09  -0.38   0.00
     3   8    -0.00   0.00  -0.05     0.00   0.00   0.35    -0.15   0.44  -0.00
     4   7    -0.00   0.00   0.05    -0.00  -0.00   0.59     0.04   0.25  -0.00
     5   8     0.00  -0.00   0.00    -0.00  -0.00  -0.49     0.16  -0.26   0.00
                      4                      5                      6
                     A'                     A'                     A'
 Frequencies --    452.8932               787.0192               969.8079
 Red. masses --     12.4907                12.9164                15.7627
 Frc consts  --      1.5095                 4.7137                 8.7348
 IR Inten    --    198.0491               169.5210                23.9122
  Atom  AN      X      Y      Z        X      Y      Z        X      Y      Z
     1   1     0.39   0.21   0.00    -0.35   0.17   0.00    -0.07  -0.03  -0.00
     2   8     0.33   0.21   0.00     0.42   0.08   0.00    -0.53   0.03   0.00
     3   8     0.18   0.43  -0.00    -0.06  -0.27  -0.00     0.76  -0.02  -0.00
     4   7    -0.35  -0.41  -0.00    -0.14   0.62  -0.00    -0.12   0.24  -0.00
     5   8    -0.22  -0.30   0.00    -0.21  -0.37   0.00    -0.12  -0.22   0.00
                      7                      8                      9
                     A'                     A'                     A'
 Frequencies --   1382.6239              1677.7577              3778.0572
 Red. masses --      1.1298                12.9778                 1.0670
 Frc consts  --      1.2725                21.5233                 8.9736
 IR Inten    --    160.5117               137.5863                80.3338
  Atom  AN      X      Y      Z        X      Y      Z        X      Y      Z
     1   1     1.00  -0.03   0.00    -0.37  -0.00  -0.00     0.08   1.00  -0.00
     2   8    -0.03   0.05   0.00    -0.00  -0.04  -0.00    -0.01  -0.06   0.00
     3   8    -0.02  -0.05  -0.00     0.00   0.15   0.00     0.00   0.00   0.00
     4   7     0.02   0.01  -0.00     0.70  -0.05   0.00    -0.00  -0.00  -0.00
     5   8    -0.03  -0.01   0.00    -0.59  -0.07  -0.00     0.00   0.00  -0.00

 -------------------
 - Thermochemistry -
 -------------------
 Temperature   298.150 Kelvin.  Pressure   1.00000 Atm.
 Atom     1 has atomic number  1 and mass   1.00783
 Atom     2 has atomic number  8 and mass  15.99491
 Atom     3 has atomic number  8 and mass  15.99491
 Atom     4 has atomic number  7 and mass  14.00307
 Atom     5 has atomic number  8 and mass  15.99491
 Molecular mass:    62.99564 amu.
 Principal axes and moments of inertia in atomic units:
                           1         2         3
     Eigenvalues --    32.91033 359.75727 392.66760
           X            0.80907  -0.58771   0.00000
           Y            0.58771   0.80907   0.00000
           Z            0.00000  -0.00000   1.00000
 This molecule is an asymmetric top.
 Rotational symmetry number  1.
 Rotational temperatures (Kelvin)      2.63182     0.24076     0.22058
 Rotational constants (GHZ):          54.83814     5.01655     4.59610
    1 imaginary frequencies ignored.
 Zero-point vibrational energy      57493.5 (Joules/Mol)
                                   13.74127 (Kcal/Mol)
 Warning -- explicit consideration of   3 degrees of freedom as
           vibrations may cause significant error
 Vibrational temperatures:    324.88   486.60   651.61  1132.35  1395.34
          (Kelvin)           1989.29  2413.92  5435.78
 
 Zero-point correction=                           0.021898 (Hartree/Particle)
 Thermal correction to Energy=                    0.026022
 Thermal correction to Enthalpy=                  0.026966
 Thermal correction to Gibbs Free Energy=        -0.004234
 Sum of electronic and zero-point Energies=           -280.424726
 Sum of electronic and thermal Energies=              -280.420602
 Sum of electronic and thermal Enthalpies=            -280.419658
 Sum of electronic and thermal Free Energies=         -280.450858
 
                     E (Thermal)             CV                S
                      KCal/Mol        Cal/Mol-Kelvin    Cal/Mol-Kelvin
 Total                   16.329             11.953             65.666
 Electronic               0.000              0.000              0.000
 Translational            0.889              2.981             38.341
 Rotational               0.889              2.981             23.057
 Vibrational             14.552              5.991              4.268
 Vibration     1          0.650              1.802              1.912
 Vibration     2          0.719              1.599              1.221
 Vibration     3          0.811              1.354              0.787
                       Q            Log10(Q)             Ln(Q)
 Total Bot       0.886010D+02          1.947439          4.484143
 Total V=0       0.104679D+13         12.019861         27.676754
 Vib (Bot)       0.184710D-09         -9.733510        -22.412235
 Vib (Bot)    1  0.873860D+00         -0.058558         -0.134835
 Vib (Bot)    2  0.549660D+00         -0.259906         -0.598455
 Vib (Bot)    3  0.377757D+00         -0.422787         -0.973503
 Vib (V=0)       0.218229D+01          0.338913          0.780375
 Vib (V=0)    1  0.150679D+01          0.178053          0.409983
 Vib (V=0)    2  0.124305D+01          0.094489          0.217570
 Vib (V=0)    3  0.112666D+01          0.051792          0.119256
 Electronic      0.100000D+01          0.000000          0.000000
 Translational   0.196526D+08          7.293420         16.793719
 Rotational      0.244078D+05          4.387529         10.102659
 
                                                                title
                                                             IR Spectrum
 
     3                                                                      1         1                                              
     7                                                                      6         3             9     7          4   3   2       
     7                                                                      7         8             7     8          5   3   2       
     8                                                                      8         3             0     7          3   8   6       
 
     X                                                                      X         X             X     X          X   X           
     X                                                                      X         X             X     X          X               
     X                                                                      X         X                   X          X               
     X                                                                      X         X                   X          X               
     X                                                                      X         X                   X          X               
     X                                                                      X         X                   X          X               
     X                                                                      X         X                   X          X               
     X                                                                      X         X                   X          X               
                                                                            X         X                   X          X               
                                                                            X         X                   X          X               
                                                                            X         X                   X          X               
                                                                            X         X                   X          X               
                                                                            X         X                   X          X               
                                                                            X         X                   X          X               
                                                                                      X                   X          X               
                                                                                      X                   X          X               
                                                                                                          X          X               
                                                                                                                     X               
                                                                                                                     X               
                                                                                                                     X               
 
 ***** Axes restored to original set *****
 -------------------------------------------------------------------
 Center     Atomic                   Forces (Hartrees/Bohr)
 Number     Number              X              Y              Z
 -------------------------------------------------------------------
      1        1          -0.003818900   -0.000000000   -0.000342239
      2        8           0.002157094   -0.000000000   -0.002735128
      3        8           0.001081271    0.000000000    0.003140936
      4        7           0.000126630   -0.000000000   -0.000461024
      5        8           0.000453906    0.000000000    0.000397456
 -------------------------------------------------------------------
 Cartesian Forces:  Max     0.003818900 RMS     0.001601298
 -----------------------------------------------------------------------------------------------
                       Internal Coordinate Forces (Hartree/Bohr or radian)
  Cent   Atom   N1       Length/X         N2         Alpha/Y        N3         Beta/Z          J
 -----------------------------------------------------------------------------------------------
      1  H 
      2  O        1   0.000342(     1)
      3  O        2   0.001961(     2)      1   0.006993(     5)
      4  N        3   0.000003(     3)      2   0.000969(     6)      1  -0.000000(     8)     0
      5  O        4   0.000529(     4)      3   0.000641(     7)      2   0.000000(     9)     0
 -----------------------------------------------------------------------------------------------
 Internal  Forces:  Max     0.006992791 RMS     0.002460625
 Force constants in Cartesian coordinates: 
                1             2             3             4             5 
      1  0.661019D-01
      2  0.000000D+00 -0.217112D-02
      3  0.835491D-02  0.000000D+00  0.512291D+00
      4 -0.326191D-01  0.000000D+00 -0.184241D-01  0.272928D+00
      5  0.000000D+00  0.133475D-02  0.000000D+00  0.000000D+00  0.469092D-02
      6  0.457456D-01  0.000000D+00 -0.507258D+00  0.327258D-01  0.000000D+00
      7 -0.228066D-01  0.000000D+00  0.118735D-01 -0.221731D+00  0.000000D+00
      8  0.000000D+00  0.241116D-02  0.000000D+00  0.000000D+00 -0.739592D-02
      9 -0.534228D-01  0.000000D+00 -0.164889D-02 -0.176763D-01  0.000000D+00
     10 -0.951828D-02  0.000000D+00 -0.514674D-02 -0.179764D-01  0.000000D+00
     11  0.000000D+00 -0.251336D-02  0.000000D+00  0.000000D+00 -0.506329D-02
     12  0.495494D-02  0.000000D+00 -0.467336D-02  0.136370D-01  0.000000D+00
     13 -0.115799D-02  0.000000D+00  0.334247D-02 -0.602294D-03  0.000000D+00
     14  0.000000D+00  0.938573D-03  0.000000D+00  0.000000D+00  0.643354D-02
     15 -0.563266D-02  0.000000D+00  0.128884D-02 -0.102624D-01  0.000000D+00
                6             7             8             9            10 
      6  0.588518D+00
      7 -0.185157D-01  0.347400D+00
      8  0.000000D+00  0.000000D+00  0.379736D-02
      9 -0.749496D-01  0.348047D-01  0.000000D+00  0.178630D+00
     10 -0.514886D-01 -0.708934D-01  0.000000D+00  0.174370D+00  0.826981D+00
     11  0.000000D+00  0.000000D+00  0.817482D-02  0.000000D+00  0.000000D+00
     12  0.175157D-01  0.617568D-01  0.000000D+00 -0.891153D-01 -0.376275D-01
     13 -0.846714D-02 -0.319693D-01  0.000000D+00 -0.138076D+00 -0.728593D+00
     14  0.000000D+00  0.000000D+00 -0.698742D-02  0.000000D+00  0.000000D+00
     15 -0.238263D-01 -0.899194D-01  0.000000D+00 -0.129158D-01 -0.801072D-01
               11            12            13            14            15 
     11  0.896970D-02
     12  0.000000D+00  0.189114D+00
     13  0.000000D+00 -0.427213D-01  0.762323D+00
     14 -0.956787D-02  0.000000D+00  0.000000D+00  0.918318D-02
     15  0.000000D+00 -0.112841D+00  0.185922D+00  0.000000D+00  0.148295D+00
 Force constants in internal coordinates: 
                1             2             3             4             5 
      1  0.512291D+00
      2 -0.951561D-02  0.285526D+00
      3  0.356849D-02  0.232788D-02  0.117773D+00
      4 -0.354229D-02  0.612368D-02  0.152895D+00  0.812144D+00
      5  0.114798D-01  0.709066D-01  0.346641D-02  0.430403D-02  0.222262D+00
      6  0.505733D-02  0.592263D-01  0.420017D-01  0.213180D-01  0.318866D-01
      7 -0.118197D-02  0.379402D-01  0.321629D-01  0.851838D-01  0.212617D-01
      8  0.000000D+00  0.000000D+00  0.000000D+00  0.000000D+00  0.000000D+00
      9  0.000000D+00  0.000000D+00  0.000000D+00  0.000000D+00  0.000000D+00
                6             7             8             9 
      6  0.282967D+00
      7  0.959786D-01  0.483148D+00
      8  0.000000D+00  0.000000D+00 -0.728131D-02
      9  0.000000D+00  0.000000D+00 -0.357476D-02  0.409974D-01
 Leave Link  716 at Mon Feb 21 20:42:10 2022, MaxMem= 16106127360 cpu:               0.9 elap:               0.1
 (Enter /sw/contrib/gaussian/g16/B01/g16/l103.exe)

 GradGradGradGradGradGradGradGradGradGradGradGradGradGradGradGradGradGrad
 Berny optimization.
 Search for a local minimum.
 Step number   1 out of a maximum of    2
 All quantities printed in internal units (Hartrees-Bohrs-Radians)
 Second derivative matrix not updated -- analytic derivatives used.
 The second derivative matrix:
                          r1        r2        r3        r4        a1
           r1           0.51229
           r2          -0.00952   0.28553
           r3           0.00357   0.00233   0.11777
           r4          -0.00354   0.00612   0.15289   0.81214
           a1           0.01148   0.07091   0.00347   0.00430   0.22226
           a2           0.00506   0.05923   0.04200   0.02132   0.03189
           a3          -0.00118   0.03794   0.03216   0.08518   0.02126
           d1           0.00000  -0.00000  -0.00000  -0.00000  -0.00000
           d2          -0.00000   0.00000   0.00000   0.00000   0.00000
                          a2        a3        d1        d2
           a2           0.28297
           a3           0.09598   0.48315
           d1          -0.00000  -0.00000  -0.00728
           d2          -0.00000  -0.00000  -0.00357   0.04100
 ITU=  0
     Eigenvalues ---   -0.00754   0.04126   0.07845   0.17531   0.22751
     Eigenvalues ---    0.33188   0.51279   0.51894   0.87124
 Eigenvalue     1 is  -7.54D-03 should be greater than     0.000000 Eigenvector:
                          d1        d2        a3        a2        r3
   1                    0.99730   0.07344   0.00000   0.00000  -0.00000
                          r4        a1        r2        r1
   1                    0.00000  -0.00000   0.00000  -0.00000
 Angle between quadratic step and forces=  20.25 degrees.
 Linear search not attempted -- first point.
 Variable       Old X    -DE/DX   Delta X   Delta X   Delta X     New X
                                 (Linear)    (Quad)   (Total)
    r1        1.83110   0.00034   0.00000  -0.00005  -0.00005   1.83105
    r2        2.74940   0.00196   0.00000  -0.00109  -0.00109   2.74831
    r3        2.75670   0.00000   0.00000  -0.00215  -0.00215   2.75455
    r4        2.21236   0.00053   0.00000   0.00089   0.00089   2.21325
    a1        1.67093   0.00699   0.00000   0.03179   0.03179   1.70272
    a2        1.78543   0.00097   0.00000   0.00035   0.00035   1.78578
    a3        1.90362   0.00064   0.00000  -0.00007  -0.00007   1.90355
    d1        3.14159  -0.00000   0.00000  -0.00000   0.00000   3.14159
    d2        3.14159   0.00000   0.00000  -0.00000   0.00000   3.14159
         Item               Value     Threshold  Converged?
 Maximum Force            0.006993     0.000450     NO 
 RMS     Force            0.002461     0.000300     NO 
 Maximum Displacement     0.031785     0.001800     NO 
 RMS     Displacement     0.010630     0.001200     NO 
 Predicted change in Energy=-1.104359D-04
                       ----------------------------
                       ! Non-Optimized Parameters !
                       ! (Angstroms and Degrees)  !
 ----------------------                            ----------------------
 !      Name          Value   Derivative information (Atomic Units)     !
 ------------------------------------------------------------------------
 !       r1          0.969    -DE/DX =    0.0003                        !
 !       r2          1.4543   -DE/DX =    0.002                         !
 !       r3          1.4576   -DE/DX =    0.0                           !
 !       r4          1.1712   -DE/DX =    0.0005                        !
 !       a1         97.5586   -DE/DX =    0.007                         !
 !       a2        102.3174   -DE/DX =    0.001                         !
 !       a3        109.0655   -DE/DX =    0.0006                        !
 !       d1        180.0      -DE/DX =    0.0                           !
 !       d2        180.0      -DE/DX =    0.0                           !
 ------------------------------------------------------------------------
 GradGradGradGradGradGradGradGradGradGradGradGradGradGradGradGradGradGrad

 Leave Link  103 at Mon Feb 21 20:42:10 2022, MaxMem= 16106127360 cpu:               0.9 elap:               0.1
 (Enter /sw/contrib/gaussian/g16/B01/g16/l9999.exe)

 ----------------------------------------------------------------------

 Electric dipole moment (input orientation):
 (Debye = 10**-18 statcoulomb cm , SI units = C m)
                  (au)            (Debye)         (10**-30 SI)
   Tot        0.564371D+00      0.143449D+01      0.478494D+01
   x         -0.148246D+00     -0.376804D+00     -0.125688D+01
   y          0.000000D+00      0.000000D+00      0.000000D+00
   z         -0.544553D+00     -0.138412D+01     -0.461691D+01

 Dipole polarizability, Alpha (input orientation).
 (esu units = cm**3 , SI units = C**2 m**2 J**-1)
 Alpha(0;0):
               (au)            (10**-24 esu)      (10**-40 SI)
   iso        0.273533D+02      0.405334D+01      0.450995D+01
   aniso      0.218249D+02      0.323411D+01      0.359843D+01
   xx         0.326747D+02      0.484189D+01      0.538733D+01
   yx         0.000000D+00      0.000000D+00      0.000000D+00
   yy         0.179107D+02      0.265410D+01      0.295308D+01
   zx         0.956782D+01      0.141780D+01      0.157752D+01
   zy         0.000000D+00      0.000000D+00      0.000000D+00
   zz         0.314745D+02      0.466404D+01      0.518944D+01

 ----------------------------------------------------------------------

 Dipole orientation:
     1         -0.00000000          0.00000000         -0.00000000
     8         -0.48098327          0.00000000         -1.76679839
     8          2.08638159          0.00000000         -2.75058327
     7          1.67088744          0.00000000         -5.47579381
     8          3.62900646          0.00000000         -6.50549908

 Electric dipole moment (dipole orientation):
 (Debye = 10**-18 statcoulomb cm , SI units = C m)
                  (au)            (Debye)         (10**-30 SI)
   Tot        0.564371D+00      0.143449D+01      0.478494D+01
   x          0.000000D+00      0.000000D+00      0.000000D+00
   y          0.000000D+00      0.000000D+00      0.000000D+00
   z          0.564371D+00      0.143449D+01      0.478494D+01

 Dipole polarizability, Alpha (dipole orientation).
 (esu units = cm**3 , SI units = C**2 m**2 J**-1)
 Alpha(0;0):
               (au)            (10**-24 esu)      (10**-40 SI)
   iso        0.273533D+02      0.405334D+01      0.450995D+01
   aniso      0.218249D+02      0.323411D+01      0.359843D+01
   xx         0.277420D+02      0.411094D+01      0.457403D+01
   yx         0.000000D+00      0.000000D+00      0.000000D+00
   yy         0.179107D+02      0.265410D+01      0.295308D+01
   zx        -0.855169D+01     -0.126723D+01     -0.140998D+01
   zy         0.000000D+00      0.000000D+00      0.000000D+00
   zz         0.364072D+02      0.539500D+01      0.600274D+01

 ----------------------------------------------------------------------
 1\1\GINC-N2124\Freq\RMP2-FC\Aug-CC-pVTZ\H1N1O3\CGAVINH\21-Feb-2022\1\\
 #p freq mp2/aug-cc-pvtz density=current\\title\\0,1\H\O,1,r1\O,2,r2,1,
 a1\N,3,r3,2,a2,1,d1,0\O,4,r4,3,a3,2,d2,0\\r1=0.96897556\r2=1.45491931\
 r3=1.45878406\r4=1.17072885\a1=95.73743154\a2=102.29752444\a3=109.0695
 5123\d1=180.\d2=180.\\Version=ES64L-G16RevB.01\State=1-A'\HF=-279.5013
 059\MP2=-280.4466239\RMSD=3.772e-09\RMSF=1.601e-03\ZeroPoint=0.0218981
 \Thermal=0.0260219\Dipole=-0.148246,0.,-0.5445529\DipoleDeriv=0.273684
 1,0.,0.0550205,0.,0.353342,0.,0.0786108,0.,0.2723443,-0.3410782,0.,-0.
 2085554,0.,-0.3103588,0.,-0.0970995,0.,-0.2071545,-0.0664343,0.,0.1066
 793,0.,-0.0883477,0.,-0.7980124,0.,-1.3360093,0.9540037,0.,0.9306366,0
 .,0.0661747,0.,0.9425797,0.,1.6059728,-0.8201754,0.,-0.883781,0.,-0.02
 08103,0.,-0.1260786,0.,-0.3351533\Polar=32.6747215,0.,17.9107483,9.567
 8161,0.,31.4744948\Quadrupole=-1.4381679,-0.692199,2.1303669,0.,2.1265
 226,0.\PG=CS [SG(H1N1O3)]\NImag=1\\0.06610195,0.,-0.00217112,0.0083549
 1,0.,0.51229121,-0.03261910,0.,-0.01842415,0.27292842,0.,0.00133475,0.
 ,0.,0.00469092,0.04574564,0.,-0.50725780,0.03272576,0.,0.58851793,-0.0
 2280658,0.,0.01187351,-0.22173065,0.,-0.01851568,0.34739988,0.,0.00241
 116,0.,0.,-0.00739592,0.,0.,0.00379736,-0.05342283,0.,-0.00164889,-0.0
 1767626,0.,-0.07494961,0.03480470,0.,0.17862953,-0.00951828,0.,-0.0051
 4674,-0.01797637,0.,-0.05148859,-0.07089336,0.,0.17436997,0.82698112,0
 .,-0.00251336,0.,0.,-0.00506329,0.,0.,0.00817482,0.,0.,0.00896970,0.00
 495494,0.,-0.00467336,0.01363703,0.,0.01751574,0.06175682,0.,-0.089115
 28,-0.03762748,0.,0.18911436,-0.00115799,0.,0.00334247,-0.00060229,0.,
 -0.00846714,-0.03196929,0.,-0.13807558,-0.72859311,0.,-0.04272130,0.76
 232268,0.,0.00093857,0.,0.,0.00643354,0.,0.,-0.00698742,0.,0.,-0.00956
 787,0.,0.,0.00918318,-0.00563266,0.,0.00128884,-0.01026238,0.,-0.02382
 626,-0.08991936,0.,-0.01291575,-0.08010716,0.,-0.11284146,0.18592155,0
 .,0.14829464\\0.00381890,0.,0.00034224,-0.00215709,0.,0.00273513,-0.00
 108127,0.,-0.00314094,-0.00012663,0.,0.00046102,-0.00045391,0.,-0.0003
 9746\\\@


 "I COULD HAVE DONE IT IN A MUCH MORE COMPLICATED WAY"
 SAID THE RED QUEEN, IMMENSELY PROUD.

                                      -- LEWIS CARROLL
 Job cpu time:       0 days  2 hours  1 minutes 25.3 seconds.
 Elapsed time:       0 days  0 hours  4 minutes 23.4 seconds.
 File lengths (MBytes):  RWF=   7239 Int=      0 D2E=      0 Chk=      8 Scr=      1
 Normal termination of Gaussian 16 at Mon Feb 21 20:42:11 2022.
