 Entering Gaussian System, Link 0=g16
 Input=hoono_a1_100p2218.gjf
 Output=hoono_a1_100p2218.log
 Initial command:
 /sw/contrib/gaussian/g16/B01/g16/l1.exe "/scr/Gau-28377.inp" -scrdir="/scr/"
 Entering Link 1 = /sw/contrib/gaussian/g16/B01/g16/l1.exe PID=     28378.
  
 Copyright (c) 1988-2017, Gaussian, Inc.  All Rights Reserved.
  
 This is part of the Gaussian(R) 16 program.  It is based on
 the Gaussian(R) 09 system (copyright 2009, Gaussian, Inc.),
 the Gaussian(R) 03 system (copyright 2003, Gaussian, Inc.),
 the Gaussian(R) 98 system (copyright 1998, Gaussian, Inc.),
 the Gaussian(R) 94 system (copyright 1995, Gaussian, Inc.),
 the Gaussian 92(TM) system (copyright 1992, Gaussian, Inc.),
 the Gaussian 90(TM) system (copyright 1990, Gaussian, Inc.),
 the Gaussian 88(TM) system (copyright 1988, Gaussian, Inc.),
 the Gaussian 86(TM) system (copyright 1986, Carnegie Mellon
 University), and the Gaussian 82(TM) system (copyright 1983,
 Carnegie Mellon University). Gaussian is a federally registered
 trademark of Gaussian, Inc.
  
 This software contains proprietary and confidential information,
 including trade secrets, belonging to Gaussian, Inc.
  
 This software is provided under written license and may be
 used, copied, transmitted, or stored only in accord with that
 written license.
  
 The following legend is applicable only to US Government
 contracts under FAR:
  
                    RESTRICTED RIGHTS LEGEND
  
 Use, reproduction and disclosure by the US Government is
 subject to restrictions as set forth in subparagraphs (a)
 and (c) of the Commercial Computer Software - Restricted
 Rights clause in FAR 52.227-19.
  
 Gaussian, Inc.
 340 Quinnipiac St., Bldg. 40, Wallingford CT 06492
  
  
 ---------------------------------------------------------------
 Warning -- This program may not be used in any manner that
 competes with the business of Gaussian, Inc. or will provide
 assistance to any competitor of Gaussian, Inc.  The licensee
 of this program is prohibited from giving any competitor of
 Gaussian, Inc. access to this program.  By using this program,
 the user acknowledges that Gaussian, Inc. is engaged in the
 business of creating and licensing software in the field of
 computational chemistry and represents and warrants to the
 licensee that it is not a competitor of Gaussian, Inc. and that
 it will not use this program in any manner prohibited above.
 ---------------------------------------------------------------
  

 Cite this work as:
 Gaussian 16, Revision B.01,
 M. J. Frisch, G. W. Trucks, H. B. Schlegel, G. E. Scuseria, 
 M. A. Robb, J. R. Cheeseman, G. Scalmani, V. Barone, 
 G. A. Petersson, H. Nakatsuji, X. Li, M. Caricato, A. V. Marenich, 
 J. Bloino, B. G. Janesko, R. Gomperts, B. Mennucci, H. P. Hratchian, 
 J. V. Ortiz, A. F. Izmaylov, J. L. Sonnenberg, D. Williams-Young, 
 F. Ding, F. Lipparini, F. Egidi, J. Goings, B. Peng, A. Petrone, 
 T. Henderson, D. Ranasinghe, V. G. Zakrzewski, J. Gao, N. Rega, 
 G. Zheng, W. Liang, M. Hada, M. Ehara, K. Toyota, R. Fukuda, 
 J. Hasegawa, M. Ishida, T. Nakajima, Y. Honda, O. Kitao, H. Nakai, 
 T. Vreven, K. Throssell, J. A. Montgomery, Jr., J. E. Peralta, 
 F. Ogliaro, M. J. Bearpark, J. J. Heyd, E. N. Brothers, K. N. Kudin, 
 V. N. Staroverov, T. A. Keith, R. Kobayashi, J. Normand, 
 K. Raghavachari, A. P. Rendell, J. C. Burant, S. S. Iyengar, 
 J. Tomasi, M. Cossi, J. M. Millam, M. Klene, C. Adamo, R. Cammi, 
 J. W. Ochterski, R. L. Martin, K. Morokuma, O. Farkas, 
 J. B. Foresman, and D. J. Fox, Gaussian, Inc., Wallingford CT, 2016.
 
 ******************************************
 Gaussian 16:  ES64L-G16RevB.01 20-Dec-2017
                21-Feb-2022 
 ******************************************
 %nproc=28
 Will use up to   28 processors via shared memory.
 %mem=120GB
 %chk=hoono_a1_100p2218.chk
 ---------------------------------------
 #p freq mp2/aug-cc-pvtz density=current
 ---------------------------------------
 1/10=4,30=1,38=1/1,3;
 2/12=2,17=6,18=5,40=1/2;
 3/5=16,6=1,7=10,11=9,25=1,30=1,71=2,140=1/1,2,3;
 4//1;
 5/5=2,38=5,98=1/2;
 8/6=3,8=1,10=1,19=11,30=-1/1;
 9/15=3,16=-3/6;
 11/6=1,8=1,15=11,17=12,24=-1,27=1,28=-2,29=300,32=6,42=3/1,2,10;
 10/6=2,21=1/2;
 8/6=4,8=1,10=1,19=11,30=-1/11,4;
 10/5=1,20=4/2;
 11/12=2,14=11,16=1,17=2,28=-2,42=3,76=2/2,10,12;
 6/7=2,8=2,9=2,10=2,22=-1/1;
 7/8=1,10=1,12=2,25=1,44=2/1,2,3,16;
 1/10=4,30=1/3;
 99//99;
 Leave Link    1 at Mon Feb 21 20:34:15 2022, MaxMem= 16106127360 cpu:               3.0 elap:               0.1
 (Enter /sw/contrib/gaussian/g16/B01/g16/l101.exe)
 -----
 title
 -----
 Symbolic Z-matrix:
 Charge =  0 Multiplicity = 1
 H
 O                    1    r1
 O                    2    r2       1    a1
 N                    3    r3       2    a2       1    d1       0
 O                    4    r4       3    a3       2    d2       0
       Variables:
  r1                    0.96898                  
  r2                    1.45492                  
  r3                    1.45878                  
  r4                    1.17073                  
  a1                  100.22188                  
  a2                  102.29752                  
  a3                  109.06955                  
  d1                  180.                       
  d2                  180.                       
 
 ITRead=  0  0  0  0  0
 MicOpt= -1 -1 -1 -1 -1
 NAtoms=      5 NQM=        5 NQMF=       0 NMMI=      0 NMMIF=      0
                NMic=       0 NMicF=      0.
                    Isotopes and Nuclear Properties:
 (Nuclear quadrupole moments (NQMom) in fm**2, nuclear magnetic moments (NMagM)
  in nuclear magnetons)

  Atom         1           2           3           4           5
 IAtWgt=           1          16          16          14          16
 AtmWgt=   1.0078250  15.9949146  15.9949146  14.0030740  15.9949146
 NucSpn=           1           0           0           2           0
 AtZEff=  -0.0000000  -0.0000000  -0.0000000  -0.0000000  -0.0000000
 NQMom=    0.0000000   0.0000000   0.0000000   2.0440000   0.0000000
 NMagM=    2.7928460   0.0000000   0.0000000   0.4037610   0.0000000
 AtZNuc=   1.0000000   8.0000000   8.0000000   7.0000000   8.0000000
 Leave Link  101 at Mon Feb 21 20:34:15 2022, MaxMem= 16106127360 cpu:               3.3 elap:               0.1
 (Enter /sw/contrib/gaussian/g16/B01/g16/l103.exe)

 GradGradGradGradGradGradGradGradGradGradGradGradGradGradGradGradGradGrad
 Berny optimization.
 Initialization pass.
                       ----------------------------
                       !    Initial Parameters    !
                       ! (Angstroms and Degrees)  !
 ----------------------                            ----------------------
 !      Name          Value   Derivative information (Atomic Units)     !
 ------------------------------------------------------------------------
 !       r1          0.969    calculate D2E/DX2 analytically            !
 !       r2          1.4549   calculate D2E/DX2 analytically            !
 !       r3          1.4588   calculate D2E/DX2 analytically            !
 !       r4          1.1707   calculate D2E/DX2 analytically            !
 !       a1        100.2219   calculate D2E/DX2 analytically            !
 !       a2        102.2975   calculate D2E/DX2 analytically            !
 !       a3        109.0696   calculate D2E/DX2 analytically            !
 !       d1        180.0      calculate D2E/DX2 analytically            !
 !       d2        180.0      calculate D2E/DX2 analytically            !
 ------------------------------------------------------------------------
 Trust Radius=3.00D-01 FncErr=1.00D-07 GrdErr=1.00D-07 EigMax=2.50D+02 EigMin=1.00D-04
 Number of steps in this run=      2 maximum allowed number of steps=      2.
 GradGradGradGradGradGradGradGradGradGradGradGradGradGradGradGradGradGrad

 Leave Link  103 at Mon Feb 21 20:34:15 2022, MaxMem= 16106127360 cpu:               0.5 elap:               0.0
 (Enter /sw/contrib/gaussian/g16/B01/g16/l202.exe)
                          Input orientation:                          
 ---------------------------------------------------------------------
 Center     Atomic      Atomic             Coordinates (Angstroms)
 Number     Number       Type             X           Y           Z
 ---------------------------------------------------------------------
      1          1           0        0.000000    0.000000    0.000000
      2          8           0        0.000000    0.000000    0.968976
      3          8           0        1.431827    0.000000    1.227166
      4          7           0        1.484662    0.000000    2.684993
      5          8           0        2.604272    0.000000    3.027162
 ---------------------------------------------------------------------
                    Distance matrix (angstroms):
                    1          2          3          4          5
     1  H    0.000000
     2  O    0.968976   0.000000
     3  O    1.885753   1.454919   0.000000
     4  N    3.068128   2.269127   1.458784   0.000000
     5  O    3.993237   3.319392   2.148165   1.170729   0.000000
 Stoichiometry    HNO3
 Framework group  CS[SG(HNO3)]
 Deg. of freedom     7
 Full point group                 CS      NOp   2
 Largest Abelian subgroup         CS      NOp   2
 Largest concise Abelian subgroup C1      NOp   1
                         Standard orientation:                         
 ---------------------------------------------------------------------
 Center     Atomic      Atomic             Coordinates (Angstroms)
 Number     Number       Type             X           Y           Z
 ---------------------------------------------------------------------
      1          1           0        1.595270    1.678752    0.000000
      2          8           0        1.454162    0.720106    0.000000
      3          8           0       -0.000000    0.673178    0.000000
      4          7           0       -0.264569   -0.761414   -0.000000
      5          8           0       -1.422073   -0.936891   -0.000000
 ---------------------------------------------------------------------
 Rotational constants (GHZ):          55.1198467           5.0036492           4.5872312
 Leave Link  202 at Mon Feb 21 20:34:15 2022, MaxMem= 16106127360 cpu:               0.3 elap:               0.0
 (Enter /sw/contrib/gaussian/g16/B01/g16/l301.exe)
 Standard basis: Aug-CC-pVTZ (5D, 7F)
 Ernie: Thresh=  0.10000D-02 Tol=  0.10000D-05 Strict=F.
 Ernie:  12 primitive shells out of 131 were deleted.
 There are   166 symmetry adapted cartesian basis functions of A'  symmetry.
 There are    79 symmetry adapted cartesian basis functions of A"  symmetry.
 There are   136 symmetry adapted basis functions of A'  symmetry.
 There are    71 symmetry adapted basis functions of A"  symmetry.
   207 basis functions,   315 primitive gaussians,   245 cartesian basis functions
    16 alpha electrons       16 beta electrons
       nuclear repulsion energy       116.8138912098 Hartrees.
 IExCor=    0 DFT=F Ex=HF Corr=None ExCW=0 ScaHFX=  1.000000
 ScaDFX=  1.000000  1.000000  1.000000  1.000000 ScalE2=  1.000000  1.000000
 IRadAn=      5 IRanWt=     -1 IRanGd=            0 ICorTp=0 IEmpDi=  4
 NAtoms=    5 NActive=    5 NUniq=    5 SFac= 1.00D+00 NAtFMM=   60 NAOKFM=F Big=F
 Integral buffers will be    131072 words long.
 Raffenetti 1 integral format.
 Two-electron integral symmetry is turned on.
 Leave Link  301 at Mon Feb 21 20:34:15 2022, MaxMem= 16106127360 cpu:               2.0 elap:               0.1
 (Enter /sw/contrib/gaussian/g16/B01/g16/l302.exe)
 NPDir=0 NMtPBC=     1 NCelOv=     1 NCel=       1 NClECP=     1 NCelD=      1
         NCelK=      1 NCelE2=     1 NClLst=     1 CellRange=     0.0.
 One-electron integrals computed using PRISM.
 One-electron integral symmetry used in STVInt
 NBasis=   207 RedAO= T EigKep=  1.82D-04  NBF=   136    71
 NBsUse=   207 1.00D-06 EigRej= -1.00D+00 NBFU=   136    71
 Leave Link  302 at Mon Feb 21 20:34:16 2022, MaxMem= 16106127360 cpu:               4.6 elap:               0.2
 (Enter /sw/contrib/gaussian/g16/B01/g16/l303.exe)
 DipDrv:  MaxL=1.
 Leave Link  303 at Mon Feb 21 20:34:16 2022, MaxMem= 16106127360 cpu:               1.6 elap:               0.1
 (Enter /sw/contrib/gaussian/g16/B01/g16/l401.exe)
 ExpMin= 2.53D-02 ExpMax= 1.53D+04 ExpMxC= 5.22D+02 IAcc=3 IRadAn=         5 AccDes= 0.00D+00
 Harris functional with IExCor=  205 and IRadAn=       5 diagonalized for initial guess.
 HarFok:  IExCor=  205 AccDes= 0.00D+00 IRadAn=         5 IDoV= 1 UseB2=F ITyADJ=14
 ICtDFT=  3500011 ScaDFX=  1.000000  1.000000  1.000000  1.000000
 FoFCou: FMM=F IPFlag=           0 FMFlag=      100000 FMFlg1=           0
         NFxFlg=           0 DoJE=T BraDBF=F KetDBF=T FulRan=T
         wScrn=  0.000000 ICntrl=       500 IOpCl=  0 I1Cent=   200000004 NGrid=           0
         NMat0=    1 NMatS0=      1 NMatT0=    0 NMatD0=    1 NMtDS0=    0 NMtDT0=    0
 Petite list used in FoFCou.
 Harris En= -279.629075308944    
 JPrj=0 DoOrth=F DoCkMO=F.
 Initial guess orbital symmetries:
       Occupied  (A') (A') (A') (A') (A') (A') (A') (A') (A') (A')
                 (A") (A') (A') (A") (A") (A')
       Virtual   (A") (A') (A') (A') (A') (A') (A") (A') (A') (A')
                 (A") (A') (A") (A') (A') (A") (A') (A') (A") (A')
                 (A') (A') (A') (A') (A') (A") (A') (A") (A') (A')
                 (A") (A') (A") (A') (A') (A") (A') (A") (A') (A')
                 (A') (A") (A") (A') (A") (A') (A') (A') (A") (A")
                 (A') (A') (A') (A') (A") (A') (A") (A') (A") (A')
                 (A') (A') (A") (A') (A') (A") (A') (A") (A') (A')
                 (A") (A') (A') (A") (A") (A') (A') (A") (A') (A')
                 (A') (A") (A') (A") (A") (A') (A') (A") (A') (A')
                 (A') (A") (A') (A") (A') (A") (A") (A') (A') (A")
                 (A') (A') (A") (A') (A') (A') (A') (A") (A") (A')
                 (A") (A') (A') (A') (A") (A') (A') (A') (A") (A')
                 (A") (A') (A') (A") (A") (A') (A') (A") (A") (A')
                 (A') (A') (A') (A") (A") (A') (A") (A') (A') (A')
                 (A') (A") (A") (A') (A') (A") (A') (A') (A') (A')
                 (A") (A') (A') (A") (A') (A") (A') (A") (A') (A")
                 (A') (A") (A') (A") (A') (A") (A") (A") (A') (A')
                 (A") (A') (A") (A') (A') (A") (A") (A") (A') (A')
                 (A') (A') (A') (A') (A') (A') (A') (A') (A') (A')
                 (A')
 The electronic state of the initial guess is 1-A'.
 Leave Link  401 at Mon Feb 21 20:34:16 2022, MaxMem= 16106127360 cpu:               7.5 elap:               0.3
 (Enter /sw/contrib/gaussian/g16/B01/g16/l502.exe)
 Keep R1 ints in memory in symmetry-blocked form, NReq=348887737.
 FoFCou: FMM=F IPFlag=           0 FMFlag=           0 FMFlg1=           0
         NFxFlg=           0 DoJE=F BraDBF=F KetDBF=F FulRan=T
         wScrn=  0.000000 ICntrl=       600 IOpCl=  0 I1Cent=           0 NGrid=           0
         NMat0=    1 NMatS0=  21528 NMatT0=    0 NMatD0=    1 NMtDS0=    0 NMtDT0=    0
 Petite list used in FoFCou.
 Closed shell SCF:
 Using DIIS extrapolation, IDIIS=  1040.
 NGot= 16106127360 LenX= 15988850015 LenY= 15988789549
 Requested convergence on RMS density matrix=1.00D-08 within 128 cycles.
 Requested convergence on MAX density matrix=1.00D-06.
 Requested convergence on             energy=1.00D-06.
 No special actions if energy rises.

 Cycle   1  Pass 1  IDiag  1:
 E= -279.370478622651    
 DIIS: error= 2.50D-02 at cycle   1 NSaved=   1.
 NSaved= 1 IEnMin= 1 EnMin= -279.370478622651     IErMin= 1 ErrMin= 2.50D-02
 ErrMax= 2.50D-02  0.00D+00 EMaxC= 1.00D-01 BMatC= 4.39D-01 BMatP= 4.39D-01
 IDIUse=3 WtCom= 7.50D-01 WtEn= 2.50D-01
 Coeff-Com:  0.100D+01
 Coeff-En:   0.100D+01
 Coeff:      0.100D+01
 Gap=     0.513 Goal=   None    Shift=    0.000
 GapD=    0.513 DampG=2.000 DampE=0.500 DampFc=1.0000 IDamp=-1.
 RMSDP=1.62D-03 MaxDP=9.89D-02              OVMax= 1.13D-01

 Cycle   2  Pass 1  IDiag  1:
 E= -279.452545940476     Delta-E=       -0.082067317825 Rises=F Damp=F
 DIIS: error= 1.79D-02 at cycle   2 NSaved=   2.
 NSaved= 2 IEnMin= 2 EnMin= -279.452545940476     IErMin= 2 ErrMin= 1.79D-02
 ErrMax= 1.79D-02  0.00D+00 EMaxC= 1.00D-01 BMatC= 7.18D-02 BMatP= 4.39D-01
 IDIUse=3 WtCom= 8.21D-01 WtEn= 1.79D-01
 Coeff-Com:  0.195D+00 0.805D+00
 Coeff-En:   0.000D+00 0.100D+01
 Coeff:      0.160D+00 0.840D+00
 Gap=     0.529 Goal=   None    Shift=    0.000
 RMSDP=9.00D-04 MaxDP=3.73D-02 DE=-8.21D-02 OVMax= 6.95D-02

 Cycle   3  Pass 1  IDiag  1:
 E= -279.481666592387     Delta-E=       -0.029120651911 Rises=F Damp=F
 DIIS: error= 1.04D-02 at cycle   3 NSaved=   3.
 NSaved= 3 IEnMin= 3 EnMin= -279.481666592387     IErMin= 3 ErrMin= 1.04D-02
 ErrMax= 1.04D-02  0.00D+00 EMaxC= 1.00D-01 BMatC= 2.87D-02 BMatP= 7.18D-02
 IDIUse=3 WtCom= 8.96D-01 WtEn= 1.04D-01
 Coeff-Com: -0.330D-01 0.378D+00 0.655D+00
 Coeff-En:   0.000D+00 0.240D+00 0.760D+00
 Coeff:     -0.295D-01 0.364D+00 0.666D+00
 Gap=     0.510 Goal=   None    Shift=    0.000
 RMSDP=3.76D-04 MaxDP=1.53D-02 DE=-2.91D-02 OVMax= 3.81D-02

 Cycle   4  Pass 1  IDiag  1:
 E= -279.500709592176     Delta-E=       -0.019042999790 Rises=F Damp=F
 DIIS: error= 1.30D-03 at cycle   4 NSaved=   4.
 NSaved= 4 IEnMin= 4 EnMin= -279.500709592176     IErMin= 4 ErrMin= 1.30D-03
 ErrMax= 1.30D-03  0.00D+00 EMaxC= 1.00D-01 BMatC= 4.94D-04 BMatP= 2.87D-02
 IDIUse=3 WtCom= 9.87D-01 WtEn= 1.30D-02
 Coeff-Com: -0.117D-01 0.577D-01 0.159D+00 0.795D+00
 Coeff-En:   0.000D+00 0.000D+00 0.000D+00 0.100D+01
 Coeff:     -0.115D-01 0.570D-01 0.157D+00 0.797D+00
 Gap=     0.502 Goal=   None    Shift=    0.000
 RMSDP=9.00D-05 MaxDP=2.76D-03 DE=-1.90D-02 OVMax= 1.11D-02

 Cycle   5  Pass 1  IDiag  1:
 E= -279.501384908864     Delta-E=       -0.000675316688 Rises=F Damp=F
 DIIS: error= 7.58D-04 at cycle   5 NSaved=   5.
 NSaved= 5 IEnMin= 5 EnMin= -279.501384908864     IErMin= 5 ErrMin= 7.58D-04
 ErrMax= 7.58D-04  0.00D+00 EMaxC= 1.00D-01 BMatC= 8.69D-05 BMatP= 4.94D-04
 IDIUse=3 WtCom= 9.92D-01 WtEn= 7.58D-03
 Coeff-Com:  0.611D-02-0.723D-01-0.118D+00 0.191D-01 0.117D+01
 Coeff-En:   0.000D+00 0.000D+00 0.000D+00 0.000D+00 0.100D+01
 Coeff:      0.607D-02-0.717D-01-0.117D+00 0.189D-01 0.116D+01
 Gap=     0.502 Goal=   None    Shift=    0.000
 RMSDP=7.62D-05 MaxDP=2.11D-03 DE=-6.75D-04 OVMax= 1.11D-02

 Cycle   6  Pass 1  IDiag  1:
 E= -279.501699904285     Delta-E=       -0.000314995421 Rises=F Damp=F
 DIIS: error= 2.72D-04 at cycle   6 NSaved=   6.
 NSaved= 6 IEnMin= 6 EnMin= -279.501699904285     IErMin= 6 ErrMin= 2.72D-04
 ErrMax= 2.72D-04  0.00D+00 EMaxC= 1.00D-01 BMatC= 1.66D-05 BMatP= 8.69D-05
 IDIUse=3 WtCom= 9.97D-01 WtEn= 2.72D-03
 Coeff-Com:  0.532D-03 0.246D-02 0.590D-02-0.131D+00-0.244D+00 0.137D+01
 Coeff-En:   0.000D+00 0.000D+00 0.000D+00 0.000D+00 0.000D+00 0.100D+01
 Coeff:      0.530D-03 0.245D-02 0.589D-02-0.130D+00-0.243D+00 0.136D+01
 Gap=     0.502 Goal=   None    Shift=    0.000
 RMSDP=4.55D-05 MaxDP=1.25D-03 DE=-3.15D-04 OVMax= 5.58D-03

 Cycle   7  Pass 1  IDiag  1:
 E= -279.501772934279     Delta-E=       -0.000073029994 Rises=F Damp=F
 DIIS: error= 1.18D-04 at cycle   7 NSaved=   7.
 NSaved= 7 IEnMin= 7 EnMin= -279.501772934279     IErMin= 7 ErrMin= 1.18D-04
 ErrMax= 1.18D-04  0.00D+00 EMaxC= 1.00D-01 BMatC= 4.26D-06 BMatP= 1.66D-05
 IDIUse=3 WtCom= 9.99D-01 WtEn= 1.18D-03
 Coeff-Com: -0.936D-03 0.134D-01 0.262D-01-0.215D-01-0.280D+00 0.363D+00
 Coeff-Com:  0.900D+00
 Coeff-En:   0.000D+00 0.000D+00 0.000D+00 0.000D+00 0.000D+00 0.000D+00
 Coeff-En:   0.100D+01
 Coeff:     -0.935D-03 0.134D-01 0.262D-01-0.214D-01-0.280D+00 0.362D+00
 Coeff:      0.900D+00
 Gap=     0.502 Goal=   None    Shift=    0.000
 RMSDP=1.32D-05 MaxDP=3.78D-04 DE=-7.30D-05 OVMax= 1.54D-03

 Cycle   8  Pass 1  IDiag  1:
 E= -279.501781574729     Delta-E=       -0.000008640450 Rises=F Damp=F
 DIIS: error= 5.81D-05 at cycle   8 NSaved=   8.
 NSaved= 8 IEnMin= 8 EnMin= -279.501781574729     IErMin= 8 ErrMin= 5.81D-05
 ErrMax= 5.81D-05  0.00D+00 EMaxC= 1.00D-01 BMatC= 6.07D-07 BMatP= 4.26D-06
 IDIUse=1 WtCom= 1.00D+00 WtEn= 0.00D+00
 Coeff-Com: -0.446D-03 0.341D-02 0.756D-02 0.273D-01-0.401D-01-0.200D+00
 Coeff-Com:  0.198D+00 0.100D+01
 Coeff:     -0.446D-03 0.341D-02 0.756D-02 0.273D-01-0.401D-01-0.200D+00
 Coeff:      0.198D+00 0.100D+01
 Gap=     0.502 Goal=   None    Shift=    0.000
 RMSDP=6.73D-06 MaxDP=1.99D-04 DE=-8.64D-06 OVMax= 7.31D-04

 Cycle   9  Pass 1  IDiag  1:
 E= -279.501783294680     Delta-E=       -0.000001719952 Rises=F Damp=F
 DIIS: error= 1.64D-05 at cycle   9 NSaved=   9.
 NSaved= 9 IEnMin= 9 EnMin= -279.501783294680     IErMin= 9 ErrMin= 1.64D-05
 ErrMax= 1.64D-05  0.00D+00 EMaxC= 1.00D-01 BMatC= 7.03D-08 BMatP= 6.07D-07
 IDIUse=1 WtCom= 1.00D+00 WtEn= 0.00D+00
 Coeff-Com:  0.123D-03-0.172D-02-0.308D-02-0.210D-02 0.341D-01 0.459D-03
 Coeff-Com: -0.175D+00-0.902D-01 0.124D+01
 Coeff:      0.123D-03-0.172D-02-0.308D-02-0.210D-02 0.341D-01 0.459D-03
 Coeff:     -0.175D+00-0.902D-01 0.124D+01
 Gap=     0.502 Goal=   None    Shift=    0.000
 RMSDP=1.94D-06 MaxDP=6.66D-05 DE=-1.72D-06 OVMax= 1.75D-04

 Cycle  10  Pass 1  IDiag  1:
 E= -279.501783455303     Delta-E=       -0.000000160623 Rises=F Damp=F
 DIIS: error= 4.24D-06 at cycle  10 NSaved=  10.
 NSaved=10 IEnMin=10 EnMin= -279.501783455303     IErMin=10 ErrMin= 4.24D-06
 ErrMax= 4.24D-06  0.00D+00 EMaxC= 1.00D-01 BMatC= 5.51D-09 BMatP= 7.03D-08
 IDIUse=1 WtCom= 1.00D+00 WtEn= 0.00D+00
 Coeff-Com:  0.312D-04-0.244D-03-0.328D-03-0.270D-02 0.163D-02 0.198D-01
 Coeff-Com: -0.150D-01-0.728D-01-0.792D-01 0.115D+01
 Coeff:      0.312D-04-0.244D-03-0.328D-03-0.270D-02 0.163D-02 0.198D-01
 Coeff:     -0.150D-01-0.728D-01-0.792D-01 0.115D+01
 Gap=     0.502 Goal=   None    Shift=    0.000
 RMSDP=5.04D-07 MaxDP=2.10D-05 DE=-1.61D-07 OVMax= 4.15D-05

 Cycle  11  Pass 1  IDiag  1:
 E= -279.501783467770     Delta-E=       -0.000000012466 Rises=F Damp=F
 DIIS: error= 2.01D-06 at cycle  11 NSaved=  11.
 NSaved=11 IEnMin=11 EnMin= -279.501783467770     IErMin=11 ErrMin= 2.01D-06
 ErrMax= 2.01D-06  0.00D+00 EMaxC= 1.00D-01 BMatC= 6.57D-10 BMatP= 5.51D-09
 IDIUse=1 WtCom= 1.00D+00 WtEn= 0.00D+00
 Coeff-Com: -0.212D-04 0.243D-03 0.486D-03 0.537D-03-0.425D-02-0.369D-02
 Coeff-Com:  0.225D-01 0.291D-01-0.138D+00-0.177D+00 0.127D+01
 Coeff:     -0.212D-04 0.243D-03 0.486D-03 0.537D-03-0.425D-02-0.369D-02
 Coeff:      0.225D-01 0.291D-01-0.138D+00-0.177D+00 0.127D+01
 Gap=     0.502 Goal=   None    Shift=    0.000
 RMSDP=1.77D-07 MaxDP=6.47D-06 DE=-1.25D-08 OVMax= 1.74D-05

 Cycle  12  Pass 1  IDiag  1:
 E= -279.501783469567     Delta-E=       -0.000000001797 Rises=F Damp=F
 DIIS: error= 5.85D-07 at cycle  12 NSaved=  12.
 NSaved=12 IEnMin=12 EnMin= -279.501783469567     IErMin=12 ErrMin= 5.85D-07
 ErrMax= 5.85D-07  0.00D+00 EMaxC= 1.00D-01 BMatC= 7.19D-11 BMatP= 6.57D-10
 IDIUse=1 WtCom= 1.00D+00 WtEn= 0.00D+00
 Coeff-Com:  0.122D-05-0.289D-04-0.625D-04 0.180D-03 0.108D-02-0.232D-02
 Coeff-Com: -0.413D-02 0.569D-02 0.415D-01-0.114D+00-0.281D+00 0.135D+01
 Coeff:      0.122D-05-0.289D-04-0.625D-04 0.180D-03 0.108D-02-0.232D-02
 Coeff:     -0.413D-02 0.569D-02 0.415D-01-0.114D+00-0.281D+00 0.135D+01
 Gap=     0.502 Goal=   None    Shift=    0.000
 RMSDP=7.18D-08 MaxDP=2.81D-06 DE=-1.80D-09 OVMax= 6.75D-06

 Cycle  13  Pass 1  IDiag  1:
 E= -279.501783469798     Delta-E=       -0.000000000231 Rises=F Damp=F
 DIIS: error= 1.72D-07 at cycle  13 NSaved=  13.
 NSaved=13 IEnMin=13 EnMin= -279.501783469798     IErMin=13 ErrMin= 1.72D-07
 ErrMax= 1.72D-07  0.00D+00 EMaxC= 1.00D-01 BMatC= 4.05D-12 BMatP= 7.19D-11
 IDIUse=1 WtCom= 1.00D+00 WtEn= 0.00D+00
 Coeff-Com:  0.129D-05-0.140D-04-0.227D-04-0.899D-04 0.123D-03 0.776D-03
 Coeff-Com: -0.962D-03-0.317D-02 0.643D-03 0.412D-01-0.361D-01-0.326D+00
 Coeff-Com:  0.132D+01
 Coeff:      0.129D-05-0.140D-04-0.227D-04-0.899D-04 0.123D-03 0.776D-03
 Coeff:     -0.962D-03-0.317D-02 0.643D-03 0.412D-01-0.361D-01-0.326D+00
 Coeff:      0.132D+01
 Gap=     0.502 Goal=   None    Shift=    0.000
 RMSDP=1.92D-08 MaxDP=5.63D-07 DE=-2.31D-10 OVMax= 1.57D-06

 Cycle  14  Pass 1  IDiag  1:
 E= -279.501783469811     Delta-E=       -0.000000000013 Rises=F Damp=F
 DIIS: error= 2.45D-08 at cycle  14 NSaved=  14.
 NSaved=14 IEnMin=14 EnMin= -279.501783469811     IErMin=14 ErrMin= 2.45D-08
 ErrMax= 2.45D-08  0.00D+00 EMaxC= 1.00D-01 BMatC= 1.99D-13 BMatP= 4.05D-12
 IDIUse=1 WtCom= 1.00D+00 WtEn= 0.00D+00
 Coeff-Com: -0.192D-06 0.313D-05 0.561D-05 0.461D-05-0.826D-04 0.444D-04
 Coeff-Com:  0.297D-03 0.210D-03-0.246D-02 0.145D-02 0.171D-01-0.255D-01
 Coeff-Com: -0.202D+00 0.121D+01
 Coeff:     -0.192D-06 0.313D-05 0.561D-05 0.461D-05-0.826D-04 0.444D-04
 Coeff:      0.297D-03 0.210D-03-0.246D-02 0.145D-02 0.171D-01-0.255D-01
 Coeff:     -0.202D+00 0.121D+01
 Gap=     0.502 Goal=   None    Shift=    0.000
 RMSDP=3.82D-09 MaxDP=9.14D-08 DE=-1.32D-11 OVMax= 3.45D-07

 SCF Done:  E(RHF) =  -279.501783470     A.U. after   14 cycles
            NFock= 14  Conv=0.38D-08     -V/T= 2.0024
 KE= 2.788360849132D+02 PE=-8.949542903737D+02 EE= 2.198025307809D+02
 Leave Link  502 at Mon Feb 21 20:34:20 2022, MaxMem= 16106127360 cpu:              56.6 elap:               3.6
 (Enter /sw/contrib/gaussian/g16/B01/g16/l801.exe)
 ExpMin= 2.53D-02 ExpMax= 1.53D+04 ExpMxC= 5.22D+02 IAcc=3 IRadAn=         5 AccDes= 0.00D+00
 HarFok:  IExCor=  205 AccDes= 0.00D+00 IRadAn=         5 IDoV=-2 UseB2=F ITyADJ=14
 ICtDFT= 12500011 ScaDFX=  1.000000  1.000000  1.000000  1.000000
 Largest valence mixing into a core orbital is  2.08D-04
 Largest core mixing into a valence orbital is  3.63D-05
 Range of M.O.s used for correlation:     5   207
 NBasis=   207 NAE=    16 NBE=    16 NFC=     4 NFV=     0
 NROrb=    203 NOA=    12 NOB=    12 NVA=   191 NVB=   191

 **** Warning!!: The largest alpha MO coefficient is  0.18187265D+02

 Leave Link  801 at Mon Feb 21 20:34:20 2022, MaxMem= 16106127360 cpu:               2.3 elap:               0.1
 (Enter /sw/contrib/gaussian/g16/B01/g16/l906.exe)
 Frozen-core derivative calculation, NFC=   4 NFV=   0.
 FulOut=F Deriv=T AODrv=T NAtomX=     5
   MMem=           0  MDisk=          12 MDiskD=          12
  W3Min=      811440 MinDsk=     2425030 NBas6D=         245
 NBas2D=       30762    NTT=       30135    LW2=     7400000
    MDV= 16105574297 MDiskM=      328644 NBas2p=       30702
 Disk-based method using ON**2 memory for 12 occupieds at a time.
 Permanent disk used for amplitudes=    11516536 words.
 Estimated scratch disk usage=   321251614 words.
 IMap=   1   2   3   4   5   6   7   8   9  10  11  12  13  14  15  16
 Actual    scratch disk usage=   310331678 words.
 JobTyp=1 Pass  1:  I=   5 to  16 NPSUse= 28 ParTrn=T ParDer=T DoDerP=T.
 (rs|ai) integrals will be sorted in core.
 Spin components of T(2) and E(2):
     alpha-alpha T2 =       0.3400288162D-01 E2=     -0.1223470814D+00
     alpha-beta  T2 =       0.1867530139D+00 E2=     -0.7000263702D+00
     beta-beta   T2 =       0.3400288162D-01 E2=     -0.1223470814D+00
 The integrals were generated   1 times.
 ANorm=    0.1120160157D+01
 E2 =    -0.9447205329D+00 EUMP2 =    -0.28044650400275D+03
 Leave Link  906 at Mon Feb 21 20:35:57 2022, MaxMem= 16106127360 cpu:            2703.2 elap:              96.7
 (Enter /sw/contrib/gaussian/g16/B01/g16/l1101.exe)
 Using compressed Sx but separate Hx and Fx, NAtomX=     5.
 Will process      6 centers per pass.
 Leave Link 1101 at Mon Feb 21 20:35:57 2022, MaxMem= 16106127360 cpu:               5.3 elap:               0.2
 (Enter /sw/contrib/gaussian/g16/B01/g16/l1102.exe)
 Leave Link 1102 at Mon Feb 21 20:35:57 2022, MaxMem= 16106127360 cpu:               0.5 elap:               0.0
 (Enter /sw/contrib/gaussian/g16/B01/g16/l1110.exe)
 Forming Gx(P) for the SCF density, NAtomX=     5.
 Integral derivatives from FoFJK, PRISM(SPDF).
 Do as many integral derivatives as possible in FoFJK.
 G2DrvN: MDV=   16106126844.
 G2DrvN: will do     6 centers at a time, making    1 passes.
 Calling FoFCou, ICntrl=  3107 FMM=F I1Cent=   0 AccDes= 0.00D+00.
 FoFJK:  IHMeth= 1 ICntrl=    3107 DoSepK=F KAlg= 0 I1Cent=           0 FoldK=F
 IRaf=         0 NMat=       1 IRICut=       1 DoRegI=T DoRafI=F ISym2E= 1 IDoP0=0 IntGTp=1.
 FoFCou: FMM=F IPFlag=           0 FMFlag=      100000 FMFlg1=           0
         NFxFlg=           0 DoJE=F BraDBF=F KetDBF=F FulRan=T
         wScrn=  0.000000 ICntrl=      3107 IOpCl=  0 I1Cent=           0 NGrid=           0
         NMat0=    1 NMatS0=      1 NMatT0=    0 NMatD0=    1 NMtDS0=    0 NMtDT0=    0
 Petite list used in FoFCou.
 End of G2Drv F.D. properties file   721 does not exist.
 End of G2Drv F.D. properties file   722 does not exist.
 End of G2Drv F.D. properties file   788 does not exist.
 Leave Link 1110 at Mon Feb 21 20:36:00 2022, MaxMem= 16106127360 cpu:              87.5 elap:               3.2
 (Enter /sw/contrib/gaussian/g16/B01/g16/l1002.exe)
 Minotr:  Closed shell wavefunction.
          IDoAtm=11111
          Frozen-core window.
          Direct CPHF calculation.
          Differentiating once with respect to electric field.
                with respect to dipole field.
          Differentiating once with respect to nuclear coordinates.
          Requested convergence is 1.0D-08 RMS, and 1.0D-07 maximum.
          Secondary convergence is 1.0D-12 RMS, and 1.0D-12 maximum.
          NewPWx=T KeepS1=T KeepF1=T KeepIn=T MapXYZ=F SortEE=F KeepMc=T.
 Keep R1 ints in memory in symmetry-blocked form, NReq=348888983.
 FoFCou: FMM=F IPFlag=           0 FMFlag=           0 FMFlg1=           0
         NFxFlg=           0 DoJE=F BraDBF=F KetDBF=F FulRan=T
         wScrn=  0.000000 ICntrl=       600 IOpCl=  0 I1Cent=           0 NGrid=           0
         NMat0=    1 NMatS0=  21528 NMatT0=    0 NMatD0=    1 NMtDS0=    0 NMtDT0=    0
 Petite list used in FoFCou.
          MDV=   16106127360 using IRadAn=       1.
          Solving linear equations simultaneously, MaxMat=       0.
          There are    18 degrees of freedom in the 1st order CPHF.  IDoFFX=6 NUNeed=    18.
     15 vectors produced by pass  0 Test12= 1.70D-14 5.56D-09 XBig12= 8.30D+00 1.05D+00.
 AX will form    15 AO Fock derivatives at one time.
     15 vectors produced by pass  1 Test12= 1.70D-14 5.56D-09 XBig12= 1.34D+00 2.56D-01.
     15 vectors produced by pass  2 Test12= 1.70D-14 5.56D-09 XBig12= 1.42D-01 9.88D-02.
     15 vectors produced by pass  3 Test12= 1.70D-14 5.56D-09 XBig12= 4.96D-03 1.08D-02.
     15 vectors produced by pass  4 Test12= 1.70D-14 5.56D-09 XBig12= 9.76D-05 1.88D-03.
     15 vectors produced by pass  5 Test12= 1.70D-14 5.56D-09 XBig12= 1.36D-06 1.64D-04.
     15 vectors produced by pass  6 Test12= 1.70D-14 5.56D-09 XBig12= 1.07D-08 1.52D-05.
     13 vectors produced by pass  7 Test12= 1.70D-14 5.56D-09 XBig12= 8.04D-11 1.24D-06.
      3 vectors produced by pass  8 Test12= 1.70D-14 5.56D-09 XBig12= 5.71D-13 1.19D-07.
      2 vectors produced by pass  9 Test12= 1.70D-14 5.56D-09 XBig12= 3.73D-15 9.46D-09.
 InvSVY:  IOpt=1 It=  1 EMax= 1.11D-15
 Solved reduced A of dimension   123 with    15 vectors.
 FullF1:  Do perturbations      1 to      18.
 Saving first derivative matrices.
 End of Minotr F.D. properties file   721 does not exist.
 End of Minotr F.D. properties file   722 does not exist.
 End of Minotr F.D. properties file   788 does not exist.
 Leave Link 1002 at Mon Feb 21 20:36:04 2022, MaxMem= 16106127360 cpu:              95.6 elap:               3.5
 (Enter /sw/contrib/gaussian/g16/B01/g16/l811.exe)
 MDV= 16106127360.
 Form MO integral derivatives with frozen-active canonical formalism.
 MOERI=1 MOERIx=1 NAtoms=     5 NAtomX=     5.
 Discarding MO integrals.
 MO basis two electron integral derivatives will not be stored on disk.
 IAlg= 3 DoFC=T DoPWx=T Debug=F.
 Frozen-core window:  NFC=   4 NFV=   0.
 Reordered first order wavefunction length =     18678272
 In DefCFB: NBatch=  1 ICI= 16 ICA=191 LFMax= 96
            Large arrays: LIAPS=   619940160 LIARS=   288257200 words.
 In StABat: MaxSiz= 55 MinSiz= 25 NAtomB=  5
 DoIAMN: NPSUse= 28.
 Leave Link  811 at Mon Feb 21 20:37:25 2022, MaxMem= 16106127360 cpu:            2272.7 elap:              81.3
 (Enter /sw/contrib/gaussian/g16/B01/g16/l804.exe)
 Frozen-core window:  NFC=   4 NFV=   0.
 Closed-shell transformation, MDV= 16106127360 ITran=4 ISComp=1.
 Semi-Direct transformation.
 ModeAB=           2 MOrb=            16 LenV=   16104923065
 LASXX=     67341636 LTotXX=    67341636 LenRXX=    67341636
 LTotAB=    68301760 MaxLAS=    99807120 LenRXY=    99807120
 NonZer=   134683272 LenScr=   202817536 LnRSAI=           0
 LnScr1=           0 LExtra=           0 Total=    369966292
 MaxDsk=          -1 SrtSym=           F ITran=            4
 DoSDTr:  NPSUse= 28
 JobTyp=0 Pass  1:  I=   1 to  16.
 (rs|ai) integrals will be sorted in core.
 Complete sort for first half transformation.
 First half transformation complete.
 Begin second half transformation for I=  10.
 Begin second half transformation for I=  10.
 Complete sort for second half transformation.
 Second half transformation complete.
 Spin components of T(2) and E(2):
     alpha-alpha T2 =       0.3400288162D-01 E2=     -0.1223470814D+00
     alpha-beta  T2 =       0.1867530139D+00 E2=     -0.7000263702D+00
     beta-beta   T2 =       0.3400288162D-01 E2=     -0.1223470814D+00
 ANorm=    0.1584145686D+01
 E2 =    -0.9447205329D+00 EUMP2 =    -0.28044650400275D+03
 Leave Link  804 at Mon Feb 21 20:37:40 2022, MaxMem= 16106127360 cpu:             426.6 elap:              15.3
 (Enter /sw/contrib/gaussian/g16/B01/g16/l1002.exe)
 Minotr:  Closed shell wavefunction.
          Computing MP2/KS-MP2 derivatives.
          Using Z-Vector for PSCF gradient.
          Skipping F1 and S1 gradient terms here.
          IDoAtm=11111
          Frozen-core window.
          Using MO integrals in the linear equations.
          Forming densities via direct SCF.
          Differentiating once with respect to electric field.
                with respect to dipole field.
          Differentiating once with respect to nuclear coordinates.
          Using symmetry in CPHF.
          Requested convergence is 1.0D-10 RMS, and 1.0D-09 maximum.
          NewPWx=F KeepS1=T KeepF1=T KeepIn=T MapXYZ=F SortEE=F KeepMc=T.
          MDV=   16106127360 using IRadAn=       5.
          Solving linear equations separately, MaxMat=       0.
          There are     1 degrees of freedom in the 1st order CPHF.  IDoFFX=0 NUNeed=     1.
 FoFJK:  IHMeth= 1 ICntrl=       0 DoSepK=F KAlg= 0 I1Cent=           0 FoldK=F
 IRaf=         0 NMat=       1 IRICut=       1 DoRegI=T DoRafI=F ISym2E= 0 IDoP0=0 IntGTp=1.
 FoFCou: FMM=F IPFlag=           0 FMFlag=      100000 FMFlg1=           0
         NFxFlg=           0 DoJE=F BraDBF=F KetDBF=F FulRan=T
         wScrn=  0.000000 ICntrl=         0 IOpCl=  0 I1Cent=           0 NGrid=           0
         NMat0=    1 NMatS0=      1 NMatT0=    0 NMatD0=    1 NMtDS0=    0 NMtDT0=    0
 Symmetry not used in FoFCou.
 LinEq1:  Iter=  0 NonCon=     1 RMS=5.96D-03 Max=1.33D-01 NDo=     1
 LinEq1:  Iter=  1 NonCon=     1 RMS=1.91D-03 Max=3.84D-02 NDo=     1
 LinEq1:  Iter=  2 NonCon=     1 RMS=8.68D-04 Max=1.37D-02 NDo=     1
 LinEq1:  Iter=  3 NonCon=     1 RMS=3.88D-04 Max=7.88D-03 NDo=     1
 LinEq1:  Iter=  4 NonCon=     1 RMS=1.20D-04 Max=1.88D-03 NDo=     1
 LinEq1:  Iter=  5 NonCon=     1 RMS=4.64D-05 Max=7.33D-04 NDo=     1
 LinEq1:  Iter=  6 NonCon=     1 RMS=2.06D-05 Max=2.35D-04 NDo=     1
 LinEq1:  Iter=  7 NonCon=     1 RMS=8.21D-06 Max=1.60D-04 NDo=     1
 LinEq1:  Iter=  8 NonCon=     1 RMS=3.49D-06 Max=3.49D-05 NDo=     1
 LinEq1:  Iter=  9 NonCon=     1 RMS=9.45D-07 Max=1.32D-05 NDo=     1
 LinEq1:  Iter= 10 NonCon=     1 RMS=1.86D-07 Max=1.98D-06 NDo=     1
 LinEq1:  Iter= 11 NonCon=     1 RMS=3.44D-08 Max=3.62D-07 NDo=     1
 LinEq1:  Iter= 12 NonCon=     1 RMS=8.29D-09 Max=1.31D-07 NDo=     1
 LinEq1:  Iter= 13 NonCon=     1 RMS=1.51D-09 Max=2.66D-08 NDo=     1
 LinEq1:  Iter= 14 NonCon=     1 RMS=2.73D-10 Max=3.81D-09 NDo=     1
 LinEq1:  Iter= 15 NonCon=     0 RMS=4.88D-11 Max=5.55D-10 NDo=     1
 Linear equations converged to 1.000D-10 1.000D-09 after    15 iterations.
 End of Minotr F.D. properties file   721 does not exist.
 End of Minotr F.D. properties file   722 does not exist.
 End of Minotr F.D. properties file   788 does not exist.
 Leave Link 1002 at Mon Feb 21 20:37:43 2022, MaxMem= 16106127360 cpu:              67.9 elap:               2.5
 (Enter /sw/contrib/gaussian/g16/B01/g16/l1102.exe)
 Use density number 2.
 Symmetrizing basis deriv contribution to polar:
 IMax=3 JMax=2 DiffMx= 0.00D+00
 Leave Link 1102 at Mon Feb 21 20:37:43 2022, MaxMem= 16106127360 cpu:               1.0 elap:               0.1
 (Enter /sw/contrib/gaussian/g16/B01/g16/l1110.exe)
 Forming Gx(P) for generalized density number  2 NAtomX=     5.
 Integral derivatives from FoFJK, PRISM(SPDF).
 Do as many integral derivatives as possible in FoFJK.
 G2DrvN: MDV=   16106126844.
 G2DrvN: will do     6 centers at a time, making    1 passes.
 Calling FoFCou, ICntrl=  3107 FMM=F I1Cent=   0 AccDes= 0.00D+00.
 FoFJK:  IHMeth= 1 ICntrl=    3107 DoSepK=F KAlg= 0 I1Cent=           0 FoldK=F
 IRaf=         0 NMat=       1 IRICut=       1 DoRegI=T DoRafI=F ISym2E= 1 IDoP0=0 IntGTp=1.
 FoFCou: FMM=F IPFlag=           0 FMFlag=      100000 FMFlg1=           0
         NFxFlg=           0 DoJE=F BraDBF=F KetDBF=F FulRan=T
         wScrn=  0.000000 ICntrl=      3107 IOpCl=  0 I1Cent=           0 NGrid=           0
         NMat0=    1 NMatS0=      1 NMatT0=    0 NMatD0=    1 NMtDS0=    0 NMtDT0=    0
 Petite list used in FoFCou.
 End of G2Drv F.D. properties file   721 does not exist.
 End of G2Drv F.D. properties file   722 does not exist.
 End of G2Drv F.D. properties file   788 does not exist.
 Leave Link 1110 at Mon Feb 21 20:37:46 2022, MaxMem= 16106127360 cpu:              86.2 elap:               3.1
 (Enter /sw/contrib/gaussian/g16/B01/g16/l1112.exe)
 MP22nd: MDV=   16106127360
 This link is doing NAtomX=     5 total of    18 degrees of freedom.
 Using ON3 I/O method in MakUI.
 Frozen-core window:  NFC=   4 NFV=   0.
 Using Ix for Sx.
 Use MO integrals over full window.
 Using OV2 memory method for fx*t*t/D, MaxI=    16 DoOO2=F NP=  28.
 R2 and R3 integrals will be kept in memory, NReq=   915591705.
 FoFCou: FMM=F IPFlag=           0 FMFlag=           0 FMFlg1=           0
         NFxFlg=           0 DoJE=F BraDBF=F KetDBF=F FulRan=T
         wScrn=  0.000000 ICntrl=       600 IOpCl=  0 I1Cent=           0 NGrid=           0
         NMat0=    1 NMatS0=      1 NMatT0=    0 NMatD0=    1 NMtDS0=    0 NMtDT0=    0
 Symmetry not used in FoFCou.
 DD1Dir will call FoFMem   1 times, MxPair=       272
 NAB=   136 NAA=     0 NBB=     0.
 Symmetry is being used.
 FoFJK:  IHMeth= 1 ICntrl=       0 DoSepK=F KAlg= 0 I1Cent=           0 FoldK=F
 IRaf=         0 NMat=      18 IRICut=      45 DoRegI=T DoRafI=T ISym2E= 2 IDoP0=3 IntGTp=3.
 Discarding MO integrals.
 Leave Link 1112 at Mon Feb 21 20:38:18 2022, MaxMem= 16106127360 cpu:             876.2 elap:              31.6
 (Enter /sw/contrib/gaussian/g16/B01/g16/l601.exe)
 Copying SCF densities to generalized density rwf, IOpCl= 0 IROHF=0.

 **********************************************************************

            Population analysis using the MP2 Density.

 **********************************************************************

 Orbital symmetries:
       Occupied  (A') (A') (A') (A') (A') (A') (A') (A') (A') (A')
                 (A") (A') (A") (A') (A") (A')
       Virtual   (A') (A") (A') (A') (A') (A") (A') (A') (A") (A')
                 (A") (A') (A') (A') (A") (A') (A') (A") (A') (A')
                 (A') (A') (A') (A') (A") (A') (A') (A") (A') (A')
                 (A") (A') (A") (A') (A') (A") (A') (A") (A') (A')
                 (A") (A') (A") (A') (A') (A") (A') (A') (A") (A')
                 (A") (A') (A') (A') (A") (A') (A") (A') (A") (A')
                 (A') (A') (A") (A') (A') (A") (A') (A") (A') (A')
                 (A") (A') (A') (A") (A") (A') (A') (A") (A') (A')
                 (A') (A") (A') (A") (A") (A') (A') (A") (A') (A')
                 (A") (A') (A') (A") (A') (A") (A') (A") (A') (A')
                 (A") (A') (A") (A') (A') (A") (A') (A') (A") (A')
                 (A") (A') (A') (A') (A") (A') (A') (A') (A") (A')
                 (A') (A") (A") (A') (A') (A") (A") (A') (A") (A')
                 (A') (A') (A') (A") (A") (A") (A') (A') (A') (A')
                 (A") (A') (A") (A') (A') (A") (A') (A') (A') (A')
                 (A") (A') (A') (A") (A') (A") (A') (A") (A') (A")
                 (A') (A") (A') (A") (A') (A") (A") (A') (A") (A')
                 (A") (A') (A") (A') (A") (A') (A") (A") (A') (A')
                 (A') (A') (A') (A') (A') (A') (A') (A') (A') (A')
                 (A')
 The electronic state is 1-A'.
 Alpha  occ. eigenvalues --  -20.69126 -20.68440 -20.65883 -15.81294  -1.62397
 Alpha  occ. eigenvalues --   -1.49416  -1.25477  -0.94800  -0.77159  -0.76085
 Alpha  occ. eigenvalues --   -0.71155  -0.67998  -0.61999  -0.58689  -0.48489
 Alpha  occ. eigenvalues --   -0.47250
 Alpha virt. eigenvalues --    0.02935   0.07174   0.08595   0.10180   0.13368
 Alpha virt. eigenvalues --    0.13408   0.14412   0.15440   0.17834   0.19443
 Alpha virt. eigenvalues --    0.20003   0.20622   0.22090   0.23537   0.23740
 Alpha virt. eigenvalues --    0.26724   0.29343   0.30429   0.30970   0.34365
 Alpha virt. eigenvalues --    0.34922   0.38712   0.41992   0.43258   0.52689
 Alpha virt. eigenvalues --    0.52911   0.55896   0.58233   0.62568   0.63854
 Alpha virt. eigenvalues --    0.67418   0.68394   0.70616   0.71222   0.71950
 Alpha virt. eigenvalues --    0.73074   0.74520   0.78882   0.78909   0.80891
 Alpha virt. eigenvalues --    0.81351   0.83216   0.86902   0.90692   0.92390
 Alpha virt. eigenvalues --    0.92508   0.95973   0.97840   0.98272   1.01508
 Alpha virt. eigenvalues --    1.05268   1.05540   1.08190   1.11728   1.13757
 Alpha virt. eigenvalues --    1.18876   1.22097   1.23066   1.33818   1.34678
 Alpha virt. eigenvalues --    1.38779   1.45080   1.48894   1.51381   1.53912
 Alpha virt. eigenvalues --    1.56730   1.58003   1.61682   1.66471   1.66941
 Alpha virt. eigenvalues --    1.70370   1.78666   1.83221   1.83291   1.87962
 Alpha virt. eigenvalues --    1.90869   1.95775   1.98991   2.00800   2.07554
 Alpha virt. eigenvalues --    2.11474   2.13194   2.15058   2.22145   2.26545
 Alpha virt. eigenvalues --    2.26738   2.28743   2.31499   2.34719   2.38428
 Alpha virt. eigenvalues --    2.41979   2.42267   2.45525   2.46349   2.47346
 Alpha virt. eigenvalues --    2.50425   2.58851   2.59334   2.61542   2.62990
 Alpha virt. eigenvalues --    2.63358   2.67071   2.75619   2.81982   2.86852
 Alpha virt. eigenvalues --    2.89159   2.89443   2.92044   2.96274   3.02800
 Alpha virt. eigenvalues --    3.06736   3.12371   3.19731   3.23159   3.31991
 Alpha virt. eigenvalues --    3.34023   3.51115   3.65691   3.84002   3.85015
 Alpha virt. eigenvalues --    4.15402   4.15431   4.18419   4.25583   4.36563
 Alpha virt. eigenvalues --    4.38934   4.46577   4.50664   4.66565   4.68238
 Alpha virt. eigenvalues --    4.80699   4.82379   4.83445   4.89600   5.02111
 Alpha virt. eigenvalues --    5.07806   5.10359   5.15035   5.19189   5.23222
 Alpha virt. eigenvalues --    5.27458   5.31231   5.33292   5.35270   5.61181
 Alpha virt. eigenvalues --    5.67379   5.77644   5.80955   5.95678   6.16221
 Alpha virt. eigenvalues --    6.30514   6.34285   6.39863   6.49335   6.50586
 Alpha virt. eigenvalues --    6.61151   6.66670   6.69588   6.75270   6.76636
 Alpha virt. eigenvalues --    6.82968   6.89766   6.99474   7.05782   7.06573
 Alpha virt. eigenvalues --    7.09193   7.12307   7.15945   7.18096   7.22339
 Alpha virt. eigenvalues --    7.24171   7.31200   7.32595   7.34701   7.39814
 Alpha virt. eigenvalues --    7.40934   7.48404   7.60920   7.61208   7.62809
 Alpha virt. eigenvalues --    7.66593   7.78291   7.88627   8.09045   8.30833
 Alpha virt. eigenvalues --    8.42775   8.54619  13.39872  14.39910  15.12807
 Alpha virt. eigenvalues --   16.15042
          Condensed to atoms (all electrons):
               1          2          3          4          5
     1  H    0.593699   0.126559   0.020570   0.012937  -0.000797
     2  O    0.126559   8.321202  -0.169324  -0.092308   0.015730
     3  O    0.020570  -0.169324   8.460980  -0.128064  -0.039122
     4  N    0.012937  -0.092308  -0.128064   6.970912  -0.056281
     5  O   -0.000797   0.015730  -0.039122  -0.056281   8.273409
 Mulliken charges:
               1
     1  H    0.247033
     2  O   -0.201859
     3  O   -0.145041
     4  N    0.292806
     5  O   -0.192939
 Sum of Mulliken charges =  -0.00000
 Mulliken charges with hydrogens summed into heavy atoms:
               1
     2  O    0.045174
     3  O   -0.145041
     4  N    0.292806
     5  O   -0.192939
 APT charges:
               1
     1  H    0.298908
     2  O   -0.291823
     3  O   -0.493722
     4  N    0.878855
     5  O   -0.392217
 Sum of APT charges =  -0.00000
 APT charges with hydrogens summed into heavy atoms:
               1
     2  O    0.007085
     3  O   -0.493722
     4  N    0.878855
     5  O   -0.392217
 Electronic spatial extent (au):  <R**2>=            253.1885
 Charge=             -0.0000 electrons
 Dipole moment (field-independent basis, Debye):
    X=              0.5676    Y=              1.3621    Z=              0.0000  Tot=              1.4756
 Quadrupole moment (field-independent basis, Debye-Ang):
   XX=            -22.2429   YY=            -18.6534   ZZ=            -22.0149
   XY=              3.4069   XZ=             -0.0000   YZ=             -0.0000
 Traceless Quadrupole moment (field-independent basis, Debye-Ang):
   XX=             -1.2725   YY=              2.3169   ZZ=             -1.0445
   XY=              3.4069   XZ=             -0.0000   YZ=             -0.0000
 Octapole moment (field-independent basis, Debye-Ang**2):
  XXX=              3.4540  YYY=             11.1485  ZZZ=             -0.0000  XYY=              8.1185
  XXY=              7.0465  XXZ=              0.0000  XZZ=             -1.5842  YZZ=             -0.8540
  YYZ=              0.0000  XYZ=              0.0000
 Hexadecapole moment (field-independent basis, Debye-Ang**3):
 XXXX=           -157.9958 YYYY=            -89.6817 ZZZZ=            -18.2542 XXXY=            -35.5496
 XXXZ=             -0.0000 YYYX=            -30.4738 YYYZ=             -0.0000 ZZZX=             -0.0000
 ZZZY=             -0.0000 XXYY=            -33.2411 XXZZ=            -31.0222 YYZZ=            -20.6068
 XXYZ=             -0.0000 YYXZ=             -0.0000 ZZXY=            -15.0716
 N-N= 1.168138912098D+02 E-N=-8.957379017846D+02  KE= 2.801880719976D+02
 Symmetry A'   KE= 2.662182735805D+02
 Symmetry A"   KE= 1.396979841709D+01
  Exact polarizability:  34.158   9.558  30.249   0.000   0.000  17.951
 Approx polarizability:  29.036   5.175  23.489   0.000   0.000  15.535
 No NMR shielding tensors so no spin-rotation constants.
 Leave Link  601 at Mon Feb 21 20:38:18 2022, MaxMem= 16106127360 cpu:               4.3 elap:               0.2
 (Enter /sw/contrib/gaussian/g16/B01/g16/l701.exe)
 ... and contract with generalized density number  2.
 Compute integral second derivatives.
 Leave Link  701 at Mon Feb 21 20:38:18 2022, MaxMem= 16106127360 cpu:               5.5 elap:               0.2
 (Enter /sw/contrib/gaussian/g16/B01/g16/l702.exe)
 L702 exits ... SP integral derivatives will be done elsewhere.
 Leave Link  702 at Mon Feb 21 20:38:18 2022, MaxMem= 16106127360 cpu:               1.3 elap:               0.1
 (Enter /sw/contrib/gaussian/g16/B01/g16/l703.exe)
 Integral derivatives from FoFJK, PRISM(SPDF).
 Compute integral second derivatives, UseDBF=F ICtDFT=           0.
 Calling FoFJK, ICntrl=  10100127 FMM=F ISym2X=1 I1Cent= 0 IOpClX= 0 NMat=1 NMatS=1 NMatT=0.
 FoFJK:  IHMeth= 1 ICntrl=10100127 DoSepK=F KAlg= 0 I1Cent=           0 FoldK=F
 IRaf=         0 NMat=       1 IRICut=       1 DoRegI=T DoRafI=F ISym2E= 1 IDoP0=0 IntGTp=1.
 FoFCou: FMM=F IPFlag=           0 FMFlag=      100000 FMFlg1=         800
         NFxFlg=           0 DoJE=F BraDBF=F KetDBF=F FulRan=T
         wScrn=  0.000000 ICntrl=  10100127 IOpCl=  0 I1Cent=           0 NGrid=           0
         NMat0=    1 NMatS0=      1 NMatT0=    0 NMatD0=    1 NMtDS0=    0 NMtDT0=    0
 Petite list used in FoFCou.
 Leave Link  703 at Mon Feb 21 20:38:33 2022, MaxMem= 16106127360 cpu:             420.6 elap:              15.1
 (Enter /sw/contrib/gaussian/g16/B01/g16/l716.exe)
 Dipole        = 2.23317767D-01 5.35880287D-01 3.77138336D-33
 Polarizability= 3.41577649D+01 9.55842252D+00 3.02493748D+01
                 1.41783085D-31 6.76186728D-32 1.79514589D+01
 Full mass-weighted force constant matrix:
 Low frequencies --- -307.9538  -66.6866   -0.0009    0.0006    0.0008   24.5557
 Low frequencies ---   41.1042  236.6398  345.0992
 ******    1 imaginary frequencies (negative Signs) ****** 
 Diagonal vibrational polarizability:
       14.1640882      25.3846284      38.1338353
 Harmonic frequencies (cm**-1), IR intensities (KM/Mole), Raman scattering
 activities (A**4/AMU), depolarization ratios for plane and unpolarized
 incident light, reduced masses (AMU), force constants (mDyne/A),
 and normal coordinates:
                      1                      2                      3
                     A"                     A"                     A'
 Frequencies --   -302.8696               236.3377               345.0807
 Red. masses --      1.1737                 8.1734                 8.4867
 Frc consts  --      0.0634                 0.2690                 0.5954
 IR Inten    --    125.1389                 2.9500                 3.6760
  Atom  AN      X      Y      Z        X      Y      Z        X      Y      Z
     1   1    -0.00   0.00   0.99    -0.00   0.00  -0.70     0.52  -0.47  -0.00
     2   8     0.00   0.00  -0.07     0.00   0.00  -0.26    -0.10  -0.38  -0.00
     3   8    -0.00  -0.00  -0.03     0.00  -0.00   0.29    -0.15   0.42   0.00
     4   7     0.00  -0.00   0.07     0.00  -0.00   0.45     0.05   0.27   0.00
     5   8    -0.00   0.00  -0.02    -0.00   0.00  -0.39     0.17  -0.25  -0.00
                      4                      5                      6
                     A'                     A'                     A'
 Frequencies --    449.8585               783.0444               962.5620
 Red. masses --     12.0718                12.9159                14.4463
 Frc consts  --      1.4394                 4.6660                 7.8861
 IR Inten    --    202.1912               172.2927                21.4920
  Atom  AN      X      Y      Z        X      Y      Z        X      Y      Z
     1   1     0.44   0.17  -0.00    -0.32   0.22  -0.00    -0.30  -0.04  -0.00
     2   8     0.31   0.19  -0.00     0.43   0.08  -0.00    -0.49   0.03  -0.00
     3   8     0.17   0.45   0.00    -0.07  -0.27   0.00     0.73  -0.02   0.00
     4   7    -0.35  -0.39   0.00    -0.14   0.62   0.00    -0.12   0.24   0.00
     5   8    -0.21  -0.30  -0.00    -0.22  -0.37  -0.00    -0.11  -0.22  -0.00
                      7                      8                      9
                     A'                     A'                     A'
 Frequencies --   1354.3306              1676.7589              3779.4747
 Red. masses --      1.1417                13.4915                 1.0682
 Frc consts  --      1.2338                22.3487                 8.9905
 IR Inten    --    143.3501               144.1105                86.1062
  Atom  AN      X      Y      Z        X      Y      Z        X      Y      Z
     1   1     0.99  -0.09  -0.00    -0.31   0.01   0.00     0.14   0.99   0.00
     2   8    -0.04   0.06  -0.00    -0.00  -0.04   0.00    -0.01  -0.06  -0.00
     3   8    -0.01  -0.05   0.00     0.00   0.15  -0.00     0.00   0.00  -0.00
     4   7     0.02   0.02   0.00     0.71  -0.06  -0.00    -0.00  -0.00   0.00
     5   8    -0.03  -0.01  -0.00    -0.60  -0.07   0.00     0.00   0.00   0.00

 -------------------
 - Thermochemistry -
 -------------------
 Temperature   298.150 Kelvin.  Pressure   1.00000 Atm.
 Atom     1 has atomic number  1 and mass   1.00783
 Atom     2 has atomic number  8 and mass  15.99491
 Atom     3 has atomic number  8 and mass  15.99491
 Atom     4 has atomic number  7 and mass  14.00307
 Atom     5 has atomic number  8 and mass  15.99491
 Molecular mass:    62.99564 amu.
 Principal axes and moments of inertia in atomic units:
                           1         2         3
     Eigenvalues --    32.74213 360.68500 393.42713
           X            0.81170  -0.58407   0.00000
           Y            0.58407   0.81170   0.00000
           Z           -0.00000   0.00000   1.00000
 This molecule is an asymmetric top.
 Rotational symmetry number  1.
 Rotational temperatures (Kelvin)      2.64534     0.24014     0.22015
 Rotational constants (GHZ):          55.11985     5.00365     4.58723
    1 imaginary frequencies ignored.
 Zero-point vibrational energy      57345.7 (Joules/Mol)
                                   13.70594 (Kcal/Mol)
 Warning -- explicit consideration of   3 degrees of freedom as
           vibrations may cause significant error
 Vibrational temperatures:    340.04   496.49   647.25  1126.63  1384.91
          (Kelvin)           1948.58  2412.48  5437.82
 
 Zero-point correction=                           0.021842 (Hartree/Particle)
 Thermal correction to Energy=                    0.025948
 Thermal correction to Enthalpy=                  0.026893
 Thermal correction to Gibbs Free Energy=        -0.004262
 Sum of electronic and zero-point Energies=           -280.424662
 Sum of electronic and thermal Energies=              -280.420556
 Sum of electronic and thermal Enthalpies=            -280.419611
 Sum of electronic and thermal Free Energies=         -280.450766
 
                     E (Thermal)             CV                S
                      KCal/Mol        Cal/Mol-Kelvin    Cal/Mol-Kelvin
 Total                   16.283             11.956             65.569
 Electronic               0.000              0.000              0.000
 Translational            0.889              2.981             38.341
 Rotational               0.889              2.981             23.056
 Vibrational             14.505              5.994              4.173
 Vibration     1          0.655              1.785              1.830
 Vibration     2          0.723              1.585              1.189
 Vibration     3          0.809              1.361              0.796
                       Q            Log10(Q)             Ln(Q)
 Total Bot       0.912473D+02          1.960220          4.513573
 Total V=0       0.101566D+13         12.006747         27.646557
 Vib (Bot)       0.190285D-09         -9.720595        -22.382497
 Vib (Bot)    1  0.831038D+00         -0.080379         -0.185079
 Vib (Bot)    2  0.536354D+00         -0.270548         -0.622961
 Vib (Bot)    3  0.381246D+00         -0.418795         -0.964311
 Vib (V=0)       0.211803D+01          0.325932          0.750487
 Vib (V=0)    1  0.146986D+01          0.167275          0.385166
 Vib (V=0)    2  0.123326D+01          0.091056          0.209664
 Vib (V=0)    3  0.112877D+01          0.052604          0.121126
 Electronic      0.100000D+01          0.000000          0.000000
 Translational   0.196526D+08          7.293420         16.793719
 Rotational      0.244003D+05          4.387395         10.102351
 
                                                                title
                                                             IR Spectrum
 
     3                                                                      1          1                                             
     7                                                                      6          3            9     7          4   3   2       
     7                                                                      7          5            6     8          5   4   3       
     9                                                                      7          4            3     3          0   5   6       
 
     X                                                                      X          X            X     X          X   X   X       
     X                                                                      X          X            X     X          X               
     X                                                                      X          X                  X          X               
     X                                                                      X          X                  X          X               
     X                                                                      X          X                  X          X               
     X                                                                      X          X                  X          X               
     X                                                                      X          X                  X          X               
     X                                                                      X          X                  X          X               
     X                                                                      X          X                  X          X               
                                                                            X          X                  X          X               
                                                                            X          X                  X          X               
                                                                            X          X                  X          X               
                                                                            X          X                  X          X               
                                                                            X          X                  X          X               
                                                                                                          X          X               
                                                                                                          X          X               
                                                                                                          X          X               
                                                                                                                     X               
                                                                                                                     X               
                                                                                                                     X               
 
 ***** Axes restored to original set *****
 -------------------------------------------------------------------
 Center     Atomic                   Forces (Hartrees/Bohr)
 Number     Number              X              Y              Z
 -------------------------------------------------------------------
      1        1           0.005397263    0.000000000    0.000399690
      2        8          -0.003112060    0.000000000    0.004209084
      3        8          -0.001372564   -0.000000000   -0.004483227
      4        7          -0.001188109   -0.000000000    0.000276773
      5        8           0.000275471   -0.000000000   -0.000402320
 -------------------------------------------------------------------
 Cartesian Forces:  Max     0.005397263 RMS     0.002315178
 -----------------------------------------------------------------------------------------------
                       Internal Coordinate Forces (Hartree/Bohr or radian)
  Cent   Atom   N1       Length/X         N2         Alpha/Y        N3         Beta/Z          J
 -----------------------------------------------------------------------------------------------
      1  H 
      2  O        1  -0.000400(     1)
      3  O        2  -0.003067(     2)      1  -0.009883(     5)
      4  N        3  -0.000159(     3)      2  -0.001472(     6)      1   0.000000(     8)     0
      5  O        4   0.000146(     4)      3  -0.001029(     7)      2   0.000000(     9)     0
 -----------------------------------------------------------------------------------------------
 Internal  Forces:  Max     0.009882911 RMS     0.003504136
 Force constants in Cartesian coordinates: 
                1             2             3             4             5 
      1  0.625427D-01
      2  0.000000D+00 -0.291083D-02
      3  0.120179D-02  0.000000D+00  0.512361D+00
      4 -0.399262D-01  0.000000D+00 -0.133040D-01  0.272210D+00
      5  0.000000D+00  0.574533D-02  0.000000D+00  0.000000D+00 -0.198671D-02
      6  0.512013D-01  0.000000D+00 -0.510219D+00  0.345015D-01  0.000000D+00
      7 -0.123315D-01  0.000000D+00  0.132780D-01 -0.218163D+00  0.000000D+00
      8  0.000000D+00 -0.984093D-03  0.000000D+00  0.000000D+00 -0.525847D-02
      9 -0.523658D-01  0.000000D+00  0.112661D-02 -0.220048D-01  0.000000D+00
     10 -0.899085D-02  0.000000D+00 -0.447608D-02 -0.157537D-01  0.000000D+00
     11  0.000000D+00 -0.301177D-02  0.000000D+00  0.000000D+00 -0.470711D-02
     12  0.588677D-02  0.000000D+00 -0.483894D-02  0.864762D-02  0.000000D+00
     13 -0.129411D-02  0.000000D+00  0.330029D-02  0.163247D-02  0.000000D+00
     14  0.000000D+00  0.116137D-02  0.000000D+00  0.000000D+00  0.620696D-02
     15 -0.592403D-02  0.000000D+00  0.157061D-02 -0.784032D-02  0.000000D+00
                6             7             8             9            10 
      6  0.602925D+00
      7 -0.243236D-01  0.333764D+00
      8  0.000000D+00  0.000000D+00  0.463572D-02
      9 -0.833365D-01  0.370710D-01  0.000000D+00  0.184155D+00
     10 -0.539530D-01 -0.884672D-01  0.000000D+00  0.175073D+00  0.828607D+00
     11  0.000000D+00  0.000000D+00  0.901749D-02  0.000000D+00  0.000000D+00
     12  0.164258D-01  0.641543D-01  0.000000D+00 -0.712018D-01  0.101792D-01
     13 -0.742622D-02 -0.148023D-01  0.000000D+00 -0.137774D+00 -0.715396D+00
     14  0.000000D+00  0.000000D+00 -0.741065D-02  0.000000D+00  0.000000D+00
     15 -0.257954D-01 -0.901797D-01  0.000000D+00 -0.307431D-01 -0.126824D+00
               11            12            13            14            15 
     11  0.794945D-02
     12  0.000000D+00  0.185114D+00
     13  0.000000D+00 -0.888679D-01  0.729860D+00
     14 -0.924805D-02  0.000000D+00  0.000000D+00  0.929037D-02
     15  0.000000D+00 -0.125499D+00  0.230768D+00  0.000000D+00  0.180467D+00
 Force constants in internal coordinates: 
                1             2             3             4             5 
      1  0.512361D+00
      2 -0.115301D-01  0.275568D+00
      3  0.330877D-02  0.275594D-02  0.116428D+00
      4 -0.361522D-02  0.559728D-02  0.153271D+00  0.811933D+00
      5  0.759788D-02  0.577840D-01  0.750384D-03  0.543655D-02  0.208970D+00
      6  0.410190D-02  0.591061D-01  0.394969D-01  0.225921D-01  0.304563D-01
      7 -0.118904D-02  0.374971D-01  0.321558D-01  0.840542D-01  0.214195D-01
      8  0.000000D+00  0.000000D+00  0.000000D+00  0.000000D+00  0.000000D+00
      9  0.000000D+00  0.000000D+00  0.000000D+00  0.000000D+00  0.000000D+00
                6             7             8             9 
      6  0.282431D+00
      7  0.957265D-01  0.481915D+00
      8  0.000000D+00  0.000000D+00 -0.843479D-02
      9  0.000000D+00  0.000000D+00 -0.437599D-02  0.412242D-01
 Leave Link  716 at Mon Feb 21 20:38:33 2022, MaxMem= 16106127360 cpu:               1.0 elap:               0.1
 (Enter /sw/contrib/gaussian/g16/B01/g16/l103.exe)

 GradGradGradGradGradGradGradGradGradGradGradGradGradGradGradGradGradGrad
 Berny optimization.
 Search for a local minimum.
 Step number   1 out of a maximum of    2
 All quantities printed in internal units (Hartrees-Bohrs-Radians)
 Second derivative matrix not updated -- analytic derivatives used.
 The second derivative matrix:
                          r1        r2        r3        r4        a1
           r1           0.51236
           r2          -0.01153   0.27557
           r3           0.00331   0.00276   0.11643
           r4          -0.00362   0.00560   0.15327   0.81193
           a1           0.00760   0.05778   0.00075   0.00544   0.20897
           a2           0.00410   0.05911   0.03950   0.02259   0.03046
           a3          -0.00119   0.03750   0.03216   0.08405   0.02142
           d1           0.00000  -0.00000  -0.00000  -0.00000  -0.00000
           d2          -0.00000   0.00000   0.00000   0.00000   0.00000
                          a2        a3        d1        d2
           a2           0.28243
           a3           0.09573   0.48191
           d1          -0.00000  -0.00000  -0.00843
           d2          -0.00000  -0.00000  -0.00438   0.04122
 ITU=  0
     Eigenvalues ---   -0.00882   0.04161   0.07797   0.17491   0.22168
     Eigenvalues ---    0.31608   0.51302   0.51537   0.87058
 Eigenvalue     1 is  -8.82D-03 should be greater than     0.000000 Eigenvector:
                          d1        d2        a3        a2        r3
   1                    0.99620   0.08711   0.00000   0.00000  -0.00000
                          r4        a1        r1        r2
   1                    0.00000  -0.00000  -0.00000   0.00000
 Angle between quadratic step and forces=  18.80 degrees.
 Linear search not attempted -- first point.
 Variable       Old X    -DE/DX   Delta X   Delta X   Delta X     New X
                                 (Linear)    (Quad)   (Total)
    r1        1.83110  -0.00040   0.00000  -0.00010  -0.00010   1.83100
    r2        2.74940  -0.00307   0.00000  -0.00136  -0.00136   2.74804
    r3        2.75670  -0.00016   0.00000  -0.00240  -0.00240   2.75430
    r4        2.21236   0.00015   0.00000   0.00095   0.00095   2.21331
    a1        1.74920  -0.00988   0.00000  -0.04699  -0.04699   1.70221
    a2        1.78543  -0.00147   0.00000   0.00041   0.00041   1.78584
    a3        1.90362  -0.00103   0.00000  -0.00003  -0.00003   1.90359
    d1        3.14159   0.00000   0.00000   0.00000   0.00000   3.14159
    d2        3.14159   0.00000   0.00000   0.00000   0.00000   3.14159
         Item               Value     Threshold  Converged?
 Maximum Force            0.009883     0.000450     NO 
 RMS     Force            0.003504     0.000300     NO 
 Maximum Displacement     0.046987     0.001800     NO 
 RMS     Displacement     0.015693     0.001200     NO 
 Predicted change in Energy=-2.342605D-04
                       ----------------------------
                       ! Non-Optimized Parameters !
                       ! (Angstroms and Degrees)  !
 ----------------------                            ----------------------
 !      Name          Value   Derivative information (Atomic Units)     !
 ------------------------------------------------------------------------
 !       r1          0.9689   -DE/DX =   -0.0004                        !
 !       r2          1.4542   -DE/DX =   -0.0031                        !
 !       r3          1.4575   -DE/DX =   -0.0002                        !
 !       r4          1.1712   -DE/DX =    0.0001                        !
 !       a1         97.5297   -DE/DX =   -0.0099                        !
 !       a2        102.321    -DE/DX =   -0.0015                        !
 !       a3        109.0679   -DE/DX =   -0.001                         !
 !       d1        180.0      -DE/DX =    0.0                           !
 !       d2        180.0      -DE/DX =    0.0                           !
 ------------------------------------------------------------------------
 GradGradGradGradGradGradGradGradGradGradGradGradGradGradGradGradGradGrad

 Leave Link  103 at Mon Feb 21 20:38:33 2022, MaxMem= 16106127360 cpu:               0.5 elap:               0.0
 (Enter /sw/contrib/gaussian/g16/B01/g16/l9999.exe)

 ----------------------------------------------------------------------

 Electric dipole moment (input orientation):
 (Debye = 10**-18 statcoulomb cm , SI units = C m)
                  (au)            (Debye)         (10**-30 SI)
   Tot        0.580550D+00      0.147561D+01      0.492211D+01
   x         -0.142899D+00     -0.363214D+00     -0.121155D+01
   y          0.000000D+00      0.000000D+00      0.000000D+00
   z         -0.562688D+00     -0.143021D+01     -0.477067D+01

 Dipole polarizability, Alpha (input orientation).
 (esu units = cm**3 , SI units = C**2 m**2 J**-1)
 Alpha(0;0):
               (au)            (10**-24 esu)      (10**-40 SI)
   iso        0.274529D+02      0.406810D+01      0.452637D+01
   aniso      0.221059D+02      0.327575D+01      0.364477D+01
   xx         0.313207D+02      0.464124D+01      0.516408D+01
   yx         0.000000D+00      0.000000D+00      0.000000D+00
   yy         0.179515D+02      0.266013D+01      0.295980D+01
   zx         0.971611D+01      0.143978D+01      0.160197D+01
   zy         0.000000D+00      0.000000D+00      0.000000D+00
   zz         0.330865D+02      0.490291D+01      0.545522D+01

 ----------------------------------------------------------------------

 Dipole orientation:
     1          0.00000000          0.00000000          0.00000000
     8         -0.45071472          0.00000000         -1.77476131
     8          2.05170166          0.00000000         -2.91366747
     7          1.47037293          0.00000000         -5.60837799
     8          3.36187570          0.00000000         -6.75587103

 Electric dipole moment (dipole orientation):
 (Debye = 10**-18 statcoulomb cm , SI units = C m)
                  (au)            (Debye)         (10**-30 SI)
   Tot        0.580550D+00      0.147561D+01      0.492211D+01
   x          0.000000D+00      0.000000D+00      0.000000D+00
   y          0.000000D+00      0.000000D+00      0.000000D+00
   z          0.580550D+00      0.147561D+01      0.492211D+01

 Dipole polarizability, Alpha (dipole orientation).
 (esu units = cm**3 , SI units = C**2 m**2 J**-1)
 Alpha(0;0):
               (au)            (10**-24 esu)      (10**-40 SI)
   iso        0.274529D+02      0.406810D+01      0.452637D+01
   aniso      0.221059D+02      0.327575D+01      0.364477D+01
   xx         0.267917D+02      0.397012D+01      0.441735D+01
   yx         0.000000D+00      0.000000D+00      0.000000D+00
   yy         0.179515D+02      0.266013D+01      0.295980D+01
   zx        -0.811749D+01     -0.120289D+01     -0.133839D+01
   zy         0.000000D+00      0.000000D+00      0.000000D+00
   zz         0.376155D+02      0.557404D+01      0.620195D+01

 ----------------------------------------------------------------------
 1\1\GINC-N2129\Freq\RMP2-FC\Aug-CC-pVTZ\H1N1O3\CGAVINH\21-Feb-2022\1\\
 #p freq mp2/aug-cc-pvtz density=current\\title\\0,1\H\O,1,r1\O,2,r2,1,
 a1\N,3,r3,2,a2,1,d1,0\O,4,r4,3,a3,2,d2,0\\r1=0.96897556\r2=1.45491931\
 r3=1.45878406\r4=1.17072885\a1=100.22187546\a2=102.29752444\a3=109.069
 55123\d1=180.\d2=180.\\Version=ES64L-G16RevB.01\State=1-A'\HF=-279.501
 7835\MP2=-280.446504\RMSD=3.820e-09\RMSF=2.315e-03\ZeroPoint=0.0218418
 \Thermal=0.0259483\Dipole=-0.1428992,0.,-0.5626885\DipoleDeriv=0.25744
 27,0.,0.0386561,0.,0.3587632,0.,0.0872185,0.,0.2805174,-0.3101321,0.,-
 0.2032303,0.,-0.3200606,0.,-0.1291297,0.,-0.2452765,-0.0229471,0.,0.20
 84767,0.,-0.0845088,0.,-0.6868354,0.,-1.3737103,0.8137571,0.,0.8723528
 ,0.,0.066013,0.,0.8885343,0.,1.7567942,-0.7381207,0.,-0.9162553,0.,-0.
 0202068,0.,-0.1597877,0.,-0.4183248\Polar=31.3206535,0.,17.9514589,9.7
 161092,0.,33.0864862\Quadrupole=-1.6193225,-0.7765412,2.3958637,0.,2.0
 410464,0.\PG=CS [SG(H1N1O3)]\NImag=1\\0.06254267,0.,-0.00291083,0.0012
 0179,0.,0.51236055,-0.03992617,0.,-0.01330405,0.27221042,0.,0.00574533
 ,0.,0.,-0.00198671,0.05120130,0.,-0.51021883,0.03450150,0.,0.60292493,
 -0.01233153,0.,0.01327805,-0.21816302,0.,-0.02432360,0.33376402,0.,-0.
 00098409,0.,0.,-0.00525847,0.,0.,0.00463572,-0.05236583,0.,0.00112661,
 -0.02200476,0.,-0.08333651,0.03707096,0.,0.18415482,-0.00899085,0.,-0.
 00447608,-0.01575370,0.,-0.05395298,-0.08846718,0.,0.17507348,0.828607
 49,0.,-0.00301177,0.,0.,-0.00470711,0.,0.,0.00901749,0.,0.,0.00794945,
 0.00588677,0.,-0.00483894,0.00864762,0.,0.01642577,0.06415431,0.,-0.07
 120184,0.01017918,0.,0.18511412,-0.00129411,0.,0.00330029,0.00163247,0
 .,-0.00742622,-0.01480229,0.,-0.13777386,-0.71539575,0.,-0.08886788,0.
 72985970,0.,0.00116137,0.,0.,0.00620696,0.,0.,-0.00741065,0.,0.,-0.009
 24805,0.,0.,0.00929037,-0.00592403,0.,0.00157061,-0.00784032,0.,-0.025
 79536,-0.09017973,0.,-0.03074309,-0.12682361,0.,-0.12549911,0.23076768
 ,0.,0.18046695\\-0.00539726,0.,-0.00039969,0.00311206,0.,-0.00420908,0
 .00137256,0.,0.00448323,0.00118811,0.,-0.00027677,-0.00027547,0.,0.000
 40232\\\@


 EDUCATION DOESN'T COST 
           ... IT PAYS!

 -- POSTMARK, UNIV. OF MISSISSIPPI, DEC 78
 Job cpu time:       0 days  1 hours 58 minutes 59.0 seconds.
 Elapsed time:       0 days  0 hours  4 minutes 18.1 seconds.
 File lengths (MBytes):  RWF=   7239 Int=      0 D2E=      0 Chk=      8 Scr=      1
 Normal termination of Gaussian 16 at Mon Feb 21 20:38:34 2022.
