title                                                                   
Freq      RMP2-FC                                                     Aug-CC-pVTZ         
Number of atoms                            I                5
Info1-9                                    I   N=           9
          33          24           0           0           0         100
           6           2           1
Full Title                                 C   N=           1
title       
Route                                      C   N=           4
#p freq mp2/aug-cc-pvtz density=current         
Charge                                     I                0
Multiplicity                               I                1
Number of electrons                        I               32
Number of alpha electrons                  I               16
Number of beta electrons                   I               16
Number of basis functions                  I              207
Number of independent functions            I              207
Number of point charges in /Mol/           I                0
Number of translation vectors              I                0
Atomic numbers                             I   N=           5
           1           8           8           7           8
Nuclear charges                            R   N=           5
  1.00000000E+00  8.00000000E+00  8.00000000E+00  7.00000000E+00  8.00000000E+00
Current cartesian coordinates              R   N=          15
  2.93013838E+00  3.21390152E+00  1.05523150E-30  2.74778727E+00  1.36510162E+00
  5.29008046E-32 -5.33171685E-17  1.27097317E+00  3.50654174E-31 -4.94587841E-01
 -1.44099857E+00 -1.03328556E-31 -2.68129020E+00 -1.77693874E+00 -4.55224857E-31
Number of symbols in /Mol/                 I                0
Force Field                                I                0
Atom Types                                 C   N=           5
                                                            
Int Atom Types                             I   N=           5
           0           0           0           0           0
MM charges                                 R   N=           5
  0.00000000E+00  0.00000000E+00  0.00000000E+00  0.00000000E+00  0.00000000E+00
Integer atomic weights                     I   N=           5
           1          16          16          14          16
Real atomic weights                        R   N=           5
  1.00782504E+00  1.59949146E+01  1.59949146E+01  1.40030740E+01  1.59949146E+01
Atom fragment info                         I   N=           5
           0           0           0           0           0
Atom residue num                           I   N=           5
           0           0           0           0           0
Nuclear spins                              I   N=           5
           1           0           0           2           0
Nuclear ZEff                               R   N=           5
 -1.00000000E+00 -5.60000000E+00 -5.60000000E+00 -4.55000000E+00 -5.60000000E+00
Nuclear ZNuc                               R   N=           5
  1.00000000E+00  8.00000000E+00  8.00000000E+00  7.00000000E+00  8.00000000E+00
Nuclear QMom                               R   N=           5
  0.00000000E+00  0.00000000E+00  0.00000000E+00  2.04400000E+00  0.00000000E+00
Nuclear GFac                               R   N=           5
  2.79284600E+00  0.00000000E+00  0.00000000E+00  4.03761000E-01  0.00000000E+00
MicOpt                                     I   N=           5
          -1          -1          -1          -1          -1
Number of residues                         I                0
Number of secondary structures             I                0
SymInf integers                            I   N=          26
           1           2           1           1           1           1
           1          -1           0           0           0           0
           0           0           0           0           0           0
           0           0           0           0           0           0
           0           0
RotTr to input orientation                 R   N=          12
 -9.95171054E-01  6.66439711E-16 -9.81558637E-02  9.81558637E-02 -9.18410776E-16
 -9.95171054E-01 -7.53368913E-16 -1.00000000E+00  8.48560855E-16  2.60052562E+00
  0.00000000E+00  3.48599202E+00
Number of contracted shells                I               65
Number of primitive shells                 I              119
Pure/Cartesian d shells                    I                0
Pure/Cartesian f shells                    I                0
Highest angular momentum                   I                3
Largest degree of contraction              I                7
Shell types                                I   N=          65
           0           0           0           0           1           1
           1          -2          -2           0           0           0
           0           0           1           1           1           1
          -2          -2          -2          -3          -3           0
           0           0           0           0           1           1
           1           1          -2          -2          -2          -3
          -3           0           0           0           0           0
           1           1           1           1          -2          -2
          -2          -3          -3           0           0           0
           0           0           1           1           1           1
          -2          -2          -2          -3          -3
Number of primitives per shell             I   N=          65
           3           1           1           1           1           1
           1           1           1           7           6           1
           1           1           3           1           1           1
           1           1           1           1           1           7
           6           1           1           1           3           1
           1           1           1           1           1           1
           1           7           6           1           1           1
           3           1           1           1           1           1
           1           1           1           7           6           1
           1           1           3           1           1           1
           1           1           1           1           1
Shell to atom map                          I   N=          65
           1           1           1           1           1           1
           1           1           1           2           2           2
           2           2           2           2           2           2
           2           2           2           2           2           3
           3           3           3           3           3           3
           3           3           3           3           3           3
           3           4           4           4           4           4
           4           4           4           4           4           4
           4           4           4           5           5           5
           5           5           5           5           5           5
           5           5           5           5           5
Primitive exponents                        R   N=         119
  3.38700000E+01  5.09500000E+00  1.15900000E+00  3.25800000E-01  1.02700000E-01
  2.52600000E-02  1.40700000E+00  3.88000000E-01  1.02000000E-01  1.05700000E+00
  2.47000000E-01  1.53300000E+04  2.29900000E+03  5.22400000E+02  1.47300000E+02
  4.75500000E+01  1.67600000E+01  6.20700000E+00  5.22400000E+02  1.47300000E+02
  4.75500000E+01  1.67600000E+01  6.20700000E+00  6.88200000E-01  1.75200000E+00
  2.38400000E-01  7.37600000E-02  3.44600000E+01  7.74900000E+00  2.28000000E+00
  7.15600000E-01  2.14000000E-01  5.97400000E-02  2.31400000E+00  6.45000000E-01
  2.14000000E-01  1.42800000E+00  5.00000000E-01  1.53300000E+04  2.29900000E+03
  5.22400000E+02  1.47300000E+02  4.75500000E+01  1.67600000E+01  6.20700000E+00
  5.22400000E+02  1.47300000E+02  4.75500000E+01  1.67600000E+01  6.20700000E+00
  6.88200000E-01  1.75200000E+00  2.38400000E-01  7.37600000E-02  3.44600000E+01
  7.74900000E+00  2.28000000E+00  7.15600000E-01  2.14000000E-01  5.97400000E-02
  2.31400000E+00  6.45000000E-01  2.14000000E-01  1.42800000E+00  5.00000000E-01
  1.14200000E+04  1.71200000E+03  3.89300000E+02  1.10000000E+02  3.55700000E+01
  1.25400000E+01  4.64400000E+00  3.89300000E+02  1.10000000E+02  3.55700000E+01
  1.25400000E+01  4.64400000E+00  5.11800000E-01  1.29300000E+00  1.78700000E-01
  5.76000000E-02  2.66300000E+01  5.94800000E+00  1.74200000E+00  5.55000000E-01
  1.72500000E-01  4.91000000E-02  1.65400000E+00  4.69000000E-01  1.51000000E-01
  1.09300000E+00  3.64000000E-01  1.53300000E+04  2.29900000E+03  5.22400000E+02
  1.47300000E+02  4.75500000E+01  1.67600000E+01  6.20700000E+00  5.22400000E+02
  1.47300000E+02  4.75500000E+01  1.67600000E+01  6.20700000E+00  6.88200000E-01
  1.75200000E+00  2.38400000E-01  7.37600000E-02  3.44600000E+01  7.74900000E+00
  2.28000000E+00  7.15600000E-01  2.14000000E-01  5.97400000E-02  2.31400000E+00
  6.45000000E-01  2.14000000E-01  1.42800000E+00  5.00000000E-01
Contraction coefficients                   R   N=         119
  2.54948632E-02  1.90362766E-01  8.52162022E-01  1.00000000E+00  1.00000000E+00
  1.00000000E+00  1.00000000E+00  1.00000000E+00  1.00000000E+00  1.00000000E+00
  1.00000000E+00  5.19808943E-04  4.02025621E-03  2.07128267E-02  8.10105536E-02
  2.35962985E-01  4.42653446E-01  3.57064423E-01 -4.42115008E-05 -1.22591041E-03
 -1.05517725E-02 -6.74452633E-02 -1.71198607E-01  1.07329856E+00  1.00000000E+00
  1.00000000E+00  1.00000000E+00  4.11634896E-02  2.57762836E-01  8.02419274E-01
  1.00000000E+00  1.00000000E+00  1.00000000E+00  1.00000000E+00  1.00000000E+00
  1.00000000E+00  1.00000000E+00  1.00000000E+00  5.19808943E-04  4.02025621E-03
  2.07128267E-02  8.10105536E-02  2.35962985E-01  4.42653446E-01  3.57064423E-01
 -4.42115008E-05 -1.22591041E-03 -1.05517725E-02 -6.74452633E-02 -1.71198607E-01
  1.07329856E+00  1.00000000E+00  1.00000000E+00  1.00000000E+00  4.11634896E-02
  2.57762836E-01  8.02419274E-01  1.00000000E+00  1.00000000E+00  1.00000000E+00
  1.00000000E+00  1.00000000E+00  1.00000000E+00  1.00000000E+00  1.00000000E+00
  5.34563860E-04  4.13435660E-03  2.12335358E-02  8.25006224E-02  2.38138871E-01
  4.42551547E-01  3.53757422E-01 -4.89867350E-05 -1.19527323E-03 -1.03490714E-02
 -6.48680190E-02 -1.71552477E-01  1.07289568E+00  1.00000000E+00  1.00000000E+00
  1.00000000E+00  3.98072123E-02  2.49002660E-01  8.10479727E-01  1.00000000E+00
  1.00000000E+00  1.00000000E+00  1.00000000E+00  1.00000000E+00  1.00000000E+00
  1.00000000E+00  1.00000000E+00  5.19808943E-04  4.02025621E-03  2.07128267E-02
  8.10105536E-02  2.35962985E-01  4.42653446E-01  3.57064423E-01 -4.42115008E-05
 -1.22591041E-03 -1.05517725E-02 -6.74452633E-02 -1.71198607E-01  1.07329856E+00
  1.00000000E+00  1.00000000E+00  1.00000000E+00  4.11634896E-02  2.57762836E-01
  8.02419274E-01  1.00000000E+00  1.00000000E+00  1.00000000E+00  1.00000000E+00
  1.00000000E+00  1.00000000E+00  1.00000000E+00  1.00000000E+00
Coordinates of each shell                  R   N=         195
  2.93013838E+00  3.21390152E+00  1.99278377E-31  2.93013838E+00  3.21390152E+00
  1.99278377E-31  2.93013838E+00  3.21390152E+00  1.99278377E-31  2.93013838E+00
  3.21390152E+00  1.99278377E-31  2.93013838E+00  3.21390152E+00  1.99278377E-31
  2.93013838E+00  3.21390152E+00  1.99278377E-31  2.93013838E+00  3.21390152E+00
  1.99278377E-31  2.93013838E+00  3.21390152E+00  1.99278377E-31  2.93013838E+00
  3.21390152E+00  1.99278377E-31  2.74778727E+00  1.36510162E+00  2.50786199E-32
  2.74778727E+00  1.36510162E+00  2.50786199E-32  2.74778727E+00  1.36510162E+00
  2.50786199E-32  2.74778727E+00  1.36510162E+00  2.50786199E-32  2.74778727E+00
  1.36510162E+00  2.50786199E-32  2.74778727E+00  1.36510162E+00  2.50786199E-32
  2.74778727E+00  1.36510162E+00  2.50786199E-32  2.74778727E+00  1.36510162E+00
  2.50786199E-32  2.74778727E+00  1.36510162E+00  2.50786199E-32  2.74778727E+00
  1.36510162E+00  2.50786199E-32  2.74778727E+00  1.36510162E+00  2.50786199E-32
  2.74778727E+00  1.36510162E+00  2.50786199E-32  2.74778727E+00  1.36510162E+00
  2.50786199E-32  2.74778727E+00  1.36510162E+00  2.50786199E-32 -9.55079254E-19
  1.27097317E+00  1.24722430E-31 -9.55079254E-19  1.27097317E+00  1.24722430E-31
 -9.55079254E-19  1.27097317E+00  1.24722430E-31 -9.55079254E-19  1.27097317E+00
  1.24722430E-31 -9.55079254E-19  1.27097317E+00  1.24722430E-31 -9.55079254E-19
  1.27097317E+00  1.24722430E-31 -9.55079254E-19  1.27097317E+00  1.24722430E-31
 -9.55079254E-19  1.27097317E+00  1.24722430E-31 -9.55079254E-19  1.27097317E+00
  1.24722430E-31 -9.55079254E-19  1.27097317E+00  1.24722430E-31 -9.55079254E-19
  1.27097317E+00  1.24722430E-31 -9.55079254E-19  1.27097317E+00  1.24722430E-31
 -9.55079254E-19  1.27097317E+00  1.24722430E-31 -9.55079254E-19  1.27097317E+00
  1.24722430E-31 -4.94587841E-01 -1.44099857E+00 -1.21809278E-31 -4.94587841E-01
 -1.44099857E+00 -1.21809278E-31 -4.94587841E-01 -1.44099857E+00 -1.21809278E-31
 -4.94587841E-01 -1.44099857E+00 -1.21809278E-31 -4.94587841E-01 -1.44099857E+00
 -1.21809278E-31 -4.94587841E-01 -1.44099857E+00 -1.21809278E-31 -4.94587841E-01
 -1.44099857E+00 -1.21809278E-31 -4.94587841E-01 -1.44099857E+00 -1.21809278E-31
 -4.94587841E-01 -1.44099857E+00 -1.21809278E-31 -4.94587841E-01 -1.44099857E+00
 -1.21809278E-31 -4.94587841E-01 -1.44099857E+00 -1.21809278E-31 -4.94587841E-01
 -1.44099857E+00 -1.21809278E-31 -4.94587841E-01 -1.44099857E+00 -1.21809278E-31
 -4.94587841E-01 -1.44099857E+00 -1.21809278E-31 -2.68129020E+00 -1.77693874E+00
 -6.81277290E-32 -2.68129020E+00 -1.77693874E+00 -6.81277290E-32 -2.68129020E+00
 -1.77693874E+00 -6.81277290E-32 -2.68129020E+00 -1.77693874E+00 -6.81277290E-32
 -2.68129020E+00 -1.77693874E+00 -6.81277290E-32 -2.68129020E+00 -1.77693874E+00
 -6.81277290E-32 -2.68129020E+00 -1.77693874E+00 -6.81277290E-32 -2.68129020E+00
 -1.77693874E+00 -6.81277290E-32 -2.68129020E+00 -1.77693874E+00 -6.81277290E-32
 -2.68129020E+00 -1.77693874E+00 -6.81277290E-32 -2.68129020E+00 -1.77693874E+00
 -6.81277290E-32 -2.68129020E+00 -1.77693874E+00 -6.81277290E-32 -2.68129020E+00
 -1.77693874E+00 -6.81277290E-32 -2.68129020E+00 -1.77693874E+00 -6.81277290E-32
Num ILSW                                   I              100
ILSW                                       I   N=         100
           0           0           0           0           2           0
           0           0           0           0           0          -1
           5           0           0           0           2           0
           0           0           0           0           1           0
           1           0           0           0           0           0
           0           0      100000           0          -1           0
           0           0           0           0           0           0
           0           0           0           1           1           0
           0 -2000000000           1           0           0           0
           0           0           4          52           0           0
           0           0           0           0           0           0
           0           0           0           5           4           1
           0           0           0           0           0           0
           0           0           0           0           0           0
           0           0           0           0           0           0
           0           0           0           0           0           0
           0           0           0           0
Num RLSW                                   I               52
RLSW                                       R   N=          52
  1.00000000E+00  1.00000000E+00  1.00000000E+00  1.00000000E+00  1.00000000E+00
  0.00000000E+00  0.00000000E+00  1.00000000E+00  0.00000000E+00  0.00000000E+00
  0.00000000E+00  0.00000000E+00  1.00000000E+00  0.00000000E+00  0.00000000E+00
  0.00000000E+00  0.00000000E+00  1.00000000E+00  0.00000000E+00  0.00000000E+00
  0.00000000E+00  0.00000000E+00  1.00000000E+00  0.00000000E+00  0.00000000E+00
  0.00000000E+00  0.00000000E+00  1.00000000E+00  0.00000000E+00  0.00000000E+00
  0.00000000E+00  0.00000000E+00  1.00000000E+00  0.00000000E+00  0.00000000E+00
  0.00000000E+00  0.00000000E+00  0.00000000E+00  1.00000000E+00  1.00000000E+00
  0.00000000E+00  1.00000000E+00  0.00000000E+00  0.00000000E+00  0.00000000E+00
  0.00000000E+00  0.00000000E+00  0.00000000E+00  0.00000000E+00  0.00000000E+00
  0.00000000E+00  0.00000000E+00
MxBond                                     I                2
NBond                                      I   N=           5
           1           2           2           2           1
IBond                                      I   N=          10
           2           0           1           3           2           4
           3           5           4           0
RBond                                      R   N=          10
  1.00000000E+00  0.00000000E+00  1.00000000E+00  1.00000000E+00  1.00000000E+00
  1.00000000E+00  1.00000000E+00  2.00000000E+00  2.00000000E+00  0.00000000E+00
Virial Ratio                               R      2.002443503700462E+00
SCF Energy                                 R     -2.795008352132689E+02
MP2 Energy                                 R     -2.804465581986840E+02
Total Energy                               R     -2.804465581986840E+02
Post-SCF wavefunction norm                 R      1.584583104552535E+00
RMS Force                                  R      4.725263304180450E-03
RMS Density                                R      3.793096754661958E-09
NImag                                      I                0
Job Status                                 I                1
Nuclear derivative order                   I                2
External E-field                           R   N=          35
  0.00000000E+00  0.00000000E+00  0.00000000E+00  0.00000000E+00  0.00000000E+00
  0.00000000E+00  0.00000000E+00  0.00000000E+00  0.00000000E+00  0.00000000E+00
  0.00000000E+00  0.00000000E+00  0.00000000E+00  0.00000000E+00  0.00000000E+00
  0.00000000E+00  0.00000000E+00  0.00000000E+00  0.00000000E+00  0.00000000E+00
  0.00000000E+00  0.00000000E+00  0.00000000E+00  0.00000000E+00  0.00000000E+00
  0.00000000E+00  0.00000000E+00  0.00000000E+00  0.00000000E+00  0.00000000E+00
  0.00000000E+00  0.00000000E+00  0.00000000E+00  0.00000000E+00  0.00000000E+00
IOpCl                                      I                0
IROHF                                      I                0
Alpha Orbital Energies                     R   N=         207
 -2.06905077E+01 -2.06840268E+01 -2.06610601E+01 -1.58125443E+01 -1.62370745E+00
 -1.49405021E+00 -1.25169544E+00 -9.47742883E-01 -7.71685476E-01 -7.58022347E-01
 -7.11463943E-01 -6.77177368E-01 -6.20040101E-01 -5.88749551E-01 -4.84745764E-01
 -4.72116462E-01  2.93546212E-02  7.18887042E-02  8.60052861E-02  1.01754666E-01
  1.33959838E-01  1.34061048E-01  1.43453714E-01  1.54019772E-01  1.78452211E-01
  1.94212229E-01  1.99853374E-01  2.06357824E-01  2.20862543E-01  2.35810814E-01
  2.37511079E-01  2.65683097E-01  2.93149723E-01  3.03268454E-01  3.09933005E-01
  3.43552918E-01  3.50499631E-01  3.86980144E-01  4.20023280E-01  4.30065461E-01
  5.27447289E-01  5.29431737E-01  5.58556322E-01  5.81865732E-01  6.26118694E-01
  6.38320820E-01  6.74648612E-01  6.83143848E-01  7.06445145E-01  7.10541897E-01
  7.23010929E-01  7.29422354E-01  7.44408351E-01  7.91888176E-01  7.91929401E-01
  8.10124703E-01  8.12884152E-01  8.30403749E-01  8.68435756E-01  9.08291819E-01
  9.21550133E-01  9.26092515E-01  9.55372637E-01  9.79131103E-01  9.82693476E-01
  1.01396492E+00  1.05262730E+00  1.05483697E+00  1.08109227E+00  1.11555351E+00
  1.13951975E+00  1.18994725E+00  1.21988734E+00  1.22994421E+00  1.33925246E+00
  1.35126893E+00  1.38643270E+00  1.44960881E+00  1.48381487E+00  1.50666705E+00
  1.53843400E+00  1.56687352E+00  1.58061278E+00  1.61176110E+00  1.66518378E+00
  1.67071817E+00  1.70317319E+00  1.79251459E+00  1.83088772E+00  1.83504867E+00
  1.87876165E+00  1.90817732E+00  1.94829780E+00  1.99167291E+00  2.00354843E+00
  2.07759071E+00  2.11919687E+00  2.13219320E+00  2.15036471E+00  2.22367734E+00
  2.26371467E+00  2.26607933E+00  2.28955642E+00  2.31300680E+00  2.34302764E+00
  2.38375481E+00  2.42438442E+00  2.42761389E+00  2.45425655E+00  2.46257538E+00
  2.47600746E+00  2.50035401E+00  2.59416380E+00  2.59604343E+00  2.62145859E+00
  2.62337226E+00  2.63504562E+00  2.67032692E+00  2.75734510E+00  2.82997039E+00
  2.85520577E+00  2.88355147E+00  2.89468075E+00  2.92278512E+00  2.95817790E+00
  3.02260022E+00  3.06726427E+00  3.12395547E+00  3.20497196E+00  3.22561318E+00
  3.31478411E+00  3.34030863E+00  3.51762663E+00  3.63728507E+00  3.82933242E+00
  3.83826129E+00  4.13622224E+00  4.15802857E+00  4.18087272E+00  4.25625031E+00
  4.33957570E+00  4.39000828E+00  4.45908705E+00  4.51375173E+00  4.66045748E+00
  4.70490964E+00  4.79780623E+00  4.80839105E+00  4.82588983E+00  4.89552459E+00
  5.02332209E+00  5.07743701E+00  5.08816574E+00  5.13337374E+00  5.17182191E+00
  5.22659090E+00  5.26051999E+00  5.30260607E+00  5.30604128E+00  5.35232457E+00
  5.59936117E+00  5.67370265E+00  5.76575281E+00  5.82204026E+00  5.95597984E+00
  6.17184670E+00  6.30844620E+00  6.34096073E+00  6.39130307E+00  6.49364422E+00
  6.50540628E+00  6.61159874E+00  6.66937655E+00  6.69927668E+00  6.75841652E+00
  6.76378098E+00  6.83232337E+00  6.89841179E+00  7.00415104E+00  7.05448550E+00
  7.05530340E+00  7.08788397E+00  7.12061223E+00  7.14671612E+00  7.17848309E+00
  7.22154879E+00  7.22280049E+00  7.29360763E+00  7.32517961E+00  7.34447673E+00
  7.39999509E+00  7.42889900E+00  7.48459265E+00  7.60693627E+00  7.61550408E+00
  7.62434853E+00  7.66198491E+00  7.77561139E+00  7.88681827E+00  8.08607915E+00
  8.30922833E+00  8.39207557E+00  8.53983629E+00  1.33869428E+01  1.43726909E+01
  1.49700864E+01  1.61526322E+01
Alpha MO coefficients                      R   N=       42849
  9.03690707E-05 -6.34223252E-04 -7.18534160E-04 -4.26878646E-06 -2.26948654E-05
 -2.81192346E-05  0.00000000E+00 -1.50941845E-05  7.48705921E-05  0.00000000E+00
  1.07032711E-04  4.18460630E-05  0.00000000E+00  3.15151199E-05  0.00000000E+00
  0.00000000E+00 -4.82177563E-05  1.80098678E-05 -2.41840372E-06  0.00000000E+00
  0.00000000E+00 -1.35929459E-04  1.01359779E-04  4.81519105E-03 -2.78862185E-04
  2.49671418E-05  1.56104531E-03  1.80895102E-03  1.05888488E-04  7.64728012E-06
  0.00000000E+00 -6.16619840E-04 -2.93089169E-05  0.00000000E+00 -1.14129876E-03
  7.81633212E-04  0.00000000E+00 -4.09302004E-04  5.11226617E-05  0.00000000E+00
  2.83907064E-05  0.00000000E+00  0.00000000E+00 -5.41367226E-05  6.62591234E-06
 -3.77354600E-04  0.00000000E+00  0.00000000E+00  7.35528236E-04 -3.81002081E-05
 -4.46927653E-04  0.00000000E+00  0.00000000E+00  2.44891356E-04 -2.72039046E-05
  0.00000000E+00  7.95974162E-05  1.24978245E-05  0.00000000E+00  0.00000000E+00
 -1.09908610E-04 -3.70026536E-06  0.00000000E+00  2.57172779E-04 -2.62232856E-05
  0.00000000E+00  0.00000000E+00 -3.46714900E-04  4.69177448E-05  9.76910262E-01
 -9.21465097E-03  4.33178197E-02  2.03068356E-03 -9.15249242E-04  1.49285898E-03
 -1.35557410E-03  0.00000000E+00 -1.43338979E-03  1.38433854E-03  0.00000000E+00
  7.91960660E-05 -1.16001058E-03  0.00000000E+00 -1.23122424E-04  4.05004126E-07
  0.00000000E+00  4.61840391E-05  0.00000000E+00  0.00000000E+00 -3.52090823E-05
  2.11407414E-05  7.46716289E-04  0.00000000E+00  0.00000000E+00 -2.30311543E-04
 -3.89432561E-04 -3.60002571E-04  0.00000000E+00  0.00000000E+00 -3.12059578E-04
 -3.73754186E-04  0.00000000E+00  4.74223103E-05 -4.88134644E-05  0.00000000E+00
  0.00000000E+00 -3.88263440E-05 -1.58357077E-05  0.00000000E+00  2.27534532E-05
  2.12445611E-05  0.00000000E+00  0.00000000E+00 -3.04387448E-04 -1.38772326E-04
  3.91014284E-05  4.58285348E-05 -2.64715205E-04 -7.06573440E-04 -1.45389864E-04
 -2.73044247E-05 -9.75841032E-05  0.00000000E+00  2.73650040E-04  7.10845923E-04
  0.00000000E+00 -8.40044243E-04 -4.82458874E-04  0.00000000E+00 -1.31306748E-04
 -2.88988847E-05  0.00000000E+00 -1.81033957E-05  0.00000000E+00  0.00000000E+00
 -2.96889793E-05  1.52249195E-05 -3.28679961E-04  0.00000000E+00  0.00000000E+00
 -8.29676374E-04  1.28087063E-04 -3.50620002E-05  0.00000000E+00  0.00000000E+00
  9.57630383E-05 -1.18180378E-04  0.00000000E+00 -2.10570894E-05 -1.20320193E-04
  0.00000000E+00  0.00000000E+00 -6.25638565E-05 -1.37411533E-04  0.00000000E+00
  4.56699011E-06 -1.51753839E-04  0.00000000E+00  0.00000000E+00  4.47507202E-05
 -4.20812618E-04 -2.61767003E-03  1.21567855E-04 -1.25529081E-04 -2.42296811E-04
  1.42414708E-04 -8.18890166E-06 -2.79689230E-05  0.00000000E+00  7.01363020E-05
  1.64932808E-04  0.00000000E+00  2.36301972E-04  2.02870243E-04  0.00000000E+00
  1.29104762E-04  2.71090538E-05  0.00000000E+00 -3.39168968E-06  0.00000000E+00
  0.00000000E+00 -1.79240059E-05  1.13547792E-06  4.82566151E-07  0.00000000E+00
  0.00000000E+00  8.12241967E-05  8.86868580E-05 -1.00779139E-04  0.00000000E+00
  0.00000000E+00  1.67356441E-04  1.62963706E-04  0.00000000E+00  1.57548371E-05
 -3.52736518E-06  0.00000000E+00  0.00000000E+00 -4.22920992E-06 -1.19393797E-05
  0.00000000E+00 -3.35340595E-05  4.53475921E-05  0.00000000E+00  0.00000000E+00
  8.40240706E-05  9.02580041E-05  3.96871668E-05 -9.59506032E-04 -4.65168220E-04
 -1.03119905E-05 -2.17397354E-05  1.44426148E-05  0.00000000E+00  3.38432756E-06
  2.74790525E-04  0.00000000E+00 -4.02396434E-05  1.31046480E-04  0.00000000E+00
  2.56614734E-05  0.00000000E+00  0.00000000E+00  1.30483059E-05  1.10417329E-05
 -2.59321607E-05  0.00000000E+00  0.00000000E+00  1.22323926E-05  3.27034906E-05
  1.17658671E-04  8.18859811E-05 -2.82176654E-05  7.22343442E-04  6.31344596E-04
  1.02562843E-05  2.50068014E-06  0.00000000E+00 -7.36939925E-05  1.30213868E-05
  0.00000000E+00  3.28558747E-04  8.84044192E-04  0.00000000E+00  4.54818214E-06
  7.91620370E-05  0.00000000E+00 -2.21299002E-06  0.00000000E+00  0.00000000E+00
  1.62750552E-07 -6.02694937E-06 -3.54135807E-05  0.00000000E+00  0.00000000E+00
 -2.04905622E-05  8.21489767E-05 -2.24055473E-05  0.00000000E+00  0.00000000E+00
 -2.65296177E-04 -1.62079328E-04  0.00000000E+00  9.21303818E-06  6.05253017E-06
  0.00000000E+00  0.00000000E+00  2.80474786E-06 -1.88313427E-05  0.00000000E+00
 -4.01868463E-05 -3.83200519E-05  0.00000000E+00  0.00000000E+00 -7.59556220E-05
  1.87319344E-05  2.65650973E-03  3.92041520E-05  9.29153819E-05 -6.90953918E-05
 -4.66871370E-04  7.25773383E-06  1.56926421E-05  0.00000000E+00 -6.16661025E-05
 -5.51730184E-05  0.00000000E+00  2.36029667E-04 -1.86478697E-04  0.00000000E+00
 -1.86604313E-04 -6.32339346E-05  0.00000000E+00 -8.72037284E-06  0.00000000E+00
  0.00000000E+00  2.23896584E-05  1.97568647E-05  4.33344361E-06  0.00000000E+00
  0.00000000E+00 -1.17192705E-04 -4.63115166E-05 -4.39379538E-06  0.00000000E+00
  0.00000000E+00 -2.21222864E-04 -2.05671399E-04  0.00000000E+00  3.21481421E-06
 -5.61044255E-07  0.00000000E+00  0.00000000E+00  1.71842823E-06 -1.35307863E-05
  0.00000000E+00 -4.63237548E-05  3.59809531E-06  0.00000000E+00  0.00000000E+00
 -7.61065557E-05  1.87851856E-04  2.58675706E-04  1.46506679E-03 -7.81025779E-05
 -1.53913853E-03  4.02325520E-04 -1.44548547E-04  1.29192819E-07  0.00000000E+00
 -2.08858116E-03 -4.03509088E-04  0.00000000E+00  1.03549185E-03  7.62512850E-04
  0.00000000E+00 -1.69839241E-04  5.79039715E-05  0.00000000E+00 -1.23345531E-04
  0.00000000E+00  0.00000000E+00  2.43078879E-04  9.40494364E-05 -4.42090835E-04
  0.00000000E+00  0.00000000E+00  8.98821003E-04 -6.62810228E-05  1.16861066E-05
  0.00000000E+00  0.00000000E+00 -3.38279359E-04 -1.23928200E-04  0.00000000E+00
 -1.36312194E-06  1.52738011E-05  0.00000000E+00  0.00000000E+00  1.89018508E-05
  1.34618112E-05  0.00000000E+00  1.64847801E-04 -7.16548620E-05  0.00000000E+00
  0.00000000E+00 -2.40840305E-04  4.14385780E-05  9.76649070E-01 -9.84825365E-03
  4.35681106E-02  4.50006898E-03 -4.47097369E-04  2.14801456E-03  4.80558614E-04
  0.00000000E+00 -2.38382136E-03 -6.03124418E-04  0.00000000E+00  1.13955351E-03
 -4.33172576E-06  0.00000000E+00  4.13677672E-06 -4.33476069E-05  0.00000000E+00
 -2.32317534E-04  0.00000000E+00  0.00000000E+00  1.02711265E-04  3.18293045E-05
  3.90473065E-04  0.00000000E+00  0.00000000E+00 -8.33954457E-04 -4.18894898E-04
 -1.53893251E-04  0.00000000E+00  0.00000000E+00  2.56506762E-04  1.66224587E-05
  0.00000000E+00  5.22718481E-05  1.76720542E-05  0.00000000E+00  0.00000000E+00
 -2.21035851E-05 -1.32722439E-05  0.00000000E+00  1.38180928E-04  9.32217423E-06
  0.00000000E+00  0.00000000E+00 -1.89648712E-04 -1.40620856E-04  4.42003817E-04
  2.35938397E-03  3.05570600E-04  2.34066666E-05 -4.18079263E-05 -2.85321081E-04
  0.00000000E+00  9.71002816E-05 -1.42432402E-03  0.00000000E+00  3.02675879E-04
 -3.91769501E-04  0.00000000E+00 -3.17545828E-05  0.00000000E+00  0.00000000E+00
  2.41684140E-05  2.13781785E-05 -1.67827338E-04  0.00000000E+00  0.00000000E+00
 -5.47774066E-04 -2.39851488E-05  9.76836165E-01 -9.19747277E-03  4.34366169E-02
 -7.00873995E-05 -1.29882991E-03 -1.56310012E-03  1.44171081E-03  0.00000000E+00
  1.56511466E-03 -1.37708710E-03  0.00000000E+00 -6.24857979E-04 -1.04802872E-03
  0.00000000E+00  6.41663863E-05 -5.37302176E-05  0.00000000E+00  3.66230387E-05
  0.00000000E+00  0.00000000E+00 -1.07511449E-04 -3.92227520E-06  7.79926743E-04
  0.00000000E+00  0.00000000E+00 -1.59131949E-04 -2.48800825E-04 -2.50178728E-04
  0.00000000E+00  0.00000000E+00  2.12074751E-04  1.21479352E-04  0.00000000E+00
 -6.32359791E-05  9.79087935E-06  0.00000000E+00  0.00000000E+00  2.29963152E-05