 Entering Gaussian System, Link 0=g16
 Input=hoono_r2_1p433623.gjf
 Output=hoono_r2_1p433623.log
 Initial command:
 /sw/contrib/gaussian/g16/B01/g16/l1.exe "/scr/Gau-19976.inp" -scrdir="/scr/"
 Entering Link 1 = /sw/contrib/gaussian/g16/B01/g16/l1.exe PID=     19977.
  
 Copyright (c) 1988-2017, Gaussian, Inc.  All Rights Reserved.
  
 This is part of the Gaussian(R) 16 program.  It is based on
 the Gaussian(R) 09 system (copyright 2009, Gaussian, Inc.),
 the Gaussian(R) 03 system (copyright 2003, Gaussian, Inc.),
 the Gaussian(R) 98 system (copyright 1998, Gaussian, Inc.),
 the Gaussian(R) 94 system (copyright 1995, Gaussian, Inc.),
 the Gaussian 92(TM) system (copyright 1992, Gaussian, Inc.),
 the Gaussian 90(TM) system (copyright 1990, Gaussian, Inc.),
 the Gaussian 88(TM) system (copyright 1988, Gaussian, Inc.),
 the Gaussian 86(TM) system (copyright 1986, Carnegie Mellon
 University), and the Gaussian 82(TM) system (copyright 1983,
 Carnegie Mellon University). Gaussian is a federally registered
 trademark of Gaussian, Inc.
  
 This software contains proprietary and confidential information,
 including trade secrets, belonging to Gaussian, Inc.
  
 This software is provided under written license and may be
 used, copied, transmitted, or stored only in accord with that
 written license.
  
 The following legend is applicable only to US Government
 contracts under FAR:
  
                    RESTRICTED RIGHTS LEGEND
  
 Use, reproduction and disclosure by the US Government is
 subject to restrictions as set forth in subparagraphs (a)
 and (c) of the Commercial Computer Software - Restricted
 Rights clause in FAR 52.227-19.
  
 Gaussian, Inc.
 340 Quinnipiac St., Bldg. 40, Wallingford CT 06492
  
  
 ---------------------------------------------------------------
 Warning -- This program may not be used in any manner that
 competes with the business of Gaussian, Inc. or will provide
 assistance to any competitor of Gaussian, Inc.  The licensee
 of this program is prohibited from giving any competitor of
 Gaussian, Inc. access to this program.  By using this program,
 the user acknowledges that Gaussian, Inc. is engaged in the
 business of creating and licensing software in the field of
 computational chemistry and represents and warrants to the
 licensee that it is not a competitor of Gaussian, Inc. and that
 it will not use this program in any manner prohibited above.
 ---------------------------------------------------------------
  

 Cite this work as:
 Gaussian 16, Revision B.01,
 M. J. Frisch, G. W. Trucks, H. B. Schlegel, G. E. Scuseria, 
 M. A. Robb, J. R. Cheeseman, G. Scalmani, V. Barone, 
 G. A. Petersson, H. Nakatsuji, X. Li, M. Caricato, A. V. Marenich, 
 J. Bloino, B. G. Janesko, R. Gomperts, B. Mennucci, H. P. Hratchian, 
 J. V. Ortiz, A. F. Izmaylov, J. L. Sonnenberg, D. Williams-Young, 
 F. Ding, F. Lipparini, F. Egidi, J. Goings, B. Peng, A. Petrone, 
 T. Henderson, D. Ranasinghe, V. G. Zakrzewski, J. Gao, N. Rega, 
 G. Zheng, W. Liang, M. Hada, M. Ehara, K. Toyota, R. Fukuda, 
 J. Hasegawa, M. Ishida, T. Nakajima, Y. Honda, O. Kitao, H. Nakai, 
 T. Vreven, K. Throssell, J. A. Montgomery, Jr., J. E. Peralta, 
 F. Ogliaro, M. J. Bearpark, J. J. Heyd, E. N. Brothers, K. N. Kudin, 
 V. N. Staroverov, T. A. Keith, R. Kobayashi, J. Normand, 
 K. Raghavachari, A. P. Rendell, J. C. Burant, S. S. Iyengar, 
 J. Tomasi, M. Cossi, J. M. Millam, M. Klene, C. Adamo, R. Cammi, 
 J. W. Ochterski, R. L. Martin, K. Morokuma, O. Farkas, 
 J. B. Foresman, and D. J. Fox, Gaussian, Inc., Wallingford CT, 2016.
 
 ******************************************
 Gaussian 16:  ES64L-G16RevB.01 20-Dec-2017
                21-Feb-2022 
 ******************************************
 %nproc=28
 Will use up to   28 processors via shared memory.
 %mem=120GB
 %chk=hoono_r2_1p433623.chk
 ---------------------------------------
 #p freq mp2/aug-cc-pvtz density=current
 ---------------------------------------
 1/10=4,30=1,38=1/1,3;
 2/12=2,17=6,18=5,40=1/2;
 3/5=16,6=1,7=10,11=9,25=1,30=1,71=2,140=1/1,2,3;
 4//1;
 5/5=2,38=5,98=1/2;
 8/6=3,8=1,10=1,19=11,30=-1/1;
 9/15=3,16=-3/6;
 11/6=1,8=1,15=11,17=12,24=-1,27=1,28=-2,29=300,32=6,42=3/1,2,10;
 10/6=2,21=1/2;
 8/6=4,8=1,10=1,19=11,30=-1/11,4;
 10/5=1,20=4/2;
 11/12=2,14=11,16=1,17=2,28=-2,42=3,76=2/2,10,12;
 6/7=2,8=2,9=2,10=2,22=-1/1;
 7/8=1,10=1,12=2,25=1,44=2/1,2,3,16;
 1/10=4,30=1/3;
 99//99;
 Leave Link    1 at Mon Feb 21 20:12:07 2022, MaxMem= 16106127360 cpu:               3.9 elap:               0.2
 (Enter /sw/contrib/gaussian/g16/B01/g16/l101.exe)
 -----
 title
 -----
 Symbolic Z-matrix:
 Charge =  0 Multiplicity = 1
 H
 O                    1    r1
 O                    2    r2       1    a1
 N                    3    r3       2    a2       1    d1       0
 O                    4    r4       3    a3       2    d2       0
       Variables:
  r1                    0.96898                  
  r2                    1.43362                  
  r3                    1.45878                  
  r4                    1.17073                  
  a1                   97.59495                  
  a2                  102.29752                  
  a3                  109.06955                  
  d1                  180.                       
  d2                  180.                       
 
 ITRead=  0  0  0  0  0
 MicOpt= -1 -1 -1 -1 -1
 NAtoms=      5 NQM=        5 NQMF=       0 NMMI=      0 NMMIF=      0
                NMic=       0 NMicF=      0.
                    Isotopes and Nuclear Properties:
 (Nuclear quadrupole moments (NQMom) in fm**2, nuclear magnetic moments (NMagM)
  in nuclear magnetons)

  Atom         1           2           3           4           5
 IAtWgt=           1          16          16          14          16
 AtmWgt=   1.0078250  15.9949146  15.9949146  14.0030740  15.9949146
 NucSpn=           1           0           0           2           0
 AtZEff=  -0.0000000  -0.0000000  -0.0000000  -0.0000000  -0.0000000
 NQMom=    0.0000000   0.0000000   0.0000000   2.0440000   0.0000000
 NMagM=    2.7928460   0.0000000   0.0000000   0.4037610   0.0000000
 AtZNuc=   1.0000000   8.0000000   8.0000000   7.0000000   8.0000000
 Leave Link  101 at Mon Feb 21 20:12:07 2022, MaxMem= 16106127360 cpu:               2.6 elap:               0.1
 (Enter /sw/contrib/gaussian/g16/B01/g16/l103.exe)

 GradGradGradGradGradGradGradGradGradGradGradGradGradGradGradGradGradGrad
 Berny optimization.
 Initialization pass.
                       ----------------------------
                       !    Initial Parameters    !
                       ! (Angstroms and Degrees)  !
 ----------------------                            ----------------------
 !      Name          Value   Derivative information (Atomic Units)     !
 ------------------------------------------------------------------------
 !       r1          0.969    calculate D2E/DX2 analytically            !
 !       r2          1.4336   calculate D2E/DX2 analytically            !
 !       r3          1.4588   calculate D2E/DX2 analytically            !
 !       r4          1.1707   calculate D2E/DX2 analytically            !
 !       a1         97.5949   calculate D2E/DX2 analytically            !
 !       a2        102.2975   calculate D2E/DX2 analytically            !
 !       a3        109.0696   calculate D2E/DX2 analytically            !
 !       d1        180.0      calculate D2E/DX2 analytically            !
 !       d2        180.0      calculate D2E/DX2 analytically            !
 ------------------------------------------------------------------------
 Trust Radius=3.00D-01 FncErr=1.00D-07 GrdErr=1.00D-07 EigMax=2.50D+02 EigMin=1.00D-04
 Number of steps in this run=      2 maximum allowed number of steps=      2.
 GradGradGradGradGradGradGradGradGradGradGradGradGradGradGradGradGradGrad

 Leave Link  103 at Mon Feb 21 20:12:07 2022, MaxMem= 16106127360 cpu:               0.4 elap:               0.0
 (Enter /sw/contrib/gaussian/g16/B01/g16/l202.exe)
                          Input orientation:                          
 ---------------------------------------------------------------------
 Center     Atomic      Atomic             Coordinates (Angstroms)
 Number     Number       Type             X           Y           Z
 ---------------------------------------------------------------------
      1          1           0        0.000000    0.000000    0.000000
      2          8           0        0.000000    0.000000    0.968976
      3          8           0        1.421046    0.000000    1.158456
      4          7           0        1.540642    0.000000    2.612329
      5          8           0        2.674758    0.000000    2.902824
 ---------------------------------------------------------------------
                    Distance matrix (angstroms):
                    1          2          3          4          5
     1  H    0.000000
     2  O    0.968976   0.000000
     3  O    1.833410   1.433623   0.000000
     4  N    3.032795   2.252596   1.458784   0.000000
     5  O    3.947242   3.300621   2.148165   1.170729   0.000000
 Stoichiometry    HNO3
 Framework group  CS[SG(HNO3)]
 Deg. of freedom     7
 Full point group                 CS      NOp   2
 Largest Abelian subgroup         CS      NOp   2
 Largest concise Abelian subgroup C1      NOp   1
                         Standard orientation:                         
 ---------------------------------------------------------------------
 Center     Atomic      Atomic             Coordinates (Angstroms)
 Number     Number       Type             X           Y           Z
 ---------------------------------------------------------------------
      1          1           0        1.518757    1.700262    0.000000
      2          8           0        1.432286    0.735152    0.000000
      3          8           0       -0.000000    0.673241    0.000000
      4          7           0       -0.248862   -0.764159   -0.000000
      5          8           0       -1.404376   -0.952287   -0.000000
 ---------------------------------------------------------------------
 Rotational constants (GHZ):          55.4829027           5.0613687           4.6382493
 Leave Link  202 at Mon Feb 21 20:12:08 2022, MaxMem= 16106127360 cpu:               0.3 elap:               0.0
 (Enter /sw/contrib/gaussian/g16/B01/g16/l301.exe)
 Standard basis: Aug-CC-pVTZ (5D, 7F)
 Ernie: Thresh=  0.10000D-02 Tol=  0.10000D-05 Strict=F.
 Ernie:  12 primitive shells out of 131 were deleted.
 There are   166 symmetry adapted cartesian basis functions of A'  symmetry.
 There are    79 symmetry adapted cartesian basis functions of A"  symmetry.
 There are   136 symmetry adapted basis functions of A'  symmetry.
 There are    71 symmetry adapted basis functions of A"  symmetry.
   207 basis functions,   315 primitive gaussians,   245 cartesian basis functions
    16 alpha electrons       16 beta electrons
       nuclear repulsion energy       117.4040546946 Hartrees.
 IExCor=    0 DFT=F Ex=HF Corr=None ExCW=0 ScaHFX=  1.000000
 ScaDFX=  1.000000  1.000000  1.000000  1.000000 ScalE2=  1.000000  1.000000
 IRadAn=      5 IRanWt=     -1 IRanGd=            0 ICorTp=0 IEmpDi=  4
 NAtoms=    5 NActive=    5 NUniq=    5 SFac= 1.00D+00 NAtFMM=   60 NAOKFM=F Big=F
 Integral buffers will be    131072 words long.
 Raffenetti 1 integral format.
 Two-electron integral symmetry is turned on.
 Leave Link  301 at Mon Feb 21 20:12:08 2022, MaxMem= 16106127360 cpu:               2.3 elap:               0.1
 (Enter /sw/contrib/gaussian/g16/B01/g16/l302.exe)
 NPDir=0 NMtPBC=     1 NCelOv=     1 NCel=       1 NClECP=     1 NCelD=      1
         NCelK=      1 NCelE2=     1 NClLst=     1 CellRange=     0.0.
 One-electron integrals computed using PRISM.
 One-electron integral symmetry used in STVInt
 NBasis=   207 RedAO= T EigKep=  1.79D-04  NBF=   136    71
 NBsUse=   207 1.00D-06 EigRej= -1.00D+00 NBFU=   136    71
 Leave Link  302 at Mon Feb 21 20:12:08 2022, MaxMem= 16106127360 cpu:               4.4 elap:               0.2
 (Enter /sw/contrib/gaussian/g16/B01/g16/l303.exe)
 DipDrv:  MaxL=1.
 Leave Link  303 at Mon Feb 21 20:12:08 2022, MaxMem= 16106127360 cpu:               1.9 elap:               0.1
 (Enter /sw/contrib/gaussian/g16/B01/g16/l401.exe)
 ExpMin= 2.53D-02 ExpMax= 1.53D+04 ExpMxC= 5.22D+02 IAcc=3 IRadAn=         5 AccDes= 0.00D+00
 Harris functional with IExCor=  205 and IRadAn=       5 diagonalized for initial guess.
 HarFok:  IExCor=  205 AccDes= 0.00D+00 IRadAn=         5 IDoV= 1 UseB2=F ITyADJ=14
 ICtDFT=  3500011 ScaDFX=  1.000000  1.000000  1.000000  1.000000
 FoFCou: FMM=F IPFlag=           0 FMFlag=      100000 FMFlg1=           0
         NFxFlg=           0 DoJE=T BraDBF=F KetDBF=T FulRan=T
         wScrn=  0.000000 ICntrl=       500 IOpCl=  0 I1Cent=   200000004 NGrid=           0
         NMat0=    1 NMatS0=      1 NMatT0=    0 NMatD0=    1 NMtDS0=    0 NMtDT0=    0
 Petite list used in FoFCou.
 Harris En= -279.629383762714    
 JPrj=0 DoOrth=F DoCkMO=F.
 Initial guess orbital symmetries:
       Occupied  (A') (A') (A') (A') (A') (A') (A') (A') (A') (A')
                 (A") (A') (A") (A') (A") (A')
       Virtual   (A") (A') (A') (A') (A') (A') (A") (A') (A') (A')
                 (A") (A') (A") (A') (A') (A") (A') (A") (A') (A')
                 (A') (A') (A') (A') (A') (A") (A') (A") (A') (A')
                 (A") (A') (A") (A') (A') (A") (A') (A") (A') (A')
                 (A") (A') (A") (A') (A") (A') (A') (A') (A") (A")
                 (A') (A') (A') (A') (A") (A') (A") (A') (A") (A')
                 (A') (A') (A") (A') (A') (A") (A') (A") (A') (A')
                 (A") (A') (A') (A") (A") (A') (A') (A") (A') (A')
                 (A') (A") (A') (A") (A") (A') (A') (A") (A') (A')
                 (A') (A") (A') (A") (A') (A") (A") (A') (A') (A")
                 (A') (A') (A") (A') (A') (A') (A') (A") (A") (A')
                 (A") (A') (A') (A') (A') (A") (A') (A') (A") (A')
                 (A") (A') (A') (A") (A') (A") (A') (A") (A") (A')
                 (A') (A') (A') (A") (A") (A') (A") (A') (A') (A')
                 (A') (A") (A") (A') (A') (A") (A') (A') (A') (A')
                 (A") (A') (A') (A") (A') (A") (A') (A") (A') (A")
                 (A') (A") (A') (A") (A') (A") (A") (A") (A') (A')
                 (A") (A') (A") (A') (A") (A') (A") (A") (A') (A')
                 (A') (A') (A') (A') (A') (A') (A') (A') (A') (A')
                 (A')
 The electronic state of the initial guess is 1-A'.
 Leave Link  401 at Mon Feb 21 20:12:08 2022, MaxMem= 16106127360 cpu:               6.8 elap:               0.3
 (Enter /sw/contrib/gaussian/g16/B01/g16/l502.exe)
 Keep R1 ints in memory in symmetry-blocked form, NReq=348887737.
 FoFCou: FMM=F IPFlag=           0 FMFlag=           0 FMFlg1=           0
         NFxFlg=           0 DoJE=F BraDBF=F KetDBF=F FulRan=T
         wScrn=  0.000000 ICntrl=       600 IOpCl=  0 I1Cent=           0 NGrid=           0
         NMat0=    1 NMatS0=  21528 NMatT0=    0 NMatD0=    1 NMtDS0=    0 NMtDT0=    0
 Petite list used in FoFCou.
 Closed shell SCF:
 Using DIIS extrapolation, IDIIS=  1040.
 NGot= 16106127360 LenX= 15988850015 LenY= 15988789549
 Requested convergence on RMS density matrix=1.00D-08 within 128 cycles.
 Requested convergence on MAX density matrix=1.00D-06.
 Requested convergence on             energy=1.00D-06.
 No special actions if energy rises.

 Cycle   1  Pass 1  IDiag  1:
 E= -279.372477724313    
 DIIS: error= 2.45D-02 at cycle   1 NSaved=   1.
 NSaved= 1 IEnMin= 1 EnMin= -279.372477724313     IErMin= 1 ErrMin= 2.45D-02
 ErrMax= 2.45D-02  0.00D+00 EMaxC= 1.00D-01 BMatC= 4.39D-01 BMatP= 4.39D-01
 IDIUse=3 WtCom= 7.55D-01 WtEn= 2.45D-01
 Coeff-Com:  0.100D+01
 Coeff-En:   0.100D+01
 Coeff:      0.100D+01
 Gap=     0.509 Goal=   None    Shift=    0.000
 GapD=    0.509 DampG=2.000 DampE=0.500 DampFc=1.0000 IDamp=-1.
 RMSDP=1.62D-03 MaxDP=9.91D-02              OVMax= 1.12D-01

 Cycle   2  Pass 1  IDiag  1:
 E= -279.455049899784     Delta-E=       -0.082572175471 Rises=F Damp=F
 DIIS: error= 1.75D-02 at cycle   2 NSaved=   2.
 NSaved= 2 IEnMin= 2 EnMin= -279.455049899784     IErMin= 2 ErrMin= 1.75D-02
 ErrMax= 1.75D-02  0.00D+00 EMaxC= 1.00D-01 BMatC= 7.01D-02 BMatP= 4.39D-01
 IDIUse=3 WtCom= 8.25D-01 WtEn= 1.75D-01
 Coeff-Com:  0.192D+00 0.808D+00
 Coeff-En:   0.000D+00 0.100D+01
 Coeff:      0.158D+00 0.842D+00
 Gap=     0.527 Goal=   None    Shift=    0.000
 RMSDP=8.92D-04 MaxDP=3.75D-02 DE=-8.26D-02 OVMax= 6.81D-02

 Cycle   3  Pass 1  IDiag  1:
 E= -279.483587857126     Delta-E=       -0.028537957342 Rises=F Damp=F
 DIIS: error= 1.02D-02 at cycle   3 NSaved=   3.
 NSaved= 3 IEnMin= 3 EnMin= -279.483587857126     IErMin= 3 ErrMin= 1.02D-02
 ErrMax= 1.02D-02  0.00D+00 EMaxC= 1.00D-01 BMatC= 2.79D-02 BMatP= 7.01D-02
 IDIUse=3 WtCom= 8.98D-01 WtEn= 1.02D-01
 Coeff-Com: -0.327D-01 0.377D+00 0.655D+00
 Coeff-En:   0.000D+00 0.237D+00 0.763D+00
 Coeff:     -0.294D-01 0.363D+00 0.666D+00
 Gap=     0.509 Goal=   None    Shift=    0.000
 RMSDP=3.73D-04 MaxDP=1.58D-02 DE=-2.85D-02 OVMax= 3.77D-02

 Cycle   4  Pass 1  IDiag  1:
 E= -279.502100520723     Delta-E=       -0.018512663597 Rises=F Damp=F
 DIIS: error= 1.27D-03 at cycle   4 NSaved=   4.
 NSaved= 4 IEnMin= 4 EnMin= -279.502100520723     IErMin= 4 ErrMin= 1.27D-03
 ErrMax= 1.27D-03  0.00D+00 EMaxC= 1.00D-01 BMatC= 4.82D-04 BMatP= 2.79D-02
 IDIUse=3 WtCom= 9.87D-01 WtEn= 1.27D-02
 Coeff-Com: -0.114D-01 0.560D-01 0.156D+00 0.799D+00
 Coeff-En:   0.000D+00 0.000D+00 0.000D+00 0.100D+01
 Coeff:     -0.113D-01 0.553D-01 0.154D+00 0.802D+00
 Gap=     0.502 Goal=   None    Shift=    0.000
 RMSDP=9.04D-05 MaxDP=2.70D-03 DE=-1.85D-02 OVMax= 1.11D-02

 Cycle   5  Pass 1  IDiag  1:
 E= -279.502777780996     Delta-E=       -0.000677260273 Rises=F Damp=F
 DIIS: error= 7.27D-04 at cycle   5 NSaved=   5.
 NSaved= 5 IEnMin= 5 EnMin= -279.502777780996     IErMin= 5 ErrMin= 7.27D-04
 ErrMax= 7.27D-04  0.00D+00 EMaxC= 1.00D-01 BMatC= 8.68D-05 BMatP= 4.82D-04
 IDIUse=3 WtCom= 9.93D-01 WtEn= 7.27D-03
 Coeff-Com:  0.615D-02-0.728D-01-0.119D+00 0.139D-01 0.117D+01
 Coeff-En:   0.000D+00 0.000D+00 0.000D+00 0.000D+00 0.100D+01
 Coeff:      0.610D-02-0.723D-01-0.119D+00 0.138D-01 0.117D+01
 Gap=     0.501 Goal=   None    Shift=    0.000
 RMSDP=7.78D-05 MaxDP=2.14D-03 DE=-6.77D-04 OVMax= 1.14D-02

 Cycle   6  Pass 1  IDiag  1:
 E= -279.503099012566     Delta-E=       -0.000321231570 Rises=F Damp=F
 DIIS: error= 2.70D-04 at cycle   6 NSaved=   6.
 NSaved= 6 IEnMin= 6 EnMin= -279.503099012566     IErMin= 6 ErrMin= 2.70D-04
 ErrMax= 2.70D-04  0.00D+00 EMaxC= 1.00D-01 BMatC= 1.66D-05 BMatP= 8.68D-05
 IDIUse=3 WtCom= 9.97D-01 WtEn= 2.70D-03
 Coeff-Com:  0.393D-03 0.428D-02 0.918D-02-0.135D+00-0.266D+00 0.139D+01
 Coeff-En:   0.000D+00 0.000D+00 0.000D+00 0.000D+00 0.000D+00 0.100D+01
 Coeff:      0.392D-03 0.427D-02 0.916D-02-0.135D+00-0.265D+00 0.139D+01
 Gap=     0.502 Goal=   None    Shift=    0.000
 RMSDP=4.66D-05 MaxDP=1.26D-03 DE=-3.21D-04 OVMax= 5.78D-03

 Cycle   7  Pass 1  IDiag  1:
 E= -279.503173560870     Delta-E=       -0.000074548305 Rises=F Damp=F
 DIIS: error= 1.11D-04 at cycle   7 NSaved=   7.
 NSaved= 7 IEnMin= 7 EnMin= -279.503173560870     IErMin= 7 ErrMin= 1.11D-04
 ErrMax= 1.11D-04  0.00D+00 EMaxC= 1.00D-01 BMatC= 3.63D-06 BMatP= 1.66D-05
 IDIUse=3 WtCom= 9.99D-01 WtEn= 1.11D-03
 Coeff-Com: -0.946D-03 0.129D-01 0.256D-01-0.109D-01-0.255D+00 0.254D+00
 Coeff-Com:  0.974D+00
 Coeff-En:   0.000D+00 0.000D+00 0.000D+00 0.000D+00 0.000D+00 0.000D+00
 Coeff-En:   0.100D+01
 Coeff:     -0.945D-03 0.129D-01 0.255D-01-0.109D-01-0.254D+00 0.254D+00
 Coeff:      0.974D+00
 Gap=     0.502 Goal=   None    Shift=    0.000
 RMSDP=1.33D-05 MaxDP=3.83D-04 DE=-7.45D-05 OVMax= 1.58D-03

 Cycle   8  Pass 1  IDiag  1:
 E= -279.503181656916     Delta-E=       -0.000008096045 Rises=F Damp=F
 DIIS: error= 6.07D-05 at cycle   8 NSaved=   8.
 NSaved= 8 IEnMin= 8 EnMin= -279.503181656916     IErMin= 8 ErrMin= 6.07D-05
 ErrMax= 6.07D-05  0.00D+00 EMaxC= 1.00D-01 BMatC= 5.99D-07 BMatP= 3.63D-06
 IDIUse=1 WtCom= 1.00D+00 WtEn= 0.00D+00
 Coeff-Com: -0.444D-03 0.341D-02 0.759D-02 0.270D-01-0.397D-01-0.201D+00
 Coeff-Com:  0.275D+00 0.929D+00
 Coeff:     -0.444D-03 0.341D-02 0.759D-02 0.270D-01-0.397D-01-0.201D+00
 Coeff:      0.275D+00 0.929D+00
 Gap=     0.502 Goal=   None    Shift=    0.000
 RMSDP=6.05D-06 MaxDP=1.81D-04 DE=-8.10D-06 OVMax= 6.55D-04

 Cycle   9  Pass 1  IDiag  1:
 E= -279.503183146556     Delta-E=       -0.000001489640 Rises=F Damp=F
 DIIS: error= 1.58D-05 at cycle   9 NSaved=   9.
 NSaved= 9 IEnMin= 9 EnMin= -279.503183146556     IErMin= 9 ErrMin= 1.58D-05
 ErrMax= 1.58D-05  0.00D+00 EMaxC= 1.00D-01 BMatC= 7.42D-08 BMatP= 5.99D-07
 IDIUse=1 WtCom= 1.00D+00 WtEn= 0.00D+00
 Coeff-Com:  0.122D-03-0.172D-02-0.310D-02-0.222D-02 0.341D-01-0.133D-03
 Coeff-Com: -0.197D+00-0.407D-01 0.121D+01
 Coeff:      0.122D-03-0.172D-02-0.310D-02-0.222D-02 0.341D-01-0.133D-03
 Coeff:     -0.197D+00-0.407D-01 0.121D+01
 Gap=     0.502 Goal=   None    Shift=    0.000
 RMSDP=1.93D-06 MaxDP=6.65D-05 DE=-1.49D-06 OVMax= 1.77D-04

 Cycle  10  Pass 1  IDiag  1:
 E= -279.503183307094     Delta-E=       -0.000000160538 Rises=F Damp=F
 DIIS: error= 4.21D-06 at cycle  10 NSaved=  10.
 NSaved=10 IEnMin=10 EnMin= -279.503183307094     IErMin=10 ErrMin= 4.21D-06
 ErrMax= 4.21D-06  0.00D+00 EMaxC= 1.00D-01 BMatC= 5.56D-09 BMatP= 7.42D-08
 IDIUse=1 WtCom= 1.00D+00 WtEn= 0.00D+00
 Coeff-Com:  0.326D-04-0.262D-03-0.358D-03-0.275D-02 0.201D-02 0.201D-01
 Coeff-Com: -0.216D-01-0.696D-01-0.704D-01 0.114D+01
 Coeff:      0.326D-04-0.262D-03-0.358D-03-0.275D-02 0.201D-02 0.201D-01
 Coeff:     -0.216D-01-0.696D-01-0.704D-01 0.114D+01
 Gap=     0.502 Goal=   None    Shift=    0.000
 RMSDP=5.00D-07 MaxDP=2.08D-05 DE=-1.61D-07 OVMax= 4.25D-05

 Cycle  11  Pass 1  IDiag  1:
 E= -279.503183319559     Delta-E=       -0.000000012465 Rises=F Damp=F
 DIIS: error= 2.05D-06 at cycle  11 NSaved=  11.
 NSaved=11 IEnMin=11 EnMin= -279.503183319559     IErMin=11 ErrMin= 2.05D-06
 ErrMax= 2.05D-06  0.00D+00 EMaxC= 1.00D-01 BMatC= 6.77D-10 BMatP= 5.56D-09
 IDIUse=1 WtCom= 1.00D+00 WtEn= 0.00D+00
 Coeff-Com: -0.213D-04 0.245D-03 0.497D-03 0.565D-03-0.428D-02-0.388D-02
 Coeff-Com:  0.271D-01 0.223D-01-0.138D+00-0.178D+00 0.127D+01
 Coeff:     -0.213D-04 0.245D-03 0.497D-03 0.565D-03-0.428D-02-0.388D-02
 Coeff:      0.271D-01 0.223D-01-0.138D+00-0.178D+00 0.127D+01
 Gap=     0.502 Goal=   None    Shift=    0.000
 RMSDP=1.79D-07 MaxDP=6.64D-06 DE=-1.25D-08 OVMax= 1.73D-05

 Cycle  12  Pass 1  IDiag  1:
 E= -279.503183321399     Delta-E=       -0.000000001840 Rises=F Damp=F
 DIIS: error= 5.98D-07 at cycle  12 NSaved=  12.
 NSaved=12 IEnMin=12 EnMin= -279.503183321399     IErMin=12 ErrMin= 5.98D-07
 ErrMax= 5.98D-07  0.00D+00 EMaxC= 1.00D-01 BMatC= 7.22D-11 BMatP= 6.77D-10
 IDIUse=1 WtCom= 1.00D+00 WtEn= 0.00D+00
 Coeff-Com:  0.125D-05-0.290D-04-0.638D-04 0.172D-03 0.107D-02-0.233D-02
 Coeff-Com: -0.417D-02 0.648D-02 0.408D-01-0.111D+00-0.288D+00 0.136D+01
 Coeff:      0.125D-05-0.290D-04-0.638D-04 0.172D-03 0.107D-02-0.233D-02
 Coeff:     -0.417D-02 0.648D-02 0.408D-01-0.111D+00-0.288D+00 0.136D+01
 Gap=     0.502 Goal=   None    Shift=    0.000
 RMSDP=7.20D-08 MaxDP=2.81D-06 DE=-1.84D-09 OVMax= 6.69D-06

 Cycle  13  Pass 1  IDiag  1:
 E= -279.503183321630     Delta-E=       -0.000000000231 Rises=F Damp=F
 DIIS: error= 1.60D-07 at cycle  13 NSaved=  13.
 NSaved=13 IEnMin=13 EnMin= -279.503183321630     IErMin=13 ErrMin= 1.60D-07
 ErrMax= 1.60D-07  0.00D+00 EMaxC= 1.00D-01 BMatC= 3.93D-12 BMatP= 7.22D-11
 IDIUse=1 WtCom= 1.00D+00 WtEn= 0.00D+00
 Coeff-Com:  0.126D-05-0.138D-04-0.222D-04-0.907D-04 0.121D-03 0.792D-03
 Coeff-Com: -0.123D-02-0.288D-02 0.571D-03 0.404D-01-0.314D-01-0.331D+00
 Coeff-Com:  0.132D+01
 Coeff:      0.126D-05-0.138D-04-0.222D-04-0.907D-04 0.121D-03 0.792D-03
 Coeff:     -0.123D-02-0.288D-02 0.571D-03 0.404D-01-0.314D-01-0.331D+00
 Coeff:      0.132D+01
 Gap=     0.502 Goal=   None    Shift=    0.000
 RMSDP=1.89D-08 MaxDP=5.59D-07 DE=-2.31D-10 OVMax= 1.53D-06

 Cycle  14  Pass 1  IDiag  1:
 E= -279.503183321642     Delta-E=       -0.000000000012 Rises=F Damp=F
 DIIS: error= 2.32D-08 at cycle  14 NSaved=  14.
 NSaved=14 IEnMin=14 EnMin= -279.503183321642     IErMin=14 ErrMin= 2.32D-08
 ErrMax= 2.32D-08  0.00D+00 EMaxC= 1.00D-01 BMatC= 1.75D-13 BMatP= 3.93D-12
 IDIUse=1 WtCom= 1.00D+00 WtEn= 0.00D+00
 Coeff-Com: -0.182D-06 0.298D-05 0.543D-05 0.475D-05-0.783D-04 0.403D-04
 Coeff-Com:  0.327D-03 0.130D-03-0.232D-02 0.134D-02 0.162D-01-0.247D-01
 Coeff-Com: -0.191D+00 0.120D+01
 Coeff:     -0.182D-06 0.298D-05 0.543D-05 0.475D-05-0.783D-04 0.403D-04
 Coeff:      0.327D-03 0.130D-03-0.232D-02 0.134D-02 0.162D-01-0.247D-01
 Coeff:     -0.191D+00 0.120D+01
 Gap=     0.502 Goal=   None    Shift=    0.000
 RMSDP=3.60D-09 MaxDP=8.99D-08 DE=-1.18D-11 OVMax= 3.13D-07

 SCF Done:  E(RHF) =  -279.503183322     A.U. after   14 cycles
            NFock= 14  Conv=0.36D-08     -V/T= 2.0022
 KE= 2.788834472531D+02 PE=-8.961586575549D+02 EE= 2.203679722855D+02
 Leave Link  502 at Mon Feb 21 20:12:12 2022, MaxMem= 16106127360 cpu:              54.9 elap:               3.6
 (Enter /sw/contrib/gaussian/g16/B01/g16/l801.exe)
 ExpMin= 2.53D-02 ExpMax= 1.53D+04 ExpMxC= 5.22D+02 IAcc=3 IRadAn=         5 AccDes= 0.00D+00
 HarFok:  IExCor=  205 AccDes= 0.00D+00 IRadAn=         5 IDoV=-2 UseB2=F ITyADJ=14
 ICtDFT= 12500011 ScaDFX=  1.000000  1.000000  1.000000  1.000000
 Largest valence mixing into a core orbital is  2.08D-04
 Largest core mixing into a valence orbital is  3.61D-05
 Range of M.O.s used for correlation:     5   207
 NBasis=   207 NAE=    16 NBE=    16 NFC=     4 NFV=     0
 NROrb=    203 NOA=    12 NOB=    12 NVA=   191 NVB=   191

 **** Warning!!: The largest alpha MO coefficient is  0.17751886D+02

 Leave Link  801 at Mon Feb 21 20:12:12 2022, MaxMem= 16106127360 cpu:               4.8 elap:               0.2
 (Enter /sw/contrib/gaussian/g16/B01/g16/l906.exe)
 Frozen-core derivative calculation, NFC=   4 NFV=   0.
 FulOut=F Deriv=T AODrv=T NAtomX=     5
   MMem=           0  MDisk=          12 MDiskD=          12
  W3Min=      811440 MinDsk=     2425030 NBas6D=         245
 NBas2D=       30762    NTT=       30135    LW2=     7400000
    MDV= 16105574227 MDiskM=      328644 NBas2p=       30702
 Disk-based method using ON**2 memory for 12 occupieds at a time.
 Permanent disk used for amplitudes=    11516536 words.
 Estimated scratch disk usage=   321251614 words.
 IMap=   1   2   3   4   5   6   7   8   9  10  11  12  13  14  15  16
 Actual    scratch disk usage=   310331678 words.
 JobTyp=1 Pass  1:  I=   5 to  16 NPSUse= 28 ParTrn=T ParDer=T DoDerP=T.
 (rs|ai) integrals will be sorted in core.
 Spin components of T(2) and E(2):
     alpha-alpha T2 =       0.3382682168D-01 E2=     -0.1222741081D+00
     alpha-beta  T2 =       0.1853389095D+00 E2=     -0.6987756565D+00
     beta-beta   T2 =       0.3382682168D-01 E2=     -0.1222741081D+00
 The integrals were generated   1 times.
 ANorm=    0.1119371499D+01
 E2 =    -0.9433238727D+00 EUMP2 =    -0.28044650719431D+03
 Leave Link  906 at Mon Feb 21 20:13:49 2022, MaxMem= 16106127360 cpu:            2718.6 elap:              97.2
 (Enter /sw/contrib/gaussian/g16/B01/g16/l1101.exe)
 Using compressed Sx but separate Hx and Fx, NAtomX=     5.
 Will process      6 centers per pass.
 Leave Link 1101 at Mon Feb 21 20:13:50 2022, MaxMem= 16106127360 cpu:               6.7 elap:               0.3
 (Enter /sw/contrib/gaussian/g16/B01/g16/l1102.exe)
 Leave Link 1102 at Mon Feb 21 20:13:50 2022, MaxMem= 16106127360 cpu:               0.5 elap:               0.0
 (Enter /sw/contrib/gaussian/g16/B01/g16/l1110.exe)
 Forming Gx(P) for the SCF density, NAtomX=     5.
 Integral derivatives from FoFJK, PRISM(SPDF).
 Do as many integral derivatives as possible in FoFJK.
 G2DrvN: MDV=   16106126844.
 G2DrvN: will do     6 centers at a time, making    1 passes.
 Calling FoFCou, ICntrl=  3107 FMM=F I1Cent=   0 AccDes= 0.00D+00.
 FoFJK:  IHMeth= 1 ICntrl=    3107 DoSepK=F KAlg= 0 I1Cent=           0 FoldK=F
 IRaf=         0 NMat=       1 IRICut=       1 DoRegI=T DoRafI=F ISym2E= 1 IDoP0=0 IntGTp=1.
 FoFCou: FMM=F IPFlag=           0 FMFlag=      100000 FMFlg1=           0
         NFxFlg=           0 DoJE=F BraDBF=F KetDBF=F FulRan=T
         wScrn=  0.000000 ICntrl=      3107 IOpCl=  0 I1Cent=           0 NGrid=           0
         NMat0=    1 NMatS0=      1 NMatT0=    0 NMatD0=    1 NMtDS0=    0 NMtDT0=    0
 Petite list used in FoFCou.
 End of G2Drv F.D. properties file   721 does not exist.
 End of G2Drv F.D. properties file   722 does not exist.
 End of G2Drv F.D. properties file   788 does not exist.
 Leave Link 1110 at Mon Feb 21 20:13:53 2022, MaxMem= 16106127360 cpu:              83.6 elap:               3.0
 (Enter /sw/contrib/gaussian/g16/B01/g16/l1002.exe)
 Minotr:  Closed shell wavefunction.
          IDoAtm=11111
          Frozen-core window.
          Direct CPHF calculation.
          Differentiating once with respect to electric field.
                with respect to dipole field.
          Differentiating once with respect to nuclear coordinates.
          Requested convergence is 1.0D-08 RMS, and 1.0D-07 maximum.
          Secondary convergence is 1.0D-12 RMS, and 1.0D-12 maximum.
          NewPWx=T KeepS1=T KeepF1=T KeepIn=T MapXYZ=F SortEE=F KeepMc=T.
 Keep R1 ints in memory in symmetry-blocked form, NReq=348888983.
 FoFCou: FMM=F IPFlag=           0 FMFlag=           0 FMFlg1=           0
         NFxFlg=           0 DoJE=F BraDBF=F KetDBF=F FulRan=T
         wScrn=  0.000000 ICntrl=       600 IOpCl=  0 I1Cent=           0 NGrid=           0
         NMat0=    1 NMatS0=  21528 NMatT0=    0 NMatD0=    1 NMtDS0=    0 NMtDT0=    0
 Petite list used in FoFCou.
          MDV=   16106127360 using IRadAn=       1.
          Solving linear equations simultaneously, MaxMat=       0.
          There are    18 degrees of freedom in the 1st order CPHF.  IDoFFX=6 NUNeed=    18.
     15 vectors produced by pass  0 Test12= 1.70D-14 5.56D-09 XBig12= 8.03D+00 1.12D+00.
 AX will form    15 AO Fock derivatives at one time.
     15 vectors produced by pass  1 Test12= 1.70D-14 5.56D-09 XBig12= 1.30D+00 2.54D-01.
     15 vectors produced by pass  2 Test12= 1.70D-14 5.56D-09 XBig12= 1.36D-01 1.01D-01.
     15 vectors produced by pass  3 Test12= 1.70D-14 5.56D-09 XBig12= 4.82D-03 1.13D-02.
     15 vectors produced by pass  4 Test12= 1.70D-14 5.56D-09 XBig12= 9.68D-05 1.95D-03.
     15 vectors produced by pass  5 Test12= 1.70D-14 5.56D-09 XBig12= 1.37D-06 1.76D-04.
     15 vectors produced by pass  6 Test12= 1.70D-14 5.56D-09 XBig12= 1.09D-08 1.47D-05.
     13 vectors produced by pass  7 Test12= 1.70D-14 5.56D-09 XBig12= 8.03D-11 1.35D-06.
      3 vectors produced by pass  8 Test12= 1.70D-14 5.56D-09 XBig12= 5.48D-13 1.16D-07.
      2 vectors produced by pass  9 Test12= 1.70D-14 5.56D-09 XBig12= 3.53D-15 9.63D-09.
 InvSVY:  IOpt=1 It=  1 EMax= 6.66D-16
 Solved reduced A of dimension   123 with    15 vectors.
 FullF1:  Do perturbations      1 to      18.
 Saving first derivative matrices.
 End of Minotr F.D. properties file   721 does not exist.
 End of Minotr F.D. properties file   722 does not exist.
 End of Minotr F.D. properties file   788 does not exist.
 Leave Link 1002 at Mon Feb 21 20:13:56 2022, MaxMem= 16106127360 cpu:              79.7 elap:               2.9
 (Enter /sw/contrib/gaussian/g16/B01/g16/l811.exe)
 MDV= 16106127360.
 Form MO integral derivatives with frozen-active canonical formalism.
 MOERI=1 MOERIx=1 NAtoms=     5 NAtomX=     5.
 Discarding MO integrals.
 MO basis two electron integral derivatives will not be stored on disk.
 IAlg= 3 DoFC=T DoPWx=T Debug=F.
 Frozen-core window:  NFC=   4 NFV=   0.
 Reordered first order wavefunction length =     18678272
 In DefCFB: NBatch=  1 ICI= 16 ICA=191 LFMax= 96
            Large arrays: LIAPS=   619940160 LIARS=   288257200 words.
 In StABat: MaxSiz= 55 MinSiz= 25 NAtomB=  5
 DoIAMN: NPSUse= 28.
 Leave Link  811 at Mon Feb 21 20:15:16 2022, MaxMem= 16106127360 cpu:            2245.2 elap:              80.4
 (Enter /sw/contrib/gaussian/g16/B01/g16/l804.exe)
 Frozen-core window:  NFC=   4 NFV=   0.
 Closed-shell transformation, MDV= 16106127360 ITran=4 ISComp=1.
 Semi-Direct transformation.
 ModeAB=           2 MOrb=            16 LenV=   16104923023
 LASXX=     67341636 LTotXX=    67341636 LenRXX=    67341636
 LTotAB=    68301760 MaxLAS=    99807120 LenRXY=    99807120
 NonZer=   134683272 LenScr=   202817536 LnRSAI=           0
 LnScr1=           0 LExtra=           0 Total=    369966292
 MaxDsk=          -1 SrtSym=           F ITran=            4
 DoSDTr:  NPSUse= 28
 JobTyp=0 Pass  1:  I=   1 to  16.
 (rs|ai) integrals will be sorted in core.
 Complete sort for first half transformation.
 First half transformation complete.
 Begin second half transformation for I=  10.
 Begin second half transformation for I=  10.
 Complete sort for second half transformation.
 Second half transformation complete.
 Spin components of T(2) and E(2):
     alpha-alpha T2 =       0.3382682168D-01 E2=     -0.1222741081D+00
     alpha-beta  T2 =       0.1853389095D+00 E2=     -0.6987756565D+00
     beta-beta   T2 =       0.3382682168D-01 E2=     -0.1222741081D+00
 ANorm=    0.1583030355D+01
 E2 =    -0.9433238727D+00 EUMP2 =    -0.28044650719431D+03
 Leave Link  804 at Mon Feb 21 20:15:31 2022, MaxMem= 16106127360 cpu:             426.8 elap:              15.3
 (Enter /sw/contrib/gaussian/g16/B01/g16/l1002.exe)
 Minotr:  Closed shell wavefunction.
          Computing MP2/KS-MP2 derivatives.
          Using Z-Vector for PSCF gradient.
          Skipping F1 and S1 gradient terms here.
          IDoAtm=11111
          Frozen-core window.
          Using MO integrals in the linear equations.
          Forming densities via direct SCF.
          Differentiating once with respect to electric field.
                with respect to dipole field.
          Differentiating once with respect to nuclear coordinates.
          Using symmetry in CPHF.
          Requested convergence is 1.0D-10 RMS, and 1.0D-09 maximum.
          NewPWx=F KeepS1=T KeepF1=T KeepIn=T MapXYZ=F SortEE=F KeepMc=T.
          MDV=   16106127360 using IRadAn=       5.
          Solving linear equations separately, MaxMat=       0.
          There are     1 degrees of freedom in the 1st order CPHF.  IDoFFX=0 NUNeed=     1.
 FoFJK:  IHMeth= 1 ICntrl=       0 DoSepK=F KAlg= 0 I1Cent=           0 FoldK=F
 IRaf=         0 NMat=       1 IRICut=       1 DoRegI=T DoRafI=F ISym2E= 0 IDoP0=0 IntGTp=1.
 FoFCou: FMM=F IPFlag=           0 FMFlag=      100000 FMFlg1=           0
         NFxFlg=           0 DoJE=F BraDBF=F KetDBF=F FulRan=T
         wScrn=  0.000000 ICntrl=         0 IOpCl=  0 I1Cent=           0 NGrid=           0
         NMat0=    1 NMatS0=      1 NMatT0=    0 NMatD0=    1 NMtDS0=    0 NMtDT0=    0
 Symmetry not used in FoFCou.
 LinEq1:  Iter=  0 NonCon=     1 RMS=5.92D-03 Max=1.31D-01 NDo=     1
 LinEq1:  Iter=  1 NonCon=     1 RMS=1.90D-03 Max=3.86D-02 NDo=     1
 LinEq1:  Iter=  2 NonCon=     1 RMS=8.65D-04 Max=1.37D-02 NDo=     1
 LinEq1:  Iter=  3 NonCon=     1 RMS=3.86D-04 Max=7.91D-03 NDo=     1
 LinEq1:  Iter=  4 NonCon=     1 RMS=1.20D-04 Max=1.94D-03 NDo=     1
 LinEq1:  Iter=  5 NonCon=     1 RMS=4.73D-05 Max=7.57D-04 NDo=     1
 LinEq1:  Iter=  6 NonCon=     1 RMS=2.05D-05 Max=2.63D-04 NDo=     1
 LinEq1:  Iter=  7 NonCon=     1 RMS=8.08D-06 Max=1.56D-04 NDo=     1
 LinEq1:  Iter=  8 NonCon=     1 RMS=3.43D-06 Max=3.45D-05 NDo=     1
 LinEq1:  Iter=  9 NonCon=     1 RMS=9.33D-07 Max=1.29D-05 NDo=     1
 LinEq1:  Iter= 10 NonCon=     1 RMS=1.83D-07 Max=1.93D-06 NDo=     1
 LinEq1:  Iter= 11 NonCon=     1 RMS=3.40D-08 Max=3.73D-07 NDo=     1
 LinEq1:  Iter= 12 NonCon=     1 RMS=8.09D-09 Max=1.34D-07 NDo=     1
 LinEq1:  Iter= 13 NonCon=     1 RMS=1.41D-09 Max=2.72D-08 NDo=     1
 LinEq1:  Iter= 14 NonCon=     1 RMS=2.54D-10 Max=3.54D-09 NDo=     1
 LinEq1:  Iter= 15 NonCon=     0 RMS=4.54D-11 Max=4.97D-10 NDo=     1
 Linear equations converged to 1.000D-10 1.000D-09 after    15 iterations.
 End of Minotr F.D. properties file   721 does not exist.
 End of Minotr F.D. properties file   722 does not exist.
 End of Minotr F.D. properties file   788 does not exist.
 Leave Link 1002 at Mon Feb 21 20:15:34 2022, MaxMem= 16106127360 cpu:              65.4 elap:               2.4
 (Enter /sw/contrib/gaussian/g16/B01/g16/l1102.exe)
 Use density number 2.
 Symmetrizing basis deriv contribution to polar:
 IMax=3 JMax=2 DiffMx= 0.00D+00
 Leave Link 1102 at Mon Feb 21 20:15:34 2022, MaxMem= 16106127360 cpu:               1.9 elap:               0.1
 (Enter /sw/contrib/gaussian/g16/B01/g16/l1110.exe)
 Forming Gx(P) for generalized density number  2 NAtomX=     5.
 Integral derivatives from FoFJK, PRISM(SPDF).
 Do as many integral derivatives as possible in FoFJK.
 G2DrvN: MDV=   16106126844.
 G2DrvN: will do     6 centers at a time, making    1 passes.
 Calling FoFCou, ICntrl=  3107 FMM=F I1Cent=   0 AccDes= 0.00D+00.
 FoFJK:  IHMeth= 1 ICntrl=    3107 DoSepK=F KAlg= 0 I1Cent=           0 FoldK=F
 IRaf=         0 NMat=       1 IRICut=       1 DoRegI=T DoRafI=F ISym2E= 1 IDoP0=0 IntGTp=1.
 FoFCou: FMM=F IPFlag=           0 FMFlag=      100000 FMFlg1=           0
         NFxFlg=           0 DoJE=F BraDBF=F KetDBF=F FulRan=T
         wScrn=  0.000000 ICntrl=      3107 IOpCl=  0 I1Cent=           0 NGrid=           0
         NMat0=    1 NMatS0=      1 NMatT0=    0 NMatD0=    1 NMtDS0=    0 NMtDT0=    0
 Petite list used in FoFCou.
 End of G2Drv F.D. properties file   721 does not exist.
 End of G2Drv F.D. properties file   722 does not exist.
 End of G2Drv F.D. properties file   788 does not exist.
 Leave Link 1110 at Mon Feb 21 20:15:37 2022, MaxMem= 16106127360 cpu:              82.7 elap:               3.0
 (Enter /sw/contrib/gaussian/g16/B01/g16/l1112.exe)
 MP22nd: MDV=   16106127360
 This link is doing NAtomX=     5 total of    18 degrees of freedom.
 Using ON3 I/O method in MakUI.
 Frozen-core window:  NFC=   4 NFV=   0.
 Using Ix for Sx.
 Use MO integrals over full window.
 Using OV2 memory method for fx*t*t/D, MaxI=    16 DoOO2=F NP=  28.
 R2 and R3 integrals will be kept in memory, NReq=   915591705.
 FoFCou: FMM=F IPFlag=           0 FMFlag=           0 FMFlg1=           0
         NFxFlg=           0 DoJE=F BraDBF=F KetDBF=F FulRan=T
         wScrn=  0.000000 ICntrl=       600 IOpCl=  0 I1Cent=           0 NGrid=           0
         NMat0=    1 NMatS0=      1 NMatT0=    0 NMatD0=    1 NMtDS0=    0 NMtDT0=    0
 Symmetry not used in FoFCou.
 DD1Dir will call FoFMem   1 times, MxPair=       272
 NAB=   136 NAA=     0 NBB=     0.
 Symmetry is being used.
 FoFJK:  IHMeth= 1 ICntrl=       0 DoSepK=F KAlg= 0 I1Cent=           0 FoldK=F
 IRaf=         0 NMat=      18 IRICut=      45 DoRegI=T DoRafI=T ISym2E= 2 IDoP0=3 IntGTp=3.
 Discarding MO integrals.
 Leave Link 1112 at Mon Feb 21 20:16:14 2022, MaxMem= 16106127360 cpu:            1037.3 elap:              37.5
 (Enter /sw/contrib/gaussian/g16/B01/g16/l601.exe)
 Copying SCF densities to generalized density rwf, IOpCl= 0 IROHF=0.

 **********************************************************************

            Population analysis using the MP2 Density.

 **********************************************************************

 Orbital symmetries:
       Occupied  (A') (A') (A') (A') (A') (A') (A') (A') (A') (A')
                 (A") (A') (A") (A') (A") (A')
       Virtual   (A') (A") (A') (A') (A") (A') (A') (A') (A") (A')
                 (A") (A') (A') (A") (A') (A') (A') (A") (A') (A')
                 (A') (A') (A') (A') (A") (A') (A') (A") (A') (A')
                 (A") (A') (A") (A') (A') (A") (A') (A") (A') (A')
                 (A") (A') (A") (A') (A') (A") (A') (A') (A") (A')
                 (A") (A') (A') (A') (A") (A') (A") (A') (A") (A')
                 (A') (A') (A") (A') (A') (A") (A') (A") (A') (A')
                 (A") (A') (A') (A") (A") (A') (A') (A") (A') (A')
                 (A') (A") (A') (A") (A") (A') (A') (A") (A') (A')
                 (A") (A') (A') (A") (A') (A") (A') (A") (A') (A')
                 (A") (A') (A") (A') (A') (A") (A') (A') (A") (A')
                 (A") (A') (A') (A') (A") (A') (A') (A') (A") (A')
                 (A") (A') (A") (A') (A') (A") (A") (A') (A") (A')
                 (A') (A') (A') (A") (A") (A") (A') (A') (A') (A')
                 (A") (A') (A") (A') (A') (A") (A') (A') (A') (A')
                 (A") (A') (A') (A") (A') (A") (A') (A") (A') (A")
                 (A') (A") (A') (A') (A") (A") (A") (A') (A") (A')
                 (A") (A') (A") (A') (A") (A') (A") (A") (A') (A')
                 (A') (A') (A') (A') (A') (A') (A') (A') (A') (A')
                 (A')
 The electronic state is 1-A'.
 Alpha  occ. eigenvalues --  -20.68966 -20.68391 -20.65814 -15.81238  -1.62477
 Alpha  occ. eigenvalues --   -1.50441  -1.25057  -0.94837  -0.77515  -0.76095
 Alpha  occ. eigenvalues --   -0.71386  -0.67949  -0.62249  -0.59219  -0.48131
 Alpha  occ. eigenvalues --   -0.47197
 Alpha virt. eigenvalues --    0.02966   0.07171   0.08643   0.10179   0.13394
 Alpha virt. eigenvalues --    0.13484   0.14419   0.15462   0.17820   0.19398
 Alpha virt. eigenvalues --    0.19972   0.20654   0.22248   0.23755   0.24553
 Alpha virt. eigenvalues --    0.26627   0.29361   0.30406   0.31101   0.34490
 Alpha virt. eigenvalues --    0.35058   0.38768   0.42318   0.43201   0.52769
 Alpha virt. eigenvalues --    0.52971   0.55885   0.58223   0.62637   0.63814
 Alpha virt. eigenvalues --    0.67436   0.68418   0.70811   0.71053   0.72527
 Alpha virt. eigenvalues --    0.72887   0.74449   0.79224   0.79305   0.81032
 Alpha virt. eigenvalues --    0.81310   0.83215   0.86846   0.91042   0.92235
 Alpha virt. eigenvalues --    0.92813   0.95572   0.97861   0.98600   1.01656
 Alpha virt. eigenvalues --    1.05345   1.05435   1.08443   1.11998   1.14440
 Alpha virt. eigenvalues --    1.19097   1.22075   1.23422   1.33937   1.35169
 Alpha virt. eigenvalues --    1.38643   1.45418   1.48746   1.50742   1.53925
 Alpha virt. eigenvalues --    1.56862   1.58108   1.61456   1.66613   1.67260
 Alpha virt. eigenvalues --    1.70365   1.79561   1.83291   1.83517   1.88049
 Alpha virt. eigenvalues --    1.91192   1.95633   1.99482   2.00365   2.07888
 Alpha virt. eigenvalues --    2.12488   2.13239   2.15533   2.22549   2.26634
 Alpha virt. eigenvalues --    2.26893   2.29087   2.31677   2.35028   2.38361
 Alpha virt. eigenvalues --    2.42771   2.43204   2.45555   2.46258   2.47943
 Alpha virt. eigenvalues --    2.50382   2.59216   2.59903   2.62391   2.63001
 Alpha virt. eigenvalues --    2.64103   2.67662   2.75897   2.82585   2.86160
 Alpha virt. eigenvalues --    2.89489   2.90377   2.93124   2.96314   3.03773
 Alpha virt. eigenvalues --    3.06798   3.11718   3.22406   3.24363   3.32330
 Alpha virt. eigenvalues --    3.33383   3.52553   3.64719   3.83867   3.84956
 Alpha virt. eigenvalues --    4.15267   4.17071   4.18691   4.26030   4.35714
 Alpha virt. eigenvalues --    4.39799   4.48507   4.51627   4.66520   4.72188
 Alpha virt. eigenvalues --    4.80649   4.82217   4.83142   4.89764   5.02502
 Alpha virt. eigenvalues --    5.07833   5.10729   5.14464   5.18004   5.24552
 Alpha virt. eigenvalues --    5.27245   5.30886   5.33272   5.36058   5.61803
 Alpha virt. eigenvalues --    5.67401   5.77565   5.86240   5.96780   6.17386
 Alpha virt. eigenvalues --    6.27579   6.34162   6.38979   6.49216   6.50511
 Alpha virt. eigenvalues --    6.60755   6.65437   6.69701   6.75606   6.77376
 Alpha virt. eigenvalues --    6.83303   6.90044   7.03114   7.07025   7.07979
 Alpha virt. eigenvalues --    7.10857   7.12826   7.16698   7.19050   7.23069
 Alpha virt. eigenvalues --    7.25015   7.30960   7.32587   7.34823   7.40465
 Alpha virt. eigenvalues --    7.45862   7.48683   7.62330   7.62566   7.63652
 Alpha virt. eigenvalues --    7.67323   7.81167   7.89269   8.12726   8.34135
 Alpha virt. eigenvalues --    8.42940   8.54834  13.45687  14.42251  15.19264
 Alpha virt. eigenvalues --   16.15540
          Condensed to atoms (all electrons):
               1          2          3          4          5
     1  H    0.590966   0.129172   0.018676   0.012869  -0.000741
     2  O    0.129172   8.349383  -0.201481  -0.094138   0.016234
     3  O    0.018676  -0.201481   8.495818  -0.127554  -0.039717
     4  N    0.012869  -0.094138  -0.127554   6.975560  -0.056558
     5  O   -0.000741   0.016234  -0.039717  -0.056558   8.274748
 Mulliken charges:
               1
     1  H    0.249057
     2  O   -0.199170
     3  O   -0.145742
     4  N    0.289821
     5  O   -0.193965
 Sum of Mulliken charges =  -0.00000
 Mulliken charges with hydrogens summed into heavy atoms:
               1
     2  O    0.049887
     3  O   -0.145742
     4  N    0.289821
     5  O   -0.193965
 APT charges:
               1
     1  H    0.300620
     2  O   -0.287498
     3  O   -0.494930
     4  N    0.875772
     5  O   -0.393964
 Sum of APT charges =  -0.00000
 APT charges with hydrogens summed into heavy atoms:
               1
     2  O    0.013122
     3  O   -0.494930
     4  N    0.875772
     5  O   -0.393964
 Electronic spatial extent (au):  <R**2>=            250.8699
 Charge=             -0.0000 electrons
 Dipole moment (field-independent basis, Debye):
    X=              0.5042    Y=              1.3804    Z=              0.0000  Tot=              1.4696
 Quadrupole moment (field-independent basis, Debye-Ang):
   XX=            -22.5857   YY=            -18.5384   ZZ=            -21.9804
   XY=              3.1866   XZ=              0.0000   YZ=              0.0000
 Traceless Quadrupole moment (field-independent basis, Debye-Ang):
   XX=             -1.5509   YY=              2.4964   ZZ=             -0.9455
   XY=              3.1866   XZ=              0.0000   YZ=              0.0000
 Octapole moment (field-independent basis, Debye-Ang**2):
  XXX=              2.5573  YYY=             11.5888  ZZZ=             -0.0000  XYY=              7.8804
  XXY=              6.3668  XXZ=              0.0000  XZZ=             -1.5360  YZZ=             -0.8381
  YYZ=              0.0000  XYZ=              0.0000
 Hexadecapole moment (field-independent basis, Debye-Ang**3):
 XXXX=           -155.2707 YYYY=            -90.6696 ZZZZ=            -18.1840 XXXY=            -37.1360
 XXXZ=              0.0000 YYYX=            -30.6170 YYYZ=             -0.0000 ZZZX=             -0.0000
 ZZZY=             -0.0000 XXYY=            -33.9468 XXZZ=            -30.2016 YYZZ=            -20.8966
 XXYZ=              0.0000 YYXZ=              0.0000 ZZXY=            -15.0151
 N-N= 1.174040546946D+02 E-N=-8.969327260689D+02  KE= 2.802286130871D+02
 Symmetry A'   KE= 2.662447374258D+02
 Symmetry A"   KE= 1.398387566131D+01
  Exact polarizability:  33.476   9.433  30.339  -0.000  -0.000  17.857
 Approx polarizability:  28.401   5.118  23.569  -0.000   0.000  15.487
 No NMR shielding tensors so no spin-rotation constants.
 Leave Link  601 at Mon Feb 21 20:16:15 2022, MaxMem= 16106127360 cpu:               5.1 elap:               0.2
 (Enter /sw/contrib/gaussian/g16/B01/g16/l701.exe)
 ... and contract with generalized density number  2.
 Compute integral second derivatives.
 Leave Link  701 at Mon Feb 21 20:16:15 2022, MaxMem= 16106127360 cpu:               7.0 elap:               0.3
 (Enter /sw/contrib/gaussian/g16/B01/g16/l702.exe)
 L702 exits ... SP integral derivatives will be done elsewhere.
 Leave Link  702 at Mon Feb 21 20:16:15 2022, MaxMem= 16106127360 cpu:               0.5 elap:               0.0
 (Enter /sw/contrib/gaussian/g16/B01/g16/l703.exe)
 Integral derivatives from FoFJK, PRISM(SPDF).
 Compute integral second derivatives, UseDBF=F ICtDFT=           0.
 Calling FoFJK, ICntrl=  10100127 FMM=F ISym2X=1 I1Cent= 0 IOpClX= 0 NMat=1 NMatS=1 NMatT=0.
 FoFJK:  IHMeth= 1 ICntrl=10100127 DoSepK=F KAlg= 0 I1Cent=           0 FoldK=F
 IRaf=         0 NMat=       1 IRICut=       1 DoRegI=T DoRafI=F ISym2E= 1 IDoP0=0 IntGTp=1.
 FoFCou: FMM=F IPFlag=           0 FMFlag=      100000 FMFlg1=         800
         NFxFlg=           0 DoJE=F BraDBF=F KetDBF=F FulRan=T
         wScrn=  0.000000 ICntrl=  10100127 IOpCl=  0 I1Cent=           0 NGrid=           0
         NMat0=    1 NMatS0=      1 NMatT0=    0 NMatD0=    1 NMtDS0=    0 NMtDT0=    0
 Petite list used in FoFCou.
 Leave Link  703 at Mon Feb 21 20:16:30 2022, MaxMem= 16106127360 cpu:             422.4 elap:              15.1
 (Enter /sw/contrib/gaussian/g16/B01/g16/l716.exe)
 Dipole        = 1.98365776D-01 5.43074476D-01 5.67495487D-33
 Polarizability= 3.34764522D+01 9.43253384D+00 3.03392960D+01
                -2.25556664D-31-2.84563427D-31 1.78573456D+01
 Full mass-weighted force constant matrix:
 Low frequencies --- -262.5402  -81.2093  -48.6718    0.0009    0.0011    0.0011
 Low frequencies ---   31.3320  222.0952  336.7496
 ******    1 imaginary frequencies (negative Signs) ****** 
 Diagonal vibrational polarizability:
       13.3296022      25.6559595      49.5791659
 Harmonic frequencies (cm**-1), IR intensities (KM/Mole), Raman scattering
 activities (A**4/AMU), depolarization ratios for plane and unpolarized
 incident light, reduced masses (AMU), force constants (mDyne/A),
 and normal coordinates:
                      1                      2                      3
                     A"                     A"                     A'
 Frequencies --   -261.8439               220.3892               336.5394
 Red. masses --      1.1350                10.8850                 8.4954
 Frc consts  --      0.0458                 0.3115                 0.5669
 IR Inten    --    125.5113                 0.5686                 8.5514
  Atom  AN      X      Y      Z        X      Y      Z        X      Y      Z
     1   1    -0.00   0.00   1.00    -0.00   0.00  -0.55     0.56  -0.43  -0.00
     2   8     0.00   0.00  -0.06    -0.00   0.00  -0.32    -0.07  -0.37  -0.00
     3   8    -0.00  -0.00  -0.04     0.00  -0.00   0.33    -0.14   0.45   0.00
     4   7     0.00  -0.00   0.06     0.00  -0.00   0.53     0.02   0.24   0.00
     5   8     0.00   0.00  -0.01    -0.00   0.00  -0.45     0.16  -0.26  -0.00
                      4                      5                      6
                     A'                     A'                     A'
 Frequencies --    458.1664               796.3010              1014.2965
 Red. masses --     12.4745                12.7612                15.7780
 Frc consts  --      1.5428                 4.7675                 9.5638
 IR Inten    --    198.7889               175.3904                15.0034
  Atom  AN      X      Y      Z        X      Y      Z        X      Y      Z
     1   1     0.38   0.23  -0.00    -0.36   0.18   0.00    -0.06  -0.07  -0.00
     2   8     0.32   0.23  -0.00     0.37   0.09  -0.00    -0.58   0.02  -0.00
     3   8     0.19   0.42   0.00     0.01  -0.26   0.00     0.76   0.01   0.00
     4   7    -0.35  -0.43   0.00    -0.16   0.63   0.00    -0.10   0.18   0.00
     5   8    -0.23  -0.28  -0.00    -0.22  -0.39  -0.00    -0.09  -0.18  -0.00
                      7                      8                      9
                     A'                     A'                     A'
 Frequencies --   1395.2152              1678.4877              3776.5825
 Red. masses --      1.1356                12.9378                 1.0674
 Frc consts  --      1.3024                21.4757                 8.9696
 IR Inten    --    155.4808               138.8121                83.4959
  Atom  AN      X      Y      Z        X      Y      Z        X      Y      Z
     1   1     0.99  -0.04  -0.00    -0.37   0.00   0.00     0.10   0.99   0.00
     2   8    -0.03   0.05  -0.00    -0.00  -0.04   0.00    -0.01  -0.06   0.00
     3   8    -0.02  -0.05   0.00     0.00   0.15  -0.00     0.00   0.00  -0.00
     4   7     0.02   0.01   0.00     0.70  -0.04  -0.00    -0.00  -0.00  -0.00
     5   8    -0.03  -0.01  -0.00    -0.59  -0.07   0.00     0.00   0.00   0.00

 -------------------
 - Thermochemistry -
 -------------------
 Temperature   298.150 Kelvin.  Pressure   1.00000 Atm.
 Atom     1 has atomic number  1 and mass   1.00783
 Atom     2 has atomic number  8 and mass  15.99491
 Atom     3 has atomic number  8 and mass  15.99491
 Atom     4 has atomic number  7 and mass  14.00307
 Atom     5 has atomic number  8 and mass  15.99491
 Molecular mass:    62.99564 amu.
 Principal axes and moments of inertia in atomic units:
                           1         2         3
     Eigenvalues --    32.52788 356.57177 389.09965
           X            0.80228  -0.59695   0.00000
           Y            0.59695   0.80228   0.00000
           Z            0.00000  -0.00000   1.00000
 This molecule is an asymmetric top.
 Rotational symmetry number  1.
 Rotational temperatures (Kelvin)      2.66276     0.24291     0.22260
 Rotational constants (GHZ):          55.48290     5.06137     4.63825
    1 imaginary frequencies ignored.
 Zero-point vibrational energy      57875.2 (Joules/Mol)
                                   13.83250 (Kcal/Mol)
 Warning -- explicit consideration of   3 degrees of freedom as
           vibrations may cause significant error
 Vibrational temperatures:    317.09   484.21   659.20  1145.70  1459.35
          (Kelvin)           2007.40  2414.97  5433.66
 
 Zero-point correction=                           0.022043 (Hartree/Particle)
 Thermal correction to Energy=                    0.026163
 Thermal correction to Enthalpy=                  0.027107
 Thermal correction to Gibbs Free Energy=        -0.004083
 Sum of electronic and zero-point Energies=           -280.424464
 Sum of electronic and thermal Energies=              -280.420344
 Sum of electronic and thermal Enthalpies=            -280.419400
 Sum of electronic and thermal Free Energies=         -280.450591
 
                     E (Thermal)             CV                S
                      KCal/Mol        Cal/Mol-Kelvin    Cal/Mol-Kelvin
 Total                   16.418             11.883             65.646
 Electronic               0.000              0.000              0.000
 Translational            0.889              2.981             38.341
 Rotational               0.889              2.981             23.027
 Vibrational             14.640              5.921              4.278
 Vibration     1          0.647              1.810              1.956
 Vibration     2          0.717              1.603              1.229
 Vibration     3          0.816              1.343              0.771
                       Q            Log10(Q)             Ln(Q)
 Total Bot       0.755424D+02          1.878191          4.324694
 Total V=0       0.104109D+13         12.017488         27.671288
 Vib (Bot)       0.159843D-09         -9.796306        -22.556829
 Vib (Bot)    1  0.897373D+00         -0.047027         -0.108284
 Vib (Bot)    2  0.552950D+00         -0.257314         -0.592488
 Vib (Bot)    3  0.371798D+00         -0.429693         -0.989404
 Vib (V=0)       0.220288D+01          0.342991          0.789765
 Vib (V=0)    1  0.152727D+01          0.183915          0.423480
 Vib (V=0)    2  0.124549D+01          0.095340          0.219528
 Vib (V=0)    3  0.112308D+01          0.050412          0.116079
 Electronic      0.100000D+01          0.000000          0.000000
 Translational   0.196526D+08          7.293420         16.793719
 Rotational      0.240479D+05          4.381077         10.087803
 
                                                                title
                                                             IR Spectrum
 
     3                                                                      1         1           1                                  
     7                                                                      6         3           0       7          4   3   2       
     7                                                                      7         9           1       9          5   3   2       
     7                                                                      8         5           4       6          8   7   0       
 
     X                                                                      X         X           X       X          X   X   X       
     X                                                                      X         X           X       X          X               
     X                                                                      X         X                   X          X               
     X                                                                      X         X                   X          X               
     X                                                                      X         X                   X          X               
     X                                                                      X         X                   X          X               
     X                                                                      X         X                   X          X               
     X                                                                      X         X                   X          X               
                                                                            X         X                   X          X               
                                                                            X         X                   X          X               
                                                                            X         X                   X          X               
                                                                            X         X                   X          X               
                                                                            X         X                   X          X               
                                                                            X         X                   X          X               
                                                                                      X                   X          X               
                                                                                      X                   X          X               
                                                                                                          X          X               
                                                                                                          X          X               
                                                                                                                     X               
                                                                                                                     X               
 
 ***** Axes restored to original set *****
 -------------------------------------------------------------------
 Center     Atomic                   Forces (Hartrees/Bohr)
 Number     Number              X              Y              Z
 -------------------------------------------------------------------
      1        1          -0.001425338   -0.000000000    0.000409220
      2        8          -0.010027322   -0.000000000   -0.003813144
      3        8           0.010029686    0.000000000    0.003495675
      4        7           0.000969431    0.000000000   -0.000907890
      5        8           0.000453543    0.000000000    0.000816139
 -------------------------------------------------------------------
 Cartesian Forces:  Max     0.010029686 RMS     0.003939006
 -----------------------------------------------------------------------------------------------
                       Internal Coordinate Forces (Hartree/Bohr or radian)
  Cent   Atom   N1       Length/X         N2         Alpha/Y        N3         Beta/Z          J
 -----------------------------------------------------------------------------------------------
      1  H 
      2  O        1  -0.000409(     1)
      3  O        2   0.011802(     2)      1   0.002610(     5)
      4  N        3   0.000025(     3)      2   0.002430(     6)      1  -0.000000(     8)     0
      5  O        4   0.000642(     4)      3   0.001500(     7)      2   0.000000(     9)     0
 -----------------------------------------------------------------------------------------------
 Internal  Forces:  Max     0.011802082 RMS     0.004147782
 Force constants in Cartesian coordinates: 
                1             2             3             4             5 
      1  0.669229D-01
      2  0.000000D+00 -0.220262D-02
      3  0.671775D-02  0.000000D+00  0.511831D+00
      4 -0.355201D-01  0.000000D+00 -0.172042D-01  0.304703D+00
      5  0.000000D+00  0.239684D-02  0.000000D+00  0.000000D+00 -0.829959D-03
      6  0.493271D-01  0.000000D+00 -0.507390D+00  0.417892D-01  0.000000D+00
      7 -0.208657D-01  0.000000D+00  0.121374D-01 -0.250312D+00  0.000000D+00
      8  0.000000D+00  0.161708D-02  0.000000D+00  0.000000D+00 -0.346947D-02
      9 -0.557756D-01  0.000000D+00 -0.125278D-02 -0.262856D-01  0.000000D+00
     10 -0.916925D-02  0.000000D+00 -0.507355D-02 -0.184288D-01  0.000000D+00
     11  0.000000D+00 -0.291086D-02  0.000000D+00  0.000000D+00 -0.453885D-02
     12  0.557026D-02  0.000000D+00 -0.452667D-02  0.117850D-01  0.000000D+00
     13 -0.136778D-02  0.000000D+00  0.342264D-02 -0.442548D-03  0.000000D+00
     14  0.000000D+00  0.109956D-02  0.000000D+00  0.000000D+00  0.644144D-02
     15 -0.583946D-02  0.000000D+00  0.133850D-02 -0.100844D-01  0.000000D+00
                6             7             8             9            10 
      6  0.595189D+00
      7 -0.275943D-01  0.374746D+00
      8  0.000000D+00  0.000000D+00  0.869060D-03
      9 -0.790470D-01  0.443258D-01  0.000000D+00  0.182509D+00
     10 -0.552587D-01 -0.796952D-01  0.000000D+00  0.175568D+00  0.831135D+00
     11  0.000000D+00  0.000000D+00  0.808797D-02  0.000000D+00  0.000000D+00
     12  0.165499D-01  0.615732D-01  0.000000D+00 -0.821265D-01 -0.159507D-01
     13 -0.826332D-02 -0.238732D-01  0.000000D+00 -0.137833D+00 -0.723842D+00
     14  0.000000D+00  0.000000D+00 -0.710463D-02  0.000000D+00  0.000000D+00
     15 -0.253020D-01 -0.904421D-01  0.000000D+00 -0.200828D-01 -0.992851D-01
               11            12            13            14            15 
     11  0.908110D-02
     12  0.000000D+00  0.187855D+00
     13  0.000000D+00 -0.629778D-01  0.749526D+00
     14 -0.971936D-02  0.000000D+00  0.000000D+00  0.928299D-02
     15  0.000000D+00 -0.117752D+00  0.205651D+00  0.000000D+00  0.161798D+00
 Force constants in internal coordinates: 
                1             2             3             4             5 
      1  0.511831D+00
      2 -0.980755D-02  0.318073D+00
      3  0.331278D-02  0.325477D-02  0.118760D+00
      4 -0.364772D-02  0.706053D-02  0.152842D+00  0.812205D+00
      5  0.108756D-01  0.705607D-01  0.207320D-02  0.507937D-02  0.223639D+00
      6  0.480498D-02  0.644387D-01  0.438789D-01  0.214380D-01  0.313561D-01
      7 -0.989749D-03  0.392797D-01  0.335563D-01  0.857243D-01  0.215425D-01
      8  0.000000D+00  0.000000D+00  0.000000D+00  0.000000D+00  0.000000D+00
      9  0.000000D+00  0.000000D+00  0.000000D+00  0.000000D+00  0.000000D+00
                6             7             8             9 
      6  0.294274D+00
      7  0.973730D-01  0.486560D+00
      8  0.000000D+00  0.000000D+00 -0.833366D-02
      9  0.000000D+00  0.000000D+00 -0.417232D-02  0.413911D-01
 Leave Link  716 at Mon Feb 21 20:16:30 2022, MaxMem= 16106127360 cpu:               0.9 elap:               0.1
 (Enter /sw/contrib/gaussian/g16/B01/g16/l103.exe)

 GradGradGradGradGradGradGradGradGradGradGradGradGradGradGradGradGradGrad
 Berny optimization.
 Search for a local minimum.
 Step number   1 out of a maximum of    2
 All quantities printed in internal units (Hartrees-Bohrs-Radians)
 Second derivative matrix not updated -- analytic derivatives used.
 The second derivative matrix:
                          r1        r2        r3        r4        a1
           r1           0.51183
           r2          -0.00981   0.31807
           r3           0.00331   0.00325   0.11876
           r4          -0.00365   0.00706   0.15284   0.81220
           a1           0.01088   0.07056   0.00207   0.00508   0.22364
           a2           0.00480   0.06444   0.04388   0.02144   0.03136
           a3          -0.00099   0.03928   0.03356   0.08572   0.02154
           d1           0.00000  -0.00000  -0.00000  -0.00000  -0.00000
           d2          -0.00000   0.00000   0.00000   0.00000   0.00000
                          a2        a3        d1        d2
           a2           0.29427
           a3           0.09737   0.48656
           d1          -0.00000  -0.00000  -0.00833
           d2          -0.00000  -0.00000  -0.00417   0.04139
 ITU=  0
     Eigenvalues ---   -0.00868   0.04174   0.07914   0.18519   0.23697
     Eigenvalues ---    0.35101   0.51255   0.52801   0.87247
 Eigenvalue     1 is  -8.68D-03 should be greater than     0.000000 Eigenvector:
                          d1        d2        a3        a2        r3
   1                    0.99655   0.08304   0.00000   0.00000  -0.00000
                          r4        a1        r2        r1
   1                    0.00000  -0.00000   0.00000  -0.00000
 Angle between quadratic step and forces=  18.27 degrees.
 Linear search not attempted -- first point.
 Variable       Old X    -DE/DX   Delta X   Delta X   Delta X     New X
                                 (Linear)    (Quad)   (Total)
    r1        1.83110  -0.00041   0.00000  -0.00007  -0.00007   1.83103
    r2        2.70916   0.01180   0.00000   0.03704   0.03704   2.74619
    r3        2.75670   0.00003   0.00000  -0.00203  -0.00203   2.75468
    r4        2.21236   0.00064   0.00000   0.00084   0.00084   2.21320
    a1        1.70335   0.00261   0.00000  -0.00007  -0.00007   1.70328
    a2        1.78543   0.00243   0.00000   0.00039   0.00039   1.78582
    a3        1.90362   0.00150   0.00000   0.00001   0.00001   1.90363
    d1        3.14159  -0.00000   0.00000   0.00000   0.00000   3.14159
    d2        3.14159   0.00000   0.00000  -0.00000   0.00000   3.14159
         Item               Value     Threshold  Converged?
 Maximum Force            0.011802     0.000450     NO 
 RMS     Force            0.004148     0.000300     NO 
 Maximum Displacement     0.037039     0.001800     NO 
 RMS     Displacement     0.012369     0.001200     NO 
 Predicted change in Energy=-2.192236D-04
                       ----------------------------
                       ! Non-Optimized Parameters !
                       ! (Angstroms and Degrees)  !
 ----------------------                            ----------------------
 !      Name          Value   Derivative information (Atomic Units)     !
 ------------------------------------------------------------------------
 !       r1          0.9689   -DE/DX =   -0.0004                        !
 !       r2          1.4532   -DE/DX =    0.0118                        !
 !       r3          1.4577   -DE/DX =    0.0                           !
 !       r4          1.1712   -DE/DX =    0.0006                        !
 !       a1         97.591    -DE/DX =    0.0026                        !
 !       a2        102.3201   -DE/DX =    0.0024                        !
 !       a3        109.0701   -DE/DX =    0.0015                        !
 !       d1        180.0      -DE/DX =    0.0                           !
 !       d2        180.0      -DE/DX =    0.0                           !
 ------------------------------------------------------------------------
 GradGradGradGradGradGradGradGradGradGradGradGradGradGradGradGradGradGrad

 Leave Link  103 at Mon Feb 21 20:16:30 2022, MaxMem= 16106127360 cpu:               0.5 elap:               0.0
 (Enter /sw/contrib/gaussian/g16/B01/g16/l9999.exe)

 ----------------------------------------------------------------------

 Electric dipole moment (input orientation):
 (Debye = 10**-18 statcoulomb cm , SI units = C m)
                  (au)            (Debye)         (10**-30 SI)
   Tot        0.578169D+00      0.146956D+01      0.490192D+01
   x         -0.149111D+00     -0.379001D+00     -0.126421D+01
   y          0.000000D+00      0.000000D+00      0.000000D+00
   z         -0.558610D+00     -0.141984D+01     -0.473609D+01

 Dipole polarizability, Alpha (input orientation).
 (esu units = cm**3 , SI units = C**2 m**2 J**-1)
 Alpha(0;0):
               (au)            (10**-24 esu)      (10**-40 SI)
   iso        0.272244D+02      0.403423D+01      0.448869D+01
   aniso      0.217190D+02      0.321843D+01      0.358099D+01
   xx         0.317747D+02      0.470852D+01      0.523894D+01
   yx         0.000000D+00      0.000000D+00      0.000000D+00
   yy         0.178573D+02      0.264619D+01      0.294428D+01
   zx         0.956114D+01      0.141681D+01      0.157642D+01
   zy         0.000000D+00      0.000000D+00      0.000000D+00
   zz         0.320411D+02      0.474800D+01      0.528286D+01

 ----------------------------------------------------------------------

 Dipole orientation:
     1         -0.00000000          0.00000000          0.00000000
     8         -0.47224339          0.00000000         -1.76915450
     8          2.02995533          0.00000000         -2.80767403
     7          1.53974856          0.00000000         -5.52044110
     8          3.46883949          0.00000000         -6.60355293

 Electric dipole moment (dipole orientation):
 (Debye = 10**-18 statcoulomb cm , SI units = C m)
                  (au)            (Debye)         (10**-30 SI)
   Tot        0.578169D+00      0.146956D+01      0.490192D+01
   x          0.000000D+00      0.000000D+00      0.000000D+00
   y          0.000000D+00      0.000000D+00      0.000000D+00
   z          0.578169D+00      0.146956D+01      0.490192D+01

 Dipole polarizability, Alpha (dipole orientation).
 (esu units = cm**3 , SI units = C**2 m**2 J**-1)
 Alpha(0;0):
               (au)            (10**-24 esu)      (10**-40 SI)
   iso        0.272244D+02      0.403423D+01      0.448869D+01
   aniso      0.217190D+02      0.321843D+01      0.358099D+01
   xx         0.270276D+02      0.400507D+01      0.445624D+01
   yx         0.000000D+00      0.000000D+00      0.000000D+00
   yy         0.178573D+02      0.264619D+01      0.294428D+01
   zx        -0.822287D+01     -0.121850D+01     -0.135577D+01
   zy         0.000000D+00      0.000000D+00      0.000000D+00
   zz         0.367882D+02      0.545145D+01      0.606555D+01

 ----------------------------------------------------------------------
 1\1\GINC-N2129\Freq\RMP2-FC\Aug-CC-pVTZ\H1N1O3\CGAVINH\21-Feb-2022\1\\
 #p freq mp2/aug-cc-pvtz density=current\\title\\0,1\H\O,1,r1\O,2,r2,1,
 a1\N,3,r3,2,a2,1,d1,0\O,4,r4,3,a3,2,d2,0\\r1=0.96897556\r2=1.43362313\
 r3=1.45878406\r4=1.17072885\a1=97.59494903\a2=102.29752444\a3=109.0695
 5123\d1=180.\d2=180.\\Version=ES64L-G16RevB.01\State=1-A'\HF=-279.5031
 833\MP2=-280.4465072\RMSD=3.601e-09\RMSF=3.939e-03\ZeroPoint=0.0220435
 \Thermal=0.0261631\Dipole=-0.1491106,0.,-0.5586098\DipoleDeriv=0.26718
 07,0.,0.0495118,0.,0.3564762,0.,0.0787291,0.,0.2782023,-0.3301761,0.,-
 0.2176488,0.,-0.3146318,0.,-0.102178,0.,-0.2176856,-0.0396091,0.,0.162
 3068,0.,-0.0859143,0.,-0.7520252,0.,-1.3592654,0.8940704,0.,0.9084344,
 0.,0.0658608,0.,0.9149301,0.,1.6673851,-0.7914658,0.,-0.9026042,0.,-0.
 021791,0.,-0.139456,0.,-0.3686365\Polar=31.7746767,0.,17.8573456,9.561
 1396,0.,32.0410715\Quadrupole=-1.5502199,-0.702981,2.253201,0.,2.06397
 43,0.\PG=CS [SG(H1N1O3)]\NImag=1\\0.06692285,0.,-0.00220262,0.00671775
 ,0.,0.51183129,-0.03552011,0.,-0.01720425,0.30470343,0.,0.00239684,0.,
 0.,-0.00082996,0.04932710,0.,-0.50739034,0.04178923,0.,0.59518942,-0.0
 2086572,0.,0.01213742,-0.25031193,0.,-0.02759434,0.37474607,0.,0.00161
 708,0.,0.,-0.00346947,0.,0.,0.00086906,-0.05577565,0.,-0.00125278,-0.0
 2628560,0.,-0.07904699,0.04432582,0.,0.18250911,-0.00916925,0.,-0.0050
 7355,-0.01842884,0.,-0.05525866,-0.07969523,0.,0.17556797,0.83113534,0
 .,-0.00291086,0.,0.,-0.00453885,0.,0.,0.00808797,0.,0.,0.00908110,0.00
 557026,0.,-0.00452667,0.01178500,0.,0.01654986,0.06157317,0.,-0.082126
 52,-0.01595069,0.,0.18785531,-0.00136778,0.,0.00342264,-0.00044255,0.,
 -0.00826332,-0.02387319,0.,-0.13783254,-0.72384201,0.,-0.06297775,0.74
 952553,0.,0.00109956,0.,0.,0.00644144,0.,0.,-0.00710463,0.,0.,-0.00971
 936,0.,0.,0.00928299,-0.00583946,0.,0.00133850,-0.01008438,0.,-0.02530
 196,-0.09044207,0.,-0.02008283,-0.09928507,0.,-0.11775198,0.20565097,0
 .,0.16179827\\0.00142534,0.,-0.00040922,0.01002732,0.,0.00381314,-0.01
 002969,0.,-0.00349568,-0.00096943,0.,0.00090789,-0.00045354,0.,-0.0008
 1614\\\@


 TO BEHOLD HARMS OF OUR OWN HANDS DOING,
 WHERE NONE BESIDE US WROUGHT,
 CAUSES SHARP RUING...

                                         SOPHOCLES
 Job cpu time:       0 days  2 hours  1 minutes  8.7 seconds.
 Elapsed time:       0 days  0 hours  4 minutes 22.9 seconds.
 File lengths (MBytes):  RWF=   7239 Int=      0 D2E=      0 Chk=      8 Scr=      1
 Normal termination of Gaussian 16 at Mon Feb 21 20:16:31 2022.
