 Entering Gaussian System, Link 0=g16
 Input=hoono_r2_1p448184.gjf
 Output=hoono_r2_1p448184.log
 Initial command:
 /sw/contrib/gaussian/g16/B01/g16/l1.exe "/scr/Gau-15052.inp" -scrdir="/scr/"
 Entering Link 1 = /sw/contrib/gaussian/g16/B01/g16/l1.exe PID=     15053.
  
 Copyright (c) 1988-2017, Gaussian, Inc.  All Rights Reserved.
  
 This is part of the Gaussian(R) 16 program.  It is based on
 the Gaussian(R) 09 system (copyright 2009, Gaussian, Inc.),
 the Gaussian(R) 03 system (copyright 2003, Gaussian, Inc.),
 the Gaussian(R) 98 system (copyright 1998, Gaussian, Inc.),
 the Gaussian(R) 94 system (copyright 1995, Gaussian, Inc.),
 the Gaussian 92(TM) system (copyright 1992, Gaussian, Inc.),
 the Gaussian 90(TM) system (copyright 1990, Gaussian, Inc.),
 the Gaussian 88(TM) system (copyright 1988, Gaussian, Inc.),
 the Gaussian 86(TM) system (copyright 1986, Carnegie Mellon
 University), and the Gaussian 82(TM) system (copyright 1983,
 Carnegie Mellon University). Gaussian is a federally registered
 trademark of Gaussian, Inc.
  
 This software contains proprietary and confidential information,
 including trade secrets, belonging to Gaussian, Inc.
  
 This software is provided under written license and may be
 used, copied, transmitted, or stored only in accord with that
 written license.
  
 The following legend is applicable only to US Government
 contracts under FAR:
  
                    RESTRICTED RIGHTS LEGEND
  
 Use, reproduction and disclosure by the US Government is
 subject to restrictions as set forth in subparagraphs (a)
 and (c) of the Commercial Computer Software - Restricted
 Rights clause in FAR 52.227-19.
  
 Gaussian, Inc.
 340 Quinnipiac St., Bldg. 40, Wallingford CT 06492
  
  
 ---------------------------------------------------------------
 Warning -- This program may not be used in any manner that
 competes with the business of Gaussian, Inc. or will provide
 assistance to any competitor of Gaussian, Inc.  The licensee
 of this program is prohibited from giving any competitor of
 Gaussian, Inc. access to this program.  By using this program,
 the user acknowledges that Gaussian, Inc. is engaged in the
 business of creating and licensing software in the field of
 computational chemistry and represents and warrants to the
 licensee that it is not a competitor of Gaussian, Inc. and that
 it will not use this program in any manner prohibited above.
 ---------------------------------------------------------------
  

 Cite this work as:
 Gaussian 16, Revision B.01,
 M. J. Frisch, G. W. Trucks, H. B. Schlegel, G. E. Scuseria, 
 M. A. Robb, J. R. Cheeseman, G. Scalmani, V. Barone, 
 G. A. Petersson, H. Nakatsuji, X. Li, M. Caricato, A. V. Marenich, 
 J. Bloino, B. G. Janesko, R. Gomperts, B. Mennucci, H. P. Hratchian, 
 J. V. Ortiz, A. F. Izmaylov, J. L. Sonnenberg, D. Williams-Young, 
 F. Ding, F. Lipparini, F. Egidi, J. Goings, B. Peng, A. Petrone, 
 T. Henderson, D. Ranasinghe, V. G. Zakrzewski, J. Gao, N. Rega, 
 G. Zheng, W. Liang, M. Hada, M. Ehara, K. Toyota, R. Fukuda, 
 J. Hasegawa, M. Ishida, T. Nakajima, Y. Honda, O. Kitao, H. Nakai, 
 T. Vreven, K. Throssell, J. A. Montgomery, Jr., J. E. Peralta, 
 F. Ogliaro, M. J. Bearpark, J. J. Heyd, E. N. Brothers, K. N. Kudin, 
 V. N. Staroverov, T. A. Keith, R. Kobayashi, J. Normand, 
 K. Raghavachari, A. P. Rendell, J. C. Burant, S. S. Iyengar, 
 J. Tomasi, M. Cossi, J. M. Millam, M. Klene, C. Adamo, R. Cammi, 
 J. W. Ochterski, R. L. Martin, K. Morokuma, O. Farkas, 
 J. B. Foresman, and D. J. Fox, Gaussian, Inc., Wallingford CT, 2016.
 
 ******************************************
 Gaussian 16:  ES64L-G16RevB.01 20-Dec-2017
                21-Feb-2022 
 ******************************************
 %nproc=28
 Will use up to   28 processors via shared memory.
 %mem=120GB
 %chk=hoono_r2_1p448184.chk
 ---------------------------------------
 #p freq mp2/aug-cc-pvtz density=current
 ---------------------------------------
 1/10=4,30=1,38=1/1,3;
 2/12=2,17=6,18=5,40=1/2;
 3/5=16,6=1,7=10,11=9,25=1,30=1,71=2,140=1/1,2,3;
 4//1;
 5/5=2,38=5,98=1/2;
 8/6=3,8=1,10=1,19=11,30=-1/1;
 9/15=3,16=-3/6;
 11/6=1,8=1,15=11,17=12,24=-1,27=1,28=-2,29=300,32=6,42=3/1,2,10;
 10/6=2,21=1/2;
 8/6=4,8=1,10=1,19=11,30=-1/11,4;
 10/5=1,20=4/2;
 11/12=2,14=11,16=1,17=2,28=-2,42=3,76=2/2,10,12;
 6/7=2,8=2,9=2,10=2,22=-1/1;
 7/8=1,10=1,12=2,25=1,44=2/1,2,3,16;
 1/10=4,30=1/3;
 99//99;
 Leave Link    1 at Mon Feb 21 20:10:42 2022, MaxMem= 16106127360 cpu:               1.9 elap:               0.1
 (Enter /sw/contrib/gaussian/g16/B01/g16/l101.exe)
 -----
 title
 -----
 Symbolic Z-matrix:
 Charge =  0 Multiplicity = 1
 H
 O                    1    r1
 O                    2    r2       1    a1
 N                    3    r3       2    a2       1    d1       0
 O                    4    r4       3    a3       2    d2       0
       Variables:
  r1                    0.96898                  
  r2                    1.44818                  
  r3                    1.45878                  
  r4                    1.17073                  
  a1                   97.59495                  
  a2                  102.29752                  
  a3                  109.06955                  
  d1                  180.                       
  d2                  180.                       
 
 ITRead=  0  0  0  0  0
 MicOpt= -1 -1 -1 -1 -1
 NAtoms=      5 NQM=        5 NQMF=       0 NMMI=      0 NMMIF=      0
                NMic=       0 NMicF=      0.
                    Isotopes and Nuclear Properties:
 (Nuclear quadrupole moments (NQMom) in fm**2, nuclear magnetic moments (NMagM)
  in nuclear magnetons)

  Atom         1           2           3           4           5
 IAtWgt=           1          16          16          14          16
 AtmWgt=   1.0078250  15.9949146  15.9949146  14.0030740  15.9949146
 NucSpn=           1           0           0           2           0
 AtZEff=  -0.0000000  -0.0000000  -0.0000000  -0.0000000  -0.0000000
 NQMom=    0.0000000   0.0000000   0.0000000   2.0440000   0.0000000
 NMagM=    2.7928460   0.0000000   0.0000000   0.4037610   0.0000000
 AtZNuc=   1.0000000   8.0000000   8.0000000   7.0000000   8.0000000
 Leave Link  101 at Mon Feb 21 20:10:42 2022, MaxMem= 16106127360 cpu:               3.4 elap:               0.2
 (Enter /sw/contrib/gaussian/g16/B01/g16/l103.exe)

 GradGradGradGradGradGradGradGradGradGradGradGradGradGradGradGradGradGrad
 Berny optimization.
 Initialization pass.
                       ----------------------------
                       !    Initial Parameters    !
                       ! (Angstroms and Degrees)  !
 ----------------------                            ----------------------
 !      Name          Value   Derivative information (Atomic Units)     !
 ------------------------------------------------------------------------
 !       r1          0.969    calculate D2E/DX2 analytically            !
 !       r2          1.4482   calculate D2E/DX2 analytically            !
 !       r3          1.4588   calculate D2E/DX2 analytically            !
 !       r4          1.1707   calculate D2E/DX2 analytically            !
 !       a1         97.5949   calculate D2E/DX2 analytically            !
 !       a2        102.2975   calculate D2E/DX2 analytically            !
 !       a3        109.0696   calculate D2E/DX2 analytically            !
 !       d1        180.0      calculate D2E/DX2 analytically            !
 !       d2        180.0      calculate D2E/DX2 analytically            !
 ------------------------------------------------------------------------
 Trust Radius=3.00D-01 FncErr=1.00D-07 GrdErr=1.00D-07 EigMax=2.50D+02 EigMin=1.00D-04
 Number of steps in this run=      2 maximum allowed number of steps=      2.
 GradGradGradGradGradGradGradGradGradGradGradGradGradGradGradGradGradGrad

 Leave Link  103 at Mon Feb 21 20:10:42 2022, MaxMem= 16106127360 cpu:               0.8 elap:               0.1
 (Enter /sw/contrib/gaussian/g16/B01/g16/l202.exe)
                          Input orientation:                          
 ---------------------------------------------------------------------
 Center     Atomic      Atomic             Coordinates (Angstroms)
 Number     Number       Type             X           Y           Z
 ---------------------------------------------------------------------
      1          1           0        0.000000    0.000000    0.000000
      2          8           0        0.000000    0.000000    0.968976
      3          8           0        1.435480    0.000000    1.160381
      4          7           0        1.555076    0.000000    2.614254
      5          8           0        2.689192    0.000000    2.904749
 ---------------------------------------------------------------------
                    Distance matrix (angstroms):
                    1          2          3          4          5
     1  H    0.000000
     2  O    0.968976   0.000000
     3  O    1.845830   1.448185   0.000000
     4  N    3.041806   2.263891   1.458784   0.000000
     5  O    3.958449   3.313453   2.148165   1.170729   0.000000
 Stoichiometry    HNO3
 Framework group  CS[SG(HNO3)]
 Deg. of freedom     7
 Full point group                 CS      NOp   2
 Largest Abelian subgroup         CS      NOp   2
 Largest concise Abelian subgroup C1      NOp   1
                         Standard orientation:                         
 ---------------------------------------------------------------------
 Center     Atomic      Atomic             Coordinates (Angstroms)
 Number     Number       Type             X           Y           Z
 ---------------------------------------------------------------------
      1          1           0        1.539524    1.691386    0.000000
      2          8           0        1.447187    0.726820    0.000000
      3          8           0        0.000000    0.673077   -0.000000
      4          7           0       -0.257595   -0.762784   -0.000000
      5          8           0       -1.414232   -0.943884   -0.000000
 ---------------------------------------------------------------------
 Rotational constants (GHZ):          55.1208415           5.0269693           4.6068306
 Leave Link  202 at Mon Feb 21 20:10:42 2022, MaxMem= 16106127360 cpu:               1.0 elap:               0.1
 (Enter /sw/contrib/gaussian/g16/B01/g16/l301.exe)
 Standard basis: Aug-CC-pVTZ (5D, 7F)
 Ernie: Thresh=  0.10000D-02 Tol=  0.10000D-05 Strict=F.
 Ernie:  12 primitive shells out of 131 were deleted.
 There are   166 symmetry adapted cartesian basis functions of A'  symmetry.
 There are    79 symmetry adapted cartesian basis functions of A"  symmetry.
 There are   136 symmetry adapted basis functions of A'  symmetry.
 There are    71 symmetry adapted basis functions of A"  symmetry.
   207 basis functions,   315 primitive gaussians,   245 cartesian basis functions
    16 alpha electrons       16 beta electrons
       nuclear repulsion energy       117.0389535274 Hartrees.
 IExCor=    0 DFT=F Ex=HF Corr=None ExCW=0 ScaHFX=  1.000000
 ScaDFX=  1.000000  1.000000  1.000000  1.000000 ScalE2=  1.000000  1.000000
 IRadAn=      5 IRanWt=     -1 IRanGd=            0 ICorTp=0 IEmpDi=  4
 NAtoms=    5 NActive=    5 NUniq=    5 SFac= 1.00D+00 NAtFMM=   60 NAOKFM=F Big=F
 Integral buffers will be    131072 words long.
 Raffenetti 1 integral format.
 Two-electron integral symmetry is turned on.
 Leave Link  301 at Mon Feb 21 20:10:42 2022, MaxMem= 16106127360 cpu:               3.2 elap:               0.1
 (Enter /sw/contrib/gaussian/g16/B01/g16/l302.exe)
 NPDir=0 NMtPBC=     1 NCelOv=     1 NCel=       1 NClECP=     1 NCelD=      1
         NCelK=      1 NCelE2=     1 NClLst=     1 CellRange=     0.0.
 One-electron integrals computed using PRISM.
 One-electron integral symmetry used in STVInt
 NBasis=   207 RedAO= T EigKep=  1.81D-04  NBF=   136    71
 NBsUse=   207 1.00D-06 EigRej= -1.00D+00 NBFU=   136    71
 Leave Link  302 at Mon Feb 21 20:10:42 2022, MaxMem= 16106127360 cpu:               4.5 elap:               0.2
 (Enter /sw/contrib/gaussian/g16/B01/g16/l303.exe)
 DipDrv:  MaxL=1.
 Leave Link  303 at Mon Feb 21 20:10:42 2022, MaxMem= 16106127360 cpu:               1.7 elap:               0.1
 (Enter /sw/contrib/gaussian/g16/B01/g16/l401.exe)
 ExpMin= 2.53D-02 ExpMax= 1.53D+04 ExpMxC= 5.22D+02 IAcc=3 IRadAn=         5 AccDes= 0.00D+00
 Harris functional with IExCor=  205 and IRadAn=       5 diagonalized for initial guess.
 HarFok:  IExCor=  205 AccDes= 0.00D+00 IRadAn=         5 IDoV= 1 UseB2=F ITyADJ=14
 ICtDFT=  3500011 ScaDFX=  1.000000  1.000000  1.000000  1.000000
 FoFCou: FMM=F IPFlag=           0 FMFlag=      100000 FMFlg1=           0
         NFxFlg=           0 DoJE=T BraDBF=F KetDBF=T FulRan=T
         wScrn=  0.000000 ICntrl=       500 IOpCl=  0 I1Cent=   200000004 NGrid=           0
         NMat0=    1 NMatS0=      1 NMatT0=    0 NMatD0=    1 NMtDS0=    0 NMtDT0=    0
 Petite list used in FoFCou.
 Harris En= -279.628966553560    
 JPrj=0 DoOrth=F DoCkMO=F.
 Initial guess orbital symmetries:
       Occupied  (A') (A') (A') (A') (A') (A') (A') (A') (A') (A')
                 (A") (A') (A') (A") (A") (A')
       Virtual   (A") (A') (A') (A') (A') (A') (A") (A') (A') (A')
                 (A") (A') (A") (A') (A') (A") (A') (A") (A') (A')
                 (A') (A') (A') (A') (A') (A") (A') (A") (A') (A')
                 (A") (A') (A") (A') (A') (A") (A') (A") (A') (A')
                 (A") (A') (A") (A') (A") (A') (A') (A') (A") (A")
                 (A') (A') (A') (A') (A") (A') (A") (A') (A") (A')
                 (A') (A') (A") (A') (A') (A") (A') (A") (A') (A')
                 (A") (A') (A') (A") (A") (A') (A') (A") (A') (A')
                 (A') (A") (A') (A") (A') (A") (A') (A") (A') (A')
                 (A') (A") (A') (A") (A') (A") (A") (A') (A') (A")
                 (A') (A') (A") (A') (A') (A') (A') (A") (A") (A')
                 (A") (A') (A') (A') (A") (A') (A') (A') (A") (A')
                 (A") (A') (A') (A") (A") (A') (A') (A") (A") (A')
                 (A') (A') (A') (A") (A") (A') (A") (A') (A') (A')
                 (A') (A") (A") (A') (A') (A") (A') (A') (A') (A')
                 (A") (A') (A') (A") (A') (A") (A') (A") (A') (A")
                 (A') (A") (A') (A") (A') (A") (A") (A") (A') (A')
                 (A") (A') (A") (A') (A") (A') (A") (A") (A') (A')
                 (A') (A') (A') (A') (A') (A') (A') (A') (A') (A')
                 (A')
 The electronic state of the initial guess is 1-A'.
 Leave Link  401 at Mon Feb 21 20:10:43 2022, MaxMem= 16106127360 cpu:               7.1 elap:               0.3
 (Enter /sw/contrib/gaussian/g16/B01/g16/l502.exe)
 Keep R1 ints in memory in symmetry-blocked form, NReq=348887737.
 FoFCou: FMM=F IPFlag=           0 FMFlag=           0 FMFlg1=           0
         NFxFlg=           0 DoJE=F BraDBF=F KetDBF=F FulRan=T
         wScrn=  0.000000 ICntrl=       600 IOpCl=  0 I1Cent=           0 NGrid=           0
         NMat0=    1 NMatS0=  21528 NMatT0=    0 NMatD0=    1 NMtDS0=    0 NMtDT0=    0
 Petite list used in FoFCou.
 Closed shell SCF:
 Using DIIS extrapolation, IDIIS=  1040.
 NGot= 16106127360 LenX= 15988850015 LenY= 15988789549
 Requested convergence on RMS density matrix=1.00D-08 within 128 cycles.
 Requested convergence on MAX density matrix=1.00D-06.
 Requested convergence on             energy=1.00D-06.
 No special actions if energy rises.

 Cycle   1  Pass 1  IDiag  1:
 E= -279.371168395627    
 DIIS: error= 2.52D-02 at cycle   1 NSaved=   1.
 NSaved= 1 IEnMin= 1 EnMin= -279.371168395627     IErMin= 1 ErrMin= 2.52D-02
 ErrMax= 2.52D-02  0.00D+00 EMaxC= 1.00D-01 BMatC= 4.38D-01 BMatP= 4.38D-01
 IDIUse=3 WtCom= 7.48D-01 WtEn= 2.52D-01
 Coeff-Com:  0.100D+01
 Coeff-En:   0.100D+01
 Coeff:      0.100D+01
 Gap=     0.512 Goal=   None    Shift=    0.000
 GapD=    0.512 DampG=2.000 DampE=0.500 DampFc=1.0000 IDamp=-1.
 RMSDP=1.62D-03 MaxDP=9.92D-02              OVMax= 1.13D-01

 Cycle   2  Pass 1  IDiag  1:
 E= -279.453308488848     Delta-E=       -0.082140093221 Rises=F Damp=F
 DIIS: error= 1.78D-02 at cycle   2 NSaved=   2.
 NSaved= 2 IEnMin= 2 EnMin= -279.453308488848     IErMin= 2 ErrMin= 1.78D-02
 ErrMax= 1.78D-02  0.00D+00 EMaxC= 1.00D-01 BMatC= 7.13D-02 BMatP= 4.38D-01
 IDIUse=3 WtCom= 8.22D-01 WtEn= 1.78D-01
 Coeff-Com:  0.194D+00 0.806D+00
 Coeff-En:   0.000D+00 0.100D+01
 Coeff:      0.159D+00 0.841D+00
 Gap=     0.530 Goal=   None    Shift=    0.000
 RMSDP=8.98D-04 MaxDP=3.74D-02 DE=-8.21D-02 OVMax= 6.90D-02

 Cycle   3  Pass 1  IDiag  1:
 E= -279.482237974170     Delta-E=       -0.028929485322 Rises=F Damp=F
 DIIS: error= 1.03D-02 at cycle   3 NSaved=   3.
 NSaved= 3 IEnMin= 3 EnMin= -279.482237974170     IErMin= 3 ErrMin= 1.03D-02
 ErrMax= 1.03D-02  0.00D+00 EMaxC= 1.00D-01 BMatC= 2.85D-02 BMatP= 7.13D-02
 IDIUse=3 WtCom= 8.97D-01 WtEn= 1.03D-01
 Coeff-Com: -0.329D-01 0.378D+00 0.655D+00
 Coeff-En:   0.000D+00 0.240D+00 0.760D+00
 Coeff:     -0.295D-01 0.364D+00 0.666D+00
 Gap=     0.510 Goal=   None    Shift=    0.000
 RMSDP=3.75D-04 MaxDP=1.55D-02 DE=-2.89D-02 OVMax= 3.80D-02

 Cycle   4  Pass 1  IDiag  1:
 E= -279.501139386448     Delta-E=       -0.018901412278 Rises=F Damp=F
 DIIS: error= 1.29D-03 at cycle   4 NSaved=   4.
 NSaved= 4 IEnMin= 4 EnMin= -279.501139386448     IErMin= 4 ErrMin= 1.29D-03
 ErrMax= 1.29D-03  0.00D+00 EMaxC= 1.00D-01 BMatC= 4.90D-04 BMatP= 2.85D-02
 IDIUse=3 WtCom= 9.87D-01 WtEn= 1.29D-02
 Coeff-Com: -0.116D-01 0.569D-01 0.158D+00 0.797D+00
 Coeff-En:   0.000D+00 0.000D+00 0.000D+00 0.100D+01
 Coeff:     -0.114D-01 0.562D-01 0.156D+00 0.800D+00
 Gap=     0.502 Goal=   None    Shift=    0.000
 RMSDP=9.03D-05 MaxDP=2.75D-03 DE=-1.89D-02 OVMax= 1.12D-02

 Cycle   5  Pass 1  IDiag  1:
 E= -279.501815890941     Delta-E=       -0.000676504493 Rises=F Damp=F
 DIIS: error= 7.34D-04 at cycle   5 NSaved=   5.
 NSaved= 5 IEnMin= 5 EnMin= -279.501815890941     IErMin= 5 ErrMin= 7.34D-04
 ErrMax= 7.34D-04  0.00D+00 EMaxC= 1.00D-01 BMatC= 8.70D-05 BMatP= 4.90D-04
 IDIUse=3 WtCom= 9.93D-01 WtEn= 7.34D-03
 Coeff-Com:  0.614D-02-0.725D-01-0.118D+00 0.182D-01 0.117D+01
 Coeff-En:   0.000D+00 0.000D+00 0.000D+00 0.000D+00 0.100D+01
 Coeff:      0.609D-02-0.720D-01-0.118D+00 0.180D-01 0.117D+01
 Gap=     0.502 Goal=   None    Shift=    0.000
 RMSDP=7.67D-05 MaxDP=2.12D-03 DE=-6.77D-04 OVMax= 1.12D-02

 Cycle   6  Pass 1  IDiag  1:
 E= -279.502133055723     Delta-E=       -0.000317164782 Rises=F Damp=F
 DIIS: error= 2.80D-04 at cycle   6 NSaved=   6.
 NSaved= 6 IEnMin= 6 EnMin= -279.502133055723     IErMin= 6 ErrMin= 2.80D-04
 ErrMax= 2.80D-04  0.00D+00 EMaxC= 1.00D-01 BMatC= 1.67D-05 BMatP= 8.70D-05
 IDIUse=3 WtCom= 9.97D-01 WtEn= 2.80D-03
 Coeff-Com:  0.521D-03 0.257D-02 0.617D-02-0.132D+00-0.244D+00 0.137D+01
 Coeff-En:   0.000D+00 0.000D+00 0.000D+00 0.000D+00 0.000D+00 0.100D+01
 Coeff:      0.520D-03 0.256D-02 0.615D-02-0.131D+00-0.243D+00 0.137D+01
 Gap=     0.502 Goal=   None    Shift=    0.000
 RMSDP=4.58D-05 MaxDP=1.26D-03 DE=-3.17D-04 OVMax= 5.63D-03

 Cycle   7  Pass 1  IDiag  1:
 E= -279.502206420238     Delta-E=       -0.000073364515 Rises=F Damp=F
 DIIS: error= 1.20D-04 at cycle   7 NSaved=   7.
 NSaved= 7 IEnMin= 7 EnMin= -279.502206420238     IErMin= 7 ErrMin= 1.20D-04
 ErrMax= 1.20D-04  0.00D+00 EMaxC= 1.00D-01 BMatC= 4.22D-06 BMatP= 1.67D-05
 IDIUse=3 WtCom= 9.99D-01 WtEn= 1.20D-03
 Coeff-Com: -0.940D-03 0.134D-01 0.262D-01-0.209D-01-0.278D+00 0.356D+00
 Coeff-Com:  0.905D+00
 Coeff-En:   0.000D+00 0.000D+00 0.000D+00 0.000D+00 0.000D+00 0.000D+00
 Coeff-En:   0.100D+01
 Coeff:     -0.938D-03 0.134D-01 0.262D-01-0.208D-01-0.278D+00 0.355D+00
 Coeff:      0.905D+00
 Gap=     0.502 Goal=   None    Shift=    0.000
 RMSDP=1.32D-05 MaxDP=3.78D-04 DE=-7.34D-05 OVMax= 1.55D-03

 Cycle   8  Pass 1  IDiag  1:
 E= -279.502215013534     Delta-E=       -0.000008593296 Rises=F Damp=F
 DIIS: error= 5.87D-05 at cycle   8 NSaved=   8.
 NSaved= 8 IEnMin= 8 EnMin= -279.502215013534     IErMin= 8 ErrMin= 5.87D-05
 ErrMax= 5.87D-05  0.00D+00 EMaxC= 1.00D-01 BMatC= 6.07D-07 BMatP= 4.22D-06
 IDIUse=1 WtCom= 1.00D+00 WtEn= 0.00D+00
 Coeff-Com: -0.449D-03 0.345D-02 0.762D-02 0.274D-01-0.407D-01-0.199D+00
 Coeff-Com:  0.203D+00 0.999D+00
 Coeff:     -0.449D-03 0.345D-02 0.762D-02 0.274D-01-0.407D-01-0.199D+00
 Coeff:      0.203D+00 0.999D+00
 Gap=     0.502 Goal=   None    Shift=    0.000
 RMSDP=6.68D-06 MaxDP=1.97D-04 DE=-8.59D-06 OVMax= 7.22D-04

 Cycle   9  Pass 1  IDiag  1:
 E= -279.502216713739     Delta-E=       -0.000001700205 Rises=F Damp=F
 DIIS: error= 1.58D-05 at cycle   9 NSaved=   9.
 NSaved= 9 IEnMin= 9 EnMin= -279.502216713739     IErMin= 9 ErrMin= 1.58D-05
 ErrMax= 1.58D-05  0.00D+00 EMaxC= 1.00D-01 BMatC= 7.06D-08 BMatP= 6.07D-07
 IDIUse=1 WtCom= 1.00D+00 WtEn= 0.00D+00
 Coeff-Com:  0.123D-03-0.172D-02-0.308D-02-0.211D-02 0.342D-01-0.131D-03
 Coeff-Com: -0.176D+00-0.856D-01 0.123D+01
 Coeff:      0.123D-03-0.172D-02-0.308D-02-0.211D-02 0.342D-01-0.131D-03
 Coeff:     -0.176D+00-0.856D-01 0.123D+01
 Gap=     0.502 Goal=   None    Shift=    0.000
 RMSDP=1.94D-06 MaxDP=6.65D-05 DE=-1.70D-06 OVMax= 1.76D-04

 Cycle  10  Pass 1  IDiag  1:
 E= -279.502216874212     Delta-E=       -0.000000160473 Rises=F Damp=F
 DIIS: error= 4.16D-06 at cycle  10 NSaved=  10.
 NSaved=10 IEnMin=10 EnMin= -279.502216874212     IErMin=10 ErrMin= 4.16D-06
 ErrMax= 4.16D-06  0.00D+00 EMaxC= 1.00D-01 BMatC= 5.55D-09 BMatP= 7.06D-08
 IDIUse=1 WtCom= 1.00D+00 WtEn= 0.00D+00
 Coeff-Com:  0.315D-04-0.249D-03-0.334D-03-0.272D-02 0.175D-02 0.198D-01
 Coeff-Com: -0.156D-01-0.727D-01-0.775D-01 0.115D+01
 Coeff:      0.315D-04-0.249D-03-0.334D-03-0.272D-02 0.175D-02 0.198D-01
 Coeff:     -0.156D-01-0.727D-01-0.775D-01 0.115D+01
 Gap=     0.502 Goal=   None    Shift=    0.000
 RMSDP=5.03D-07 MaxDP=2.10D-05 DE=-1.60D-07 OVMax= 4.20D-05

 Cycle  11  Pass 1  IDiag  1:
 E= -279.502216886718     Delta-E=       -0.000000012506 Rises=F Damp=F
 DIIS: error= 2.04D-06 at cycle  11 NSaved=  11.
 NSaved=11 IEnMin=11 EnMin= -279.502216886718     IErMin=11 ErrMin= 2.04D-06
 ErrMax= 2.04D-06  0.00D+00 EMaxC= 1.00D-01 BMatC= 6.65D-10 BMatP= 5.55D-09
 IDIUse=1 WtCom= 1.00D+00 WtEn= 0.00D+00
 Coeff-Com: -0.213D-04 0.244D-03 0.490D-03 0.542D-03-0.429D-02-0.365D-02
 Coeff-Com:  0.229D-01 0.286D-01-0.139D+00-0.178D+00 0.127D+01
 Coeff:     -0.213D-04 0.244D-03 0.490D-03 0.542D-03-0.429D-02-0.365D-02
 Coeff:      0.229D-01 0.286D-01-0.139D+00-0.178D+00 0.127D+01
 Gap=     0.502 Goal=   None    Shift=    0.000
 RMSDP=1.78D-07 MaxDP=6.55D-06 DE=-1.25D-08 OVMax= 1.74D-05

 Cycle  12  Pass 1  IDiag  1:
 E= -279.502216888534     Delta-E=       -0.000000001816 Rises=F Damp=F
 DIIS: error= 5.91D-07 at cycle  12 NSaved=  12.
 NSaved=12 IEnMin=12 EnMin= -279.502216888534     IErMin=12 ErrMin= 5.91D-07
 ErrMax= 5.91D-07  0.00D+00 EMaxC= 1.00D-01 BMatC= 7.19D-11 BMatP= 6.65D-10
 IDIUse=1 WtCom= 1.00D+00 WtEn= 0.00D+00
 Coeff-Com:  0.124D-05-0.290D-04-0.631D-04 0.180D-03 0.107D-02-0.232D-02
 Coeff-Com: -0.412D-02 0.572D-02 0.415D-01-0.113D+00-0.282D+00 0.135D+01
 Coeff:      0.124D-05-0.290D-04-0.631D-04 0.180D-03 0.107D-02-0.232D-02
 Coeff:     -0.412D-02 0.572D-02 0.415D-01-0.113D+00-0.282D+00 0.135D+01
 Gap=     0.502 Goal=   None    Shift=    0.000
 RMSDP=7.18D-08 MaxDP=2.82D-06 DE=-1.82D-09 OVMax= 6.71D-06

 Cycle  13  Pass 1  IDiag  1:
 E= -279.502216888764     Delta-E=       -0.000000000230 Rises=F Damp=F
 DIIS: error= 1.66D-07 at cycle  13 NSaved=  13.
 NSaved=13 IEnMin=13 EnMin= -279.502216888764     IErMin=13 ErrMin= 1.66D-07
 ErrMax= 1.66D-07  0.00D+00 EMaxC= 1.00D-01 BMatC= 3.99D-12 BMatP= 7.19D-11
 IDIUse=1 WtCom= 1.00D+00 WtEn= 0.00D+00
 Coeff-Com:  0.128D-05-0.139D-04-0.224D-04-0.897D-04 0.123D-03 0.770D-03
 Coeff-Com: -0.961D-03-0.314D-02 0.568D-03 0.409D-01-0.344D-01-0.327D+00
 Coeff-Com:  0.132D+01
 Coeff:      0.128D-05-0.139D-04-0.224D-04-0.897D-04 0.123D-03 0.770D-03
 Coeff:     -0.961D-03-0.314D-02 0.568D-03 0.409D-01-0.344D-01-0.327D+00
 Coeff:      0.132D+01
 Gap=     0.502 Goal=   None    Shift=    0.000
 RMSDP=1.90D-08 MaxDP=5.60D-07 DE=-2.30D-10 OVMax= 1.55D-06

 Cycle  14  Pass 1  IDiag  1:
 E= -279.502216888776     Delta-E=       -0.000000000012 Rises=F Damp=F
 DIIS: error= 2.38D-08 at cycle  14 NSaved=  14.
 NSaved=14 IEnMin=14 EnMin= -279.502216888776     IErMin=14 ErrMin= 2.38D-08
 ErrMax= 2.38D-08  0.00D+00 EMaxC= 1.00D-01 BMatC= 1.89D-13 BMatP= 3.99D-12
 IDIUse=1 WtCom= 1.00D+00 WtEn= 0.00D+00
 Coeff-Com: -0.187D-06 0.306D-05 0.551D-05 0.455D-05-0.810D-04 0.442D-04
 Coeff-Com:  0.294D-03 0.198D-03-0.240D-02 0.142D-02 0.167D-01-0.253D-01
 Coeff-Com: -0.197D+00 0.121D+01
 Coeff:     -0.187D-06 0.306D-05 0.551D-05 0.455D-05-0.810D-04 0.442D-04
 Coeff:      0.294D-03 0.198D-03-0.240D-02 0.142D-02 0.167D-01-0.253D-01
 Coeff:     -0.197D+00 0.121D+01
 Gap=     0.502 Goal=   None    Shift=    0.000
 RMSDP=3.73D-09 MaxDP=9.08D-08 DE=-1.21D-11 OVMax= 3.32D-07

 SCF Done:  E(RHF) =  -279.502216889     A.U. after   14 cycles
            NFock= 14  Conv=0.37D-08     -V/T= 2.0023
 KE= 2.788570633702D+02 PE=-8.954120742807D+02 EE= 2.200138404943D+02
 Leave Link  502 at Mon Feb 21 20:10:46 2022, MaxMem= 16106127360 cpu:              56.9 elap:               3.8
 (Enter /sw/contrib/gaussian/g16/B01/g16/l801.exe)
 ExpMin= 2.53D-02 ExpMax= 1.53D+04 ExpMxC= 5.22D+02 IAcc=3 IRadAn=         5 AccDes= 0.00D+00
 HarFok:  IExCor=  205 AccDes= 0.00D+00 IRadAn=         5 IDoV=-2 UseB2=F ITyADJ=14
 ICtDFT= 12500011 ScaDFX=  1.000000  1.000000  1.000000  1.000000
 Largest valence mixing into a core orbital is  2.08D-04
 Largest core mixing into a valence orbital is  3.62D-05
 Range of M.O.s used for correlation:     5   207
 NBasis=   207 NAE=    16 NBE=    16 NFC=     4 NFV=     0
 NROrb=    203 NOA=    12 NOB=    12 NVA=   191 NVB=   191

 **** Warning!!: The largest alpha MO coefficient is  0.17699686D+02

 Leave Link  801 at Mon Feb 21 20:10:47 2022, MaxMem= 16106127360 cpu:               3.1 elap:               0.2
 (Enter /sw/contrib/gaussian/g16/B01/g16/l906.exe)
 Frozen-core derivative calculation, NFC=   4 NFV=   0.
 FulOut=F Deriv=T AODrv=T NAtomX=     5
   MMem=           0  MDisk=          12 MDiskD=          12
  W3Min=      811440 MinDsk=     2425030 NBas6D=         245
 NBas2D=       30762    NTT=       30135    LW2=     7400000
    MDV= 16105574255 MDiskM=      328644 NBas2p=       30702
 Disk-based method using ON**2 memory for 12 occupieds at a time.
 Permanent disk used for amplitudes=    11516536 words.
 Estimated scratch disk usage=   321251614 words.
 IMap=   1   2   3   4   5   6   7   8   9  10  11  12  13  14  15  16
 Actual    scratch disk usage=   310331678 words.
 JobTyp=1 Pass  1:  I=   5 to  16 NPSUse= 28 ParTrn=T ParDer=T DoDerP=T.
 (rs|ai) integrals will be sorted in core.
 Spin components of T(2) and E(2):
     alpha-alpha T2 =       0.3396214138D-01 E2=     -0.1223634020D+00
     alpha-beta  T2 =       0.1863656683D+00 E2=     -0.6997711197D+00
     beta-beta   T2 =       0.3396214138D-01 E2=     -0.1223634020D+00
 The integrals were generated   1 times.
 ANorm=    0.1119950870D+01
 E2 =    -0.9444979237D+00 EUMP2 =    -0.28044671481252D+03
 Leave Link  906 at Mon Feb 21 20:12:23 2022, MaxMem= 16106127360 cpu:            2700.9 elap:              96.6
 (Enter /sw/contrib/gaussian/g16/B01/g16/l1101.exe)
 Using compressed Sx but separate Hx and Fx, NAtomX=     5.
 Will process      6 centers per pass.
 Leave Link 1101 at Mon Feb 21 20:12:23 2022, MaxMem= 16106127360 cpu:               5.2 elap:               0.2
 (Enter /sw/contrib/gaussian/g16/B01/g16/l1102.exe)
 Leave Link 1102 at Mon Feb 21 20:12:23 2022, MaxMem= 16106127360 cpu:               0.5 elap:               0.0
 (Enter /sw/contrib/gaussian/g16/B01/g16/l1110.exe)
 Forming Gx(P) for the SCF density, NAtomX=     5.
 Integral derivatives from FoFJK, PRISM(SPDF).
 Do as many integral derivatives as possible in FoFJK.
 G2DrvN: MDV=   16106126844.
 G2DrvN: will do     6 centers at a time, making    1 passes.
 Calling FoFCou, ICntrl=  3107 FMM=F I1Cent=   0 AccDes= 0.00D+00.
 FoFJK:  IHMeth= 1 ICntrl=    3107 DoSepK=F KAlg= 0 I1Cent=           0 FoldK=F
 IRaf=         0 NMat=       1 IRICut=       1 DoRegI=T DoRafI=F ISym2E= 1 IDoP0=0 IntGTp=1.
 FoFCou: FMM=F IPFlag=           0 FMFlag=      100000 FMFlg1=           0
         NFxFlg=           0 DoJE=F BraDBF=F KetDBF=F FulRan=T
         wScrn=  0.000000 ICntrl=      3107 IOpCl=  0 I1Cent=           0 NGrid=           0
         NMat0=    1 NMatS0=      1 NMatT0=    0 NMatD0=    1 NMtDS0=    0 NMtDT0=    0
 Petite list used in FoFCou.
 End of G2Drv F.D. properties file   721 does not exist.
 End of G2Drv F.D. properties file   722 does not exist.
 End of G2Drv F.D. properties file   788 does not exist.
 Leave Link 1110 at Mon Feb 21 20:12:26 2022, MaxMem= 16106127360 cpu:              83.3 elap:               3.0
 (Enter /sw/contrib/gaussian/g16/B01/g16/l1002.exe)
 Minotr:  Closed shell wavefunction.
          IDoAtm=11111
          Frozen-core window.
          Direct CPHF calculation.
          Differentiating once with respect to electric field.
                with respect to dipole field.
          Differentiating once with respect to nuclear coordinates.
          Requested convergence is 1.0D-08 RMS, and 1.0D-07 maximum.
          Secondary convergence is 1.0D-12 RMS, and 1.0D-12 maximum.
          NewPWx=T KeepS1=T KeepF1=T KeepIn=T MapXYZ=F SortEE=F KeepMc=T.
 Keep R1 ints in memory in symmetry-blocked form, NReq=348888983.
 FoFCou: FMM=F IPFlag=           0 FMFlag=           0 FMFlg1=           0
         NFxFlg=           0 DoJE=F BraDBF=F KetDBF=F FulRan=T
         wScrn=  0.000000 ICntrl=       600 IOpCl=  0 I1Cent=           0 NGrid=           0
         NMat0=    1 NMatS0=  21528 NMatT0=    0 NMatD0=    1 NMtDS0=    0 NMtDT0=    0
 Petite list used in FoFCou.
          MDV=   16106127360 using IRadAn=       1.
          Solving linear equations simultaneously, MaxMat=       0.
          There are    18 degrees of freedom in the 1st order CPHF.  IDoFFX=6 NUNeed=    18.
     15 vectors produced by pass  0 Test12= 1.70D-14 5.56D-09 XBig12= 8.20D+00 1.10D+00.
 AX will form    15 AO Fock derivatives at one time.
     15 vectors produced by pass  1 Test12= 1.70D-14 5.56D-09 XBig12= 1.33D+00 2.61D-01.
     15 vectors produced by pass  2 Test12= 1.70D-14 5.56D-09 XBig12= 1.40D-01 9.87D-02.
     15 vectors produced by pass  3 Test12= 1.70D-14 5.56D-09 XBig12= 4.90D-03 1.11D-02.
     15 vectors produced by pass  4 Test12= 1.70D-14 5.56D-09 XBig12= 9.79D-05 1.93D-03.
     15 vectors produced by pass  5 Test12= 1.70D-14 5.56D-09 XBig12= 1.38D-06 1.76D-04.
     15 vectors produced by pass  6 Test12= 1.70D-14 5.56D-09 XBig12= 1.10D-08 1.48D-05.
     13 vectors produced by pass  7 Test12= 1.70D-14 5.56D-09 XBig12= 8.10D-11 1.31D-06.
      3 vectors produced by pass  8 Test12= 1.70D-14 5.56D-09 XBig12= 5.62D-13 1.19D-07.
      2 vectors produced by pass  9 Test12= 1.70D-14 5.56D-09 XBig12= 3.63D-15 9.80D-09.
 InvSVY:  IOpt=1 It=  1 EMax= 8.88D-16
 Solved reduced A of dimension   123 with    15 vectors.
 FullF1:  Do perturbations      1 to      18.
 Saving first derivative matrices.
 End of Minotr F.D. properties file   721 does not exist.
 End of Minotr F.D. properties file   722 does not exist.
 End of Minotr F.D. properties file   788 does not exist.
 Leave Link 1002 at Mon Feb 21 20:12:29 2022, MaxMem= 16106127360 cpu:              78.9 elap:               2.9
 (Enter /sw/contrib/gaussian/g16/B01/g16/l811.exe)
 MDV= 16106127360.
 Form MO integral derivatives with frozen-active canonical formalism.
 MOERI=1 MOERIx=1 NAtoms=     5 NAtomX=     5.
 Discarding MO integrals.
 MO basis two electron integral derivatives will not be stored on disk.
 IAlg= 3 DoFC=T DoPWx=T Debug=F.
 Frozen-core window:  NFC=   4 NFV=   0.
 Reordered first order wavefunction length =     18678272
 In DefCFB: NBatch=  1 ICI= 16 ICA=191 LFMax= 96
            Large arrays: LIAPS=   619940160 LIARS=   288257200 words.
 In StABat: MaxSiz= 55 MinSiz= 25 NAtomB=  5
 DoIAMN: NPSUse= 28.
 Leave Link  811 at Mon Feb 21 20:13:50 2022, MaxMem= 16106127360 cpu:            2262.9 elap:              80.9
 (Enter /sw/contrib/gaussian/g16/B01/g16/l804.exe)
 Frozen-core window:  NFC=   4 NFV=   0.
 Closed-shell transformation, MDV= 16106127360 ITran=4 ISComp=1.
 Semi-Direct transformation.
 ModeAB=           2 MOrb=            16 LenV=   16104923037
 LASXX=     67341636 LTotXX=    67341636 LenRXX=    67341636
 LTotAB=    68301760 MaxLAS=    99807120 LenRXY=    99807120
 NonZer=   134683272 LenScr=   202817536 LnRSAI=           0
 LnScr1=           0 LExtra=           0 Total=    369966292
 MaxDsk=          -1 SrtSym=           F ITran=            4
 DoSDTr:  NPSUse= 28
 JobTyp=0 Pass  1:  I=   1 to  16.
 (rs|ai) integrals will be sorted in core.
 Complete sort for first half transformation.
 First half transformation complete.
 Begin second half transformation for I=  10.
 Begin second half transformation for I=  10.
 Complete sort for second half transformation.
 Second half transformation complete.
 Spin components of T(2) and E(2):
     alpha-alpha T2 =       0.3396214138D-01 E2=     -0.1223634020D+00
     alpha-beta  T2 =       0.1863656683D+00 E2=     -0.6997711197D+00
     beta-beta   T2 =       0.3396214138D-01 E2=     -0.1223634020D+00
 ANorm=    0.1583849709D+01
 E2 =    -0.9444979237D+00 EUMP2 =    -0.28044671481252D+03
 Leave Link  804 at Mon Feb 21 20:14:06 2022, MaxMem= 16106127360 cpu:             425.6 elap:              15.2
 (Enter /sw/contrib/gaussian/g16/B01/g16/l1002.exe)
 Minotr:  Closed shell wavefunction.
          Computing MP2/KS-MP2 derivatives.
          Using Z-Vector for PSCF gradient.
          Skipping F1 and S1 gradient terms here.
          IDoAtm=11111
          Frozen-core window.
          Using MO integrals in the linear equations.
          Forming densities via direct SCF.
          Differentiating once with respect to electric field.
                with respect to dipole field.
          Differentiating once with respect to nuclear coordinates.
          Using symmetry in CPHF.
          Requested convergence is 1.0D-10 RMS, and 1.0D-09 maximum.
          NewPWx=F KeepS1=T KeepF1=T KeepIn=T MapXYZ=F SortEE=F KeepMc=T.
          MDV=   16106127360 using IRadAn=       5.
          Solving linear equations separately, MaxMat=       0.
          There are     1 degrees of freedom in the 1st order CPHF.  IDoFFX=0 NUNeed=     1.
 FoFJK:  IHMeth= 1 ICntrl=       0 DoSepK=F KAlg= 0 I1Cent=           0 FoldK=F
 IRaf=         0 NMat=       1 IRICut=       1 DoRegI=T DoRafI=F ISym2E= 0 IDoP0=0 IntGTp=1.
 FoFCou: FMM=F IPFlag=           0 FMFlag=      100000 FMFlg1=           0
         NFxFlg=           0 DoJE=F BraDBF=F KetDBF=F FulRan=T
         wScrn=  0.000000 ICntrl=         0 IOpCl=  0 I1Cent=           0 NGrid=           0
         NMat0=    1 NMatS0=      1 NMatT0=    0 NMatD0=    1 NMtDS0=    0 NMtDT0=    0
 Symmetry not used in FoFCou.
 LinEq1:  Iter=  0 NonCon=     1 RMS=5.95D-03 Max=1.32D-01 NDo=     1
 LinEq1:  Iter=  1 NonCon=     1 RMS=1.90D-03 Max=3.84D-02 NDo=     1
 LinEq1:  Iter=  2 NonCon=     1 RMS=8.67D-04 Max=1.40D-02 NDo=     1
 LinEq1:  Iter=  3 NonCon=     1 RMS=3.86D-04 Max=7.84D-03 NDo=     1
 LinEq1:  Iter=  4 NonCon=     1 RMS=1.20D-04 Max=1.92D-03 NDo=     1
 LinEq1:  Iter=  5 NonCon=     1 RMS=4.61D-05 Max=7.35D-04 NDo=     1
 LinEq1:  Iter=  6 NonCon=     1 RMS=2.04D-05 Max=2.50D-04 NDo=     1
 LinEq1:  Iter=  7 NonCon=     1 RMS=8.14D-06 Max=1.60D-04 NDo=     1
 LinEq1:  Iter=  8 NonCon=     1 RMS=3.46D-06 Max=3.44D-05 NDo=     1
 LinEq1:  Iter=  9 NonCon=     1 RMS=9.41D-07 Max=1.31D-05 NDo=     1
 LinEq1:  Iter= 10 NonCon=     1 RMS=1.85D-07 Max=1.99D-06 NDo=     1
 LinEq1:  Iter= 11 NonCon=     1 RMS=3.44D-08 Max=3.69D-07 NDo=     1
 LinEq1:  Iter= 12 NonCon=     1 RMS=8.25D-09 Max=1.33D-07 NDo=     1
 LinEq1:  Iter= 13 NonCon=     1 RMS=1.48D-09 Max=2.69D-08 NDo=     1
 LinEq1:  Iter= 14 NonCon=     1 RMS=2.67D-10 Max=3.74D-09 NDo=     1
 LinEq1:  Iter= 15 NonCon=     0 RMS=4.79D-11 Max=5.44D-10 NDo=     1
 Linear equations converged to 1.000D-10 1.000D-09 after    15 iterations.
 End of Minotr F.D. properties file   721 does not exist.
 End of Minotr F.D. properties file   722 does not exist.
 End of Minotr F.D. properties file   788 does not exist.
 Leave Link 1002 at Mon Feb 21 20:14:08 2022, MaxMem= 16106127360 cpu:              66.6 elap:               2.4
 (Enter /sw/contrib/gaussian/g16/B01/g16/l1102.exe)
 Use density number 2.
 Symmetrizing basis deriv contribution to polar:
 IMax=3 JMax=2 DiffMx= 0.00D+00
 Leave Link 1102 at Mon Feb 21 20:14:08 2022, MaxMem= 16106127360 cpu:               1.1 elap:               0.1
 (Enter /sw/contrib/gaussian/g16/B01/g16/l1110.exe)
 Forming Gx(P) for generalized density number  2 NAtomX=     5.
 Integral derivatives from FoFJK, PRISM(SPDF).
 Do as many integral derivatives as possible in FoFJK.
 G2DrvN: MDV=   16106126844.
 G2DrvN: will do     6 centers at a time, making    1 passes.
 Calling FoFCou, ICntrl=  3107 FMM=F I1Cent=   0 AccDes= 0.00D+00.
 FoFJK:  IHMeth= 1 ICntrl=    3107 DoSepK=F KAlg= 0 I1Cent=           0 FoldK=F
 IRaf=         0 NMat=       1 IRICut=       1 DoRegI=T DoRafI=F ISym2E= 1 IDoP0=0 IntGTp=1.
 FoFCou: FMM=F IPFlag=           0 FMFlag=      100000 FMFlg1=           0
         NFxFlg=           0 DoJE=F BraDBF=F KetDBF=F FulRan=T
         wScrn=  0.000000 ICntrl=      3107 IOpCl=  0 I1Cent=           0 NGrid=           0
         NMat0=    1 NMatS0=      1 NMatT0=    0 NMatD0=    1 NMtDS0=    0 NMtDT0=    0
 Petite list used in FoFCou.
 End of G2Drv F.D. properties file   721 does not exist.
 End of G2Drv F.D. properties file   722 does not exist.
 End of G2Drv F.D. properties file   788 does not exist.
 Leave Link 1110 at Mon Feb 21 20:14:11 2022, MaxMem= 16106127360 cpu:              82.9 elap:               3.0
 (Enter /sw/contrib/gaussian/g16/B01/g16/l1112.exe)
 MP22nd: MDV=   16106127360
 This link is doing NAtomX=     5 total of    18 degrees of freedom.
 Using ON3 I/O method in MakUI.
 Frozen-core window:  NFC=   4 NFV=   0.
 Using Ix for Sx.
 Use MO integrals over full window.
 Using OV2 memory method for fx*t*t/D, MaxI=    16 DoOO2=F NP=  28.
 R2 and R3 integrals will be kept in memory, NReq=   915591705.
 FoFCou: FMM=F IPFlag=           0 FMFlag=           0 FMFlg1=           0
         NFxFlg=           0 DoJE=F BraDBF=F KetDBF=F FulRan=T
         wScrn=  0.000000 ICntrl=       600 IOpCl=  0 I1Cent=           0 NGrid=           0
         NMat0=    1 NMatS0=      1 NMatT0=    0 NMatD0=    1 NMtDS0=    0 NMtDT0=    0
 Symmetry not used in FoFCou.
 DD1Dir will call FoFMem   1 times, MxPair=       272
 NAB=   136 NAA=     0 NBB=     0.
 Symmetry is being used.
 FoFJK:  IHMeth= 1 ICntrl=       0 DoSepK=F KAlg= 0 I1Cent=           0 FoldK=F
 IRaf=         0 NMat=      18 IRICut=      45 DoRegI=T DoRafI=T ISym2E= 2 IDoP0=3 IntGTp=3.
 Discarding MO integrals.
 Leave Link 1112 at Mon Feb 21 20:14:53 2022, MaxMem= 16106127360 cpu:            1149.3 elap:              41.7
 (Enter /sw/contrib/gaussian/g16/B01/g16/l601.exe)
 Copying SCF densities to generalized density rwf, IOpCl= 0 IROHF=0.

 **********************************************************************

            Population analysis using the MP2 Density.

 **********************************************************************

 Orbital symmetries:
       Occupied  (A') (A') (A') (A') (A') (A') (A') (A') (A') (A')
                 (A") (A') (A") (A') (A") (A')
       Virtual   (A') (A") (A') (A') (A") (A') (A') (A') (A") (A')
                 (A") (A') (A') (A") (A') (A') (A') (A") (A') (A')
                 (A') (A') (A') (A') (A") (A') (A') (A") (A') (A')
                 (A") (A') (A") (A') (A') (A") (A') (A') (A") (A')
                 (A") (A') (A") (A') (A') (A") (A') (A') (A") (A')
                 (A") (A') (A') (A') (A") (A') (A") (A') (A") (A')
                 (A') (A') (A") (A') (A') (A") (A') (A") (A') (A')
                 (A") (A') (A') (A") (A") (A') (A') (A") (A') (A')
                 (A') (A") (A') (A") (A") (A') (A') (A") (A') (A')
                 (A") (A') (A') (A") (A') (A") (A') (A") (A') (A')
                 (A") (A') (A") (A') (A') (A") (A') (A') (A") (A')
                 (A") (A') (A') (A') (A") (A') (A') (A') (A") (A')
                 (A") (A') (A") (A') (A') (A") (A") (A') (A") (A')
                 (A') (A') (A') (A") (A") (A") (A') (A') (A') (A')
                 (A") (A') (A") (A') (A') (A") (A') (A') (A') (A')
                 (A") (A') (A') (A") (A') (A") (A') (A") (A') (A")
                 (A') (A") (A') (A') (A") (A") (A") (A') (A") (A')
                 (A") (A') (A") (A') (A") (A') (A") (A") (A') (A')
                 (A') (A') (A') (A') (A') (A') (A') (A') (A') (A')
                 (A')
 The electronic state is 1-A'.
 Alpha  occ. eigenvalues --  -20.69050 -20.68418 -20.65940 -15.81270  -1.62424
 Alpha  occ. eigenvalues --   -1.49844  -1.25321  -0.94816  -0.77351  -0.75973
 Alpha  occ. eigenvalues --   -0.71242  -0.67939  -0.62110  -0.59034  -0.48401
 Alpha  occ. eigenvalues --   -0.47234
 Alpha virt. eigenvalues --    0.02964   0.07168   0.08611   0.10175   0.13395
 Alpha virt. eigenvalues --    0.13426   0.14411   0.15456   0.17824   0.19411
 Alpha virt. eigenvalues --    0.19978   0.20643   0.22154   0.23743   0.23841
 Alpha virt. eigenvalues --    0.26610   0.29349   0.30394   0.31063   0.34387
 Alpha virt. eigenvalues --    0.35000   0.38734   0.42235   0.43175   0.52745
 Alpha virt. eigenvalues --    0.52939   0.55861   0.58184   0.62608   0.63825
 Alpha virt. eigenvalues --    0.67443   0.68438   0.70694   0.71094   0.72447
 Alpha virt. eigenvalues --    0.72923   0.74461   0.79203   0.79211   0.81031
 Alpha virt. eigenvalues --    0.81283   0.83107   0.86830   0.90897   0.92207
 Alpha virt. eigenvalues --    0.92689   0.95633   0.97787   0.98507   1.01650
 Alpha virt. eigenvalues --    1.05247   1.05467   1.08301   1.11839   1.14220
 Alpha virt. eigenvalues --    1.18996   1.22077   1.23316   1.33902   1.35086
 Alpha virt. eigenvalues --    1.38631   1.45369   1.48769   1.50849   1.53843
 Alpha virt. eigenvalues --    1.56747   1.58015   1.61367   1.66509   1.67029
 Alpha virt. eigenvalues --    1.70340   1.79397   1.83178   1.83485   1.87898
 Alpha virt. eigenvalues --    1.91072   1.95628   1.99299   2.00503   2.07807
 Alpha virt. eigenvalues --    2.12235   2.13213   2.15146   2.22478   2.26516
 Alpha virt. eigenvalues --    2.26602   2.28998   2.31509   2.34602   2.38535
 Alpha virt. eigenvalues --    2.42551   2.42988   2.45461   2.46275   2.47754
 Alpha virt. eigenvalues --    2.50206   2.59034   2.59742   2.62226   2.62630
 Alpha virt. eigenvalues --    2.63658   2.67007   2.75797   2.82530   2.85750
 Alpha virt. eigenvalues --    2.88761   2.89716   2.92632   2.95967   3.02942
 Alpha virt. eigenvalues --    3.06807   3.12023   3.21255   3.22979   3.31892
 Alpha virt. eigenvalues --    3.33915   3.51963   3.64460   3.83850   3.84613
 Alpha virt. eigenvalues --    4.14993   4.16539   4.18480   4.25846   4.35331
 Alpha virt. eigenvalues --    4.39476   4.46996   4.51821   4.66285   4.71419
 Alpha virt. eigenvalues --    4.80573   4.82423   4.82929   4.89635   5.02380
 Alpha virt. eigenvalues --    5.07776   5.10479   5.14431   5.17935   5.24343
 Alpha virt. eigenvalues --    5.27225   5.30850   5.33058   5.35686   5.61021
 Alpha virt. eigenvalues --    5.67376   5.77139   5.84020   5.96023   6.17016
 Alpha virt. eigenvalues --    6.29823   6.33932   6.39290   6.49313   6.50531
 Alpha virt. eigenvalues --    6.61198   6.66362   6.69872   6.75728   6.76652
 Alpha virt. eigenvalues --    6.83284   6.89895   7.01900   7.06105   7.06533
 Alpha virt. eigenvalues --    7.09552   7.12538   7.15472   7.18405   7.22682
 Alpha virt. eigenvalues --    7.24393   7.30820   7.32539   7.34753   7.40106
 Alpha virt. eigenvalues --    7.43993   7.48523   7.61287   7.62042   7.63003
 Alpha virt. eigenvalues --    7.66814   7.79623   7.88857   8.10391   8.32335
 Alpha virt. eigenvalues --    8.41610   8.54478  13.41143  14.40209  15.17051
 Alpha virt. eigenvalues --   16.15333
          Condensed to atoms (all electrons):
               1          2          3          4          5
     1  H    0.589979   0.128605   0.019662   0.012552  -0.000678
     2  O    0.128605   8.330193  -0.182142  -0.091582   0.015732
     3  O    0.019662  -0.182142   8.477585  -0.129272  -0.039074
     4  N    0.012552  -0.091582  -0.129272   6.973132  -0.055993
     5  O   -0.000678   0.015732  -0.039074  -0.055993   8.273490
 Mulliken charges:
               1
     1  H    0.249880
     2  O   -0.200806
     3  O   -0.146760
     4  N    0.291162
     5  O   -0.193476
 Sum of Mulliken charges =  -0.00000
 Mulliken charges with hydrogens summed into heavy atoms:
               1
     2  O    0.049073
     3  O   -0.146760
     4  N    0.291162
     5  O   -0.193476
 APT charges:
               1
     1  H    0.299619
     2  O   -0.287963
     3  O   -0.495461
     4  N    0.876478
     5  O   -0.392673
 Sum of APT charges =  -0.00000
 APT charges with hydrogens summed into heavy atoms:
               1
     2  O    0.011656
     3  O   -0.495461
     4  N    0.876478
     5  O   -0.392673
 Electronic spatial extent (au):  <R**2>=            252.2525
 Charge=             -0.0000 electrons
 Dipole moment (field-independent basis, Debye):
    X=              0.5070    Y=              1.3669    Z=             -0.0000  Tot=              1.4579
 Quadrupole moment (field-independent basis, Debye-Ang):
   XX=            -22.5060   YY=            -18.5912   ZZ=            -22.0009
   XY=              3.2345   XZ=             -0.0000   YZ=              0.0000
 Traceless Quadrupole moment (field-independent basis, Debye-Ang):
   XX=             -1.4733   YY=              2.4415   ZZ=             -0.9682
   XY=              3.2345   XZ=             -0.0000   YZ=              0.0000
 Octapole moment (field-independent basis, Debye-Ang**2):
  XXX=              2.7640  YYY=             11.3904  ZZZ=             -0.0000  XYY=              7.9019
  XXY=              6.5128  XXZ=              0.0000  XZZ=             -1.5650  YZZ=             -0.8494
  YYZ=              0.0000  XYZ=              0.0000
 Hexadecapole moment (field-independent basis, Debye-Ang**3):
 XXXX=           -157.4477 YYYY=            -90.0328 ZZZZ=            -18.2232 XXXY=            -36.8305
 XXXZ=             -0.0000 YYYX=            -30.6979 YYYZ=             -0.0000 ZZZX=             -0.0000
 ZZZY=             -0.0000 XXYY=            -33.9553 XXZZ=            -30.6585 YYZZ=            -20.7422
 XXYZ=             -0.0000 YYXZ=             -0.0000 ZZXY=            -15.0461
 N-N= 1.170389535274D+02 E-N=-8.961928431249D+02  KE= 2.802069656256D+02
 Symmetry A'   KE= 2.662317039327D+02
 Symmetry A"   KE= 1.397526169293D+01
  Exact polarizability:  33.836   9.460  30.279   0.000   0.000  17.905
 Approx polarizability:  28.812   5.110  23.536   0.000   0.000  15.511
 No NMR shielding tensors so no spin-rotation constants.
 Leave Link  601 at Mon Feb 21 20:14:53 2022, MaxMem= 16106127360 cpu:               5.6 elap:               0.2
 (Enter /sw/contrib/gaussian/g16/B01/g16/l701.exe)
 ... and contract with generalized density number  2.
 Compute integral second derivatives.
 Leave Link  701 at Mon Feb 21 20:14:53 2022, MaxMem= 16106127360 cpu:               5.7 elap:               0.2
 (Enter /sw/contrib/gaussian/g16/B01/g16/l702.exe)
 L702 exits ... SP integral derivatives will be done elsewhere.
 Leave Link  702 at Mon Feb 21 20:14:53 2022, MaxMem= 16106127360 cpu:               0.5 elap:               0.0
 (Enter /sw/contrib/gaussian/g16/B01/g16/l703.exe)
 Integral derivatives from FoFJK, PRISM(SPDF).
 Compute integral second derivatives, UseDBF=F ICtDFT=           0.
 Calling FoFJK, ICntrl=  10100127 FMM=F ISym2X=1 I1Cent= 0 IOpClX= 0 NMat=1 NMatS=1 NMatT=0.
 FoFJK:  IHMeth= 1 ICntrl=10100127 DoSepK=F KAlg= 0 I1Cent=           0 FoldK=F
 IRaf=         0 NMat=       1 IRICut=       1 DoRegI=T DoRafI=F ISym2E= 1 IDoP0=0 IntGTp=1.
 FoFCou: FMM=F IPFlag=           0 FMFlag=      100000 FMFlg1=         800
         NFxFlg=           0 DoJE=F BraDBF=F KetDBF=F FulRan=T
         wScrn=  0.000000 ICntrl=  10100127 IOpCl=  0 I1Cent=           0 NGrid=           0
         NMat0=    1 NMatS0=      1 NMatT0=    0 NMatD0=    1 NMtDS0=    0 NMtDT0=    0
 Petite list used in FoFCou.
 Leave Link  703 at Mon Feb 21 20:15:08 2022, MaxMem= 16106127360 cpu:             421.1 elap:              15.1
 (Enter /sw/contrib/gaussian/g16/B01/g16/l716.exe)
 Dipole        = 1.99468860D-01 5.37766187D-01-3.60796894D-33
 Polarizability= 3.38357343D+01 9.45982569D+00 3.02793990D+01
                 1.09813772D-30 2.54198564D-30 1.79052050D+01
 Full mass-weighted force constant matrix:
 Low frequencies --- -266.8653  -43.9001  -26.0930   -0.0019   -0.0016   -0.0006
 Low frequencies ---   18.0921  226.6515  340.1067
 ******    1 imaginary frequencies (negative Signs) ****** 
 Diagonal vibrational polarizability:
       13.7933516      25.3155215      47.6168169
 Harmonic frequencies (cm**-1), IR intensities (KM/Mole), Raman scattering
 activities (A**4/AMU), depolarization ratios for plane and unpolarized
 incident light, reduced masses (AMU), force constants (mDyne/A),
 and normal coordinates:
                      1                      2                      3
                     A"                     A"                     A'
 Frequencies --   -266.8138               226.5364               340.0916
 Red. masses --      1.1378                10.6239                 8.5740
 Frc consts  --      0.0477                 0.3212                 0.5843
 IR Inten    --    124.9748                 0.7125                 5.6835
  Atom  AN      X      Y      Z        X      Y      Z        X      Y      Z
     1   1     0.00  -0.00   1.00     0.00  -0.00  -0.57     0.54  -0.44   0.00
     2   8     0.00  -0.00  -0.06     0.00  -0.00  -0.31    -0.09  -0.37   0.00
     3   8    -0.00   0.00  -0.04    -0.00   0.00   0.33    -0.14   0.44  -0.00
     4   7    -0.00   0.00   0.06    -0.00   0.00   0.53     0.04   0.25  -0.00
     5   8     0.00  -0.00  -0.01     0.00  -0.00  -0.44     0.16  -0.25   0.00
                      4                      5                      6
                     A'                     A'                     A'
 Frequencies --    453.6798               789.2730               981.4637
 Red. masses --     12.3707                12.8503                15.5556
 Frc consts  --      1.5002                 4.7165                 8.8285
 IR Inten    --    199.6454               172.7857                19.6082
  Atom  AN      X      Y      Z        X      Y      Z        X      Y      Z
     1   1     0.40   0.20   0.00    -0.35   0.19   0.00    -0.14  -0.05  -0.00
     2   8     0.32   0.21   0.00     0.41   0.09   0.00    -0.54   0.03   0.00
     3   8     0.18   0.43  -0.00    -0.04  -0.26  -0.00     0.75  -0.01   0.00
     4   7    -0.35  -0.41  -0.00    -0.15   0.62  -0.00    -0.12   0.22  -0.00
     5   8    -0.22  -0.30   0.00    -0.22  -0.38   0.00    -0.11  -0.21  -0.00
                      7                      8                      9
                     A'                     A'                     A'
 Frequencies --   1378.8170              1677.6916              3778.0459
 Red. masses --      1.1340                13.1286                 1.0675
 Frc consts  --      1.2702                21.7717                 8.9774
 IR Inten    --    153.7649               139.9869                82.8561
  Atom  AN      X      Y      Z        X      Y      Z        X      Y      Z
     1   1     0.99  -0.05   0.00    -0.35   0.00  -0.00     0.10   0.99  -0.00
     2   8    -0.03   0.05   0.00    -0.00  -0.04  -0.00    -0.01  -0.06   0.00
     3   8    -0.02  -0.05  -0.00     0.00   0.15   0.00     0.00   0.00   0.00
     4   7     0.02   0.01  -0.00     0.70  -0.05   0.00    -0.00  -0.00  -0.00
     5   8    -0.03  -0.01   0.00    -0.59  -0.07  -0.00     0.00   0.00  -0.00

 -------------------
 - Thermochemistry -
 -------------------
 Temperature   298.150 Kelvin.  Pressure   1.00000 Atm.
 Atom     1 has atomic number  1 and mass   1.00783
 Atom     2 has atomic number  8 and mass  15.99491
 Atom     3 has atomic number  8 and mass  15.99491
 Atom     4 has atomic number  7 and mass  14.00307
 Atom     5 has atomic number  8 and mass  15.99491
 Molecular mass:    62.99564 amu.
 Principal axes and moments of inertia in atomic units:
                           1         2         3
     Eigenvalues --    32.74154 359.01178 391.75332
           X            0.80768  -0.58962   0.00000
           Y            0.58962   0.80768   0.00000
           Z           -0.00000   0.00000   1.00000
 This molecule is an asymmetric top.
 Rotational symmetry number  1.
 Rotational temperatures (Kelvin)      2.64538     0.24126     0.22109
 Rotational constants (GHZ):          55.12084     5.02697     4.60683
    1 imaginary frequencies ignored.
 Zero-point vibrational energy      57573.9 (Joules/Mol)
                                   13.76048 (Kcal/Mol)
 Warning -- explicit consideration of   3 degrees of freedom as
           vibrations may cause significant error
 Vibrational temperatures:    325.94   489.32   652.74  1135.59  1412.11
          (Kelvin)           1983.81  2413.82  5435.77
 
 Zero-point correction=                           0.021929 (Hartree/Particle)
 Thermal correction to Energy=                    0.026046
 Thermal correction to Enthalpy=                  0.026990
 Thermal correction to Gibbs Free Energy=        -0.004194
 Sum of electronic and zero-point Energies=           -280.424786
 Sum of electronic and thermal Energies=              -280.420669
 Sum of electronic and thermal Enthalpies=            -280.419724
 Sum of electronic and thermal Free Energies=         -280.450909
 
                     E (Thermal)             CV                S
                      KCal/Mol        Cal/Mol-Kelvin    Cal/Mol-Kelvin
 Total                   16.344             11.930             65.633
 Electronic               0.000              0.000              0.000
 Translational            0.889              2.981             38.341
 Rotational               0.889              2.981             23.047
 Vibrational             14.567              5.969              4.245
 Vibration     1          0.650              1.801              1.906
 Vibration     2          0.720              1.595              1.212
 Vibration     3          0.812              1.353              0.785
                       Q            Log10(Q)             Ln(Q)
 Total Bot       0.849212D+02          1.929016          4.441723
 Total V=0       0.103639D+13         12.015522         27.666761
 Vib (Bot)       0.177885D-09         -9.749860        -22.449881
 Vib (Bot)    1  0.870741D+00         -0.060111         -0.138410
 Vib (Bot)    2  0.545953D+00         -0.262845         -0.605223
 Vib (Bot)    3  0.376860D+00         -0.423820         -0.975881
 Vib (V=0)       0.217093D+01          0.336646          0.775157
 Vib (V=0)    1  0.150409D+01          0.177273          0.408186
 Vib (V=0)    2  0.124031D+01          0.093532          0.215364
 Vib (V=0)    3  0.112612D+01          0.051584          0.118776
 Electronic      0.100000D+01          0.000000          0.000000
 Translational   0.196526D+08          7.293420         16.793719
 Rotational      0.242916D+05          4.385456         10.097885
 
                                                                title
                                                             IR Spectrum
 
     3                                                                      1         1                                              
     7                                                                      6         3             9     7          4   3   2       
     7                                                                      7         7             8     8          5   4   2       
     8                                                                      8         9             1     9          4   0   7       
 
     X                                                                      X         X             X     X          X   X   X       
     X                                                                      X         X             X     X          X               
     X                                                                      X         X                   X          X               
     X                                                                      X         X                   X          X               
     X                                                                      X         X                   X          X               
     X                                                                      X         X                   X          X               
     X                                                                      X         X                   X          X               
     X                                                                      X         X                   X          X               
                                                                            X         X                   X          X               
                                                                            X         X                   X          X               
                                                                            X         X                   X          X               
                                                                            X         X                   X          X               
                                                                            X         X                   X          X               
                                                                            X         X                   X          X               
                                                                                      X                   X          X               
                                                                                                          X          X               
                                                                                                          X          X               
                                                                                                                     X               
                                                                                                                     X               
                                                                                                                     X               
 
 ***** Axes restored to original set *****
 -------------------------------------------------------------------
 Center     Atomic                   Forces (Hartrees/Bohr)
 Number     Number              X              Y              Z
 -------------------------------------------------------------------
      1        1          -0.000392162   -0.000000000    0.000133373
      2        8          -0.002913889   -0.000000000   -0.001099709
      3        8           0.002898066    0.000000000    0.001056783
      4        7           0.000012301    0.000000000   -0.000394259
      5        8           0.000395683    0.000000000    0.000303812
 -------------------------------------------------------------------
 Cartesian Forces:  Max     0.002913889 RMS     0.001148672
 -----------------------------------------------------------------------------------------------
                       Internal Coordinate Forces (Hartree/Bohr or radian)
  Cent   Atom   N1       Length/X         N2         Alpha/Y        N3         Beta/Z          J
 -----------------------------------------------------------------------------------------------
      1  H 
      2  O        1  -0.000133(     1)
      3  O        2   0.003405(     2)      1   0.000718(     5)
      4  N        3  -0.000057(     3)      2   0.000707(     6)      1  -0.000000(     8)     0
      5  O        4   0.000459(     4)      3   0.000434(     7)      2   0.000000(     9)     0
 -----------------------------------------------------------------------------------------------
 Internal  Forces:  Max     0.003404767 RMS     0.001203155
 Force constants in Cartesian coordinates: 
                1             2             3             4             5 
      1  0.653630D-01
      2  0.000000D+00 -0.230975D-02
      3  0.574147D-02  0.000000D+00  0.512198D+00
      4 -0.357188D-01  0.000000D+00 -0.165959D-01  0.282532D+00
      5  0.000000D+00  0.285243D-02  0.000000D+00  0.000000D+00  0.124012D-02
      6  0.485931D-01  0.000000D+00 -0.508182D+00  0.360481D-01  0.000000D+00
      7 -0.191320D-01  0.000000D+00  0.124277D-01 -0.229401D+00  0.000000D+00
      8  0.000000D+00  0.118399D-02  0.000000D+00  0.000000D+00 -0.565912D-02
      9 -0.539868D-01  0.000000D+00 -0.715917D-03 -0.215375D-01  0.000000D+00
     10 -0.923128D-02  0.000000D+00 -0.493569D-02 -0.175373D-01  0.000000D+00
     11  0.000000D+00 -0.277877D-02  0.000000D+00  0.000000D+00 -0.480794D-02
     12  0.543330D-02  0.000000D+00 -0.468405D-02  0.116239D-01  0.000000D+00
     13 -0.128087D-02  0.000000D+00  0.336246D-02  0.125019D-03  0.000000D+00
     14  0.000000D+00  0.105210D-02  0.000000D+00  0.000000D+00  0.637450D-02
     15 -0.578100D-02  0.000000D+00  0.138443D-02 -0.953853D-02  0.000000D+00
                6             7             8             9            10 
      6  0.594842D+00
      7 -0.231295D-01  0.351718D+00
      8  0.000000D+00  0.000000D+00  0.323186D-02
      9 -0.787715D-01  0.385053D-01  0.000000D+00  0.181619D+00
     10 -0.533562D-01 -0.786290D-01  0.000000D+00  0.175141D+00  0.829357D+00
     11  0.000000D+00  0.000000D+00  0.839093D-02  0.000000D+00  0.000000D+00
     12  0.169790D-01  0.625930D-01  0.000000D+00 -0.818898D-01 -0.172875D-01
     13 -0.815554D-02 -0.245559D-01  0.000000D+00 -0.138121D+00 -0.723960D+00
     14  0.000000D+00  0.000000D+00 -0.714767D-02  0.000000D+00  0.000000D+00
     15 -0.248670D-01 -0.903965D-01  0.000000D+00 -0.202419D-01 -0.995612D-01
               11            12            13            14            15 
     11  0.871924D-02
     12  0.000000D+00  0.186979D+00
     13  0.000000D+00 -0.623626D-01  0.749672D+00
     14 -0.952346D-02  0.000000D+00  0.000000D+00  0.924453D-02
     15  0.000000D+00 -0.117385D+00  0.205277D+00  0.000000D+00  0.161109D+00
 Force constants in internal coordinates: 
                1             2             3             4             5 
      1  0.512198D+00
      2 -0.102285D-01  0.292546D+00
      3  0.341749D-02  0.270993D-02  0.117698D+00
      4 -0.360082D-02  0.626160D-02  0.152984D+00  0.812120D+00
      5  0.101211D-01  0.669549D-01  0.221272D-02  0.489866D-02  0.218914D+00
      6  0.469784D-02  0.607908D-01  0.418616D-01  0.217229D-01  0.313406D-01
      7 -0.112123D-02  0.382193D-01  0.326214D-01  0.850369D-01  0.214004D-01
      8  0.000000D+00  0.000000D+00  0.000000D+00  0.000000D+00  0.000000D+00
      9  0.000000D+00  0.000000D+00  0.000000D+00  0.000000D+00  0.000000D+00
                6             7             8             9 
      6  0.286333D+00
      7  0.963367D-01  0.483912D+00
      8  0.000000D+00  0.000000D+00 -0.794247D-02
      9  0.000000D+00  0.000000D+00 -0.399220D-02  0.411902D-01
 Leave Link  716 at Mon Feb 21 20:15:09 2022, MaxMem= 16106127360 cpu:               1.5 elap:               0.1
 (Enter /sw/contrib/gaussian/g16/B01/g16/l103.exe)

 GradGradGradGradGradGradGradGradGradGradGradGradGradGradGradGradGradGrad
 Berny optimization.
 Search for a local minimum.
 Step number   1 out of a maximum of    2
 All quantities printed in internal units (Hartrees-Bohrs-Radians)
 Second derivative matrix not updated -- analytic derivatives used.
 The second derivative matrix:
                          r1        r2        r3        r4        a1
           r1           0.51220
           r2          -0.01023   0.29255
           r3           0.00342   0.00271   0.11770
           r4          -0.00360   0.00626   0.15298   0.81212
           a1           0.01012   0.06695   0.00221   0.00490   0.21891
           a2           0.00470   0.06079   0.04186   0.02172   0.03134
           a3          -0.00112   0.03822   0.03262   0.08504   0.02140
           d1           0.00000  -0.00000   0.00000   0.00000  -0.00000
           d2          -0.00000  -0.00000   0.00000   0.00000  -0.00000
                          a2        a3        d1        d2
           a2           0.28633
           a3           0.09634   0.48391
           d1          -0.00000  -0.00000  -0.00794
           d2          -0.00000  -0.00000  -0.00399   0.04119
 ITU=  0
     Eigenvalues ---   -0.00826   0.04151   0.07856   0.17851   0.22891
     Eigenvalues ---    0.33298   0.51287   0.52045   0.87144
 Eigenvalue     1 is  -8.26D-03 should be greater than     0.000000 Eigenvector:
                          d1        d2        r3        a3        a2
   1                    0.99676   0.08046  -0.00000   0.00000   0.00000
                          r4        a1        r2        r1
   1                    0.00000  -0.00000   0.00000   0.00000
 Angle between quadratic step and forces=  20.31 degrees.
 Linear search not attempted -- first point.
 Variable       Old X    -DE/DX   Delta X   Delta X   Delta X     New X
                                 (Linear)    (Quad)   (Total)
    r1        1.83110  -0.00013   0.00000  -0.00001  -0.00001   1.83109
    r2        2.73667   0.00340   0.00000   0.01166   0.01166   2.74834
    r3        2.75670  -0.00006   0.00000  -0.00191  -0.00191   2.75480
    r4        2.21236   0.00046   0.00000   0.00084   0.00084   2.21319
    a1        1.70335   0.00072   0.00000  -0.00032  -0.00032   1.70304
    a2        1.78543   0.00071   0.00000   0.00027   0.00027   1.78570
    a3        1.90362   0.00043   0.00000  -0.00008  -0.00008   1.90354
    d1        3.14159  -0.00000   0.00000  -0.00000   0.00000   3.14159
    d2        3.14159   0.00000   0.00000  -0.00000   0.00000   3.14159
         Item               Value     Threshold  Converged?
 Maximum Force            0.003405     0.000450     NO 
 RMS     Force            0.001203     0.000300     NO 
 Maximum Displacement     0.011665     0.001800     NO 
 RMS     Displacement     0.003952     0.001200     NO 
 Predicted change in Energy=-2.006882D-05
                       ----------------------------
                       ! Non-Optimized Parameters !
                       ! (Angstroms and Degrees)  !
 ----------------------                            ----------------------
 !      Name          Value   Derivative information (Atomic Units)     !
 ------------------------------------------------------------------------
 !       r1          0.969    -DE/DX =   -0.0001                        !
 !       r2          1.4544   -DE/DX =    0.0034                        !
 !       r3          1.4578   -DE/DX =   -0.0001                        !
 !       r4          1.1712   -DE/DX =    0.0005                        !
 !       a1         97.5768   -DE/DX =    0.0007                        !
 !       a2        102.3131   -DE/DX =    0.0007                        !
 !       a3        109.0648   -DE/DX =    0.0004                        !
 !       d1        180.0      -DE/DX =    0.0                           !
 !       d2        180.0      -DE/DX =    0.0                           !
 ------------------------------------------------------------------------
 GradGradGradGradGradGradGradGradGradGradGradGradGradGradGradGradGradGrad

 Leave Link  103 at Mon Feb 21 20:15:09 2022, MaxMem= 16106127360 cpu:               0.5 elap:               0.0
 (Enter /sw/contrib/gaussian/g16/B01/g16/l9999.exe)

 ----------------------------------------------------------------------

 Electric dipole moment (input orientation):
 (Debye = 10**-18 statcoulomb cm , SI units = C m)
                  (au)            (Debye)         (10**-30 SI)
   Tot        0.573568D+00      0.145786D+01      0.486291D+01
   x         -0.147316D+00     -0.374440D+00     -0.124900D+01
   y          0.000000D+00      0.000000D+00      0.000000D+00
   z         -0.554327D+00     -0.140896D+01     -0.469978D+01

 Dipole polarizability, Alpha (input orientation).
 (esu units = cm**3 , SI units = C**2 m**2 J**-1)
 Alpha(0;0):
               (au)            (10**-24 esu)      (10**-40 SI)
   iso        0.273401D+02      0.405139D+01      0.450778D+01
   aniso      0.218687D+02      0.324061D+01      0.360566D+01
   xx         0.320087D+02      0.474321D+01      0.527753D+01
   yx         0.000000D+00      0.000000D+00      0.000000D+00
   yy         0.179052D+02      0.265328D+01      0.295217D+01
   zx         0.962537D+01      0.142633D+01      0.158701D+01
   zy         0.000000D+00      0.000000D+00      0.000000D+00
   zz         0.321064D+02      0.475768D+01      0.529363D+01

 ----------------------------------------------------------------------

 Dipole orientation:
     1          0.00000000          0.00000000         -0.00000000
     8         -0.47030176          0.00000000         -1.76967164
     8          2.05846219         -0.00000000         -2.81596547
     7          1.57123251         -0.00000000         -5.52926882
     8          3.50151081         -0.00000000         -6.61026315

 Electric dipole moment (dipole orientation):
 (Debye = 10**-18 statcoulomb cm , SI units = C m)
                  (au)            (Debye)         (10**-30 SI)
   Tot        0.573568D+00      0.145786D+01      0.486291D+01
   x          0.000000D+00      0.000000D+00      0.000000D+00
   y          0.000000D+00      0.000000D+00      0.000000D+00
   z          0.573568D+00      0.145786D+01      0.486291D+01

 Dipole polarizability, Alpha (dipole orientation).
 (esu units = cm**3 , SI units = C**2 m**2 J**-1)
 Alpha(0;0):
               (au)            (10**-24 esu)      (10**-40 SI)
   iso        0.273401D+02      0.405139D+01      0.450778D+01
   aniso      0.218687D+02      0.324061D+01      0.360566D+01
   xx         0.272367D+02      0.403606D+01      0.449072D+01
   yx         0.000000D+00      0.000000D+00      0.000000D+00
   yy         0.179052D+02      0.265328D+01      0.295217D+01
   zx        -0.833121D+01     -0.123456D+01     -0.137363D+01
   zy         0.000000D+00      0.000000D+00      0.000000D+00
   zz         0.368785D+02      0.546483D+01      0.608044D+01

 ----------------------------------------------------------------------
 1\1\GINC-N2108\Freq\RMP2-FC\Aug-CC-pVTZ\H1N1O3\CGAVINH\21-Feb-2022\1\\
 #p freq mp2/aug-cc-pvtz density=current\\title\\0,1\H\O,1,r1\O,2,r2,1,
 a1\N,3,r3,2,a2,1,d1,0\O,4,r4,3,a3,2,d2,0\\r1=0.96897556\r2=1.44818487\
 r3=1.45878406\r4=1.17072885\a1=97.59494903\a2=102.29752444\a3=109.0695
 5123\d1=180.\d2=180.\\Version=ES64L-G16RevB.01\State=1-A'\HF=-279.5022
 169\MP2=-280.4467148\RMSD=3.727e-09\RMSF=1.149e-03\ZeroPoint=0.0219287
 \Thermal=0.0260462\Dipole=-0.147316,0.,-0.5543269\DipoleDeriv=0.266582
 4,0.,0.0486797,0.,0.3558442,0.,0.0811131,0.,0.2764317,-0.328539,0.,-0.
 2101581,0.,-0.3143481,0.,-0.1083703,0.,-0.2210019,-0.0444235,0.,0.1523
 382,0.,-0.0865482,0.,-0.7523584,0.,-1.3554122,0.8946293,0.,0.9090974,0
 .,0.0660176,0.,0.9205188,0.,1.6687862,-0.7882493,0.,-0.8999572,0.,-0.0
 209656,0.,-0.1409032,0.,-0.3688038\Polar=32.0087413,0.,17.905205,9.625
 3726,0.,32.106392\Quadrupole=-1.5251269,-0.7198669,2.2449938,0.,2.0849
 803,0.\PG=CS [SG(H1N1O3)]\NImag=1\\0.06536298,0.,-0.00230975,0.0057414
 7,0.,0.51219774,-0.03571884,0.,-0.01659594,0.28253249,0.,0.00285243,0.
 ,0.,0.00124012,0.04859306,0.,-0.50818220,0.03604813,0.,0.59484180,-0.0
 1913198,0.,0.01242771,-0.22940132,0.,-0.02312949,0.35171821,0.,0.00118
 399,0.,0.,-0.00565912,0.,0.,0.00323186,-0.05398683,0.,-0.00071592,-0.0
 2153751,0.,-0.07877152,0.03850528,0.,0.18161910,-0.00923128,0.,-0.0049
 3569,-0.01753735,0.,-0.05335616,-0.07862898,0.,0.17514051,0.82935749,0
 .,-0.00277877,0.,0.,-0.00480794,0.,0.,0.00839093,0.,0.,0.00871924,0.00
 543330,0.,-0.00468405,0.01162385,0.,0.01697896,0.06259297,0.,-0.081889
 79,-0.01728749,0.,0.18697943,-0.00128087,0.,0.00336246,0.00012502,0.,-
 0.00815554,-0.02455593,0.,-0.13812144,-0.72395987,0.,-0.06236264,0.749
 67166,0.,0.00105210,0.,0.,0.00637450,0.,0.,-0.00714767,0.,0.,-0.009523
 46,0.,0.,0.00924453,-0.00578100,0.,0.00138443,-0.00953853,0.,-0.024867
 04,-0.09039646,0.,-0.02024187,-0.09956117,0.,-0.11738455,0.20527716,0.
 ,0.16110903\\0.00039216,0.,-0.00013337,0.00291389,0.,0.00109971,-0.002
 89807,0.,-0.00105678,-0.00001230,0.,0.00039426,-0.00039568,0.,-0.00030
 381\\\@


 GETTING A SIMPLE ANSWER FROM A PROFESSOR IS LIKE
 GETTING A THIMBLE OF WATER FROM A FIRE HYDRANT.
     -- PROF. LEN SHAPIRO, NDSU
 Job cpu time:       0 days  2 hours  2 minutes 58.1 seconds.
 Elapsed time:       0 days  0 hours  4 minutes 26.9 seconds.
 File lengths (MBytes):  RWF=   7239 Int=      0 D2E=      0 Chk=      8 Scr=      1
 Normal termination of Gaussian 16 at Mon Feb 21 20:15:10 2022.
