 Entering Gaussian System, Link 0=g16
 Input=hoono_d1_189p8116.gjf
 Output=hoono_d1_189p8116.log
 Initial command:
 /sw/contrib/gaussian/g16/B01/g16/l1.exe "/scr/Gau-22105.inp" -scrdir="/scr/"
 Entering Link 1 = /sw/contrib/gaussian/g16/B01/g16/l1.exe PID=     22106.
  
 Copyright (c) 1988-2017, Gaussian, Inc.  All Rights Reserved.
  
 This is part of the Gaussian(R) 16 program.  It is based on
 the Gaussian(R) 09 system (copyright 2009, Gaussian, Inc.),
 the Gaussian(R) 03 system (copyright 2003, Gaussian, Inc.),
 the Gaussian(R) 98 system (copyright 1998, Gaussian, Inc.),
 the Gaussian(R) 94 system (copyright 1995, Gaussian, Inc.),
 the Gaussian 92(TM) system (copyright 1992, Gaussian, Inc.),
 the Gaussian 90(TM) system (copyright 1990, Gaussian, Inc.),
 the Gaussian 88(TM) system (copyright 1988, Gaussian, Inc.),
 the Gaussian 86(TM) system (copyright 1986, Carnegie Mellon
 University), and the Gaussian 82(TM) system (copyright 1983,
 Carnegie Mellon University). Gaussian is a federally registered
 trademark of Gaussian, Inc.
  
 This software contains proprietary and confidential information,
 including trade secrets, belonging to Gaussian, Inc.
  
 This software is provided under written license and may be
 used, copied, transmitted, or stored only in accord with that
 written license.
  
 The following legend is applicable only to US Government
 contracts under FAR:
  
                    RESTRICTED RIGHTS LEGEND
  
 Use, reproduction and disclosure by the US Government is
 subject to restrictions as set forth in subparagraphs (a)
 and (c) of the Commercial Computer Software - Restricted
 Rights clause in FAR 52.227-19.
  
 Gaussian, Inc.
 340 Quinnipiac St., Bldg. 40, Wallingford CT 06492
  
  
 ---------------------------------------------------------------
 Warning -- This program may not be used in any manner that
 competes with the business of Gaussian, Inc. or will provide
 assistance to any competitor of Gaussian, Inc.  The licensee
 of this program is prohibited from giving any competitor of
 Gaussian, Inc. access to this program.  By using this program,
 the user acknowledges that Gaussian, Inc. is engaged in the
 business of creating and licensing software in the field of
 computational chemistry and represents and warrants to the
 licensee that it is not a competitor of Gaussian, Inc. and that
 it will not use this program in any manner prohibited above.
 ---------------------------------------------------------------
  

 Cite this work as:
 Gaussian 16, Revision B.01,
 M. J. Frisch, G. W. Trucks, H. B. Schlegel, G. E. Scuseria, 
 M. A. Robb, J. R. Cheeseman, G. Scalmani, V. Barone, 
 G. A. Petersson, H. Nakatsuji, X. Li, M. Caricato, A. V. Marenich, 
 J. Bloino, B. G. Janesko, R. Gomperts, B. Mennucci, H. P. Hratchian, 
 J. V. Ortiz, A. F. Izmaylov, J. L. Sonnenberg, D. Williams-Young, 
 F. Ding, F. Lipparini, F. Egidi, J. Goings, B. Peng, A. Petrone, 
 T. Henderson, D. Ranasinghe, V. G. Zakrzewski, J. Gao, N. Rega, 
 G. Zheng, W. Liang, M. Hada, M. Ehara, K. Toyota, R. Fukuda, 
 J. Hasegawa, M. Ishida, T. Nakajima, Y. Honda, O. Kitao, H. Nakai, 
 T. Vreven, K. Throssell, J. A. Montgomery, Jr., J. E. Peralta, 
 F. Ogliaro, M. J. Bearpark, J. J. Heyd, E. N. Brothers, K. N. Kudin, 
 V. N. Staroverov, T. A. Keith, R. Kobayashi, J. Normand, 
 K. Raghavachari, A. P. Rendell, J. C. Burant, S. S. Iyengar, 
 J. Tomasi, M. Cossi, J. M. Millam, M. Klene, C. Adamo, R. Cammi, 
 J. W. Ochterski, R. L. Martin, K. Morokuma, O. Farkas, 
 J. B. Foresman, and D. J. Fox, Gaussian, Inc., Wallingford CT, 2016.
 
 ******************************************
 Gaussian 16:  ES64L-G16RevB.01 20-Dec-2017
                21-Feb-2022 
 ******************************************
 %nproc=28
 Will use up to   28 processors via shared memory.
 %mem=120GB
 %chk=hoono_d1_189p8116.chk
 ---------------------------------------
 #p freq mp2/aug-cc-pvtz density=current
 ---------------------------------------
 1/10=4,30=1,38=1/1,3;
 2/12=2,17=6,18=5,40=1/2;
 3/5=16,6=1,7=10,11=9,25=1,30=1,71=2,140=1/1,2,3;
 4//1;
 5/5=2,38=5,98=1/2;
 8/6=3,8=1,10=1,19=11,30=-1/1;
 9/15=3,16=-3/6;
 11/6=1,8=1,15=11,17=12,24=-1,27=1,28=-2,29=300,32=6,42=3/1,2,10;
 10/6=2,21=1/2;
 8/6=4,8=1,10=1,19=11,30=-1/11,4;
 10/5=1,20=4/2;
 11/12=2,14=11,16=1,17=2,28=-2,42=3,76=2/2,10,12;
 6/7=2,8=2,9=2,10=2,22=-1/1;
 7/8=1,10=1,12=2,25=1,44=2/1,2,3,16;
 1/10=4,30=1/3;
 99//99;
 Leave Link    1 at Mon Feb 21 20:59:50 2022, MaxMem= 16106127360 cpu:               2.5 elap:               0.1
 (Enter /sw/contrib/gaussian/g16/B01/g16/l101.exe)
 -----
 title
 -----
 Symbolic Z-matrix:
 Charge =  0 Multiplicity = 1
 H
 O                    1    r1
 O                    2    r2       1    a1
 N                    3    r3       2    a2       1    d1       0
 O                    4    r4       3    a3       2    d2       0
       Variables:
  r1                    0.96898                  
  r2                    1.45492                  
  r3                    1.45878                  
  r4                    1.17073                  
  a1                   97.59495                  
  a2                  102.29752                  
  a3                  109.06955                  
  d1                  189.81162                  
  d2                  180.                       
 
 ITRead=  0  0  0  0  0
 MicOpt= -1 -1 -1 -1 -1
 NAtoms=      5 NQM=        5 NQMF=       0 NMMI=      0 NMMIF=      0
                NMic=       0 NMicF=      0.
                    Isotopes and Nuclear Properties:
 (Nuclear quadrupole moments (NQMom) in fm**2, nuclear magnetic moments (NMagM)
  in nuclear magnetons)

  Atom         1           2           3           4           5
 IAtWgt=           1          16          16          14          16
 AtmWgt=   1.0078250  15.9949146  15.9949146  14.0030740  15.9949146
 NucSpn=           1           0           0           2           0
 AtZEff=  -0.0000000  -0.0000000  -0.0000000  -0.0000000  -0.0000000
 NQMom=    0.0000000   0.0000000   0.0000000   2.0440000   0.0000000
 NMagM=    2.7928460   0.0000000   0.0000000   0.4037610   0.0000000
 AtZNuc=   1.0000000   8.0000000   8.0000000   7.0000000   8.0000000
 Leave Link  101 at Mon Feb 21 20:59:51 2022, MaxMem= 16106127360 cpu:               2.8 elap:               0.1
 (Enter /sw/contrib/gaussian/g16/B01/g16/l103.exe)

 GradGradGradGradGradGradGradGradGradGradGradGradGradGradGradGradGradGrad
 Berny optimization.
 Initialization pass.
                       ----------------------------
                       !    Initial Parameters    !
                       ! (Angstroms and Degrees)  !
 ----------------------                            ----------------------
 !      Name          Value   Derivative information (Atomic Units)     !
 ------------------------------------------------------------------------
 !       r1          0.969    calculate D2E/DX2 analytically            !
 !       r2          1.4549   calculate D2E/DX2 analytically            !
 !       r3          1.4588   calculate D2E/DX2 analytically            !
 !       r4          1.1707   calculate D2E/DX2 analytically            !
 !       a1         97.5949   calculate D2E/DX2 analytically            !
 !       a2        102.2975   calculate D2E/DX2 analytically            !
 !       a3        109.0696   calculate D2E/DX2 analytically            !
 !       d1        189.8116   calculate D2E/DX2 analytically            !
 !       d2        180.0      calculate D2E/DX2 analytically            !
 ------------------------------------------------------------------------
 Trust Radius=3.00D-01 FncErr=1.00D-07 GrdErr=1.00D-07 EigMax=2.50D+02 EigMin=1.00D-04
 Number of steps in this run=      2 maximum allowed number of steps=      2.
 GradGradGradGradGradGradGradGradGradGradGradGradGradGradGradGradGradGrad

 Leave Link  103 at Mon Feb 21 20:59:51 2022, MaxMem= 16106127360 cpu:               0.7 elap:               0.0
 (Enter /sw/contrib/gaussian/g16/B01/g16/l202.exe)
                          Input orientation:                          
 ---------------------------------------------------------------------
 Center     Atomic      Atomic             Coordinates (Angstroms)
 Number     Number       Type             X           Y           Z
 ---------------------------------------------------------------------
      1          1           0        0.000000    0.000000    0.000000
      2          8           0        0.000000    0.000000    0.968976
      3          8           0        1.442156    0.000000    1.161271
      4          7           0        1.564507   -0.242886    2.594480
      5          8           0        2.698890   -0.266412    2.882973
 ---------------------------------------------------------------------
                    Distance matrix (angstroms):
                    1          2          3          4          5
     1  H    0.000000
     2  O    0.968976   0.000000
     3  O    1.851584   1.454919   0.000000
     4  N    3.039408   2.269127   1.458784   0.000000
     5  O    3.958095   3.319392   2.148165   1.170729   0.000000
 Stoichiometry    HNO3
 Framework group  C1[X(HNO3)]
 Deg. of freedom     9
 Full point group                 C1      NOp   1
 Largest Abelian subgroup         C1      NOp   1
 Largest concise Abelian subgroup C1      NOp   1
                         Standard orientation:                         
 ---------------------------------------------------------------------
 Center     Atomic      Atomic             Coordinates (Angstroms)
 Number     Number       Type             X           Y           Z
 ---------------------------------------------------------------------
      1          1           0        2.241958    0.426922    0.136680
      2          8           0        1.599193   -0.282771   -0.011986
      3          8           0        0.400231    0.541404   -0.015956
      4          7           0       -0.663165   -0.456967    0.006290
      5          8           0       -1.699399    0.087848    0.005354
 ---------------------------------------------------------------------
 Rotational constants (GHZ):          54.8694184           5.0116263           4.5942385
 Leave Link  202 at Mon Feb 21 20:59:51 2022, MaxMem= 16106127360 cpu:               0.8 elap:               0.1
 (Enter /sw/contrib/gaussian/g16/B01/g16/l301.exe)
 Standard basis: Aug-CC-pVTZ (5D, 7F)
 Ernie: Thresh=  0.10000D-02 Tol=  0.10000D-05 Strict=F.
 Ernie:  12 primitive shells out of 131 were deleted.
 There are   245 symmetry adapted cartesian basis functions of A   symmetry.
 There are   207 symmetry adapted basis functions of A   symmetry.
   207 basis functions,   315 primitive gaussians,   245 cartesian basis functions
    16 alpha electrons       16 beta electrons
       nuclear repulsion energy       116.8761408863 Hartrees.
 IExCor=    0 DFT=F Ex=HF Corr=None ExCW=0 ScaHFX=  1.000000
 ScaDFX=  1.000000  1.000000  1.000000  1.000000 ScalE2=  1.000000  1.000000
 IRadAn=      5 IRanWt=     -1 IRanGd=            0 ICorTp=0 IEmpDi=  4
 NAtoms=    5 NActive=    5 NUniq=    5 SFac= 1.00D+00 NAtFMM=   60 NAOKFM=F Big=F
 Integral buffers will be    131072 words long.
 Raffenetti 1 integral format.
 Two-electron integral symmetry is turned on.
 Leave Link  301 at Mon Feb 21 20:59:51 2022, MaxMem= 16106127360 cpu:               3.7 elap:               0.2
 (Enter /sw/contrib/gaussian/g16/B01/g16/l302.exe)
 NPDir=0 NMtPBC=     1 NCelOv=     1 NCel=       1 NClECP=     1 NCelD=      1
         NCelK=      1 NCelE2=     1 NClLst=     1 CellRange=     0.0.
 One-electron integrals computed using PRISM.
 One-electron integral symmetry used in STVInt
 NBasis=   207 RedAO= T EigKep=  1.82D-04  NBF=   207
 NBsUse=   207 1.00D-06 EigRej= -1.00D+00 NBFU=   207
 Leave Link  302 at Mon Feb 21 20:59:51 2022, MaxMem= 16106127360 cpu:               4.6 elap:               0.2
 (Enter /sw/contrib/gaussian/g16/B01/g16/l303.exe)
 DipDrv:  MaxL=1.
 Leave Link  303 at Mon Feb 21 20:59:51 2022, MaxMem= 16106127360 cpu:               0.8 elap:               0.1
 (Enter /sw/contrib/gaussian/g16/B01/g16/l401.exe)
 ExpMin= 2.53D-02 ExpMax= 1.53D+04 ExpMxC= 5.22D+02 IAcc=3 IRadAn=         5 AccDes= 0.00D+00
 Harris functional with IExCor=  205 and IRadAn=       5 diagonalized for initial guess.
 HarFok:  IExCor=  205 AccDes= 0.00D+00 IRadAn=         5 IDoV= 1 UseB2=F ITyADJ=14
 ICtDFT=  3500011 ScaDFX=  1.000000  1.000000  1.000000  1.000000
 FoFCou: FMM=F IPFlag=           0 FMFlag=      100000 FMFlg1=           0
         NFxFlg=           0 DoJE=T BraDBF=F KetDBF=T FulRan=T
         wScrn=  0.000000 ICntrl=       500 IOpCl=  0 I1Cent=   200000004 NGrid=           0
         NMat0=    1 NMatS0=      1 NMatT0=    0 NMatD0=    1 NMtDS0=    0 NMtDT0=    0
 Petite list used in FoFCou.
 Harris En= -279.628752318610    
 JPrj=0 DoOrth=F DoCkMO=F.
 Leave Link  401 at Mon Feb 21 20:59:51 2022, MaxMem= 16106127360 cpu:               7.9 elap:               0.3
 (Enter /sw/contrib/gaussian/g16/B01/g16/l502.exe)
 Keep R1 ints in memory in canonical form, NReq=245616937.
 FoFCou: FMM=F IPFlag=           0 FMFlag=           0 FMFlg1=           0
         NFxFlg=           0 DoJE=F BraDBF=F KetDBF=F FulRan=T
         wScrn=  0.000000 ICntrl=       600 IOpCl=  0 I1Cent=           0 NGrid=           0
         NMat0=    1 NMatS0=  21528 NMatT0=    0 NMatD0=    1 NMtDS0=    0 NMtDT0=    0
 Symmetry not used in FoFCou.
 Two-electron integral symmetry not used.
 Closed shell SCF:
 Using DIIS extrapolation, IDIIS=  1040.
 NGot= 16106127360 LenX= 15874260251 LenY= 15874199785
 Requested convergence on RMS density matrix=1.00D-08 within 128 cycles.
 Requested convergence on MAX density matrix=1.00D-06.
 Requested convergence on             energy=1.00D-06.
 No special actions if energy rises.

 Cycle   1  Pass 1  IDiag  1:
 E= -279.370584309544    
 DIIS: error= 2.34D-02 at cycle   1 NSaved=   1.
 NSaved= 1 IEnMin= 1 EnMin= -279.370584309544     IErMin= 1 ErrMin= 2.34D-02
 ErrMax= 2.34D-02  0.00D+00 EMaxC= 1.00D-01 BMatC= 4.38D-01 BMatP= 4.38D-01
 IDIUse=3 WtCom= 7.66D-01 WtEn= 2.34D-01
 Coeff-Com:  0.100D+01
 Coeff-En:   0.100D+01
 Coeff:      0.100D+01
 Gap=     0.518 Goal=   None    Shift=    0.000
 GapD=    0.518 DampG=2.000 DampE=0.500 DampFc=1.0000 IDamp=-1.
 RMSDP=1.62D-03 MaxDP=9.91D-02              OVMax= 1.13D-01

 Cycle   2  Pass 1  IDiag  1:
 E= -279.452513236337     Delta-E=       -0.081928926792 Rises=F Damp=F
 DIIS: error= 1.72D-02 at cycle   2 NSaved=   2.
 NSaved= 2 IEnMin= 2 EnMin= -279.452513236337     IErMin= 2 ErrMin= 1.72D-02
 ErrMax= 1.72D-02  0.00D+00 EMaxC= 1.00D-01 BMatC= 7.18D-02 BMatP= 4.38D-01
 IDIUse=3 WtCom= 8.28D-01 WtEn= 1.72D-01
 Coeff-Com:  0.195D+00 0.805D+00
 Coeff-En:   0.000D+00 0.100D+01
 Coeff:      0.161D+00 0.839D+00
 Gap=     0.531 Goal=   None    Shift=    0.000
 RMSDP=8.99D-04 MaxDP=3.73D-02 DE=-8.19D-02 OVMax= 6.74D-02

 Cycle   3  Pass 1  IDiag  1:
 E= -279.481754865860     Delta-E=       -0.029241629524 Rises=F Damp=F
 DIIS: error= 9.94D-03 at cycle   3 NSaved=   3.
 NSaved= 3 IEnMin= 3 EnMin= -279.481754865860     IErMin= 3 ErrMin= 9.94D-03
 ErrMax= 9.94D-03  0.00D+00 EMaxC= 1.00D-01 BMatC= 2.85D-02 BMatP= 7.18D-02
 IDIUse=3 WtCom= 9.01D-01 WtEn= 9.94D-02
 Coeff-Com: -0.330D-01 0.377D+00 0.656D+00
 Coeff-En:   0.000D+00 0.239D+00 0.761D+00
 Coeff:     -0.297D-01 0.364D+00 0.666D+00
 Gap=     0.510 Goal=   None    Shift=    0.000
 RMSDP=3.75D-04 MaxDP=1.54D-02 DE=-2.92D-02 OVMax= 3.78D-02

 Cycle   4  Pass 1  IDiag  1:
 E= -279.500702540001     Delta-E=       -0.018947674141 Rises=F Damp=F
 DIIS: error= 1.25D-03 at cycle   4 NSaved=   4.
 NSaved= 4 IEnMin= 4 EnMin= -279.500702540001     IErMin= 4 ErrMin= 1.25D-03
 ErrMax= 1.25D-03  0.00D+00 EMaxC= 1.00D-01 BMatC= 4.88D-04 BMatP= 2.85D-02
 IDIUse=3 WtCom= 9.88D-01 WtEn= 1.25D-02
 Coeff-Com: -0.117D-01 0.576D-01 0.158D+00 0.796D+00
 Coeff-En:   0.000D+00 0.000D+00 0.000D+00 0.100D+01
 Coeff:     -0.115D-01 0.568D-01 0.156D+00 0.799D+00
 Gap=     0.501 Goal=   None    Shift=    0.000
 RMSDP=9.00D-05 MaxDP=2.18D-03 DE=-1.89D-02 OVMax= 1.08D-02

 Cycle   5  Pass 1  IDiag  1:
 E= -279.501373581108     Delta-E=       -0.000671041107 Rises=F Damp=F
 DIIS: error= 7.08D-04 at cycle   5 NSaved=   5.
 NSaved= 5 IEnMin= 5 EnMin= -279.501373581108     IErMin= 5 ErrMin= 7.08D-04
 ErrMax= 7.08D-04  0.00D+00 EMaxC= 1.00D-01 BMatC= 8.69D-05 BMatP= 4.88D-04
 IDIUse=3 WtCom= 9.93D-01 WtEn= 7.08D-03
 Coeff-Com:  0.612D-02-0.722D-01-0.118D+00 0.202D-01 0.116D+01
 Coeff-En:   0.000D+00 0.000D+00 0.000D+00 0.000D+00 0.100D+01
 Coeff:      0.608D-02-0.717D-01-0.117D+00 0.200D-01 0.116D+01
 Gap=     0.501 Goal=   None    Shift=    0.000
 RMSDP=7.61D-05 MaxDP=2.10D-03 DE=-6.71D-04 OVMax= 1.10D-02

 Cycle   6  Pass 1  IDiag  1:
 E= -279.501687568636     Delta-E=       -0.000313987528 Rises=F Damp=F
 DIIS: error= 2.82D-04 at cycle   6 NSaved=   6.
 NSaved= 6 IEnMin= 6 EnMin= -279.501687568636     IErMin= 6 ErrMin= 2.82D-04
 ErrMax= 2.82D-04  0.00D+00 EMaxC= 1.00D-01 BMatC= 1.66D-05 BMatP= 8.69D-05
 IDIUse=3 WtCom= 9.97D-01 WtEn= 2.82D-03
 Coeff-Com:  0.596D-03 0.154D-02 0.456D-02-0.130D+00-0.230D+00 0.135D+01
 Coeff-En:   0.000D+00 0.000D+00 0.000D+00 0.000D+00 0.000D+00 0.100D+01
 Coeff:      0.595D-03 0.154D-02 0.454D-02-0.129D+00-0.230D+00 0.135D+01
 Gap=     0.502 Goal=   None    Shift=    0.000
 RMSDP=4.52D-05 MaxDP=1.06D-03 DE=-3.14D-04 OVMax= 5.52D-03

 Cycle   7  Pass 1  IDiag  1:
 E= -279.501759953153     Delta-E=       -0.000072384517 Rises=F Damp=F
 DIIS: error= 9.92D-05 at cycle   7 NSaved=   7.
 NSaved= 7 IEnMin= 7 EnMin= -279.501759953153     IErMin= 7 ErrMin= 9.92D-05
 ErrMax= 9.92D-05  0.00D+00 EMaxC= 1.00D-01 BMatC= 4.50D-06 BMatP= 1.66D-05
 IDIUse=1 WtCom= 1.00D+00 WtEn= 0.00D+00
 Coeff-Com: -0.937D-03 0.135D-01 0.265D-01-0.242D-01-0.287D+00 0.390D+00
 Coeff-Com:  0.882D+00
 Coeff:     -0.937D-03 0.135D-01 0.265D-01-0.242D-01-0.287D+00 0.390D+00
 Coeff:      0.882D+00
 Gap=     0.502 Goal=   None    Shift=    0.000
 RMSDP=1.33D-05 MaxDP=3.78D-04 DE=-7.24D-05 OVMax= 1.54D-03

 Cycle   8  Pass 1  IDiag  1:
 E= -279.501768828786     Delta-E=       -0.000008875633 Rises=F Damp=F
 DIIS: error= 4.77D-05 at cycle   8 NSaved=   8.
 NSaved= 8 IEnMin= 8 EnMin= -279.501768828786     IErMin= 8 ErrMin= 4.77D-05
 ErrMax= 4.77D-05  0.00D+00 EMaxC= 1.00D-01 BMatC= 6.06D-07 BMatP= 4.50D-06
 IDIUse=1 WtCom= 1.00D+00 WtEn= 0.00D+00
 Coeff-Com: -0.449D-03 0.345D-02 0.761D-02 0.274D-01-0.410D-01-0.197D+00
 Coeff-Com:  0.171D+00 0.103D+01
 Coeff:     -0.449D-03 0.345D-02 0.761D-02 0.274D-01-0.410D-01-0.197D+00
 Coeff:      0.171D+00 0.103D+01
 Gap=     0.501 Goal=   None    Shift=    0.000
 RMSDP=6.90D-06 MaxDP=2.02D-04 DE=-8.88D-06 OVMax= 7.46D-04

 Cycle   9  Pass 1  IDiag  1:
 E= -279.501770601416     Delta-E=       -0.000001772631 Rises=F Damp=F
 DIIS: error= 1.56D-05 at cycle   9 NSaved=   9.
 NSaved= 9 IEnMin= 9 EnMin= -279.501770601416     IErMin= 9 ErrMin= 1.56D-05
 ErrMax= 1.56D-05  0.00D+00 EMaxC= 1.00D-01 BMatC= 6.92D-08 BMatP= 6.06D-07
 IDIUse=1 WtCom= 1.00D+00 WtEn= 0.00D+00
 Coeff-Com:  0.123D-03-0.172D-02-0.308D-02-0.205D-02 0.342D-01-0.526D-04
 Coeff-Com: -0.167D+00-0.103D+00 0.124D+01
 Coeff:      0.123D-03-0.172D-02-0.308D-02-0.205D-02 0.342D-01-0.526D-04
 Coeff:     -0.167D+00-0.103D+00 0.124D+01
 Gap=     0.502 Goal=   None    Shift=    0.000
 RMSDP=1.94D-06 MaxDP=5.16D-05 DE=-1.77D-06 OVMax= 1.72D-04

 Cycle  10  Pass 1  IDiag  1:
 E= -279.501770761732     Delta-E=       -0.000000160316 Rises=F Damp=F
 DIIS: error= 3.97D-06 at cycle  10 NSaved=  10.
 NSaved=10 IEnMin=10 EnMin= -279.501770761732     IErMin=10 ErrMin= 3.97D-06
 ErrMax= 3.97D-06  0.00D+00 EMaxC= 1.00D-01 BMatC= 5.56D-09 BMatP= 6.92D-08
 IDIUse=1 WtCom= 1.00D+00 WtEn= 0.00D+00
 Coeff-Com:  0.310D-04-0.243D-03-0.324D-03-0.270D-02 0.165D-02 0.196D-01
 Coeff-Com: -0.130D-01-0.744D-01-0.806D-01 0.115D+01
 Coeff:      0.310D-04-0.243D-03-0.324D-03-0.270D-02 0.165D-02 0.196D-01
 Coeff:     -0.130D-01-0.744D-01-0.806D-01 0.115D+01
 Gap=     0.502 Goal=   None    Shift=    0.000
 RMSDP=5.07D-07 MaxDP=2.10D-05 DE=-1.60D-07 OVMax= 4.09D-05

 Cycle  11  Pass 1  IDiag  1:
 E= -279.501770774405     Delta-E=       -0.000000012673 Rises=F Damp=F
 DIIS: error= 1.76D-06 at cycle  11 NSaved=  11.
 NSaved=11 IEnMin=11 EnMin= -279.501770774405     IErMin=11 ErrMin= 1.76D-06
 ErrMax= 1.76D-06  0.00D+00 EMaxC= 1.00D-01 BMatC= 6.71D-10 BMatP= 5.56D-09
 IDIUse=1 WtCom= 1.00D+00 WtEn= 0.00D+00
 Coeff-Com: -0.214D-04 0.245D-03 0.490D-03 0.539D-03-0.431D-02-0.361D-02
 Coeff-Com:  0.212D-01 0.313D-01-0.139D+00-0.181D+00 0.127D+01
 Coeff:     -0.214D-04 0.245D-03 0.490D-03 0.539D-03-0.431D-02-0.361D-02
 Coeff:      0.212D-01 0.313D-01-0.139D+00-0.181D+00 0.127D+01
 Gap=     0.502 Goal=   None    Shift=    0.000
 RMSDP=1.82D-07 MaxDP=6.51D-06 DE=-1.27D-08 OVMax= 1.69D-05

 Cycle  12  Pass 1  IDiag  1:
 E= -279.501770776297     Delta-E=       -0.000000001892 Rises=F Damp=F
 DIIS: error= 5.51D-07 at cycle  12 NSaved=  12.
 NSaved=12 IEnMin=12 EnMin= -279.501770776297     IErMin=12 ErrMin= 5.51D-07
 ErrMax= 5.51D-07  0.00D+00 EMaxC= 1.00D-01 BMatC= 7.68D-11 BMatP= 6.71D-10
 IDIUse=1 WtCom= 1.00D+00 WtEn= 0.00D+00
 Coeff-Com:  0.135D-05-0.305D-04-0.666D-04 0.184D-03 0.111D-02-0.232D-02
 Coeff-Com: -0.426D-02 0.538D-02 0.430D-01-0.114D+00-0.290D+00 0.136D+01
 Coeff:      0.135D-05-0.305D-04-0.666D-04 0.184D-03 0.111D-02-0.232D-02
 Coeff:     -0.426D-02 0.538D-02 0.430D-01-0.114D+00-0.290D+00 0.136D+01
 Gap=     0.502 Goal=   None    Shift=    0.000
 RMSDP=7.77D-08 MaxDP=2.83D-06 DE=-1.89D-09 OVMax= 7.78D-06

 Cycle  13  Pass 1  IDiag  1:
 E= -279.501770776567     Delta-E=       -0.000000000269 Rises=F Damp=F
 DIIS: error= 1.66D-07 at cycle  13 NSaved=  13.
 NSaved=13 IEnMin=13 EnMin= -279.501770776567     IErMin=13 ErrMin= 1.66D-07
 ErrMax= 1.66D-07  0.00D+00 EMaxC= 1.00D-01 BMatC= 6.02D-12 BMatP= 7.68D-11
 IDIUse=1 WtCom= 1.00D+00 WtEn= 0.00D+00
 Coeff-Com:  0.137D-05-0.144D-04-0.232D-04-0.100D-03 0.106D-03 0.879D-03
 Coeff-Com: -0.805D-03-0.370D-02-0.326D-03 0.473D-01-0.324D-01-0.379D+00
 Coeff-Com:  0.137D+01
 Coeff:      0.137D-05-0.144D-04-0.232D-04-0.100D-03 0.106D-03 0.879D-03
 Coeff:     -0.805D-03-0.370D-02-0.326D-03 0.473D-01-0.324D-01-0.379D+00
 Coeff:      0.137D+01
 Gap=     0.502 Goal=   None    Shift=    0.000
 RMSDP=2.59D-08 MaxDP=5.73D-07 DE=-2.69D-10 OVMax= 3.55D-06

 Cycle  14  Pass 1  IDiag  1:
 E= -279.501770776593     Delta-E=       -0.000000000027 Rises=F Damp=F
 DIIS: error= 9.22D-08 at cycle  14 NSaved=  14.
 NSaved=14 IEnMin=14 EnMin= -279.501770776593     IErMin=14 ErrMin= 9.22D-08
 ErrMax= 9.22D-08  0.00D+00 EMaxC= 1.00D-01 BMatC= 1.04D-12 BMatP= 6.02D-12
 IDIUse=1 WtCom= 1.00D+00 WtEn= 0.00D+00
 Coeff-Com: -0.477D-06 0.678D-05 0.117D-04 0.191D-04-0.141D-03-0.435D-04
 Coeff-Com:  0.566D-03 0.752D-03-0.371D-02-0.379D-02 0.312D-01 0.658D-02
 Coeff-Com: -0.454D+00 0.142D+01
 Coeff:     -0.477D-06 0.678D-05 0.117D-04 0.191D-04-0.141D-03-0.435D-04
 Coeff:      0.566D-03 0.752D-03-0.371D-02-0.379D-02 0.312D-01 0.658D-02
 Coeff:     -0.454D+00 0.142D+01
 Gap=     0.502 Goal=   None    Shift=    0.000
 RMSDP=1.17D-08 MaxDP=3.28D-07 DE=-2.65D-11 OVMax= 2.05D-06

 Cycle  15  Pass 1  IDiag  1:
 E= -279.501770776601     Delta-E=       -0.000000000008 Rises=F Damp=F
 DIIS: error= 6.03D-08 at cycle  15 NSaved=  15.
 NSaved=15 IEnMin=15 EnMin= -279.501770776601     IErMin=15 ErrMin= 6.03D-08
 ErrMax= 6.03D-08  0.00D+00 EMaxC= 1.00D-01 BMatC= 3.52D-13 BMatP= 1.04D-12
 IDIUse=1 WtCom= 1.00D+00 WtEn= 0.00D+00
 Coeff-Com:  0.798D-07-0.193D-05-0.486D-05 0.872D-05 0.947D-04-0.175D-03
 Coeff-Com: -0.268D-03 0.190D-03 0.320D-02-0.778D-02-0.185D-01 0.909D-01
 Coeff-Com:  0.233D-01-0.120D+01 0.211D+01
 Coeff:      0.798D-07-0.193D-05-0.486D-05 0.872D-05 0.947D-04-0.175D-03
 Coeff:     -0.268D-03 0.190D-03 0.320D-02-0.778D-02-0.185D-01 0.909D-01
 Coeff:      0.233D-01-0.120D+01 0.211D+01
 Gap=     0.502 Goal=   None    Shift=    0.000
 RMSDP=1.15D-08 MaxDP=3.41D-07 DE=-8.36D-12 OVMax= 2.11D-06

 Cycle  16  Pass 1  IDiag  1:
 E= -279.501770776604     Delta-E=       -0.000000000002 Rises=F Damp=F
 DIIS: error= 2.26D-08 at cycle  16 NSaved=  16.
 NSaved=16 IEnMin=16 EnMin= -279.501770776604     IErMin=16 ErrMin= 2.26D-08
 ErrMax= 2.26D-08  0.00D+00 EMaxC= 1.00D-01 BMatC= 5.22D-14 BMatP= 3.52D-13
 IDIUse=1 WtCom= 1.00D+00 WtEn= 0.00D+00
 Coeff-Com:  0.565D-07-0.694D-06-0.212D-06-0.903D-05-0.788D-05 0.786D-04
 Coeff-Com: -0.561D-06-0.259D-03-0.494D-03 0.389D-02 0.536D-03-0.412D-01
 Coeff-Com:  0.115D+00 0.120D+00-0.844D+00 0.165D+01
 Coeff:      0.565D-07-0.694D-06-0.212D-06-0.903D-05-0.788D-05 0.786D-04
 Coeff:     -0.561D-06-0.259D-03-0.494D-03 0.389D-02 0.536D-03-0.412D-01
 Coeff:      0.115D+00 0.120D+00-0.844D+00 0.165D+01
 Gap=     0.502 Goal=   None    Shift=    0.000
 RMSDP=5.09D-09 MaxDP=1.52D-07 DE=-2.44D-12 OVMax= 9.51D-07

 SCF Done:  E(RHF) =  -279.501770777     A.U. after   16 cycles
            NFock= 16  Conv=0.51D-08     -V/T= 2.0024
 KE= 2.788454925828D+02 PE=-8.950785734640D+02 EE= 2.198551692182D+02
 Leave Link  502 at Mon Feb 21 20:59:59 2022, MaxMem= 16106127360 cpu:              43.6 elap:               7.9
 (Enter /sw/contrib/gaussian/g16/B01/g16/l801.exe)
 ExpMin= 2.53D-02 ExpMax= 1.53D+04 ExpMxC= 5.22D+02 IAcc=3 IRadAn=         5 AccDes= 0.00D+00
 HarFok:  IExCor=  205 AccDes= 0.00D+00 IRadAn=         5 IDoV=-2 UseB2=F ITyADJ=14
 ICtDFT= 12500011 ScaDFX=  1.000000  1.000000  1.000000  1.000000
 Largest valence mixing into a core orbital is  2.08D-04
 Largest core mixing into a valence orbital is  3.63D-05
 Range of M.O.s used for correlation:     5   207
 NBasis=   207 NAE=    16 NBE=    16 NFC=     4 NFV=     0
 NROrb=    203 NOA=    12 NOB=    12 NVA=   191 NVB=   191

 **** Warning!!: The largest alpha MO coefficient is  0.17875253D+02

 Leave Link  801 at Mon Feb 21 20:59:59 2022, MaxMem= 16106127360 cpu:               2.3 elap:               0.1
 (Enter /sw/contrib/gaussian/g16/B01/g16/l906.exe)
 Frozen-core derivative calculation, NFC=   4 NFV=   0.
 FulOut=F Deriv=T AODrv=T NAtomX=     5
   MMem=           0  MDisk=          12 MDiskD=          12
  W3Min=      811440 MinDsk=     2425030 NBas6D=         245
 NBas2D=       30762    NTT=       30135    LW2=     7400000
    MDV= 16105638402 MDiskM=      328645 NBas2p=       30702
 Disk-based method using ON**2 memory for 12 occupieds at a time.
 Permanent disk used for amplitudes=    11516536 words.
 Estimated scratch disk usage=   321251614 words.
 IMap=   1   2   3   4   5   6   7   8   9  10  11  12  13  14  15  16
 Actual    scratch disk usage=   310331678 words.
 JobTyp=1 Pass  1:  I=   5 to  16 NPSUse= 28 ParTrn=T ParDer=T DoDerP=T.
 (rs|ai) integrals will be sorted in core.
 Spin components of T(2) and E(2):
     alpha-alpha T2 =       0.3402668526D-01 E2=     -0.1224098301D+00
     alpha-beta  T2 =       0.1868559013D+00 E2=     -0.7002568022D+00
     beta-beta   T2 =       0.3402668526D-01 E2=     -0.1224098301D+00
 The integrals were generated   1 times.
 ANorm=    0.1120227330D+01
 E2 =    -0.9450764623D+00 EUMP2 =    -0.28044684723894D+03
 Leave Link  906 at Mon Feb 21 21:01:37 2022, MaxMem= 16106127360 cpu:            2727.7 elap:              97.5
 (Enter /sw/contrib/gaussian/g16/B01/g16/l1101.exe)
 Using compressed Sx but separate Hx and Fx, NAtomX=     5.
 Will process      6 centers per pass.
 Leave Link 1101 at Mon Feb 21 21:01:37 2022, MaxMem= 16106127360 cpu:               5.0 elap:               0.2
 (Enter /sw/contrib/gaussian/g16/B01/g16/l1102.exe)
 Leave Link 1102 at Mon Feb 21 21:01:37 2022, MaxMem= 16106127360 cpu:               0.9 elap:               0.1
 (Enter /sw/contrib/gaussian/g16/B01/g16/l1110.exe)
 Forming Gx(P) for the SCF density, NAtomX=     5.
 Integral derivatives from FoFJK, PRISM(SPDF).
 Do as many integral derivatives as possible in FoFJK.
 G2DrvN: MDV=   16106126844.
 G2DrvN: will do     6 centers at a time, making    1 passes.
 Calling FoFCou, ICntrl=  3107 FMM=F I1Cent=   0 AccDes= 0.00D+00.
 FoFJK:  IHMeth= 1 ICntrl=    3107 DoSepK=F KAlg= 0 I1Cent=           0 FoldK=F
 IRaf=         0 NMat=       1 IRICut=       1 DoRegI=T DoRafI=F ISym2E= 0 IDoP0=0 IntGTp=1.
 FoFCou: FMM=F IPFlag=           0 FMFlag=      100000 FMFlg1=           0
         NFxFlg=           0 DoJE=F BraDBF=F KetDBF=F FulRan=T
         wScrn=  0.000000 ICntrl=      3107 IOpCl=  0 I1Cent=           0 NGrid=           0
         NMat0=    1 NMatS0=      1 NMatT0=    0 NMatD0=    1 NMtDS0=    0 NMtDT0=    0
 Symmetry not used in FoFCou.
 End of G2Drv F.D. properties file   721 does not exist.
 End of G2Drv F.D. properties file   722 does not exist.
 End of G2Drv F.D. properties file   788 does not exist.
 Leave Link 1110 at Mon Feb 21 21:01:40 2022, MaxMem= 16106127360 cpu:              84.1 elap:               3.0
 (Enter /sw/contrib/gaussian/g16/B01/g16/l1002.exe)
 Minotr:  Closed shell wavefunction.
          IDoAtm=11111
          Frozen-core window.
          Direct CPHF calculation.
          Differentiating once with respect to electric field.
                with respect to dipole field.
          Differentiating once with respect to nuclear coordinates.
          Requested convergence is 1.0D-08 RMS, and 1.0D-07 maximum.
          Secondary convergence is 1.0D-12 RMS, and 1.0D-12 maximum.
          NewPWx=T KeepS1=T KeepF1=T KeepIn=T MapXYZ=F SortEE=F KeepMc=T.
 Keep R1 ints in memory in canonical form, NReq=245618178.
 FoFCou: FMM=F IPFlag=           0 FMFlag=           0 FMFlg1=           0
         NFxFlg=           0 DoJE=F BraDBF=F KetDBF=F FulRan=T
         wScrn=  0.000000 ICntrl=       600 IOpCl=  0 I1Cent=           0 NGrid=           0
         NMat0=    1 NMatS0=  21528 NMatT0=    0 NMatD0=    1 NMtDS0=    0 NMtDT0=    0
 Symmetry not used in FoFCou.
 Two-electron integral symmetry not used.
          MDV=   16106127360 using IRadAn=       1.
          Solving linear equations simultaneously, MaxMat=       0.
          There are    18 degrees of freedom in the 1st order CPHF.  IDoFFX=6 NUNeed=    18.
     15 vectors produced by pass  0 Test12= 1.70D-14 5.56D-09 XBig12= 9.51D+00 1.09D+00.
 AX will form    15 AO Fock derivatives at one time.
     15 vectors produced by pass  1 Test12= 1.70D-14 5.56D-09 XBig12= 1.17D+00 2.20D-01.
     15 vectors produced by pass  2 Test12= 1.70D-14 5.56D-09 XBig12= 1.25D-01 9.25D-02.
     15 vectors produced by pass  3 Test12= 1.70D-14 5.56D-09 XBig12= 4.11D-03 9.58D-03.
     15 vectors produced by pass  4 Test12= 1.70D-14 5.56D-09 XBig12= 7.50D-05 1.56D-03.
     15 vectors produced by pass  5 Test12= 1.70D-14 5.56D-09 XBig12= 1.03D-06 1.57D-04.
     15 vectors produced by pass  6 Test12= 1.70D-14 5.56D-09 XBig12= 1.00D-08 1.29D-05.
     12 vectors produced by pass  7 Test12= 1.70D-14 5.56D-09 XBig12= 8.02D-11 1.11D-06.
      3 vectors produced by pass  8 Test12= 1.70D-14 5.56D-09 XBig12= 7.24D-13 1.23D-07.
      2 vectors produced by pass  9 Test12= 1.70D-14 5.56D-09 XBig12= 5.02D-15 9.88D-09.
 InvSVY:  IOpt=1 It=  1 EMax= 1.89D-15
 Solved reduced A of dimension   122 with    15 vectors.
 FullF1:  Do perturbations      1 to      18.
 Saving first derivative matrices.
 End of Minotr F.D. properties file   721 does not exist.
 End of Minotr F.D. properties file   722 does not exist.
 End of Minotr F.D. properties file   788 does not exist.
 Leave Link 1002 at Mon Feb 21 21:01:44 2022, MaxMem= 16106127360 cpu:             103.5 elap:               3.7
 (Enter /sw/contrib/gaussian/g16/B01/g16/l811.exe)
 MDV= 16106127360.
 Form MO integral derivatives with frozen-active canonical formalism.
 MOERI=1 MOERIx=1 NAtoms=     5 NAtomX=     5.
 Discarding MO integrals.
 MO basis two electron integral derivatives will not be stored on disk.
 IAlg= 3 DoFC=T DoPWx=T Debug=F.
 Frozen-core window:  NFC=   4 NFV=   0.
 Reordered first order wavefunction length =     18678272
 In DefCFB: NBatch=  1 ICI= 16 ICA=191 LFMax= 96
            Large arrays: LIAPS=   619940160 LIARS=   288257200 words.
 In StABat: MaxSiz= 55 MinSiz= 25 NAtomB=  5
 DoIAMN: NPSUse= 28.
 Leave Link  811 at Mon Feb 21 21:03:17 2022, MaxMem= 16106127360 cpu:            2585.5 elap:              92.5
 (Enter /sw/contrib/gaussian/g16/B01/g16/l804.exe)
 Frozen-core window:  NFC=   4 NFV=   0.
 Closed-shell transformation, MDV= 16106127360 ITran=4 ISComp=1.
 Semi-Direct transformation.
 ModeAB=           2 MOrb=            16 LenV=   16104925835
 LASXX=     67341636 LTotXX=    67341636 LenRXX=    67341636
 LTotAB=    68301760 MaxLAS=    99807120 LenRXY=    99807120
 NonZer=   134683272 LenScr=   202817536 LnRSAI=           0
 LnScr1=           0 LExtra=           0 Total=    369966292
 MaxDsk=          -1 SrtSym=           F ITran=            4
 DoSDTr:  NPSUse= 28
 JobTyp=0 Pass  1:  I=   1 to  16.
 (rs|ai) integrals will be sorted in core.
 Complete sort for first half transformation.
 First half transformation complete.
 Begin second half transformation for I=  10.
 Begin second half transformation for I=  10.
 Complete sort for second half transformation.
 Second half transformation complete.
 SymMOI:  orbitals are not symmetric.
 Spin components of T(2) and E(2):
     alpha-alpha T2 =       0.3402668526D-01 E2=     -0.1224098301D+00
     alpha-beta  T2 =       0.1868559013D+00 E2=     -0.7002568022D+00
     beta-beta   T2 =       0.3402668526D-01 E2=     -0.1224098301D+00
 ANorm=    0.1584240684D+01
 E2 =    -0.9450764623D+00 EUMP2 =    -0.28044684723894D+03
 Leave Link  804 at Mon Feb 21 21:03:30 2022, MaxMem= 16106127360 cpu:             376.3 elap:              13.5
 (Enter /sw/contrib/gaussian/g16/B01/g16/l1002.exe)
 Minotr:  Closed shell wavefunction.
          Computing MP2/KS-MP2 derivatives.
          Using Z-Vector for PSCF gradient.
          Skipping F1 and S1 gradient terms here.
          IDoAtm=11111
          Frozen-core window.
          Using MO integrals in the linear equations.
          Forming densities via direct SCF.
          Differentiating once with respect to electric field.
                with respect to dipole field.
          Differentiating once with respect to nuclear coordinates.
          Requested convergence is 1.0D-10 RMS, and 1.0D-09 maximum.
          NewPWx=F KeepS1=T KeepF1=T KeepIn=T MapXYZ=F SortEE=F KeepMc=T.
          MDV=   16106127360 using IRadAn=       5.
          Solving linear equations separately, MaxMat=       0.
          There are     1 degrees of freedom in the 1st order CPHF.  IDoFFX=0 NUNeed=     1.
 FoFJK:  IHMeth= 1 ICntrl=       0 DoSepK=F KAlg= 0 I1Cent=           0 FoldK=F
 IRaf=         0 NMat=       1 IRICut=       1 DoRegI=T DoRafI=F ISym2E= 0 IDoP0=0 IntGTp=1.
 FoFCou: FMM=F IPFlag=           0 FMFlag=      100000 FMFlg1=           0
         NFxFlg=           0 DoJE=F BraDBF=F KetDBF=F FulRan=T
         wScrn=  0.000000 ICntrl=         0 IOpCl=  0 I1Cent=           0 NGrid=           0
         NMat0=    1 NMatS0=      1 NMatT0=    0 NMatD0=    1 NMtDS0=    0 NMtDT0=    0
 Symmetry not used in FoFCou.
 LinEq1:  Iter=  0 NonCon=     1 RMS=5.96D-03 Max=1.30D-01 NDo=     1
 LinEq1:  Iter=  1 NonCon=     1 RMS=1.90D-03 Max=3.76D-02 NDo=     1
 LinEq1:  Iter=  2 NonCon=     1 RMS=8.67D-04 Max=1.29D-02 NDo=     1
 LinEq1:  Iter=  3 NonCon=     1 RMS=3.86D-04 Max=7.66D-03 NDo=     1
 LinEq1:  Iter=  4 NonCon=     1 RMS=1.19D-04 Max=1.75D-03 NDo=     1
 LinEq1:  Iter=  5 NonCon=     1 RMS=4.55D-05 Max=7.11D-04 NDo=     1
 LinEq1:  Iter=  6 NonCon=     1 RMS=2.04D-05 Max=2.36D-04 NDo=     1
 LinEq1:  Iter=  7 NonCon=     1 RMS=8.23D-06 Max=1.58D-04 NDo=     1
 LinEq1:  Iter=  8 NonCon=     1 RMS=3.59D-06 Max=4.49D-05 NDo=     1
 LinEq1:  Iter=  9 NonCon=     1 RMS=1.05D-06 Max=2.09D-05 NDo=     1
 LinEq1:  Iter= 10 NonCon=     1 RMS=2.67D-07 Max=7.60D-06 NDo=     1
 LinEq1:  Iter= 11 NonCon=     1 RMS=7.64D-08 Max=1.90D-06 NDo=     1
 LinEq1:  Iter= 12 NonCon=     1 RMS=2.00D-08 Max=2.44D-07 NDo=     1
 LinEq1:  Iter= 13 NonCon=     1 RMS=3.86D-09 Max=4.11D-08 NDo=     1
 LinEq1:  Iter= 14 NonCon=     1 RMS=6.24D-10 Max=9.92D-09 NDo=     1
 LinEq1:  Iter= 15 NonCon=     1 RMS=1.35D-10 Max=2.21D-09 NDo=     1
 LinEq1:  Iter= 16 NonCon=     0 RMS=3.46D-11 Max=4.55D-10 NDo=     1
 Linear equations converged to 1.000D-10 1.000D-09 after    16 iterations.
 End of Minotr F.D. properties file   721 does not exist.
 End of Minotr F.D. properties file   722 does not exist.
 End of Minotr F.D. properties file   788 does not exist.
 Leave Link 1002 at Mon Feb 21 21:03:33 2022, MaxMem= 16106127360 cpu:              67.7 elap:               2.5
 (Enter /sw/contrib/gaussian/g16/B01/g16/l1102.exe)
 Use density number 2.
 Symmetrizing basis deriv contribution to polar:
 IMax=3 JMax=2 DiffMx= 0.00D+00
 Leave Link 1102 at Mon Feb 21 21:03:33 2022, MaxMem= 16106127360 cpu:               0.8 elap:               0.1
 (Enter /sw/contrib/gaussian/g16/B01/g16/l1110.exe)
 Forming Gx(P) for generalized density number  2 NAtomX=     5.
 Integral derivatives from FoFJK, PRISM(SPDF).
 Do as many integral derivatives as possible in FoFJK.
 G2DrvN: MDV=   16106126844.
 G2DrvN: will do     6 centers at a time, making    1 passes.
 Calling FoFCou, ICntrl=  3107 FMM=F I1Cent=   0 AccDes= 0.00D+00.
 FoFJK:  IHMeth= 1 ICntrl=    3107 DoSepK=F KAlg= 0 I1Cent=           0 FoldK=F
 IRaf=         0 NMat=       1 IRICut=       1 DoRegI=T DoRafI=F ISym2E= 0 IDoP0=0 IntGTp=1.
 FoFCou: FMM=F IPFlag=           0 FMFlag=      100000 FMFlg1=           0
         NFxFlg=           0 DoJE=F BraDBF=F KetDBF=F FulRan=T
         wScrn=  0.000000 ICntrl=      3107 IOpCl=  0 I1Cent=           0 NGrid=           0
         NMat0=    1 NMatS0=      1 NMatT0=    0 NMatD0=    1 NMtDS0=    0 NMtDT0=    0
 Symmetry not used in FoFCou.
 End of G2Drv F.D. properties file   721 does not exist.
 End of G2Drv F.D. properties file   722 does not exist.
 End of G2Drv F.D. properties file   788 does not exist.
 Leave Link 1110 at Mon Feb 21 21:03:36 2022, MaxMem= 16106127360 cpu:              83.9 elap:               3.0
 (Enter /sw/contrib/gaussian/g16/B01/g16/l1112.exe)
 MP22nd: MDV=   16106127360
 This link is doing NAtomX=     5 total of    18 degrees of freedom.
 Using ON3 I/O method in MakUI.
 Frozen-core window:  NFC=   4 NFV=   0.
 Using Ix for Sx.
 Use MO integrals over full window.
 Using OV2 memory method for fx*t*t/D, MaxI=    16 DoOO2=F NP=  28.
 R2 and R3 integrals will be kept in memory, NReq=   915591705.
 FoFCou: FMM=F IPFlag=           0 FMFlag=           0 FMFlg1=           0
         NFxFlg=           0 DoJE=F BraDBF=F KetDBF=F FulRan=T
         wScrn=  0.000000 ICntrl=       600 IOpCl=  0 I1Cent=           0 NGrid=           0
         NMat0=    1 NMatS0=      1 NMatT0=    0 NMatD0=    1 NMtDS0=    0 NMtDT0=    0
 Symmetry not used in FoFCou.
 DD1Dir will call FoFMem   1 times, MxPair=       272
 NAB=   136 NAA=     0 NBB=     0.
 Symmetry is being used.
 FoFJK:  IHMeth= 1 ICntrl=       0 DoSepK=F KAlg= 0 I1Cent=           0 FoldK=F
 IRaf=         0 NMat=      18 IRICut=      45 DoRegI=T DoRafI=T ISym2E= 2 IDoP0=3 IntGTp=3.
 Discarding MO integrals.
 Leave Link 1112 at Mon Feb 21 21:04:12 2022, MaxMem= 16106127360 cpu:             996.8 elap:              36.0
 (Enter /sw/contrib/gaussian/g16/B01/g16/l601.exe)
 Copying SCF densities to generalized density rwf, IOpCl= 0 IROHF=0.

 **********************************************************************

            Population analysis using the MP2 Density.

 **********************************************************************

 Orbital symmetries:
       Occupied  (A) (A) (A) (A) (A) (A) (A) (A) (A) (A) (A) (A)
                 (A) (A) (A) (A)
       Virtual   (A) (A) (A) (A) (A) (A) (A) (A) (A) (A) (A) (A)
                 (A) (A) (A) (A) (A) (A) (A) (A) (A) (A) (A) (A)
                 (A) (A) (A) (A) (A) (A) (A) (A) (A) (A) (A) (A)
                 (A) (A) (A) (A) (A) (A) (A) (A) (A) (A) (A) (A)
                 (A) (A) (A) (A) (A) (A) (A) (A) (A) (A) (A) (A)
                 (A) (A) (A) (A) (A) (A) (A) (A) (A) (A) (A) (A)
                 (A) (A) (A) (A) (A) (A) (A) (A) (A) (A) (A) (A)
                 (A) (A) (A) (A) (A) (A) (A) (A) (A) (A) (A) (A)
                 (A) (A) (A) (A) (A) (A) (A) (A) (A) (A) (A) (A)
                 (A) (A) (A) (A) (A) (A) (A) (A) (A) (A) (A) (A)
                 (A) (A) (A) (A) (A) (A) (A) (A) (A) (A) (A) (A)
                 (A) (A) (A) (A) (A) (A) (A) (A) (A) (A) (A) (A)
                 (A) (A) (A) (A) (A) (A) (A) (A) (A) (A) (A) (A)
                 (A) (A) (A) (A) (A) (A) (A) (A) (A) (A) (A) (A)
                 (A) (A) (A) (A) (A) (A) (A) (A) (A) (A) (A) (A)
                 (A) (A) (A) (A) (A) (A) (A) (A) (A) (A) (A)
 The electronic state is 1-A.
 Alpha  occ. eigenvalues --  -20.69100 -20.68427 -20.66009 -15.81274  -1.62403
 Alpha  occ. eigenvalues --   -1.49581  -1.25443  -0.94808  -0.77259  -0.75939
 Alpha  occ. eigenvalues --   -0.71256  -0.67897  -0.62005  -0.58900  -0.48645
 Alpha  occ. eigenvalues --   -0.47192
 Alpha virt. eigenvalues --    0.02960   0.07165   0.08593   0.10174   0.13270
 Alpha virt. eigenvalues --    0.13486   0.14395   0.15446   0.17816   0.19412
 Alpha virt. eigenvalues --    0.19941   0.20655   0.22081   0.23538   0.23729
 Alpha virt. eigenvalues --    0.26671   0.29273   0.30085   0.31166   0.34348
 Alpha virt. eigenvalues --    0.35281   0.38746   0.41826   0.42963   0.52718
 Alpha virt. eigenvalues --    0.53062   0.55857   0.58117   0.62596   0.63816
 Alpha virt. eigenvalues --    0.67387   0.68377   0.70675   0.71264   0.72009
 Alpha virt. eigenvalues --    0.73199   0.74711   0.78663   0.79411   0.81046
 Alpha virt. eigenvalues --    0.81378   0.83326   0.86780   0.90835   0.91691
 Alpha virt. eigenvalues --    0.93225   0.95573   0.97209   0.98801   1.01566
 Alpha virt. eigenvalues --    1.05447   1.05750   1.08339   1.11484   1.13128
 Alpha virt. eigenvalues --    1.19721   1.21933   1.23378   1.33734   1.35073
 Alpha virt. eigenvalues --    1.38817   1.45503   1.49142   1.50841   1.53730
 Alpha virt. eigenvalues --    1.56719   1.58054   1.60572   1.66493   1.66685
 Alpha virt. eigenvalues --    1.70535   1.78990   1.82994   1.83667   1.88037
 Alpha virt. eigenvalues --    1.90620   1.95615   1.98361   2.02274   2.07762
 Alpha virt. eigenvalues --    2.11662   2.12834   2.15455   2.22197   2.25885
 Alpha virt. eigenvalues --    2.27092   2.28774   2.31243   2.34365   2.38747
 Alpha virt. eigenvalues --    2.40697   2.44649   2.45381   2.46597   2.47656
 Alpha virt. eigenvalues --    2.50558   2.58953   2.59817   2.61905   2.62591
 Alpha virt. eigenvalues --    2.63723   2.66600   2.75205   2.82790   2.84864
 Alpha virt. eigenvalues --    2.88800   2.89778   2.91894   2.95968   3.02146
 Alpha virt. eigenvalues --    3.07456   3.12018   3.20458   3.22872   3.31604
 Alpha virt. eigenvalues --    3.34092   3.51442   3.64684   3.83756   3.84788
 Alpha virt. eigenvalues --    4.13790   4.16409   4.19920   4.25494   4.34255
 Alpha virt. eigenvalues --    4.39384   4.47286   4.52299   4.65362   4.71104
 Alpha virt. eigenvalues --    4.80434   4.82320   4.82677   4.89668   5.02273
 Alpha virt. eigenvalues --    5.07345   5.10179   5.14558   5.18241   5.24825
 Alpha virt. eigenvalues --    5.27166   5.30501   5.33003   5.35257   5.60144
 Alpha virt. eigenvalues --    5.67359   5.76334   5.83161   5.95514   6.16933
 Alpha virt. eigenvalues --    6.31121   6.34075   6.39280   6.49414   6.50517
 Alpha virt. eigenvalues --    6.62012   6.65763   6.70487   6.74914   6.76889
 Alpha virt. eigenvalues --    6.83451   6.89835   7.01196   7.05467   7.05769
 Alpha virt. eigenvalues --    7.09340   7.12649   7.14686   7.18764   7.22486
 Alpha virt. eigenvalues --    7.23907   7.30474   7.32276   7.35460   7.39373
 Alpha virt. eigenvalues --    7.42898   7.48589   7.60671   7.61823   7.63168
 Alpha virt. eigenvalues --    7.67239   7.78600   7.88473   8.09184   8.31237
 Alpha virt. eigenvalues --    8.40174   8.54187  13.38633  14.39865  15.16083
 Alpha virt. eigenvalues --   16.15074
          Condensed to atoms (all electrons):
               1          2          3          4          5
     1  H    0.590157   0.128429   0.020152   0.011761  -0.000611
     2  O    0.128429   8.320682  -0.172676  -0.089974   0.015188
     3  O    0.020152  -0.172676   8.467736  -0.129432  -0.038717
     4  N    0.011761  -0.089974  -0.129432   6.970486  -0.054772
     5  O   -0.000611   0.015188  -0.038717  -0.054772   8.272244
 Mulliken charges:
               1
     1  H    0.250112
     2  O   -0.201648
     3  O   -0.147063
     4  N    0.291932
     5  O   -0.193332
 Sum of Mulliken charges =  -0.00000
 Mulliken charges with hydrogens summed into heavy atoms:
               1
     2  O    0.048464
     3  O   -0.147063
     4  N    0.291932
     5  O   -0.193332
 APT charges:
               1
     1  H    0.298267
     2  O   -0.287382
     3  O   -0.494358
     4  N    0.875492
     5  O   -0.392019
 Sum of APT charges =  -0.00000
 APT charges with hydrogens summed into heavy atoms:
               1
     2  O    0.010885
     3  O   -0.494358
     4  N    0.875492
     5  O   -0.392019
 Electronic spatial extent (au):  <R**2>=            252.8516
 Charge=             -0.0000 electrons
 Dipole moment (field-independent basis, Debye):
    X=              1.2068    Y=              0.7764    Z=              0.2594  Tot=              1.4583
 Quadrupole moment (field-independent basis, Debye-Ang):
   XX=            -18.0605   YY=            -23.1137   ZZ=            -21.9570
   XY=              2.7436   XZ=              0.6837   YZ=              0.2093
 Traceless Quadrupole moment (field-independent basis, Debye-Ang):
   XX=              2.9832   YY=             -2.0700   ZZ=             -0.9132
   XY=              2.7436   XZ=              0.6837   YZ=              0.2093
 Octapole moment (field-independent basis, Debye-Ang**2):
  XXX=             17.9535  YYY=              1.7521  ZZZ=              0.0859  XYY=              1.0465
  XXY=              6.0658  XXZ=              1.6371  XZZ=             -1.6618  YZZ=              0.2656
  YYZ=              0.0338  XYZ=              0.3574
 Hexadecapole moment (field-independent basis, Debye-Ang**3):
 XXXX=           -190.8174 YYYY=            -41.0869 ZZZZ=            -18.2782 XXXY=             11.7741
 XXXZ=              4.1483 YYYX=              0.9706 YYYZ=              0.1929 ZZZX=              0.2557
 ZZZY=              0.1397 XXYY=            -42.5434 XXZZ=            -41.4033 YYZZ=             -9.8689
 XXYZ=              0.8479 YYXZ=              0.1805 ZZXY=              0.5085
 N-N= 1.168761408863D+02 E-N=-8.958626912038D+02  KE= 2.801977516776D+02
  Exact polarizability:  41.702   0.959  22.510   0.135   0.026  17.956
 Approx polarizability:  31.932  -1.148  20.559   0.117   0.097  15.560
 No NMR shielding tensors so no spin-rotation constants.
 Leave Link  601 at Mon Feb 21 21:04:12 2022, MaxMem= 16106127360 cpu:               5.0 elap:               0.2
 (Enter /sw/contrib/gaussian/g16/B01/g16/l701.exe)
 ... and contract with generalized density number  2.
 Compute integral second derivatives.
 Leave Link  701 at Mon Feb 21 21:04:12 2022, MaxMem= 16106127360 cpu:               5.6 elap:               0.2
 (Enter /sw/contrib/gaussian/g16/B01/g16/l702.exe)
 L702 exits ... SP integral derivatives will be done elsewhere.
 Leave Link  702 at Mon Feb 21 21:04:12 2022, MaxMem= 16106127360 cpu:               0.8 elap:               0.1
 (Enter /sw/contrib/gaussian/g16/B01/g16/l703.exe)
 Integral derivatives from FoFJK, PRISM(SPDF).
 Compute integral second derivatives, UseDBF=F ICtDFT=           0.
 Calling FoFJK, ICntrl=  10100127 FMM=F ISym2X=0 I1Cent= 0 IOpClX= 0 NMat=1 NMatS=1 NMatT=0.
 FoFJK:  IHMeth= 1 ICntrl=10100127 DoSepK=F KAlg= 0 I1Cent=           0 FoldK=F
 IRaf=         0 NMat=       1 IRICut=       1 DoRegI=T DoRafI=F ISym2E= 0 IDoP0=0 IntGTp=1.
 FoFCou: FMM=F IPFlag=           0 FMFlag=      100000 FMFlg1=         800
         NFxFlg=           0 DoJE=F BraDBF=F KetDBF=F FulRan=T
         wScrn=  0.000000 ICntrl=  10100127 IOpCl=  0 I1Cent=           0 NGrid=           0
         NMat0=    1 NMatS0=      1 NMatT0=    0 NMatD0=    1 NMtDS0=    0 NMtDT0=    0
 Symmetry not used in FoFCou.
 Leave Link  703 at Mon Feb 21 21:04:28 2022, MaxMem= 16106127360 cpu:             424.3 elap:              15.2
 (Enter /sw/contrib/gaussian/g16/B01/g16/l716.exe)
 Dipole        = 4.74810226D-01 3.05474864D-01 1.02068313D-01
 Polarizability= 4.17020284D+01 9.59021009D-01 2.25100907D+01
                 1.34848147D-01 2.59807714D-02 1.79558310D+01
 Full mass-weighted force constant matrix:
 Low frequencies --- -261.4287   -8.3101    0.0006    0.0007    0.0011    2.6632
 Low frequencies ---   16.8105  228.3614  342.6740
 ******    1 imaginary frequencies (negative Signs) ****** 
 Diagonal vibrational polarizability:
       35.0933795       5.3531713      48.1192524
 Harmonic frequencies (cm**-1), IR intensities (KM/Mole), Raman scattering
 activities (A**4/AMU), depolarization ratios for plane and unpolarized
 incident light, reduced masses (AMU), force constants (mDyne/A),
 and normal coordinates:
                      1                      2                      3
                      A                      A                      A
 Frequencies --   -261.4274               228.3475               342.6715
 Red. masses --      1.1409                10.5941                 8.6394
 Frc consts  --      0.0459                 0.3255                 0.5977
 IR Inten    --    125.3939                 0.8408                 4.8501
  Atom  AN      X      Y      Z        X      Y      Z        X      Y      Z
     1   1    -0.08  -0.13   0.98     0.08  -0.04  -0.56     0.16  -0.67   0.05
     2   8     0.01   0.01  -0.06    -0.01  -0.00  -0.31    -0.30  -0.25   0.01
     3   8     0.01  -0.00  -0.04     0.00   0.01   0.33     0.14   0.43  -0.02
     4   7    -0.01  -0.00   0.06     0.01   0.01   0.53     0.19   0.18  -0.00
     5   8    -0.00   0.00  -0.01    -0.00  -0.01  -0.44    -0.02  -0.30   0.01
                      4                      5                      6
                      A                      A                      A
 Frequencies --    452.6043               785.8910               966.4409
 Red. masses --     12.1984                12.9429                15.3483
 Frc consts  --      1.4723                 4.7098                 8.4462
 IR Inten    --    197.1734               169.8003                23.7348
  Atom  AN      X      Y      Z        X      Y      Z        X      Y      Z
     1   1    -0.45   0.07   0.09    -0.16   0.34   0.09    -0.15   0.07  -0.08
     2   8    -0.38   0.03  -0.00     0.39  -0.18  -0.01    -0.40   0.33   0.00
     3   8    -0.40  -0.25   0.00    -0.21  -0.18   0.01     0.59  -0.46   0.01
     4   7     0.52   0.12  -0.00     0.26   0.58  -0.01     0.05   0.27  -0.01
     5   8     0.35   0.11  -0.00    -0.39  -0.17   0.00    -0.22  -0.11   0.00
                      7                      8                      9
                      A                      A                      A
 Frequencies --   1371.6775              1677.2632              3778.2585
 Red. masses --      1.1320                13.2502                 1.0676
 Frc consts  --      1.2549                21.9622                 8.9791
 IR Inten    --    150.8386               140.9606                81.8614
  Atom  AN      X      Y      Z        X      Y      Z        X      Y      Z
     1   1     0.77  -0.63  -0.02     0.27  -0.21  -0.01     0.67   0.73   0.15
     2   8     0.01   0.06   0.01     0.03   0.03   0.00    -0.04  -0.04  -0.01
     3   8    -0.05  -0.03  -0.01    -0.09  -0.12   0.00     0.00  -0.00  -0.00
     4   7     0.02  -0.00  -0.00    -0.54   0.46  -0.00    -0.00  -0.00   0.00
     5   8    -0.03   0.01   0.00     0.52  -0.30   0.00     0.00  -0.00  -0.00

 -------------------
 - Thermochemistry -
 -------------------
 Temperature   298.150 Kelvin.  Pressure   1.00000 Atm.
 Atom     1 has atomic number  1 and mass   1.00783
 Atom     2 has atomic number  8 and mass  15.99491
 Atom     3 has atomic number  8 and mass  15.99491
 Atom     4 has atomic number  7 and mass  14.00307
 Atom     5 has atomic number  8 and mass  15.99491
 Molecular mass:    62.99564 amu.
 Principal axes and moments of inertia in atomic units:
                           1         2         3
     Eigenvalues --    32.89157 360.11089 392.82706
           X            0.99994   0.01047   0.00313
           Y           -0.01050   0.99992   0.00674
           Z           -0.00306  -0.00677   0.99997
 This molecule is an asymmetric top.
 Rotational symmetry number  1.
 Rotational temperatures (Kelvin)      2.63332     0.24052     0.22049
 Rotational constants (GHZ):          54.86942     5.01163     4.59424
    1 imaginary frequencies ignored.
 Zero-point vibrational energy      57439.6 (Joules/Mol)
                                   13.72840 (Kcal/Mol)
 Warning -- explicit consideration of   3 degrees of freedom as
           vibrations may cause significant error
 Vibrational temperatures:    328.54   493.03   651.20  1130.72  1390.49
          (Kelvin)           1973.54  2413.21  5436.07
 
 Zero-point correction=                           0.021878 (Hartree/Particle)
 Thermal correction to Energy=                    0.025994
 Thermal correction to Enthalpy=                  0.026938
 Thermal correction to Gibbs Free Energy=        -0.004245
 Sum of electronic and zero-point Energies=           -280.424970
 Sum of electronic and thermal Energies=              -280.420853
 Sum of electronic and thermal Enthalpies=            -280.419909
 Sum of electronic and thermal Free Energies=         -280.451092
 
                     E (Thermal)             CV                S
                      KCal/Mol        Cal/Mol-Kelvin    Cal/Mol-Kelvin
 Total                   16.312             11.951             65.630
 Electronic               0.000              0.000              0.000
 Translational            0.889              2.981             38.341
 Rotational               0.889              2.981             23.058
 Vibrational             14.534              5.989              4.231
 Vibration     1          0.651              1.798              1.892
 Vibration     2          0.722              1.590              1.200
 Vibration     3          0.811              1.355              0.788
                       Q            Log10(Q)             Ln(Q)
 Total Bot       0.896091D+02          1.952352          4.495457
 Total V=0       0.103595D+13         12.015339         27.666340
 Vib (Bot)       0.186735D-09         -9.728774        -22.401331
 Vib (Bot)    1  0.863158D+00         -0.063910         -0.147157
 Vib (Bot)    2  0.540957D+00         -0.266838         -0.614416
 Vib (Bot)    3  0.378088D+00         -0.422408         -0.972629
 Vib (V=0)       0.215880D+01          0.334212          0.769552
 Vib (V=0)    1  0.149752D+01          0.175372          0.403809
 Vib (V=0)    2  0.123664D+01          0.092242          0.212396
 Vib (V=0)    3  0.112686D+01          0.051869          0.119433
 Electronic      0.100000D+01          0.000000          0.000000
 Translational   0.196526D+08          7.293420         16.793719
 Rotational      0.244178D+05          4.387707         10.103068
 
                                                                title
                                                             IR Spectrum
 
     3                                                                      1         1                                              
     7                                                                      6         3             9     7          4   3   2       
     7                                                                      7         7             6     8          5   4   2       
     8                                                                      7         2             6     6          3   3   8       
 
     X                                                                      X         X             X     X          X   X   X       
     X                                                                      X         X             X     X          X               
     X                                                                      X         X                   X          X               
     X                                                                      X         X                   X          X               
     X                                                                      X         X                   X          X               
     X                                                                      X         X                   X          X               
     X                                                                      X         X                   X          X               
     X                                                                      X         X                   X          X               
                                                                            X         X                   X          X               
                                                                            X         X                   X          X               
                                                                            X         X                   X          X               
                                                                            X         X                   X          X               
                                                                            X         X                   X          X               
                                                                            X         X                   X          X               
                                                                                      X                   X          X               
                                                                                                          X          X               
                                                                                                          X          X               
                                                                                                                     X               
                                                                                                                     X               
                                                                                                                     X               
 
 ***** Axes restored to original set *****
 -------------------------------------------------------------------
 Center     Atomic                   Forces (Hartrees/Bohr)
 Number     Number              X              Y              Z
 -------------------------------------------------------------------
      1        1          -0.000050504   -0.000714596    0.000004181
      2        8           0.000504377    0.000937694   -0.000071954
      3        8          -0.000595881    0.000299634    0.000030445
      4        7          -0.000266351   -0.000823846   -0.000121955
      5        8           0.000408359    0.000301113    0.000159283
 -------------------------------------------------------------------
 Cartesian Forces:  Max     0.000937694 RMS     0.000457907
 -----------------------------------------------------------------------------------------------
                       Internal Coordinate Forces (Hartree/Bohr or radian)
  Cent   Atom   N1       Length/X         N2         Alpha/Y        N3         Beta/Z          J
 -----------------------------------------------------------------------------------------------
      1  H 
      2  O        1  -0.000004(     1)
      3  O        2  -0.000441(     2)      1   0.000092(     5)
      4  N        3   0.000136(     3)      2   0.000328(     6)      1   0.001297(     8)     0
      5  O        4   0.000429(     4)      3   0.000001(     7)      2   0.000657(     9)     0
 -----------------------------------------------------------------------------------------------
 Internal  Forces:  Max     0.001296967 RMS     0.000540323
 Force constants in Cartesian coordinates: 
                1             2             3             4             5 
      1  0.647062D-01
      2 -0.805385D-03 -0.217519D-02
      3  0.518342D-02  0.402493D-03  0.512224D+00
      4 -0.356695D-01  0.220651D-02 -0.160893D-01  0.272082D+00
      5  0.327517D-03  0.293736D-02 -0.630705D-03 -0.499337D-02  0.319243D-02
      6  0.483206D-01 -0.156558D-02 -0.508584D+00  0.333676D-01 -0.454077D-02
      7 -0.186864D-01 -0.255817D-02  0.123791D-01 -0.219236D+00 -0.317202D-02
      8  0.119040D-02  0.981022D-03 -0.301814D-03  0.195819D-02 -0.761703D-02
      9 -0.530144D-01  0.992814D-04 -0.363384D-03 -0.193409D-01  0.437531D-02
     10 -0.908998D-02  0.920059D-03 -0.480109D-02 -0.175529D-01  0.760472D-02
     11 -0.209075D-02 -0.267108D-02  0.630937D-03  0.353729D-03 -0.422691D-02
     12  0.502616D-02  0.684547D-03 -0.468610D-02  0.115642D-01 -0.301658D-02
     13 -0.126032D-02  0.236988D-03  0.332794D-02  0.376948D-03  0.233159D-03
     14  0.137822D-02  0.927878D-03 -0.100911D-03  0.474945D-03  0.571415D-02
     15 -0.551572D-02  0.379260D-03  0.141005D-02 -0.950159D-02  0.381274D-02
                6             7             8             9            10 
      6  0.594009D+00
      7 -0.216980D-01  0.340766D+00
      8  0.703587D-02  0.523523D-02  0.823589D-02
      9 -0.778220D-01  0.365925D-01 -0.226338D-01  0.177469D+00
     10 -0.518216D-01 -0.775058D-01 -0.313171D-01  0.171865D+00  0.828126D+00
     11 -0.628086D-02 -0.148521D-01  0.506640D-02  0.192640D-01  0.220827D-01
     12  0.162040D-01  0.617034D-01  0.153645D-01 -0.789924D-01 -0.153748D-01
     13 -0.816860D-02 -0.253375D-01  0.229333D-01 -0.136102D+00 -0.723977D+00
     14  0.535134D-02  0.153470D-01 -0.666628D-02 -0.110480D-02  0.709606D-03
     15 -0.238067D-01 -0.889770D-01  0.535279D-03 -0.202915D-01 -0.998670D-01
               11            12            13            14            15 
     11  0.141125D-01
     12 -0.295423D-01  0.182011D+00
     13 -0.549361D-02 -0.629189D-01  0.750198D+00
     14 -0.122810D-01  0.165098D-01 -0.179098D-01  0.123052D-01
     15  0.159282D-01 -0.114536D+00  0.203861D+00 -0.206555D-01  0.157224D+00
 Force constants in internal coordinates: 
                1             2             3             4             5 
      1  0.512224D+00
      2 -0.103292D-01  0.280914D+00
      3  0.343042D-02  0.286091D-02  0.117365D+00
      4 -0.357412D-02  0.591679D-02  0.152868D+00  0.812147D+00
      5  0.944077D-02  0.656515D-01  0.225339D-02  0.477562D-02  0.216950D+00
      6  0.448223D-02  0.594615D-01  0.411547D-01  0.219966D-01  0.309709D-01
      7 -0.120207D-02  0.378000D-01  0.319447D-01  0.847111D-01  0.210142D-01
      8  0.222466D-04  0.224174D-02 -0.259995D-02 -0.552683D-03 -0.250446D-02
      9 -0.133376D-03  0.101711D-02 -0.928910D-05 -0.675741D-04 -0.174161D-02
                6             7             8             9 
      6  0.284196D+00
      7  0.959206D-01  0.482561D+00
      8 -0.444183D-02 -0.589030D-03 -0.718507D-02
      9 -0.420691D-04  0.394493D-03 -0.369229D-02  0.409925D-01
 Leave Link  716 at Mon Feb 21 21:04:28 2022, MaxMem= 16106127360 cpu:               3.1 elap:               0.1
 (Enter /sw/contrib/gaussian/g16/B01/g16/l103.exe)

 GradGradGradGradGradGradGradGradGradGradGradGradGradGradGradGradGradGrad
 Berny optimization.
 Search for a local minimum.
 Step number   1 out of a maximum of    2
 All quantities printed in internal units (Hartrees-Bohrs-Radians)
 Second derivative matrix not updated -- analytic derivatives used.
 The second derivative matrix:
                          r1        r2        r3        r4        a1
           r1           0.51222
           r2          -0.01033   0.28091
           r3           0.00343   0.00286   0.11737
           r4          -0.00357   0.00592   0.15287   0.81215
           a1           0.00944   0.06565   0.00225   0.00478   0.21695
           a2           0.00448   0.05946   0.04115   0.02200   0.03097
           a3          -0.00120   0.03780   0.03194   0.08471   0.02101
           d1           0.00002   0.00224  -0.00260  -0.00055  -0.00250
           d2          -0.00013   0.00102  -0.00001  -0.00007  -0.00174
                          a2        a3        d1        d2
           a2           0.28420
           a3           0.09592   0.48256
           d1          -0.00444  -0.00059  -0.00719
           d2          -0.00004   0.00039  -0.00369   0.04099
 ITU=  0
     Eigenvalues ---   -0.00765   0.04125   0.07853   0.17510   0.22628
     Eigenvalues ---    0.32536   0.51286   0.51742   0.87101
 Eigenvalue     1 is  -7.65D-03 should be greater than     0.000000 Eigenvector:
                          d1        d2        r3        a2        r2
   1                    0.99655   0.07646   0.02061   0.01459  -0.01408
                          a1        r4        a3        r1
   1                    0.01390  -0.00333  -0.00200  -0.00084
 Angle between quadratic step and forces=  30.01 degrees.
 Linear search not attempted -- first point.
 Variable       Old X    -DE/DX   Delta X   Delta X   Delta X     New X
                                 (Linear)    (Quad)   (Total)
    r1        1.83110  -0.00000   0.00000  -0.00022  -0.00022   1.83088
    r2        2.74940  -0.00044   0.00000  -0.00453  -0.00453   2.74487
    r3        2.75670   0.00014   0.00000   0.00337   0.00337   2.76008
    r4        2.21236   0.00043   0.00000  -0.00001  -0.00001   2.21235
    a1        1.70335   0.00009   0.00000   0.00332   0.00332   1.70667
    a2        1.78543   0.00033   0.00000   0.00407   0.00407   1.78950
    a3        1.90362   0.00000   0.00000  -0.00062  -0.00062   1.90301
    d1        3.31284   0.00130   0.00000   0.17559   0.17559   3.48843
    d2        3.14159   0.00066   0.00000   0.02706   0.02706   3.16865
         Item               Value     Threshold  Converged?
 Maximum Force            0.001297     0.000450     NO 
 RMS     Force            0.000540     0.000300     NO 
 Maximum Displacement     0.175588     0.001800     NO 
 RMS     Displacement     0.059276     0.001200     NO 
 Predicted change in Energy=-3.652887D-04
                       ----------------------------
                       ! Non-Optimized Parameters !
                       ! (Angstroms and Degrees)  !
 ----------------------                            ----------------------
 !      Name          Value   Derivative information (Atomic Units)     !
 ------------------------------------------------------------------------
 !       r1          0.9689   -DE/DX =    0.0                           !
 !       r2          1.4525   -DE/DX =   -0.0004                        !
 !       r3          1.4606   -DE/DX =    0.0001                        !
 !       r4          1.1707   -DE/DX =    0.0004                        !
 !       a1         97.7852   -DE/DX =    0.0001                        !
 !       a2        102.531    -DE/DX =    0.0003                        !
 !       a3        109.0342   -DE/DX =    0.0                           !
 !       d1        199.8721   -DE/DX =    0.0013                        !
 !       d2        181.5502   -DE/DX =    0.0007                        !
 ------------------------------------------------------------------------
 GradGradGradGradGradGradGradGradGradGradGradGradGradGradGradGradGradGrad

 Leave Link  103 at Mon Feb 21 21:04:28 2022, MaxMem= 16106127360 cpu:               1.0 elap:               0.1
 (Enter /sw/contrib/gaussian/g16/B01/g16/l9999.exe)

 ----------------------------------------------------------------------

 Electric dipole moment (input orientation):
 (Debye = 10**-18 statcoulomb cm , SI units = C m)
                  (au)            (Debye)         (10**-30 SI)
   Tot        0.573740D+00      0.145830D+01      0.486437D+01
   x         -0.146530D+00     -0.372443D+00     -0.124233D+01
   y         -0.198475D-01     -0.504474D-01     -0.168274D+00
   z         -0.554358D+00     -0.140904D+01     -0.470004D+01

 Dipole polarizability, Alpha (input orientation).
 (esu units = cm**3 , SI units = C**2 m**2 J**-1)
 Alpha(0;0):
               (au)            (10**-24 esu)      (10**-40 SI)
   iso        0.273893D+02      0.405868D+01      0.451589D+01
   aniso      0.218928D+02      0.324417D+01      0.360963D+01
   xx         0.321448D+02      0.476337D+01      0.529996D+01
   yx        -0.114919D+01     -0.170292D+00     -0.189476D+00
   yy         0.182102D+02      0.269847D+01      0.300245D+01
   zx         0.957730D+01      0.141921D+01      0.157908D+01
   zy        -0.187046D+01     -0.277173D+00     -0.308397D+00
   zz         0.318130D+02      0.471420D+01      0.524526D+01

 ----------------------------------------------------------------------

 Dipole orientation:
     1          0.00000000          0.00000000          0.00000000
     8         -0.46765289          0.06334369         -1.76923990
     8          2.07441225          0.08816006         -2.81637120
     7          1.60831117          0.64160000         -5.47642042
     8          3.54183599          0.71452085         -6.54912138

 Electric dipole moment (dipole orientation):
 (Debye = 10**-18 statcoulomb cm , SI units = C m)
                  (au)            (Debye)         (10**-30 SI)
   Tot        0.573740D+00      0.145830D+01      0.486437D+01
   x          0.000000D+00      0.000000D+00      0.000000D+00
   y          0.000000D+00      0.000000D+00      0.000000D+00
   z          0.573740D+00      0.145830D+01      0.486437D+01

 Dipole polarizability, Alpha (dipole orientation).
 (esu units = cm**3 , SI units = C**2 m**2 J**-1)
 Alpha(0;0):
               (au)            (10**-24 esu)      (10**-40 SI)
   iso        0.273893D+02      0.405868D+01      0.451589D+01
   aniso      0.218928D+02      0.324417D+01      0.360963D+01
   xx         0.273989D+02      0.406009D+01      0.451746D+01
   yx         0.882975D+00      0.130843D+00      0.145583D+00
   yy         0.183693D+02      0.272206D+01      0.302870D+01
   zx        -0.839365D+01     -0.124381D+01     -0.138393D+01
   zy        -0.269393D+01     -0.399199D+00     -0.444169D+00
   zz         0.363997D+02      0.539389D+01      0.600151D+01

 ----------------------------------------------------------------------
 1\1\GINC-N2124\Freq\RMP2-FC\Aug-CC-pVTZ\H1N1O3\CGAVINH\21-Feb-2022\1\\
 #p freq mp2/aug-cc-pvtz density=current\\title\\0,1\H\O,1,r1\O,2,r2,1,
 a1\N,3,r3,2,a2,1,d1,0\O,4,r4,3,a3,2,d2,0\\r1=0.96897556\r2=1.45491931\
 r3=1.45878406\r4=1.17072885\a1=97.59494903\a2=102.29752444\a3=109.0695
 5123\d1=189.81162037\d2=180.\\Version=ES64L-G16RevB.01\State=1-A\HF=-2
 79.5017708\MP2=-280.4468472\RMSD=5.085e-09\RMSF=4.579e-04\ZeroPoint=0.
 0218776\Thermal=0.025994\Dipole=-0.1465302,-0.0198475,-0.5543578\Dipol
 eDeriv=0.2658261,0.0014857,0.0480666,0.0017,0.3545674,0.0016413,0.0816
 362,-0.0073823,0.2744075,-0.3276242,0.0150609,-0.2054581,-0.011332,-0.
 3130631,-0.0044646,-0.1122169,0.0119129,-0.2214588,-0.0476941,-0.01467
 84,0.1449788,0.1389494,-0.1181093,0.2100367,-0.7408264,0.1819257,-1.31
 72711,0.8976095,-0.1315195,0.8998688,-0.1331791,0.102746,-0.2417204,0.
 9135707,-0.2388653,1.62612,-0.7881173,0.1296514,-0.8874561,0.0038617,-
 0.026141,0.034507,-0.1421635,0.052409,-0.3617976\Polar=32.1447884,-1.1
 491894,18.2101519,9.5772972,-1.8704571,31.8130099\Quadrupole=-1.502898
 9,-0.7519848,2.2548837,-0.0621142,2.0875707,0.0384075\PG=C01 [X(H1N1O3
 )]\NImag=1\\0.06470616,-0.00080538,-0.00217519,0.00518342,0.00040249,0
 .51222386,-0.03566950,0.00220651,-0.01608933,0.27208178,0.00032752,0.0
 0293736,-0.00063071,-0.00499337,0.00319243,0.04832055,-0.00156558,-0.5
 0858442,0.03336765,-0.00454077,0.59400916,-0.01868635,-0.00255817,0.01
 237906,-0.21923634,-0.00317202,-0.02169800,0.34076600,0.00119040,0.000
 98102,-0.00030181,0.00195819,-0.00761703,0.00703587,0.00523523,0.00823
 589,-0.05301441,0.00009928,-0.00036338,-0.01934088,0.00437531,-0.07782
 204,0.03659250,-0.02263382,0.17746928,-0.00908998,0.00092006,-0.004801
 09,-0.01755288,0.00760472,-0.05182160,-0.07750583,-0.03131708,0.171864
 53,0.82812581,-0.00209075,-0.00267108,0.00063094,0.00035373,-0.0042269
 1,-0.00628086,-0.01485206,0.00506640,0.01926402,0.02208270,0.01411255,
 0.00502616,0.00068455,-0.00468610,0.01156415,-0.00301658,0.01620403,0.
 06170342,0.01536449,-0.07899236,-0.01537483,-0.02954228,0.18201053,-0.
 00126032,0.00023699,0.00332794,0.00037695,0.00023316,-0.00816860,-0.02
 533748,0.02293326,-0.13610175,-0.72397713,-0.00549361,-0.06291891,0.75
 019798,0.00137822,0.00092788,-0.00010091,0.00047494,0.00571415,0.00535
 134,0.01534703,-0.00666628,-0.00110480,0.00070961,-0.01228096,0.016509
 83,-0.01790980,0.01230521,-0.00551572,0.00037926,0.00141005,-0.0095015
 9,0.00381274,-0.02380673,-0.08897699,0.00053528,-0.02029150,-0.0998670
 2,0.01592818,-0.11453610,0.20386132,-0.02065546,0.15722428\\0.00005050
 ,0.00071460,-0.00000418,-0.00050438,-0.00093769,0.00007195,0.00059588,
 -0.00029963,-0.00003044,0.00026635,0.00082385,0.00012196,-0.00040836,-
 0.00030111,-0.00015928\\\@


 IN THE FIGHT BETWEEN YOU AND THE WORLD, BACK THE WORLD

                                        -- FRANZ KAFKA
 Job cpu time:       0 days  2 hours  5 minutes 42.9 seconds.
 Elapsed time:       0 days  0 hours  4 minutes 37.2 seconds.
 File lengths (MBytes):  RWF=   7239 Int=      0 D2E=      0 Chk=      8 Scr=      1
 Normal termination of Gaussian 16 at Mon Feb 21 21:04:29 2022.
