title                                                                   
Freq      RMP2-FC                                                     Aug-CC-pVTZ         
Number of atoms                            I                5
Info1-9                                    I   N=           9
          33          24           0           0           0         100
           6           2           1
Full Title                                 C   N=           1
title       
Route                                      C   N=           4
#p freq mp2/aug-cc-pvtz density=current         
Charge                                     I                0
Multiplicity                               I                1
Number of electrons                        I               32
Number of alpha electrons                  I               16
Number of beta electrons                   I               16
Number of basis functions                  I              207
Number of independent functions            I              207
Number of point charges in /Mol/           I                0
Number of translation vectors              I                0
Atomic numbers                             I   N=           5
           1           8           8           7           8
Nuclear charges                            R   N=           5
  1.00000000E+00  8.00000000E+00  8.00000000E+00  7.00000000E+00  8.00000000E+00
Current cartesian coordinates              R   N=          15
  4.23146646E+00  8.00845688E-01  3.05301647E-01  3.02229567E+00 -5.33520405E-01
 -2.68046380E-02  7.56236640E-01  1.02343048E+00 -3.54898613E-02 -1.25282114E+00
 -8.63538784E-01  1.39232617E-02 -3.21124712E+00  1.65580645E-01  1.19489396E-02
Number of symbols in /Mol/                 I                0
Force Field                                I                0
Atom Types                                 C   N=           5
                                                            
Int Atom Types                             I   N=           5
           0           0           0           0           0
MM charges                                 R   N=           5
  0.00000000E+00  0.00000000E+00  0.00000000E+00  0.00000000E+00  0.00000000E+00
Integer atomic weights                     I   N=           5
           1          16          16          14          16
Real atomic weights                        R   N=           5
  1.00782504E+00  1.59949146E+01  1.59949146E+01  1.40030740E+01  1.59949146E+01
Atom fragment info                         I   N=           5
           0           0           0           0           0
Atom residue num                           I   N=           5
           0           0           0           0           0
Nuclear spins                              I   N=           5
           1           0           0           2           0
Nuclear ZEff                               R   N=           5
 -1.00000000E+00 -5.60000000E+00 -5.60000000E+00 -4.55000000E+00 -5.60000000E+00
Nuclear ZNuc                               R   N=           5
  1.00000000E+00  8.00000000E+00  8.00000000E+00  7.00000000E+00  8.00000000E+00
Nuclear QMom                               R   N=           5
  0.00000000E+00  0.00000000E+00  0.00000000E+00  2.04400000E+00  0.00000000E+00
Nuclear GFac                               R   N=           5
  2.79284600E+00  0.00000000E+00  0.00000000E+00  4.03761000E-01  0.00000000E+00
MicOpt                                     I   N=           5
          -1          -1          -1          -1          -1
Number of residues                         I                0
Number of secondary structures             I                0
SymInf integers                            I   N=          26
           1           1           1           1           1           0
           0           0           0           0           0           0
           0           0           0           0           0           0
           0           0           0           0           0           0
           0           0
RotTr to input orientation                 R   N=          12
 -7.43445522E-01  1.05938979E-01 -6.60352700E-01  6.68466822E-01  1.48703951E-01
 -7.28724394E-01  2.09967372E-02 -9.83190758E-01 -1.81369979E-01  2.60411568E+00
 -2.67196398E-01  3.43322864E+00
Number of contracted shells                I               65
Number of primitive shells                 I              119
Pure/Cartesian d shells                    I                0
Pure/Cartesian f shells                    I                0
Highest angular momentum                   I                3
Largest degree of contraction              I                7
Shell types                                I   N=          65
           0           0           0           0           1           1
           1          -2          -2           0           0           0
           0           0           1           1           1           1
          -2          -2          -2          -3          -3           0
           0           0           0           0           1           1
           1           1          -2          -2          -2          -3
          -3           0           0           0           0           0
           1           1           1           1          -2          -2
          -2          -3          -3           0           0           0
           0           0           1           1           1           1
          -2          -2          -2          -3          -3
Number of primitives per shell             I   N=          65
           3           1           1           1           1           1
           1           1           1           7           6           1
           1           1           3           1           1           1
           1           1           1           1           1           7
           6           1           1           1           3           1
           1           1           1           1           1           1
           1           7           6           1           1           1
           3           1           1           1           1           1
           1           1           1           7           6           1
           1           1           3           1           1           1
           1           1           1           1           1
Shell to atom map                          I   N=          65
           1           1           1           1           1           1
           1           1           1           2           2           2
           2           2           2           2           2           2
           2           2           2           2           2           3
           3           3           3           3           3           3
           3           3           3           3           3           3
           3           4           4           4           4           4
           4           4           4           4           4           4
           4           4           4           5           5           5
           5           5           5           5           5           5
           5           5           5           5           5
Primitive exponents                        R   N=         119
  3.38700000E+01  5.09500000E+00  1.15900000E+00  3.25800000E-01  1.02700000E-01
  2.52600000E-02  1.40700000E+00  3.88000000E-01  1.02000000E-01  1.05700000E+00
  2.47000000E-01  1.53300000E+04  2.29900000E+03  5.22400000E+02  1.47300000E+02
  4.75500000E+01  1.67600000E+01  6.20700000E+00  5.22400000E+02  1.47300000E+02
  4.75500000E+01  1.67600000E+01  6.20700000E+00  6.88200000E-01  1.75200000E+00
  2.38400000E-01  7.37600000E-02  3.44600000E+01  7.74900000E+00  2.28000000E+00
  7.15600000E-01  2.14000000E-01  5.97400000E-02  2.31400000E+00  6.45000000E-01
  2.14000000E-01  1.42800000E+00  5.00000000E-01  1.53300000E+04  2.29900000E+03
  5.22400000E+02  1.47300000E+02  4.75500000E+01  1.67600000E+01  6.20700000E+00
  5.22400000E+02  1.47300000E+02  4.75500000E+01  1.67600000E+01  6.20700000E+00
  6.88200000E-01  1.75200000E+00  2.38400000E-01  7.37600000E-02  3.44600000E+01
  7.74900000E+00  2.28000000E+00  7.15600000E-01  2.14000000E-01  5.97400000E-02
  2.31400000E+00  6.45000000E-01  2.14000000E-01  1.42800000E+00  5.00000000E-01
  1.14200000E+04  1.71200000E+03  3.89300000E+02  1.10000000E+02  3.55700000E+01
  1.25400000E+01  4.64400000E+00  3.89300000E+02  1.10000000E+02  3.55700000E+01
  1.25400000E+01  4.64400000E+00  5.11800000E-01  1.29300000E+00  1.78700000E-01
  5.76000000E-02  2.66300000E+01  5.94800000E+00  1.74200000E+00  5.55000000E-01
  1.72500000E-01  4.91000000E-02  1.65400000E+00  4.69000000E-01  1.51000000E-01
  1.09300000E+00  3.64000000E-01  1.53300000E+04  2.29900000E+03  5.22400000E+02
  1.47300000E+02  4.75500000E+01  1.67600000E+01  6.20700000E+00  5.22400000E+02
  1.47300000E+02  4.75500000E+01  1.67600000E+01  6.20700000E+00  6.88200000E-01
  1.75200000E+00  2.38400000E-01  7.37600000E-02  3.44600000E+01  7.74900000E+00
  2.28000000E+00  7.15600000E-01  2.14000000E-01  5.97400000E-02  2.31400000E+00
  6.45000000E-01  2.14000000E-01  1.42800000E+00  5.00000000E-01
Contraction coefficients                   R   N=         119
  2.54948632E-02  1.90362766E-01  8.52162022E-01  1.00000000E+00  1.00000000E+00
  1.00000000E+00  1.00000000E+00  1.00000000E+00  1.00000000E+00  1.00000000E+00
  1.00000000E+00  5.19808943E-04  4.02025621E-03  2.07128267E-02  8.10105536E-02
  2.35962985E-01  4.42653446E-01  3.57064423E-01 -4.42115008E-05 -1.22591041E-03
 -1.05517725E-02 -6.74452633E-02 -1.71198607E-01  1.07329856E+00  1.00000000E+00
  1.00000000E+00  1.00000000E+00  4.11634896E-02  2.57762836E-01  8.02419274E-01
  1.00000000E+00  1.00000000E+00  1.00000000E+00  1.00000000E+00  1.00000000E+00
  1.00000000E+00  1.00000000E+00  1.00000000E+00  5.19808943E-04  4.02025621E-03
  2.07128267E-02  8.10105536E-02  2.35962985E-01  4.42653446E-01  3.57064423E-01
 -4.42115008E-05 -1.22591041E-03 -1.05517725E-02 -6.74452633E-02 -1.71198607E-01
  1.07329856E+00  1.00000000E+00  1.00000000E+00  1.00000000E+00  4.11634896E-02
  2.57762836E-01  8.02419274E-01  1.00000000E+00  1.00000000E+00  1.00000000E+00
  1.00000000E+00  1.00000000E+00  1.00000000E+00  1.00000000E+00  1.00000000E+00
  5.34563860E-04  4.13435660E-03  2.12335358E-02  8.25006224E-02  2.38138871E-01
  4.42551547E-01  3.53757422E-01 -4.89867350E-05 -1.19527323E-03 -1.03490714E-02
 -6.48680190E-02 -1.71552477E-01  1.07289568E+00  1.00000000E+00  1.00000000E+00
  1.00000000E+00  3.98072123E-02  2.49002660E-01  8.10479727E-01  1.00000000E+00
  1.00000000E+00  1.00000000E+00  1.00000000E+00  1.00000000E+00  1.00000000E+00
  1.00000000E+00  1.00000000E+00  5.19808943E-04  4.02025621E-03  2.07128267E-02
  8.10105536E-02  2.35962985E-01  4.42653446E-01  3.57064423E-01 -4.42115008E-05
 -1.22591041E-03 -1.05517725E-02 -6.74452633E-02 -1.71198607E-01  1.07329856E+00
  1.00000000E+00  1.00000000E+00  1.00000000E+00  4.11634896E-02  2.57762836E-01
  8.02419274E-01  1.00000000E+00  1.00000000E+00  1.00000000E+00  1.00000000E+00
  1.00000000E+00  1.00000000E+00  1.00000000E+00  1.00000000E+00
Coordinates of each shell                  R   N=         195
  4.23146646E+00  8.00845688E-01  3.05301647E-01  4.23146646E+00  8.00845688E-01
  3.05301647E-01  4.23146646E+00  8.00845688E-01  3.05301647E-01  4.23146646E+00
  8.00845688E-01  3.05301647E-01  4.23146646E+00  8.00845688E-01  3.05301647E-01
  4.23146646E+00  8.00845688E-01  3.05301647E-01  4.23146646E+00  8.00845688E-01
  3.05301647E-01  4.23146646E+00  8.00845688E-01  3.05301647E-01  4.23146646E+00
  8.00845688E-01  3.05301647E-01  3.02229567E+00 -5.33520405E-01 -2.68046380E-02
  3.02229567E+00 -5.33520405E-01 -2.68046380E-02  3.02229567E+00 -5.33520405E-01
 -2.68046380E-02  3.02229567E+00 -5.33520405E-01 -2.68046380E-02  3.02229567E+00
 -5.33520405E-01 -2.68046380E-02  3.02229567E+00 -5.33520405E-01 -2.68046380E-02
  3.02229567E+00 -5.33520405E-01 -2.68046380E-02  3.02229567E+00 -5.33520405E-01
 -2.68046380E-02  3.02229567E+00 -5.33520405E-01 -2.68046380E-02  3.02229567E+00
 -5.33520405E-01 -2.68046380E-02  3.02229567E+00 -5.33520405E-01 -2.68046380E-02
  3.02229567E+00 -5.33520405E-01 -2.68046380E-02  3.02229567E+00 -5.33520405E-01
 -2.68046380E-02  3.02229567E+00 -5.33520405E-01 -2.68046380E-02  7.56236640E-01
  1.02343048E+00 -3.54898613E-02  7.56236640E-01  1.02343048E+00 -3.54898613E-02
  7.56236640E-01  1.02343048E+00 -3.54898613E-02  7.56236640E-01  1.02343048E+00
 -3.54898613E-02  7.56236640E-01  1.02343048E+00 -3.54898613E-02  7.56236640E-01
  1.02343048E+00 -3.54898613E-02  7.56236640E-01  1.02343048E+00 -3.54898613E-02
  7.56236640E-01  1.02343048E+00 -3.54898613E-02  7.56236640E-01  1.02343048E+00
 -3.54898613E-02  7.56236640E-01  1.02343048E+00 -3.54898613E-02  7.56236640E-01
  1.02343048E+00 -3.54898613E-02  7.56236640E-01  1.02343048E+00 -3.54898613E-02
  7.56236640E-01  1.02343048E+00 -3.54898613E-02  7.56236640E-01  1.02343048E+00
 -3.54898613E-02 -1.25282114E+00 -8.63538784E-01  1.39232617E-02 -1.25282114E+00
 -8.63538784E-01  1.39232617E-02 -1.25282114E+00 -8.63538784E-01  1.39232617E-02
 -1.25282114E+00 -8.63538784E-01  1.39232617E-02 -1.25282114E+00 -8.63538784E-01
  1.39232617E-02 -1.25282114E+00 -8.63538784E-01  1.39232617E-02 -1.25282114E+00
 -8.63538784E-01  1.39232617E-02 -1.25282114E+00 -8.63538784E-01  1.39232617E-02
 -1.25282114E+00 -8.63538784E-01  1.39232617E-02 -1.25282114E+00 -8.63538784E-01
  1.39232617E-02 -1.25282114E+00 -8.63538784E-01  1.39232617E-02 -1.25282114E+00
 -8.63538784E-01  1.39232617E-02 -1.25282114E+00 -8.63538784E-01  1.39232617E-02
 -1.25282114E+00 -8.63538784E-01  1.39232617E-02 -3.21124712E+00  1.65580645E-01
  1.19489396E-02 -3.21124712E+00  1.65580645E-01  1.19489396E-02 -3.21124712E+00
  1.65580645E-01  1.19489396E-02 -3.21124712E+00  1.65580645E-01  1.19489396E-02
 -3.21124712E+00  1.65580645E-01  1.19489396E-02 -3.21124712E+00  1.65580645E-01
  1.19489396E-02 -3.21124712E+00  1.65580645E-01  1.19489396E-02 -3.21124712E+00
  1.65580645E-01  1.19489396E-02 -3.21124712E+00  1.65580645E-01  1.19489396E-02
 -3.21124712E+00  1.65580645E-01  1.19489396E-02 -3.21124712E+00  1.65580645E-01
  1.19489396E-02 -3.21124712E+00  1.65580645E-01  1.19489396E-02 -3.21124712E+00
  1.65580645E-01  1.19489396E-02 -3.21124712E+00  1.65580645E-01  1.19489396E-02
Num ILSW                                   I              100
ILSW                                       I   N=         100
           0           0           0           0           2           0
           0           0           0           0           0          -1
           5           0           0           0           2           0
           0           0           0           0           1           0
           1           0           0           0           0           0
           0           0      100000           0          -1           0
           0           0           0           0           0           0
           0           0           0           1           1           0
           0 -2000000000           1           0           0           0
           0           0           4          52           0           0
           0           0           0           0           0           0
           0           0           0           5           4           1
           0           0           0           0           0           0
           0           0           0           0           0           0
           0           0           0           0           0           0
           0           0           0           0           0           0
           0           0           0           0
Num RLSW                                   I               52
RLSW                                       R   N=          52
  1.00000000E+00  1.00000000E+00  1.00000000E+00  1.00000000E+00  1.00000000E+00
  0.00000000E+00  0.00000000E+00  1.00000000E+00  0.00000000E+00  0.00000000E+00
  0.00000000E+00  0.00000000E+00  1.00000000E+00  0.00000000E+00  0.00000000E+00
  0.00000000E+00  0.00000000E+00  1.00000000E+00  0.00000000E+00  0.00000000E+00
  0.00000000E+00  0.00000000E+00  1.00000000E+00  0.00000000E+00  0.00000000E+00
  0.00000000E+00  0.00000000E+00  1.00000000E+00  0.00000000E+00  0.00000000E+00
  0.00000000E+00  0.00000000E+00  1.00000000E+00  0.00000000E+00  0.00000000E+00
  0.00000000E+00  0.00000000E+00  0.00000000E+00  1.00000000E+00  1.00000000E+00
  0.00000000E+00  1.00000000E+00  0.00000000E+00  0.00000000E+00  0.00000000E+00
  0.00000000E+00  0.00000000E+00  0.00000000E+00  0.00000000E+00  0.00000000E+00
  0.00000000E+00  0.00000000E+00
MxBond                                     I                2
NBond                                      I   N=           5
           1           2           2           2           1
IBond                                      I   N=          10
           2           0           1           3           2           4
           3           5           4           0
RBond                                      R   N=          10
  1.00000000E+00  0.00000000E+00  1.00000000E+00  1.00000000E+00  1.00000000E+00
  1.00000000E+00  1.00000000E+00  2.00000000E+00  2.00000000E+00  0.00000000E+00
Virial Ratio                               R      2.002353446394377E+00
SCF Energy                                 R     -2.795018033256362E+02
MP2 Energy                                 R     -2.804468914329066E+02
Total Energy                               R     -2.804468914329066E+02
Post-SCF wavefunction norm                 R      1.584243106962697E+00
RMS Force                                  R      5.414731506747103E-04
RMS Density                                R      5.091829685070100E-09
NImag                                      I                1
Job Status                                 I                1
Nuclear derivative order                   I                2
External E-field                           R   N=          35
  0.00000000E+00  0.00000000E+00  0.00000000E+00  0.00000000E+00  0.00000000E+00
  0.00000000E+00  0.00000000E+00  0.00000000E+00  0.00000000E+00  0.00000000E+00
  0.00000000E+00  0.00000000E+00  0.00000000E+00  0.00000000E+00  0.00000000E+00
  0.00000000E+00  0.00000000E+00  0.00000000E+00  0.00000000E+00  0.00000000E+00
  0.00000000E+00  0.00000000E+00  0.00000000E+00  0.00000000E+00  0.00000000E+00
  0.00000000E+00  0.00000000E+00  0.00000000E+00  0.00000000E+00  0.00000000E+00
  0.00000000E+00  0.00000000E+00  0.00000000E+00  0.00000000E+00  0.00000000E+00
IOpCl                                      I                0
IROHF                                      I                0
Alpha Orbital Energies                     R   N=         207
 -2.06910412E+01 -2.06842630E+01 -2.06601294E+01 -1.58127071E+01 -1.62402665E+00
 -1.49582924E+00 -1.25443514E+00 -9.48088205E-01 -7.72517936E-01 -7.59467576E-01
 -7.12849467E-01 -6.78812915E-01 -6.19899454E-01 -5.88827001E-01 -4.86911914E-01
 -4.71716625E-01  2.95844624E-02  7.16462101E-02  8.59265778E-02  1.01751314E-01
  1.32422277E-01  1.34999651E-01  1.43902124E-01  1.54445525E-01  1.78117784E-01
  1.94098884E-01  1.99254583E-01  2.06616347E-01  2.20800978E-01  2.35359134E-01
  2.37258369E-01  2.66959803E-01  2.92365836E-01  3.00050919E-01  3.11924726E-01
  3.43487584E-01  3.53919883E-01  3.87548191E-01  4.16684422E-01  4.29126407E-01
  5.27157907E-01  5.31053761E-01  5.58598036E-01  5.80970688E-01  6.25965286E-01
  6.38119077E-01  6.73569072E-01  6.83577784E-01  7.06848829E-01  7.13154790E-01
  7.19153601E-01  7.32469584E-01  7.48009264E-01  7.85620437E-01  7.93951041E-01
  8.10589201E-01  8.14279228E-01  8.34191489E-01  8.67638606E-01  9.08357904E-01
  9.15675934E-01  9.33714070E-01  9.55296781E-01  9.71192447E-01  9.88470633E-01
  1.01537269E+00  1.05433389E+00  1.05927041E+00  1.08388768E+00  1.11350952E+00
  1.12871395E+00  1.19914089E+00  1.21879142E+00  1.23423738E+00  1.33670793E+00
  1.35089729E+00  1.38896516E+00  1.45563793E+00  1.49273363E+00  1.50821343E+00
  1.53699623E+00  1.56727602E+00  1.58091731E+00  1.60302870E+00  1.66381757E+00
  1.66692542E+00  1.70617559E+00  1.78876087E+00  1.82947490E+00  1.83720561E+00
  1.88121282E+00  1.90474031E+00  1.95620371E+00  1.98220150E+00  2.02734926E+00
  2.07755645E+00  2.11498671E+00  2.12727937E+00  2.15600116E+00  2.22111951E+00
  2.25756831E+00  2.27218053E+00  2.28692722E+00  2.31205610E+00  2.34349056E+00
  2.38784645E+00  2.40390795E+00  2.44869471E+00  2.45366753E+00  2.46685333E+00
  2.47793319E+00  2.50701815E+00  2.58941905E+00  2.59860283E+00  2.61853364E+00
  2.62660014E+00  2.63810673E+00  2.66539275E+00  2.75012499E+00  2.82905560E+00
  2.84647467E+00  2.88767856E+00  2.90042331E+00  2.91700492E+00  2.96013948E+00
  3.02060013E+00  3.07647951E+00  3.11957620E+00  3.20452821E+00  3.22936658E+00
  3.31590212E+00  3.34065749E+00  3.51332822E+00  3.64814877E+00  3.83729091E+00
  3.84899591E+00  4.13521416E+00  4.16476077E+00  4.20338417E+00  4.25405621E+00
  4.33969034E+00  4.39378285E+00  4.47610492E+00  4.52453124E+00  4.65054773E+00
  4.71109093E+00  4.80402694E+00  4.82238882E+00  4.82619055E+00  4.89702007E+00
  5.02258059E+00  5.07216157E+00  5.10103040E+00  5.14590357E+00  5.18341704E+00
  5.25046662E+00  5.27156172E+00  5.30379188E+00  5.33030580E+00  5.35161646E+00
  5.59932555E+00  5.67358984E+00  5.76093922E+00  5.83255540E+00  5.95439048E+00
  6.16963546E+00  6.31196659E+00  6.34193148E+00  6.39227841E+00  6.49432259E+00
  6.50509252E+00  6.62256540E+00  6.65431137E+00  6.70622205E+00  6.74712386E+00
  6.76978236E+00  6.83521132E+00  6.89832553E+00  7.01125866E+00  7.05425557E+00
  7.05793675E+00  7.09450621E+00  7.12732419E+00  7.14598198E+00  7.18966262E+00
  7.22490045E+00  7.23810425E+00  7.30374746E+00  7.32221732E+00  7.35692505E+00
  7.39149580E+00  7.42827608E+00  7.48628034E+00  7.60630232E+00  7.61816315E+00
  7.63339512E+00  7.67507706E+00  7.78475781E+00  7.88389115E+00  8.09145641E+00
  8.31122102E+00  8.39916669E+00  8.54094037E+00  1.33845544E+01  1.44005964E+01
  1.51605686E+01  1.61501719E+01
Alpha MO coefficients                      R   N=       42849
  8.74343240E-05 -5.45327170E-04 -6.85582109E-04 -5.30869217E-06 -3.40406097E-05
 -9.23242962E-06 -1.54395487E-05 -2.58443900E-05  6.29557669E-05  2.62029025E-05
  7.24115638E-05 -1.74582152E-05  3.93292015E-05  3.14631638E-05  3.05207468E-06
  2.76174005E-07  7.59172710E-06  5.62298698E-05 -2.83366078E-06  1.07991163E-05
  1.61393405E-05  7.63084726E-05  1.59794373E-04  4.58681921E-03 -2.80659308E-04
  1.52625846E-05  1.50474264E-03  1.80559679E-03  9.01418664E-05 -5.66208544E-05
  3.33573616E-06 -5.20900128E-04  3.32611702E-04 -1.75171567E-05 -4.67253871E-04
  1.23938638E-03  5.41565130E-05 -2.73746947E-04  2.91929863E-04  5.24742185E-06
  2.87196481E-05 -1.95720124E-06 -6.00556935E-07 -1.07214805E-05  5.37543143E-05
 -3.76404131E-04  4.26620759E-06 -1.00971738E-05  1.89375100E-04 -7.23138232E-04
 -4.29504669E-04  6.24211348E-05  2.45607520E-05  7.09962640E-05 -2.61694578E-04
  8.74913778E-06  6.94887247E-05 -3.89377863E-05 -2.13871956E-06 -6.78392540E-06
  3.36265688E-05  1.04868015E-04 -2.12306327E-05  1.97910184E-04 -1.68584865E-04
  1.63683592E-05  1.47209355E-05  1.66036979E-04  3.16046202E-04  9.76912144E-01
 -9.21503748E-03  4.33170654E-02  2.04625877E-03 -9.56579574E-04  3.96177280E-04
 -1.97775626E-03  5.31057401E-05 -3.32563249E-04  1.96621543E-03 -4.75599293E-05
 -6.33944326E-04 -9.76635813E-04  2.14627722E-05 -1.45111284E-04  7.51648026E-05
  7.44952432E-06  4.66602868E-05  2.12198939E-06  1.18264524E-06  9.62521477E-06
  3.95753787E-05  7.45137568E-04  5.58803143E-06  1.74029532E-05 -4.39049430E-04
  1.10831234E-04 -3.51440878E-04  2.41403421E-05 -1.81277396E-06 -4.53424936E-04
  1.86297661E-04  4.54591555E-06  8.56041264E-06 -6.79182300E-05 -1.57005395E-06
 -1.43527874E-06 -1.16646997E-06  4.23531155E-05 -2.93182728E-06  3.48577203E-05
  4.27966419E-06  6.08369414E-06  1.67452162E-07 -3.21518701E-05  3.33404481E-04
  3.85915112E-05  4.28369916E-05 -2.64991351E-04 -6.77883769E-04 -1.02139421E-04
 -7.98500616E-05 -6.22487089E-05  2.76747798E-06  6.42362563E-04  4.08529485E-04
 -1.84552742E-05 -1.00498335E-03  1.13572406E-04  1.20947335E-05 -9.94764499E-05
  5.93927733E-05 -8.90400988E-06 -1.82497578E-05 -2.37382016E-06 -1.26355986E-06
  5.59679491E-06  3.28879138E-05 -3.27708034E-04 -7.17517674E-06 -2.02448339E-05
 -1.17147154E-04  8.27659658E-04 -4.14412371E-05  3.33248666E-05 -3.09444249E-06
 -7.61576626E-05 -1.43522978E-04  6.15449583E-06 -8.80244300E-05 -8.38379161E-05
  2.88594091E-07 -7.43134744E-06 -1.08549871E-04  1.04898576E-04  6.32266482E-06
 -8.45272501E-05 -1.23513378E-04  8.18801166E-06 -5.78364454E-06 -4.12814461E-04
  9.78602815E-05 -2.50153608E-03  1.21620941E-04 -1.20603821E-04 -2.88241243E-04
  1.05640752E-04 -2.27491197E-05 -1.79778284E-05  5.13630281E-07  1.51895905E-04
  9.30263718E-05 -2.77251978E-06  3.05888308E-04  3.35433401E-05  2.61027614E-05
  1.05030536E-04 -6.38151077E-05  6.93390283E-06 -3.35605285E-06 -1.03817967E-06
 -5.13470807E-07 -4.40340092E-06  1.74081853E-05  6.40798073E-07  5.01044483E-06
  2.61208039E-06  1.09477212E-04 -5.02456352E-05 -1.03168817E-04  8.48633373E-06
 -4.18149918E-06  2.08651098E-04 -1.12224292E-04  1.72098685E-07  1.07178410E-05
 -1.23064735E-05  4.01611600E-07 -2.99395990E-07 -9.99930272E-06  8.22987514E-06
 -3.97054582E-06 -9.78504636E-07  5.66531671E-05  2.92466528E-06  1.98953442E-06
  5.81745934E-05 -1.09975187E-04  3.63505130E-05 -9.36749087E-04 -4.63233004E-04
 -1.11045784E-05 -7.13749339E-06  2.46152762E-05 -1.78168046E-06  1.47819164E-04
  2.02882441E-04  5.54617868E-05  4.01457271E-05  1.26824828E-04  3.17557686E-05
  2.32047390E-05  1.09240429E-06 -1.13622969E-05  1.19739196E-05 -6.93526700E-06
 -2.75123228E-05 -4.40202488E-06  3.03622656E-06  3.65710560E-05  1.97615143E-07
  1.12658041E-04  8.35841533E-05 -2.74026870E-05  7.10149300E-04  6.27316190E-04
  1.03263963E-05 -3.48028583E-06 -2.25571014E-06 -5.45527087E-05  5.03673208E-05
  1.74007643E-05  7.71628088E-04  4.91290796E-04  1.12775735E-04  5.33377719E-05
  5.92364633E-05  6.96347982E-06 -2.51752173E-06 -1.09101275E-06 -1.06021526E-06
 -5.54722286E-06 -1.66441002E-06 -3.02424697E-05  1.52449138E-05  1.52207551E-05
  7.26736598E-05  3.85974536E-05 -9.08804610E-06  4.46117239E-05  4.64952831E-05
 -2.28086282E-04  1.95075705E-04  1.06069372E-06  1.07516955E-05 -7.32232587E-07
  5.84108635E-07 -8.09254999E-07 -1.82844388E-05  3.57508098E-06 -1.36255769E-05
 -5.01621591E-05 -2.68872590E-06  2.53313300E-06  1.30873771E-05  4.43348777E-05
  6.23782445E-05  2.54076629E-03  4.09446154E-05  8.77019467E-05 -6.72217924E-05
 -4.72408039E-04  1.49922749E-05  8.76006943E-06 -7.04432361E-07 -8.15031913E-05
 -9.24560276E-06  2.77721575E-06  8.01901578E-05 -2.83788253E-04 -2.49683536E-05
 -1.87452196E-04  6.27838526E-05 -9.51011930E-06 -8.81729110E-06 -5.10862246E-07
  1.15360353E-07  2.55133223E-05 -1.55103859E-05  4.44612573E-06  8.83131884E-07
 -1.16701967E-06 -7.87985372E-05  9.79776686E-05 -5.16342047E-06 -1.51091896E-05
  5.10832614E-06 -2.56940909E-04  1.52314955E-04 -1.34705439E-07  2.07539935E-06
 -2.39387052E-06 -4.67908911E-07 -7.82887473E-07 -1.31432737E-05  3.03176138E-06
  7.66305308E-07 -3.44264282E-05  3.02342907E-05 -5.74221005E-07  4.79511551E-06
  2.01254892E-04  8.88545535E-06  2.58479645E-04  1.46358281E-03 -7.85986484E-05
 -1.52798397E-03  4.09094678E-04 -1.16301078E-04  8.59274871E-05 -1.51529317E-07
 -1.91806473E-03  9.16551801E-04 -2.95151948E-06  1.28114041E-03  2.99825735E-06
 -8.36126703E-06 -1.01864719E-04  1.48645506E-04  1.28709806E-06 -1.23388932E-04
  1.14701183E-07  6.95381369E-07  1.61163582E-04 -2.04599655E-04 -4.42603445E-04
  1.05460545E-05 -3.32127001E-06  2.02680232E-04 -8.79453533E-04  1.06598286E-05
  1.87464108E-05 -7.67557543E-06 -2.19252565E-04  2.80949876E-04 -5.56929274E-07
  7.94860624E-06  1.30269517E-05 -2.74963395E-07  5.25419451E-07  6.50518722E-06
 -2.20515140E-05  3.66627021E-06  9.08736503E-05 -1.55309131E-04  3.15039657E-06
  4.11655243E-06  1.18838012E-04  2.13853176E-04  9.76649515E-01 -9.84788569E-03
  4.35678488E-02  4.48753776E-03 -4.49162586E-04  2.01306083E-03 -8.89931532E-04
 -6.27610390E-07 -2.27611031E-03  9.32793865E-04  1.39362917E-06  9.09778740E-04
 -6.84499775E-04  1.86499784E-05 -2.22373749E-05 -3.87151239E-05  4.20073331E-06
 -2.32301318E-04 -2.12206418E-06 -5.11885858E-06  6.06356688E-05 -8.87529615E-05
  3.90583255E-04  9.18613013E-07 -3.54503692E-06 -6.45200422E-04  6.73865048E-04
 -1.54322555E-04  3.44342136E-06 -5.77029064E-06  9.00111007E-05 -2.42415172E-04
 -6.51434110E-07  5.25223171E-05 -1.69058787E-05  7.92593235E-07  1.05985181E-06
 -5.17361170E-06  2.54067800E-05  1.27617667E-06  1.16586530E-04 -7.43103743E-05
 -1.71541178E-07 -2.55288000E-06 -6.99217555E-05  2.24799688E-04  4.71651891E-04
  2.09606366E-03  1.49891208E-04  1.44408190E-05 -1.78754659E-04 -1.69082450E-04
 -5.19833317E-05 -6.61474073E-04 -1.07964522E-03 -2.34515709E-04  3.43859086E-05
 -4.48431250E-04 -3.46896577E-05 -2.40964742E-06 -6.55636907E-06 -3.47998124E-06
  3.82566019E-05 -6.50477457E-05 -1.37325286E-04  9.25288431E-05  1.11581648E-04
 -1.74212185E-04  4.90941523E-04  9.76830623E-01 -9.16314745E-03  4.34487712E-02
  1.43297563E-04 -1.16420150E-03 -4.14932813E-04  2.06701322E-03  2.85681256E-04
  5.15176828E-04 -1.95322271E-03 -2.64373820E-04 -9.80603097E-04 -3.62462356E-04
 -1.14567071E-04  4.09344078E-05 -5.47873539E-05  5.61743145E-07  3.14736517E-05
  5.01645527E-06  1.00564503E-05 -3.72933210E-05  1.10789252E-04  7.29114183E-04
 -1.29785921E-04 -1.32233581E-04 -2.85698943E-04  1.39313578E-04 -2.66332489E-04
 -3.38187080E-05 -3.25530797E-06  1.75443155E-04 -1.36571871E-04  5.90576952E-06
 -5.08648250E-05  3.75006858E-05  7.69765509E-06 -1.94015384E-06  2.51983811E-06