 Entering Gaussian System, Link 0=g16
 Input=hoono_a3_110p3143.gjf
 Output=hoono_a3_110p3143.log
 Initial command:
 /sw/contrib/gaussian/g16/B01/g16/l1.exe "/scr/Gau-19773.inp" -scrdir="/scr/"
 Entering Link 1 = /sw/contrib/gaussian/g16/B01/g16/l1.exe PID=     19774.
  
 Copyright (c) 1988-2017, Gaussian, Inc.  All Rights Reserved.
  
 This is part of the Gaussian(R) 16 program.  It is based on
 the Gaussian(R) 09 system (copyright 2009, Gaussian, Inc.),
 the Gaussian(R) 03 system (copyright 2003, Gaussian, Inc.),
 the Gaussian(R) 98 system (copyright 1998, Gaussian, Inc.),
 the Gaussian(R) 94 system (copyright 1995, Gaussian, Inc.),
 the Gaussian 92(TM) system (copyright 1992, Gaussian, Inc.),
 the Gaussian 90(TM) system (copyright 1990, Gaussian, Inc.),
 the Gaussian 88(TM) system (copyright 1988, Gaussian, Inc.),
 the Gaussian 86(TM) system (copyright 1986, Carnegie Mellon
 University), and the Gaussian 82(TM) system (copyright 1983,
 Carnegie Mellon University). Gaussian is a federally registered
 trademark of Gaussian, Inc.
  
 This software contains proprietary and confidential information,
 including trade secrets, belonging to Gaussian, Inc.
  
 This software is provided under written license and may be
 used, copied, transmitted, or stored only in accord with that
 written license.
  
 The following legend is applicable only to US Government
 contracts under FAR:
  
                    RESTRICTED RIGHTS LEGEND
  
 Use, reproduction and disclosure by the US Government is
 subject to restrictions as set forth in subparagraphs (a)
 and (c) of the Commercial Computer Software - Restricted
 Rights clause in FAR 52.227-19.
  
 Gaussian, Inc.
 340 Quinnipiac St., Bldg. 40, Wallingford CT 06492
  
  
 ---------------------------------------------------------------
 Warning -- This program may not be used in any manner that
 competes with the business of Gaussian, Inc. or will provide
 assistance to any competitor of Gaussian, Inc.  The licensee
 of this program is prohibited from giving any competitor of
 Gaussian, Inc. access to this program.  By using this program,
 the user acknowledges that Gaussian, Inc. is engaged in the
 business of creating and licensing software in the field of
 computational chemistry and represents and warrants to the
 licensee that it is not a competitor of Gaussian, Inc. and that
 it will not use this program in any manner prohibited above.
 ---------------------------------------------------------------
  

 Cite this work as:
 Gaussian 16, Revision B.01,
 M. J. Frisch, G. W. Trucks, H. B. Schlegel, G. E. Scuseria, 
 M. A. Robb, J. R. Cheeseman, G. Scalmani, V. Barone, 
 G. A. Petersson, H. Nakatsuji, X. Li, M. Caricato, A. V. Marenich, 
 J. Bloino, B. G. Janesko, R. Gomperts, B. Mennucci, H. P. Hratchian, 
 J. V. Ortiz, A. F. Izmaylov, J. L. Sonnenberg, D. Williams-Young, 
 F. Ding, F. Lipparini, F. Egidi, J. Goings, B. Peng, A. Petrone, 
 T. Henderson, D. Ranasinghe, V. G. Zakrzewski, J. Gao, N. Rega, 
 G. Zheng, W. Liang, M. Hada, M. Ehara, K. Toyota, R. Fukuda, 
 J. Hasegawa, M. Ishida, T. Nakajima, Y. Honda, O. Kitao, H. Nakai, 
 T. Vreven, K. Throssell, J. A. Montgomery, Jr., J. E. Peralta, 
 F. Ogliaro, M. J. Bearpark, J. J. Heyd, E. N. Brothers, K. N. Kudin, 
 V. N. Staroverov, T. A. Keith, R. Kobayashi, J. Normand, 
 K. Raghavachari, A. P. Rendell, J. C. Burant, S. S. Iyengar, 
 J. Tomasi, M. Cossi, J. M. Millam, M. Klene, C. Adamo, R. Cammi, 
 J. W. Ochterski, R. L. Martin, K. Morokuma, O. Farkas, 
 J. B. Foresman, and D. J. Fox, Gaussian, Inc., Wallingford CT, 2016.
 
 ******************************************
 Gaussian 16:  ES64L-G16RevB.01 20-Dec-2017
                21-Feb-2022 
 ******************************************
 %nproc=28
 Will use up to   28 processors via shared memory.
 %mem=120GB
 %chk=hoono_a3_110p3143.chk
 ---------------------------------------
 #p freq mp2/aug-cc-pvtz density=current
 ---------------------------------------
 1/10=4,30=1,38=1/1,3;
 2/12=2,17=6,18=5,40=1/2;
 3/5=16,6=1,7=10,11=9,25=1,30=1,71=2,140=1/1,2,3;
 4//1;
 5/5=2,38=5,98=1/2;
 8/6=3,8=1,10=1,19=11,30=-1/1;
 9/15=3,16=-3/6;
 11/6=1,8=1,15=11,17=12,24=-1,27=1,28=-2,29=300,32=6,42=3/1,2,10;
 10/6=2,21=1/2;
 8/6=4,8=1,10=1,19=11,30=-1/11,4;
 10/5=1,20=4/2;
 11/12=2,14=11,16=1,17=2,28=-2,42=3,76=2/2,10,12;
 6/7=2,8=2,9=2,10=2,22=-1/1;
 7/8=1,10=1,12=2,25=1,44=2/1,2,3,16;
 1/10=4,30=1/3;
 99//99;
 Leave Link    1 at Mon Feb 21 20:50:59 2022, MaxMem= 16106127360 cpu:               2.6 elap:               0.1
 (Enter /sw/contrib/gaussian/g16/B01/g16/l101.exe)
 -----
 title
 -----
 Symbolic Z-matrix:
 Charge =  0 Multiplicity = 1
 H
 O                    1    r1
 O                    2    r2       1    a1
 N                    3    r3       2    a2       1    d1       0
 O                    4    r4       3    a3       2    d2       0
       Variables:
  r1                    0.96898                  
  r2                    1.45492                  
  r3                    1.45878                  
  r4                    1.17073                  
  a1                   97.59495                  
  a2                  102.29752                  
  a3                  110.31432                  
  d1                  180.                       
  d2                  180.                       
 
 ITRead=  0  0  0  0  0
 MicOpt= -1 -1 -1 -1 -1
 NAtoms=      5 NQM=        5 NQMF=       0 NMMI=      0 NMMIF=      0
                NMic=       0 NMicF=      0.
                    Isotopes and Nuclear Properties:
 (Nuclear quadrupole moments (NQMom) in fm**2, nuclear magnetic moments (NMagM)
  in nuclear magnetons)

  Atom         1           2           3           4           5
 IAtWgt=           1          16          16          14          16
 AtmWgt=   1.0078250  15.9949146  15.9949146  14.0030740  15.9949146
 NucSpn=           1           0           0           2           0
 AtZEff=  -0.0000000  -0.0000000  -0.0000000  -0.0000000  -0.0000000
 NQMom=    0.0000000   0.0000000   0.0000000   2.0440000   0.0000000
 NMagM=    2.7928460   0.0000000   0.0000000   0.4037610   0.0000000
 AtZNuc=   1.0000000   8.0000000   8.0000000   7.0000000   8.0000000
 Leave Link  101 at Mon Feb 21 20:50:59 2022, MaxMem= 16106127360 cpu:               2.8 elap:               0.1
 (Enter /sw/contrib/gaussian/g16/B01/g16/l103.exe)

 GradGradGradGradGradGradGradGradGradGradGradGradGradGradGradGradGradGrad
 Berny optimization.
 Initialization pass.
                       ----------------------------
                       !    Initial Parameters    !
                       ! (Angstroms and Degrees)  !
 ----------------------                            ----------------------
 !      Name          Value   Derivative information (Atomic Units)     !
 ------------------------------------------------------------------------
 !       r1          0.969    calculate D2E/DX2 analytically            !
 !       r2          1.4549   calculate D2E/DX2 analytically            !
 !       r3          1.4588   calculate D2E/DX2 analytically            !
 !       r4          1.1707   calculate D2E/DX2 analytically            !
 !       a1         97.5949   calculate D2E/DX2 analytically            !
 !       a2        102.2975   calculate D2E/DX2 analytically            !
 !       a3        110.3143   calculate D2E/DX2 analytically            !
 !       d1        180.0      calculate D2E/DX2 analytically            !
 !       d2        180.0      calculate D2E/DX2 analytically            !
 ------------------------------------------------------------------------
 Trust Radius=3.00D-01 FncErr=1.00D-07 GrdErr=1.00D-07 EigMax=2.50D+02 EigMin=1.00D-04
 Number of steps in this run=      2 maximum allowed number of steps=      2.
 GradGradGradGradGradGradGradGradGradGradGradGradGradGradGradGradGradGrad

 Leave Link  103 at Mon Feb 21 20:50:59 2022, MaxMem= 16106127360 cpu:               0.6 elap:               0.1
 (Enter /sw/contrib/gaussian/g16/B01/g16/l202.exe)
                          Input orientation:                          
 ---------------------------------------------------------------------
 Center     Atomic      Atomic             Coordinates (Angstroms)
 Number     Number       Type             X           Y           Z
 ---------------------------------------------------------------------
      1          1           0        0.000000    0.000000    0.000000
      2          8           0        0.000000    0.000000    0.968976
      3          8           0        1.442156    0.000000    1.161271
      4          7           0        1.561752    0.000000    2.615144
      5          8           0        2.689289    0.000000    2.930207
 ---------------------------------------------------------------------
                    Distance matrix (angstroms):
                    1          2          3          4          5
     1  H    0.000000
     2  O    0.968976   0.000000
     3  O    1.851584   1.454919   0.000000
     4  N    3.045989   2.269127   1.458784   0.000000
     5  O    3.977234   3.328469   2.164366   1.170729   0.000000
 Stoichiometry    HNO3
 Framework group  CS[SG(HNO3)]
 Deg. of freedom     7
 Full point group                 CS      NOp   2
 Largest Abelian subgroup         CS      NOp   2
 Largest concise Abelian subgroup C1      NOp   1
                         Standard orientation:                         
 ---------------------------------------------------------------------
 Center     Atomic      Atomic             Coordinates (Angstroms)
 Number     Number       Type             X           Y           Z
 ---------------------------------------------------------------------
      1          1           0        1.550654    1.691131    0.000000
      2          8           0        1.454137    0.726974    0.000000
      3          8           0       -0.000000    0.679284    0.000000
      4          7           0       -0.263817   -0.755447   -0.000000
      5          8           0       -1.417130   -0.956633   -0.000000
 ---------------------------------------------------------------------
 Rotational constants (GHZ):          55.2799165           4.9809789           4.5692666
 Leave Link  202 at Mon Feb 21 20:50:59 2022, MaxMem= 16106127360 cpu:               0.8 elap:               0.1
 (Enter /sw/contrib/gaussian/g16/B01/g16/l301.exe)
 Standard basis: Aug-CC-pVTZ (5D, 7F)
 Ernie: Thresh=  0.10000D-02 Tol=  0.10000D-05 Strict=F.
 Ernie:  12 primitive shells out of 131 were deleted.
 There are   166 symmetry adapted cartesian basis functions of A'  symmetry.
 There are    79 symmetry adapted cartesian basis functions of A"  symmetry.
 There are   136 symmetry adapted basis functions of A'  symmetry.
 There are    71 symmetry adapted basis functions of A"  symmetry.
   207 basis functions,   315 primitive gaussians,   245 cartesian basis functions
    16 alpha electrons       16 beta electrons
       nuclear repulsion energy       116.7225293995 Hartrees.
 IExCor=    0 DFT=F Ex=HF Corr=None ExCW=0 ScaHFX=  1.000000
 ScaDFX=  1.000000  1.000000  1.000000  1.000000 ScalE2=  1.000000  1.000000
 IRadAn=      5 IRanWt=     -1 IRanGd=            0 ICorTp=0 IEmpDi=  4
 NAtoms=    5 NActive=    5 NUniq=    5 SFac= 1.00D+00 NAtFMM=   60 NAOKFM=F Big=F
 Integral buffers will be    131072 words long.
 Raffenetti 1 integral format.
 Two-electron integral symmetry is turned on.
 Leave Link  301 at Mon Feb 21 20:50:59 2022, MaxMem= 16106127360 cpu:               2.0 elap:               0.1
 (Enter /sw/contrib/gaussian/g16/B01/g16/l302.exe)
 NPDir=0 NMtPBC=     1 NCelOv=     1 NCel=       1 NClECP=     1 NCelD=      1
         NCelK=      1 NCelE2=     1 NClLst=     1 CellRange=     0.0.
 One-electron integrals computed using PRISM.
 One-electron integral symmetry used in STVInt
 NBasis=   207 RedAO= T EigKep=  1.82D-04  NBF=   136    71
 NBsUse=   207 1.00D-06 EigRej= -1.00D+00 NBFU=   136    71
 Leave Link  302 at Mon Feb 21 20:51:00 2022, MaxMem= 16106127360 cpu:               6.1 elap:               0.3
 (Enter /sw/contrib/gaussian/g16/B01/g16/l303.exe)
 DipDrv:  MaxL=1.
 Leave Link  303 at Mon Feb 21 20:51:00 2022, MaxMem= 16106127360 cpu:               0.8 elap:               0.1
 (Enter /sw/contrib/gaussian/g16/B01/g16/l401.exe)
 ExpMin= 2.53D-02 ExpMax= 1.53D+04 ExpMxC= 5.22D+02 IAcc=3 IRadAn=         5 AccDes= 0.00D+00
 Harris functional with IExCor=  205 and IRadAn=       5 diagonalized for initial guess.
 HarFok:  IExCor=  205 AccDes= 0.00D+00 IRadAn=         5 IDoV= 1 UseB2=F ITyADJ=14
 ICtDFT=  3500011 ScaDFX=  1.000000  1.000000  1.000000  1.000000
 FoFCou: FMM=F IPFlag=           0 FMFlag=      100000 FMFlg1=           0
         NFxFlg=           0 DoJE=T BraDBF=F KetDBF=T FulRan=T
         wScrn=  0.000000 ICntrl=       500 IOpCl=  0 I1Cent=   200000004 NGrid=           0
         NMat0=    1 NMatS0=      1 NMatT0=    0 NMatD0=    1 NMtDS0=    0 NMtDT0=    0
 Petite list used in FoFCou.
 Harris En= -279.628587607111    
 JPrj=0 DoOrth=F DoCkMO=F.
 Initial guess orbital symmetries:
       Occupied  (A') (A') (A') (A') (A') (A') (A') (A') (A') (A')
                 (A") (A') (A') (A") (A") (A')
       Virtual   (A") (A') (A') (A') (A') (A') (A") (A') (A') (A')
                 (A") (A') (A") (A') (A') (A") (A') (A") (A') (A')
                 (A') (A') (A') (A') (A') (A") (A') (A") (A') (A')
                 (A") (A') (A") (A') (A') (A") (A') (A") (A') (A')
                 (A") (A') (A") (A') (A") (A') (A') (A') (A") (A")
                 (A') (A') (A') (A') (A") (A') (A") (A') (A") (A')
                 (A') (A') (A") (A') (A') (A") (A') (A") (A') (A')
                 (A") (A') (A') (A") (A") (A') (A') (A") (A') (A')
                 (A') (A") (A') (A") (A') (A") (A') (A") (A') (A')
                 (A') (A") (A') (A") (A') (A") (A") (A') (A') (A")
                 (A') (A') (A") (A') (A') (A') (A") (A') (A") (A')
                 (A") (A') (A') (A') (A") (A') (A') (A') (A") (A')
                 (A") (A') (A') (A") (A") (A') (A') (A") (A") (A')
                 (A') (A') (A') (A") (A") (A') (A") (A') (A') (A')
                 (A') (A") (A") (A') (A') (A") (A') (A') (A') (A')
                 (A") (A') (A') (A") (A') (A") (A') (A") (A") (A')
                 (A') (A") (A') (A") (A') (A") (A") (A") (A') (A')
                 (A") (A') (A") (A') (A") (A') (A") (A") (A') (A')
                 (A') (A') (A') (A') (A') (A') (A') (A') (A') (A')
                 (A')
 The electronic state of the initial guess is 1-A'.
 Leave Link  401 at Mon Feb 21 20:51:00 2022, MaxMem= 16106127360 cpu:               7.0 elap:               0.3
 (Enter /sw/contrib/gaussian/g16/B01/g16/l502.exe)
 Keep R1 ints in memory in symmetry-blocked form, NReq=348887737.
 FoFCou: FMM=F IPFlag=           0 FMFlag=           0 FMFlg1=           0
         NFxFlg=           0 DoJE=F BraDBF=F KetDBF=F FulRan=T
         wScrn=  0.000000 ICntrl=       600 IOpCl=  0 I1Cent=           0 NGrid=           0
         NMat0=    1 NMatS0=  21528 NMatT0=    0 NMatD0=    1 NMtDS0=    0 NMtDT0=    0
 Petite list used in FoFCou.
 Closed shell SCF:
 Using DIIS extrapolation, IDIIS=  1040.
 NGot= 16106127360 LenX= 15988850015 LenY= 15988789549
 Requested convergence on RMS density matrix=1.00D-08 within 128 cycles.
 Requested convergence on MAX density matrix=1.00D-06.
 Requested convergence on             energy=1.00D-06.
 No special actions if energy rises.

 Cycle   1  Pass 1  IDiag  1:
 E= -279.370651500952    
 DIIS: error= 2.87D-02 at cycle   1 NSaved=   1.
 NSaved= 1 IEnMin= 1 EnMin= -279.370651500952     IErMin= 1 ErrMin= 2.87D-02
 ErrMax= 2.87D-02  0.00D+00 EMaxC= 1.00D-01 BMatC= 4.38D-01 BMatP= 4.38D-01
 IDIUse=3 WtCom= 7.13D-01 WtEn= 2.87D-01
 Coeff-Com:  0.100D+01
 Coeff-En:   0.100D+01
 Coeff:      0.100D+01
 Gap=     0.515 Goal=   None    Shift=    0.000
 GapD=    0.515 DampG=2.000 DampE=0.500 DampFc=1.0000 IDamp=-1.
 RMSDP=1.62D-03 MaxDP=9.77D-02              OVMax= 1.13D-01

 Cycle   2  Pass 1  IDiag  1:
 E= -279.452301995532     Delta-E=       -0.081650494580 Rises=F Damp=F
 DIIS: error= 1.77D-02 at cycle   2 NSaved=   2.
 NSaved= 2 IEnMin= 2 EnMin= -279.452301995532     IErMin= 2 ErrMin= 1.77D-02
 ErrMax= 1.77D-02  0.00D+00 EMaxC= 1.00D-01 BMatC= 7.16D-02 BMatP= 4.38D-01
 IDIUse=3 WtCom= 8.23D-01 WtEn= 1.77D-01
 Coeff-Com:  0.194D+00 0.806D+00
 Coeff-En:   0.000D+00 0.100D+01
 Coeff:      0.160D+00 0.840D+00
 Gap=     0.527 Goal=   None    Shift=    0.000
 RMSDP=9.00D-04 MaxDP=3.71D-02 DE=-8.17D-02 OVMax= 6.91D-02

 Cycle   3  Pass 1  IDiag  1:
 E= -279.481173997991     Delta-E=       -0.028872002458 Rises=F Damp=F
 DIIS: error= 1.03D-02 at cycle   3 NSaved=   3.
 NSaved= 3 IEnMin= 3 EnMin= -279.481173997991     IErMin= 3 ErrMin= 1.03D-02
 ErrMax= 1.03D-02  0.00D+00 EMaxC= 1.00D-01 BMatC= 2.90D-02 BMatP= 7.16D-02
 IDIUse=3 WtCom= 8.97D-01 WtEn= 1.03D-01
 Coeff-Com: -0.330D-01 0.380D+00 0.653D+00
 Coeff-En:   0.000D+00 0.244D+00 0.756D+00
 Coeff:     -0.296D-01 0.366D+00 0.664D+00
 Gap=     0.509 Goal=   None    Shift=    0.000
 RMSDP=3.77D-04 MaxDP=1.52D-02 DE=-2.89D-02 OVMax= 3.82D-02

 Cycle   4  Pass 1  IDiag  1:
 E= -279.500404165574     Delta-E=       -0.019230167583 Rises=F Damp=F
 DIIS: error= 1.31D-03 at cycle   4 NSaved=   4.
 NSaved= 4 IEnMin= 4 EnMin= -279.500404165574     IErMin= 4 ErrMin= 1.31D-03
 ErrMax= 1.31D-03  0.00D+00 EMaxC= 1.00D-01 BMatC= 4.91D-04 BMatP= 2.90D-02
 IDIUse=3 WtCom= 9.87D-01 WtEn= 1.31D-02
 Coeff-Com: -0.117D-01 0.577D-01 0.157D+00 0.797D+00
 Coeff-En:   0.000D+00 0.000D+00 0.000D+00 0.100D+01
 Coeff:     -0.115D-01 0.570D-01 0.155D+00 0.799D+00
 Gap=     0.501 Goal=   None    Shift=    0.000
 RMSDP=9.07D-05 MaxDP=2.79D-03 DE=-1.92D-02 OVMax= 1.12D-02

 Cycle   5  Pass 1  IDiag  1:
 E= -279.501079620602     Delta-E=       -0.000675455029 Rises=F Damp=F
 DIIS: error= 7.42D-04 at cycle   5 NSaved=   5.
 NSaved= 5 IEnMin= 5 EnMin= -279.501079620602     IErMin= 5 ErrMin= 7.42D-04
 ErrMax= 7.42D-04  0.00D+00 EMaxC= 1.00D-01 BMatC= 8.75D-05 BMatP= 4.91D-04
 IDIUse=3 WtCom= 9.93D-01 WtEn= 7.42D-03
 Coeff-Com:  0.609D-02-0.722D-01-0.117D+00 0.233D-01 0.116D+01
 Coeff-En:   0.000D+00 0.000D+00 0.000D+00 0.000D+00 0.100D+01
 Coeff:      0.605D-02-0.716D-01-0.116D+00 0.232D-01 0.116D+01
 Gap=     0.500 Goal=   None    Shift=    0.000
 RMSDP=7.61D-05 MaxDP=2.09D-03 DE=-6.75D-04 OVMax= 1.10D-02

 Cycle   6  Pass 1  IDiag  1:
 E= -279.501394833972     Delta-E=       -0.000315213369 Rises=F Damp=F
 DIIS: error= 2.93D-04 at cycle   6 NSaved=   6.
 NSaved= 6 IEnMin= 6 EnMin= -279.501394833972     IErMin= 6 ErrMin= 2.93D-04
 ErrMax= 2.93D-04  0.00D+00 EMaxC= 1.00D-01 BMatC= 1.68D-05 BMatP= 8.75D-05
 IDIUse=3 WtCom= 9.97D-01 WtEn= 2.93D-03
 Coeff-Com:  0.630D-03 0.124D-02 0.380D-02-0.130D+00-0.227D+00 0.135D+01
 Coeff-En:   0.000D+00 0.000D+00 0.000D+00 0.000D+00 0.000D+00 0.100D+01
 Coeff:      0.628D-03 0.124D-02 0.379D-02-0.130D+00-0.227D+00 0.135D+01
 Gap=     0.501 Goal=   None    Shift=    0.000
 RMSDP=4.56D-05 MaxDP=1.26D-03 DE=-3.15D-04 OVMax= 5.55D-03

 Cycle   7  Pass 1  IDiag  1:
 E= -279.501468285472     Delta-E=       -0.000073451500 Rises=F Damp=F
 DIIS: error= 1.24D-04 at cycle   7 NSaved=   7.
 NSaved= 7 IEnMin= 7 EnMin= -279.501468285472     IErMin= 7 ErrMin= 1.24D-04
 ErrMax= 1.24D-04  0.00D+00 EMaxC= 1.00D-01 BMatC= 4.64D-06 BMatP= 1.68D-05
 IDIUse=3 WtCom= 9.99D-01 WtEn= 1.24D-03
 Coeff-Com: -0.940D-03 0.137D-01 0.265D-01-0.252D-01-0.291D+00 0.399D+00
 Coeff-Com:  0.878D+00
 Coeff-En:   0.000D+00 0.000D+00 0.000D+00 0.000D+00 0.000D+00 0.000D+00
 Coeff-En:   0.100D+01
 Coeff:     -0.938D-03 0.137D-01 0.265D-01-0.252D-01-0.290D+00 0.399D+00
 Coeff:      0.878D+00
 Gap=     0.501 Goal=   None    Shift=    0.000
 RMSDP=1.34D-05 MaxDP=3.85D-04 DE=-7.35D-05 OVMax= 1.56D-03

 Cycle   8  Pass 1  IDiag  1:
 E= -279.501477398558     Delta-E=       -0.000009113087 Rises=F Damp=F
 DIIS: error= 5.88D-05 at cycle   8 NSaved=   8.
 NSaved= 8 IEnMin= 8 EnMin= -279.501477398558     IErMin= 8 ErrMin= 5.88D-05
 ErrMax= 5.88D-05  0.00D+00 EMaxC= 1.00D-01 BMatC= 6.09D-07 BMatP= 4.64D-06
 IDIUse=1 WtCom= 1.00D+00 WtEn= 0.00D+00
 Coeff-Com: -0.450D-03 0.348D-02 0.760D-02 0.277D-01-0.414D-01-0.196D+00
 Coeff-Com:  0.162D+00 0.104D+01
 Coeff:     -0.450D-03 0.348D-02 0.760D-02 0.277D-01-0.414D-01-0.196D+00
 Coeff:      0.162D+00 0.104D+01
 Gap=     0.500 Goal=   None    Shift=    0.000
 RMSDP=7.01D-06 MaxDP=2.04D-04 DE=-9.11D-06 OVMax= 7.63D-04

 Cycle   9  Pass 1  IDiag  1:
 E= -279.501479208465     Delta-E=       -0.000001809907 Rises=F Damp=F
 DIIS: error= 1.54D-05 at cycle   9 NSaved=   9.
 NSaved= 9 IEnMin= 9 EnMin= -279.501479208465     IErMin= 9 ErrMin= 1.54D-05
 ErrMax= 1.54D-05  0.00D+00 EMaxC= 1.00D-01 BMatC= 6.89D-08 BMatP= 6.09D-07
 IDIUse=1 WtCom= 1.00D+00 WtEn= 0.00D+00
 Coeff-Com:  0.122D-03-0.172D-02-0.304D-02-0.198D-02 0.341D-01-0.275D-03
 Coeff-Com: -0.163D+00-0.106D+00 0.124D+01
 Coeff:      0.122D-03-0.172D-02-0.304D-02-0.198D-02 0.341D-01-0.275D-03
 Coeff:     -0.163D+00-0.106D+00 0.124D+01
 Gap=     0.500 Goal=   None    Shift=    0.000
 RMSDP=1.95D-06 MaxDP=6.61D-05 DE=-1.81D-06 OVMax= 1.76D-04

 Cycle  10  Pass 1  IDiag  1:
 E= -279.501479369262     Delta-E=       -0.000000160796 Rises=F Damp=F
 DIIS: error= 4.11D-06 at cycle  10 NSaved=  10.
 NSaved=10 IEnMin=10 EnMin= -279.501479369262     IErMin=10 ErrMin= 4.11D-06
 ErrMax= 4.11D-06  0.00D+00 EMaxC= 1.00D-01 BMatC= 5.62D-09 BMatP= 6.89D-08
 IDIUse=1 WtCom= 1.00D+00 WtEn= 0.00D+00
 Coeff-Com:  0.316D-04-0.250D-03-0.332D-03-0.273D-02 0.171D-02 0.197D-01
 Coeff-Com: -0.128D-01-0.754D-01-0.792D-01 0.115D+01
 Coeff:      0.316D-04-0.250D-03-0.332D-03-0.273D-02 0.171D-02 0.197D-01
 Coeff:     -0.128D-01-0.754D-01-0.792D-01 0.115D+01
 Gap=     0.500 Goal=   None    Shift=    0.000
 RMSDP=5.13D-07 MaxDP=2.11D-05 DE=-1.61D-07 OVMax= 4.24D-05

 Cycle  11  Pass 1  IDiag  1:
 E= -279.501479382001     Delta-E=       -0.000000012740 Rises=F Damp=F
 DIIS: error= 2.05D-06 at cycle  11 NSaved=  11.
 NSaved=11 IEnMin=11 EnMin= -279.501479382001     IErMin=11 ErrMin= 2.05D-06
 ErrMax= 2.05D-06  0.00D+00 EMaxC= 1.00D-01 BMatC= 6.69D-10 BMatP= 5.62D-09
 IDIUse=1 WtCom= 1.00D+00 WtEn= 0.00D+00
 Coeff-Com: -0.213D-04 0.245D-03 0.486D-03 0.538D-03-0.430D-02-0.356D-02
 Coeff-Com:  0.205D-01 0.319D-01-0.139D+00-0.181D+00 0.127D+01
 Coeff:     -0.213D-04 0.245D-03 0.486D-03 0.538D-03-0.430D-02-0.356D-02
 Coeff:      0.205D-01 0.319D-01-0.139D+00-0.181D+00 0.127D+01
 Gap=     0.500 Goal=   None    Shift=    0.000
 RMSDP=1.81D-07 MaxDP=6.74D-06 DE=-1.27D-08 OVMax= 1.74D-05

 Cycle  12  Pass 1  IDiag  1:
 E= -279.501479383837     Delta-E=       -0.000000001836 Rises=F Damp=F
 DIIS: error= 6.00D-07 at cycle  12 NSaved=  12.
 NSaved=12 IEnMin=12 EnMin= -279.501479383837     IErMin=12 ErrMin= 6.00D-07
 ErrMax= 6.00D-07  0.00D+00 EMaxC= 1.00D-01 BMatC= 7.22D-11 BMatP= 6.69D-10
 IDIUse=1 WtCom= 1.00D+00 WtEn= 0.00D+00
 Coeff-Com:  0.122D-05-0.291D-04-0.625D-04 0.184D-03 0.108D-02-0.228D-02
 Coeff-Com: -0.412D-02 0.539D-02 0.419D-01-0.112D+00-0.283D+00 0.135D+01
 Coeff:      0.122D-05-0.291D-04-0.625D-04 0.184D-03 0.108D-02-0.228D-02
 Coeff:     -0.412D-02 0.539D-02 0.419D-01-0.112D+00-0.283D+00 0.135D+01
 Gap=     0.500 Goal=   None    Shift=    0.000
 RMSDP=7.23D-08 MaxDP=2.92D-06 DE=-1.84D-09 OVMax= 6.68D-06

 Cycle  13  Pass 1  IDiag  1:
 E= -279.501479384067     Delta-E=       -0.000000000230 Rises=F Damp=F
 DIIS: error= 1.72D-07 at cycle  13 NSaved=  13.
 NSaved=13 IEnMin=13 EnMin= -279.501479384067     IErMin=13 ErrMin= 1.72D-07
 ErrMax= 1.72D-07  0.00D+00 EMaxC= 1.00D-01 BMatC= 4.09D-12 BMatP= 7.22D-11
 IDIUse=1 WtCom= 1.00D+00 WtEn= 0.00D+00
 Coeff-Com:  0.128D-05-0.140D-04-0.222D-04-0.907D-04 0.119D-03 0.765D-03
 Coeff-Com: -0.796D-03-0.330D-02 0.389D-03 0.413D-01-0.343D-01-0.331D+00
 Coeff-Com:  0.133D+01
 Coeff:      0.128D-05-0.140D-04-0.222D-04-0.907D-04 0.119D-03 0.765D-03
 Coeff:     -0.796D-03-0.330D-02 0.389D-03 0.413D-01-0.343D-01-0.331D+00
 Coeff:      0.133D+01
 Gap=     0.500 Goal=   None    Shift=    0.000
 RMSDP=1.93D-08 MaxDP=5.64D-07 DE=-2.30D-10 OVMax= 1.57D-06

 Cycle  14  Pass 1  IDiag  1:
 E= -279.501479384081     Delta-E=       -0.000000000014 Rises=F Damp=F
 DIIS: error= 2.43D-08 at cycle  14 NSaved=  14.
 NSaved=14 IEnMin=14 EnMin= -279.501479384081     IErMin=14 ErrMin= 2.43D-08
 ErrMax= 2.43D-08  0.00D+00 EMaxC= 1.00D-01 BMatC= 2.02D-13 BMatP= 4.09D-12
 IDIUse=1 WtCom= 1.00D+00 WtEn= 0.00D+00
 Coeff-Com: -0.193D-06 0.316D-05 0.558D-05 0.471D-05-0.829D-04 0.437D-04
 Coeff-Com:  0.278D-03 0.240D-03-0.244D-02 0.130D-02 0.171D-01-0.249D-01
 Coeff-Com: -0.203D+00 0.121D+01
 Coeff:     -0.193D-06 0.316D-05 0.558D-05 0.471D-05-0.829D-04 0.437D-04
 Coeff:      0.278D-03 0.240D-03-0.244D-02 0.130D-02 0.171D-01-0.249D-01
 Coeff:     -0.203D+00 0.121D+01
 Gap=     0.500 Goal=   None    Shift=    0.000
 RMSDP=3.85D-09 MaxDP=9.30D-08 DE=-1.42D-11 OVMax= 3.47D-07

 SCF Done:  E(RHF) =  -279.501479384     A.U. after   14 cycles
            NFock= 14  Conv=0.39D-08     -V/T= 2.0024
 KE= 2.788372146890D+02 PE=-8.947577504471D+02 EE= 2.196965269746D+02
 Leave Link  502 at Mon Feb 21 20:51:03 2022, MaxMem= 16106127360 cpu:              55.4 elap:               3.5
 (Enter /sw/contrib/gaussian/g16/B01/g16/l801.exe)
 ExpMin= 2.53D-02 ExpMax= 1.53D+04 ExpMxC= 5.22D+02 IAcc=3 IRadAn=         5 AccDes= 0.00D+00
 HarFok:  IExCor=  205 AccDes= 0.00D+00 IRadAn=         5 IDoV=-2 UseB2=F ITyADJ=14
 ICtDFT= 12500011 ScaDFX=  1.000000  1.000000  1.000000  1.000000
 Largest valence mixing into a core orbital is  2.08D-04
 Largest core mixing into a valence orbital is  3.62D-05
 Range of M.O.s used for correlation:     5   207
 NBasis=   207 NAE=    16 NBE=    16 NFC=     4 NFV=     0
 NROrb=    203 NOA=    12 NOB=    12 NVA=   191 NVB=   191

 **** Warning!!: The largest alpha MO coefficient is  0.17745011D+02

 Leave Link  801 at Mon Feb 21 20:51:04 2022, MaxMem= 16106127360 cpu:               2.3 elap:               0.1
 (Enter /sw/contrib/gaussian/g16/B01/g16/l906.exe)
 Frozen-core derivative calculation, NFC=   4 NFV=   0.
 FulOut=F Deriv=T AODrv=T NAtomX=     5
   MMem=           0  MDisk=          12 MDiskD=          12
  W3Min=      811440 MinDsk=     2425030 NBas6D=         245
 NBas2D=       30762    NTT=       30135    LW2=     7400000
    MDV= 16105574311 MDiskM=      328644 NBas2p=       30702
 Disk-based method using ON**2 memory for 12 occupieds at a time.
 Permanent disk used for amplitudes=    11516536 words.
 Estimated scratch disk usage=   321251614 words.
 IMap=   1   2   3   4   5   6   7   8   9  10  11  12  13  14  15  16
 Actual    scratch disk usage=   310331678 words.
 JobTyp=1 Pass  1:  I=   5 to  16 NPSUse= 28 ParTrn=T ParDer=T DoDerP=T.
 (rs|ai) integrals will be sorted in core.
 Spin components of T(2) and E(2):
     alpha-alpha T2 =       0.3405565002D-01 E2=     -0.1224296762D+00
     alpha-beta  T2 =       0.1869187124D+00 E2=     -0.7002823574D+00
     beta-beta   T2 =       0.3405565002D-01 E2=     -0.1224296762D+00
 The integrals were generated   1 times.
 ANorm=    0.1120281220D+01
 E2 =    -0.9451417097D+00 EUMP2 =    -0.28044662109376D+03
 Leave Link  906 at Mon Feb 21 20:52:41 2022, MaxMem= 16106127360 cpu:            2712.5 elap:              97.0
 (Enter /sw/contrib/gaussian/g16/B01/g16/l1101.exe)
 Using compressed Sx but separate Hx and Fx, NAtomX=     5.
 Will process      6 centers per pass.
 Leave Link 1101 at Mon Feb 21 20:52:41 2022, MaxMem= 16106127360 cpu:               5.3 elap:               0.2
 (Enter /sw/contrib/gaussian/g16/B01/g16/l1102.exe)
 Leave Link 1102 at Mon Feb 21 20:52:41 2022, MaxMem= 16106127360 cpu:               1.2 elap:               0.1
 (Enter /sw/contrib/gaussian/g16/B01/g16/l1110.exe)
 Forming Gx(P) for the SCF density, NAtomX=     5.
 Integral derivatives from FoFJK, PRISM(SPDF).
 Do as many integral derivatives as possible in FoFJK.
 G2DrvN: MDV=   16106126844.
 G2DrvN: will do     6 centers at a time, making    1 passes.
 Calling FoFCou, ICntrl=  3107 FMM=F I1Cent=   0 AccDes= 0.00D+00.
 FoFJK:  IHMeth= 1 ICntrl=    3107 DoSepK=F KAlg= 0 I1Cent=           0 FoldK=F
 IRaf=         0 NMat=       1 IRICut=       1 DoRegI=T DoRafI=F ISym2E= 1 IDoP0=0 IntGTp=1.
 FoFCou: FMM=F IPFlag=           0 FMFlag=      100000 FMFlg1=           0
         NFxFlg=           0 DoJE=F BraDBF=F KetDBF=F FulRan=T
         wScrn=  0.000000 ICntrl=      3107 IOpCl=  0 I1Cent=           0 NGrid=           0
         NMat0=    1 NMatS0=      1 NMatT0=    0 NMatD0=    1 NMtDS0=    0 NMtDT0=    0
 Petite list used in FoFCou.
 End of G2Drv F.D. properties file   721 does not exist.
 End of G2Drv F.D. properties file   722 does not exist.
 End of G2Drv F.D. properties file   788 does not exist.
 Leave Link 1110 at Mon Feb 21 20:52:44 2022, MaxMem= 16106127360 cpu:              83.4 elap:               3.0
 (Enter /sw/contrib/gaussian/g16/B01/g16/l1002.exe)
 Minotr:  Closed shell wavefunction.
          IDoAtm=11111
          Frozen-core window.
          Direct CPHF calculation.
          Differentiating once with respect to electric field.
                with respect to dipole field.
          Differentiating once with respect to nuclear coordinates.
          Requested convergence is 1.0D-08 RMS, and 1.0D-07 maximum.
          Secondary convergence is 1.0D-12 RMS, and 1.0D-12 maximum.
          NewPWx=T KeepS1=T KeepF1=T KeepIn=T MapXYZ=F SortEE=F KeepMc=T.
 Keep R1 ints in memory in symmetry-blocked form, NReq=348888983.
 FoFCou: FMM=F IPFlag=           0 FMFlag=           0 FMFlg1=           0
         NFxFlg=           0 DoJE=F BraDBF=F KetDBF=F FulRan=T
         wScrn=  0.000000 ICntrl=       600 IOpCl=  0 I1Cent=           0 NGrid=           0
         NMat0=    1 NMatS0=  21528 NMatT0=    0 NMatD0=    1 NMtDS0=    0 NMtDT0=    0
 Petite list used in FoFCou.
          MDV=   16106127360 using IRadAn=       1.
          Solving linear equations simultaneously, MaxMat=       0.
          There are    18 degrees of freedom in the 1st order CPHF.  IDoFFX=6 NUNeed=    18.
     15 vectors produced by pass  0 Test12= 1.70D-14 5.56D-09 XBig12= 8.27D+00 1.04D+00.
 AX will form    15 AO Fock derivatives at one time.
     15 vectors produced by pass  1 Test12= 1.70D-14 5.56D-09 XBig12= 1.33D+00 2.62D-01.
     15 vectors produced by pass  2 Test12= 1.70D-14 5.56D-09 XBig12= 1.41D-01 9.70D-02.
     15 vectors produced by pass  3 Test12= 1.70D-14 5.56D-09 XBig12= 4.94D-03 1.11D-02.
     15 vectors produced by pass  4 Test12= 1.70D-14 5.56D-09 XBig12= 9.84D-05 1.88D-03.
     15 vectors produced by pass  5 Test12= 1.70D-14 5.56D-09 XBig12= 1.38D-06 1.69D-04.
     15 vectors produced by pass  6 Test12= 1.70D-14 5.56D-09 XBig12= 1.07D-08 1.45D-05.
     13 vectors produced by pass  7 Test12= 1.70D-14 5.56D-09 XBig12= 7.92D-11 1.27D-06.
      3 vectors produced by pass  8 Test12= 1.70D-14 5.56D-09 XBig12= 5.52D-13 1.17D-07.
      2 vectors produced by pass  9 Test12= 1.70D-14 5.56D-09 XBig12= 3.62D-15 9.82D-09.
 InvSVY:  IOpt=1 It=  1 EMax= 1.11D-15
 Solved reduced A of dimension   123 with    15 vectors.
 FullF1:  Do perturbations      1 to      18.
 Saving first derivative matrices.
 End of Minotr F.D. properties file   721 does not exist.
 End of Minotr F.D. properties file   722 does not exist.
 End of Minotr F.D. properties file   788 does not exist.
 Leave Link 1002 at Mon Feb 21 20:52:47 2022, MaxMem= 16106127360 cpu:              80.8 elap:               2.9
 (Enter /sw/contrib/gaussian/g16/B01/g16/l811.exe)
 MDV= 16106127360.
 Form MO integral derivatives with frozen-active canonical formalism.
 MOERI=1 MOERIx=1 NAtoms=     5 NAtomX=     5.
 Discarding MO integrals.
 MO basis two electron integral derivatives will not be stored on disk.
 IAlg= 3 DoFC=T DoPWx=T Debug=F.
 Frozen-core window:  NFC=   4 NFV=   0.
 Reordered first order wavefunction length =     18678272
 In DefCFB: NBatch=  1 ICI= 16 ICA=191 LFMax= 96
            Large arrays: LIAPS=   619940160 LIARS=   288257200 words.
 In StABat: MaxSiz= 55 MinSiz= 25 NAtomB=  5
 DoIAMN: NPSUse= 28.
 Leave Link  811 at Mon Feb 21 20:54:08 2022, MaxMem= 16106127360 cpu:            2275.5 elap:              81.4
 (Enter /sw/contrib/gaussian/g16/B01/g16/l804.exe)
 Frozen-core window:  NFC=   4 NFV=   0.
 Closed-shell transformation, MDV= 16106127360 ITran=4 ISComp=1.
 Semi-Direct transformation.
 ModeAB=           2 MOrb=            16 LenV=   16104923079
 LASXX=     67341636 LTotXX=    67341636 LenRXX=    67341636
 LTotAB=    68301760 MaxLAS=    99807120 LenRXY=    99807120
 NonZer=   134683272 LenScr=   202817536 LnRSAI=           0
 LnScr1=           0 LExtra=           0 Total=    369966292
 MaxDsk=          -1 SrtSym=           F ITran=            4
 DoSDTr:  NPSUse= 28
 JobTyp=0 Pass  1:  I=   1 to  16.
 (rs|ai) integrals will be sorted in core.
 Complete sort for first half transformation.
 First half transformation complete.
 Begin second half transformation for I=  10.
 Begin second half transformation for I=  10.
 Complete sort for second half transformation.
 Second half transformation complete.
 Spin components of T(2) and E(2):
     alpha-alpha T2 =       0.3405565002D-01 E2=     -0.1224296762D+00
     alpha-beta  T2 =       0.1869187124D+00 E2=     -0.7002823574D+00
     beta-beta   T2 =       0.3405565002D-01 E2=     -0.1224296762D+00
 ANorm=    0.1584316895D+01
 E2 =    -0.9451417097D+00 EUMP2 =    -0.28044662109376D+03
 Leave Link  804 at Mon Feb 21 20:54:24 2022, MaxMem= 16106127360 cpu:             436.0 elap:              15.6
 (Enter /sw/contrib/gaussian/g16/B01/g16/l1002.exe)
 Minotr:  Closed shell wavefunction.
          Computing MP2/KS-MP2 derivatives.
          Using Z-Vector for PSCF gradient.
          Skipping F1 and S1 gradient terms here.
          IDoAtm=11111
          Frozen-core window.
          Using MO integrals in the linear equations.
          Forming densities via direct SCF.
          Differentiating once with respect to electric field.
                with respect to dipole field.
          Differentiating once with respect to nuclear coordinates.
          Using symmetry in CPHF.
          Requested convergence is 1.0D-10 RMS, and 1.0D-09 maximum.
          NewPWx=F KeepS1=T KeepF1=T KeepIn=T MapXYZ=F SortEE=F KeepMc=T.
          MDV=   16106127360 using IRadAn=       5.
          Solving linear equations separately, MaxMat=       0.
          There are     1 degrees of freedom in the 1st order CPHF.  IDoFFX=0 NUNeed=     1.
 FoFJK:  IHMeth= 1 ICntrl=       0 DoSepK=F KAlg= 0 I1Cent=           0 FoldK=F
 IRaf=         0 NMat=       1 IRICut=       1 DoRegI=T DoRafI=F ISym2E= 0 IDoP0=0 IntGTp=1.
 FoFCou: FMM=F IPFlag=           0 FMFlag=      100000 FMFlg1=           0
         NFxFlg=           0 DoJE=F BraDBF=F KetDBF=F FulRan=T
         wScrn=  0.000000 ICntrl=         0 IOpCl=  0 I1Cent=           0 NGrid=           0
         NMat0=    1 NMatS0=      1 NMatT0=    0 NMatD0=    1 NMtDS0=    0 NMtDT0=    0
 Symmetry not used in FoFCou.
 LinEq1:  Iter=  0 NonCon=     1 RMS=5.98D-03 Max=1.34D-01 NDo=     1
 LinEq1:  Iter=  1 NonCon=     1 RMS=1.91D-03 Max=3.84D-02 NDo=     1
 LinEq1:  Iter=  2 NonCon=     1 RMS=8.73D-04 Max=1.41D-02 NDo=     1
 LinEq1:  Iter=  3 NonCon=     1 RMS=3.88D-04 Max=7.83D-03 NDo=     1
 LinEq1:  Iter=  4 NonCon=     1 RMS=1.21D-04 Max=1.95D-03 NDo=     1
 LinEq1:  Iter=  5 NonCon=     1 RMS=4.72D-05 Max=7.52D-04 NDo=     1
 LinEq1:  Iter=  6 NonCon=     1 RMS=2.10D-05 Max=2.39D-04 NDo=     1
 LinEq1:  Iter=  7 NonCon=     1 RMS=8.34D-06 Max=1.59D-04 NDo=     1
 LinEq1:  Iter=  8 NonCon=     1 RMS=3.52D-06 Max=3.45D-05 NDo=     1
 LinEq1:  Iter=  9 NonCon=     1 RMS=9.49D-07 Max=1.32D-05 NDo=     1
 LinEq1:  Iter= 10 NonCon=     1 RMS=1.86D-07 Max=2.01D-06 NDo=     1
 LinEq1:  Iter= 11 NonCon=     1 RMS=3.44D-08 Max=3.52D-07 NDo=     1
 LinEq1:  Iter= 12 NonCon=     1 RMS=8.32D-09 Max=1.25D-07 NDo=     1
 LinEq1:  Iter= 13 NonCon=     1 RMS=1.51D-09 Max=2.58D-08 NDo=     1
 LinEq1:  Iter= 14 NonCon=     1 RMS=2.74D-10 Max=3.83D-09 NDo=     1
 LinEq1:  Iter= 15 NonCon=     0 RMS=4.86D-11 Max=5.59D-10 NDo=     1
 Linear equations converged to 1.000D-10 1.000D-09 after    15 iterations.
 End of Minotr F.D. properties file   721 does not exist.
 End of Minotr F.D. properties file   722 does not exist.
 End of Minotr F.D. properties file   788 does not exist.
 Leave Link 1002 at Mon Feb 21 20:54:26 2022, MaxMem= 16106127360 cpu:              63.9 elap:               2.3
 (Enter /sw/contrib/gaussian/g16/B01/g16/l1102.exe)
 Use density number 2.
 Symmetrizing basis deriv contribution to polar:
 IMax=3 JMax=2 DiffMx= 0.00D+00
 Leave Link 1102 at Mon Feb 21 20:54:26 2022, MaxMem= 16106127360 cpu:               1.3 elap:               0.1
 (Enter /sw/contrib/gaussian/g16/B01/g16/l1110.exe)
 Forming Gx(P) for generalized density number  2 NAtomX=     5.
 Integral derivatives from FoFJK, PRISM(SPDF).
 Do as many integral derivatives as possible in FoFJK.
 G2DrvN: MDV=   16106126844.
 G2DrvN: will do     6 centers at a time, making    1 passes.
 Calling FoFCou, ICntrl=  3107 FMM=F I1Cent=   0 AccDes= 0.00D+00.
 FoFJK:  IHMeth= 1 ICntrl=    3107 DoSepK=F KAlg= 0 I1Cent=           0 FoldK=F
 IRaf=         0 NMat=       1 IRICut=       1 DoRegI=T DoRafI=F ISym2E= 1 IDoP0=0 IntGTp=1.
 FoFCou: FMM=F IPFlag=           0 FMFlag=      100000 FMFlg1=           0
         NFxFlg=           0 DoJE=F BraDBF=F KetDBF=F FulRan=T
         wScrn=  0.000000 ICntrl=      3107 IOpCl=  0 I1Cent=           0 NGrid=           0
         NMat0=    1 NMatS0=      1 NMatT0=    0 NMatD0=    1 NMtDS0=    0 NMtDT0=    0
 Petite list used in FoFCou.
 End of G2Drv F.D. properties file   721 does not exist.
 End of G2Drv F.D. properties file   722 does not exist.
 End of G2Drv F.D. properties file   788 does not exist.
 Leave Link 1110 at Mon Feb 21 20:54:30 2022, MaxMem= 16106127360 cpu:              87.7 elap:               3.2
 (Enter /sw/contrib/gaussian/g16/B01/g16/l1112.exe)
 MP22nd: MDV=   16106127360
 This link is doing NAtomX=     5 total of    18 degrees of freedom.
 Using ON3 I/O method in MakUI.
 Frozen-core window:  NFC=   4 NFV=   0.
 Using Ix for Sx.
 Use MO integrals over full window.
 Using OV2 memory method for fx*t*t/D, MaxI=    16 DoOO2=F NP=  28.
 R2 and R3 integrals will be kept in memory, NReq=   915591705.
 FoFCou: FMM=F IPFlag=           0 FMFlag=           0 FMFlg1=           0
         NFxFlg=           0 DoJE=F BraDBF=F KetDBF=F FulRan=T
         wScrn=  0.000000 ICntrl=       600 IOpCl=  0 I1Cent=           0 NGrid=           0
         NMat0=    1 NMatS0=      1 NMatT0=    0 NMatD0=    1 NMtDS0=    0 NMtDT0=    0
 Symmetry not used in FoFCou.
 DD1Dir will call FoFMem   1 times, MxPair=       272
 NAB=   136 NAA=     0 NBB=     0.
 Symmetry is being used.
 FoFJK:  IHMeth= 1 ICntrl=       0 DoSepK=F KAlg= 0 I1Cent=           0 FoldK=F
 IRaf=         0 NMat=      18 IRICut=      45 DoRegI=T DoRafI=T ISym2E= 2 IDoP0=3 IntGTp=3.
 Discarding MO integrals.
 Leave Link 1112 at Mon Feb 21 20:55:04 2022, MaxMem= 16106127360 cpu:             956.0 elap:              34.5
 (Enter /sw/contrib/gaussian/g16/B01/g16/l601.exe)
 Copying SCF densities to generalized density rwf, IOpCl= 0 IROHF=0.

 **********************************************************************

            Population analysis using the MP2 Density.

 **********************************************************************

 Orbital symmetries:
       Occupied  (A') (A') (A') (A') (A') (A') (A') (A') (A') (A')
                 (A") (A') (A") (A') (A") (A')
       Virtual   (A') (A") (A') (A') (A') (A") (A') (A') (A") (A')
                 (A") (A') (A') (A') (A") (A') (A') (A") (A') (A')
                 (A') (A') (A') (A') (A") (A') (A') (A") (A') (A')
                 (A") (A') (A") (A') (A') (A") (A') (A') (A") (A')
                 (A") (A') (A") (A') (A') (A") (A') (A') (A") (A')
                 (A") (A') (A') (A') (A") (A') (A") (A') (A") (A')
                 (A') (A') (A") (A') (A') (A") (A') (A") (A') (A')
                 (A") (A') (A') (A") (A") (A') (A') (A") (A') (A')
                 (A') (A") (A') (A") (A') (A") (A') (A") (A') (A')
                 (A") (A') (A') (A") (A') (A") (A') (A") (A') (A')
                 (A") (A') (A") (A') (A') (A") (A') (A') (A") (A')
                 (A") (A') (A') (A') (A") (A') (A') (A') (A") (A')
                 (A") (A') (A") (A') (A') (A") (A") (A') (A") (A')
                 (A') (A') (A') (A") (A") (A") (A') (A') (A') (A')
                 (A") (A') (A") (A') (A') (A") (A') (A') (A') (A')
                 (A") (A') (A') (A") (A') (A") (A') (A") (A') (A")
                 (A') (A") (A') (A') (A") (A") (A") (A') (A") (A')
                 (A") (A') (A") (A') (A") (A') (A") (A") (A') (A')
                 (A') (A') (A') (A') (A') (A') (A') (A') (A') (A')
                 (A')
 The electronic state is 1-A'.
 Alpha  occ. eigenvalues --  -20.69140 -20.68473 -20.66076 -15.81239  -1.62302
 Alpha  occ. eigenvalues --   -1.49665  -1.25540  -0.94775  -0.77344  -0.75877
 Alpha  occ. eigenvalues --   -0.71156  -0.67969  -0.62094  -0.59049  -0.48580
 Alpha  occ. eigenvalues --   -0.47096
 Alpha virt. eigenvalues --    0.02953   0.07220   0.08570   0.10173   0.13402
 Alpha virt. eigenvalues --    0.13403   0.14403   0.15461   0.17813   0.19422
 Alpha virt. eigenvalues --    0.19976   0.20612   0.22081   0.23420   0.23722
 Alpha virt. eigenvalues --    0.26517   0.29436   0.30428   0.31068   0.34302
 Alpha virt. eigenvalues --    0.34992   0.38679   0.42147   0.43123   0.52618
 Alpha virt. eigenvalues --    0.53023   0.55902   0.58289   0.62668   0.63559
 Alpha virt. eigenvalues --    0.67411   0.68423   0.70828   0.71074   0.72453
 Alpha virt. eigenvalues --    0.72971   0.74592   0.78954   0.79144   0.80967
 Alpha virt. eigenvalues --    0.81225   0.83008   0.86829   0.90745   0.92164
 Alpha virt. eigenvalues --    0.92370   0.95675   0.97981   0.98436   1.01598
 Alpha virt. eigenvalues --    1.05215   1.05465   1.08171   1.11822   1.14045
 Alpha virt. eigenvalues --    1.18879   1.22331   1.23208   1.33824   1.34879
 Alpha virt. eigenvalues --    1.38407   1.45158   1.48802   1.51024   1.53889
 Alpha virt. eigenvalues --    1.56567   1.58005   1.61402   1.66354   1.66796
 Alpha virt. eigenvalues --    1.70443   1.79352   1.83295   1.83401   1.87611
 Alpha virt. eigenvalues --    1.91197   1.95560   1.99082   2.00914   2.07454
 Alpha virt. eigenvalues --    2.11907   2.13343   2.14858   2.22287   2.26138
 Alpha virt. eigenvalues --    2.26370   2.28983   2.31418   2.34069   2.38603
 Alpha virt. eigenvalues --    2.42204   2.42874   2.45670   2.46657   2.47584
 Alpha virt. eigenvalues --    2.50208   2.58980   2.59445   2.61716   2.62692
 Alpha virt. eigenvalues --    2.63493   2.66448   2.76151   2.83286   2.86258
 Alpha virt. eigenvalues --    2.87634   2.89455   2.90927   2.96381   3.02303
 Alpha virt. eigenvalues --    3.07236   3.11688   3.20479   3.22989   3.31422
 Alpha virt. eigenvalues --    3.34571   3.50814   3.64855   3.83853   3.84481
 Alpha virt. eigenvalues --    4.14782   4.15854   4.18292   4.25728   4.35507
 Alpha virt. eigenvalues --    4.39292   4.46331   4.51814   4.66721   4.70926
 Alpha virt. eigenvalues --    4.80786   4.82004   4.82706   4.89496   5.02174
 Alpha virt. eigenvalues --    5.07850   5.09960   5.14244   5.18434   5.24073
 Alpha virt. eigenvalues --    5.26989   5.31170   5.32854   5.35840   5.60951
 Alpha virt. eigenvalues --    5.67357   5.75509   5.82920   5.95801   6.16760
 Alpha virt. eigenvalues --    6.30677   6.33995   6.39381   6.49113   6.50201
 Alpha virt. eigenvalues --    6.61239   6.66765   6.69432   6.75693   6.76165
 Alpha virt. eigenvalues --    6.82679   6.90295   7.01236   7.05477   7.05688
 Alpha virt. eigenvalues --    7.08826   7.12591   7.14735   7.18070   7.22424
 Alpha virt. eigenvalues --    7.24085   7.30691   7.32476   7.34810   7.40014
 Alpha virt. eigenvalues --    7.43246   7.48622   7.60648   7.61627   7.62919
 Alpha virt. eigenvalues --    7.66150   7.78126   7.89360   8.09179   8.31409
 Alpha virt. eigenvalues --    8.40915   8.54519  13.37944  14.40826  15.15462
 Alpha virt. eigenvalues --   16.15036
          Condensed to atoms (all electrons):
               1          2          3          4          5
     1  H    0.589439   0.128747   0.019902   0.012301  -0.000686
     2  O    0.128747   8.318057  -0.171472  -0.091632   0.015225
     3  O    0.019902  -0.171472   8.469805  -0.135047  -0.034321
     4  N    0.012301  -0.091632  -0.135047   6.981884  -0.057812
     5  O   -0.000686   0.015225  -0.034321  -0.057812   8.270405
 Mulliken charges:
               1
     1  H    0.250297
     2  O   -0.198925
     3  O   -0.148866
     4  N    0.290306
     5  O   -0.192811
 Sum of Mulliken charges =  -0.00000
 Mulliken charges with hydrogens summed into heavy atoms:
               1
     2  O    0.051371
     3  O   -0.148866
     4  N    0.290306
     5  O   -0.192811
 APT charges:
               1
     1  H    0.300098
     2  O   -0.286782
     3  O   -0.504702
     4  N    0.885443
     5  O   -0.394058
 Sum of APT charges =  -0.00000
 APT charges with hydrogens summed into heavy atoms:
               1
     2  O    0.013317
     3  O   -0.504702
     4  N    0.885443
     5  O   -0.394058
 Electronic spatial extent (au):  <R**2>=            253.9028
 Charge=             -0.0000 electrons
 Dipole moment (field-independent basis, Debye):
    X=              0.5043    Y=              1.3766    Z=              0.0000  Tot=              1.4661
 Quadrupole moment (field-independent basis, Debye-Ang):
   XX=            -22.4293   YY=            -18.6239   ZZ=            -22.0166
   XY=              3.2864   XZ=             -0.0000   YZ=              0.0000
 Traceless Quadrupole moment (field-independent basis, Debye-Ang):
   XX=             -1.4060   YY=              2.3994   ZZ=             -0.9934
   XY=              3.2864   XZ=             -0.0000   YZ=              0.0000
 Octapole moment (field-independent basis, Debye-Ang**2):
  XXX=              2.9254  YYY=             11.3186  ZZZ=             -0.0000  XYY=              7.9470
  XXY=              6.5950  XXZ=              0.0000  XZZ=             -1.5705  YZZ=             -0.8609
  YYZ=              0.0000  XYZ=              0.0000
 Hexadecapole moment (field-independent basis, Debye-Ang**3):
 XXXX=           -158.2723 YYYY=            -90.7898 ZZZZ=            -18.2598 XXXY=            -36.9636
 XXXZ=             -0.0000 YYYX=            -31.0094 YYYZ=             -0.0000 ZZZX=             -0.0000
 ZZZY=             -0.0000 XXYY=            -33.9679 XXZZ=            -30.8575 YYZZ=            -20.8679
 XXYZ=             -0.0000 YYXZ=             -0.0000 ZZXY=            -15.1939
 N-N= 1.167225293995D+02 E-N=-8.955433311660D+02  KE= 2.801895811855D+02
 Symmetry A'   KE= 2.662213458100D+02
 Symmetry A"   KE= 1.396823537543D+01
  Exact polarizability:  34.033   9.587  30.442   0.000  -0.000  17.951
 Approx polarizability:  28.971   5.266  23.651   0.000   0.000  15.533
 No NMR shielding tensors so no spin-rotation constants.
 Leave Link  601 at Mon Feb 21 20:55:05 2022, MaxMem= 16106127360 cpu:               7.6 elap:               0.3
 (Enter /sw/contrib/gaussian/g16/B01/g16/l701.exe)
 ... and contract with generalized density number  2.
 Compute integral second derivatives.
 Leave Link  701 at Mon Feb 21 20:55:05 2022, MaxMem= 16106127360 cpu:               6.0 elap:               0.2
 (Enter /sw/contrib/gaussian/g16/B01/g16/l702.exe)
 L702 exits ... SP integral derivatives will be done elsewhere.
 Leave Link  702 at Mon Feb 21 20:55:05 2022, MaxMem= 16106127360 cpu:               0.6 elap:               0.0
 (Enter /sw/contrib/gaussian/g16/B01/g16/l703.exe)
 Integral derivatives from FoFJK, PRISM(SPDF).
 Compute integral second derivatives, UseDBF=F ICtDFT=           0.
 Calling FoFJK, ICntrl=  10100127 FMM=F ISym2X=1 I1Cent= 0 IOpClX= 0 NMat=1 NMatS=1 NMatT=0.
 FoFJK:  IHMeth= 1 ICntrl=10100127 DoSepK=F KAlg= 0 I1Cent=           0 FoldK=F
 IRaf=         0 NMat=       1 IRICut=       1 DoRegI=T DoRafI=F ISym2E= 1 IDoP0=0 IntGTp=1.
 FoFCou: FMM=F IPFlag=           0 FMFlag=      100000 FMFlg1=         800
         NFxFlg=           0 DoJE=F BraDBF=F KetDBF=F FulRan=T
         wScrn=  0.000000 ICntrl=  10100127 IOpCl=  0 I1Cent=           0 NGrid=           0
         NMat0=    1 NMatS0=      1 NMatT0=    0 NMatD0=    1 NMtDS0=    0 NMtDT0=    0
 Petite list used in FoFCou.
 Leave Link  703 at Mon Feb 21 20:55:20 2022, MaxMem= 16106127360 cpu:             425.4 elap:              15.3
 (Enter /sw/contrib/gaussian/g16/B01/g16/l716.exe)
 Dipole        = 1.98416095D-01 5.41601429D-01 3.01081512D-33
 Polarizability= 3.40326748D+01 9.58696627D+00 3.04417250D+01
                 6.89189011D-31-1.40919329D-31 1.79507942D+01
 Full mass-weighted force constant matrix:
 Low frequencies --- -273.3364  -90.6457    0.0001    0.0005    0.0009   22.4432
 Low frequencies ---   35.5800  228.4300  340.6984
 ******    1 imaginary frequencies (negative Signs) ****** 
 Diagonal vibrational polarizability:
       14.5620072      26.6243617      45.3980667
 Harmonic frequencies (cm**-1), IR intensities (KM/Mole), Raman scattering
 activities (A**4/AMU), depolarization ratios for plane and unpolarized
 incident light, reduced masses (AMU), force constants (mDyne/A),
 and normal coordinates:
                      1                      2                      3
                     A"                     A"                     A'
 Frequencies --   -273.2984               227.2091               340.6962
 Red. masses --      1.1438                10.0331                 8.5731
 Frc consts  --      0.0503                 0.3052                 0.5863
 IR Inten    --    124.3783                 1.1224                 6.6920
  Atom  AN      X      Y      Z        X      Y      Z        X      Y      Z
     1   1    -0.00   0.00   1.00    -0.00   0.00  -0.60     0.54  -0.44  -0.00
     2   8    -0.00   0.00  -0.07    -0.00   0.00  -0.30    -0.09  -0.37  -0.00
     3   8     0.00  -0.00  -0.04     0.00  -0.00   0.31    -0.14   0.44   0.00
     4   7     0.00   0.00   0.06     0.00  -0.00   0.52     0.03   0.25   0.00
     5   8    -0.00   0.00  -0.01    -0.00   0.00  -0.43     0.16  -0.26  -0.00
                      4                      5                      6
                     A'                     A'                     A'
 Frequencies --    441.1777               786.9735               966.1790
 Red. masses --     12.4765                12.9047                15.3023
 Frc consts  --      1.4308                 4.7089                 8.4163
 IR Inten    --    199.0490               175.7447                24.8822
  Atom  AN      X      Y      Z        X      Y      Z        X      Y      Z
     1   1     0.39   0.21  -0.00    -0.34   0.19  -0.00    -0.19  -0.04   0.00
     2   8     0.32   0.22  -0.00     0.42   0.08   0.00    -0.52   0.03   0.00
     3   8     0.19   0.43   0.00    -0.07  -0.27  -0.00     0.75  -0.03  -0.00
     4   7    -0.35  -0.41   0.00    -0.14   0.62  -0.00    -0.12   0.25  -0.00
     5   8    -0.23  -0.30  -0.00    -0.20  -0.37   0.00    -0.11  -0.22   0.00
                      7                      8                      9
                     A'                     A'                     A'
 Frequencies --   1370.9907              1676.9432              3778.9163
 Red. masses --      1.1337                13.1525                 1.0676
 Frc consts  --      1.2555                21.7919                 8.9820
 IR Inten    --    155.3320               144.0559                83.5189
  Atom  AN      X      Y      Z        X      Y      Z        X      Y      Z
     1   1     0.99  -0.05  -0.00    -0.35   0.01   0.00     0.10   0.99   0.00
     2   8    -0.03   0.05  -0.00    -0.00  -0.04   0.00    -0.01  -0.06   0.00
     3   8    -0.02  -0.05   0.00     0.00   0.15  -0.00     0.00   0.00  -0.00
     4   7     0.02   0.01   0.00     0.70  -0.04  -0.00    -0.00  -0.00  -0.00
     5   8    -0.03  -0.01  -0.00    -0.59  -0.08   0.00     0.00   0.00   0.00

 -------------------
 - Thermochemistry -
 -------------------
 Temperature   298.150 Kelvin.  Pressure   1.00000 Atm.
 Atom     1 has atomic number  1 and mass   1.00783
 Atom     2 has atomic number  8 and mass  15.99491
 Atom     3 has atomic number  8 and mass  15.99491
 Atom     4 has atomic number  7 and mass  14.00307
 Atom     5 has atomic number  8 and mass  15.99491
 Molecular mass:    62.99564 amu.
 Principal axes and moments of inertia in atomic units:
                           1         2         3
     Eigenvalues --    32.64732 362.32661 394.97393
           X            0.80726  -0.59020   0.00000
           Y            0.59020   0.80726   0.00000
           Z           -0.00000   0.00000   1.00000
 This molecule is an asymmetric top.
 Rotational symmetry number  1.
 Rotational temperatures (Kelvin)      2.65302     0.23905     0.21929
 Rotational constants (GHZ):          55.27992     4.98098     4.56927
    1 imaginary frequencies ignored.
 Zero-point vibrational energy      57355.5 (Joules/Mol)
                                   13.70829 (Kcal/Mol)
 Warning -- explicit consideration of   3 degrees of freedom as
           vibrations may cause significant error
 Vibrational temperatures:    326.90   490.19   634.76  1132.28  1390.12
          (Kelvin)           1972.55  2412.75  5437.02
 
 Zero-point correction=                           0.021846 (Hartree/Particle)
 Thermal correction to Energy=                    0.025975
 Thermal correction to Enthalpy=                  0.026920
 Thermal correction to Gibbs Free Energy=        -0.004290
 Sum of electronic and zero-point Energies=           -280.424776
 Sum of electronic and thermal Energies=              -280.420646
 Sum of electronic and thermal Enthalpies=            -280.419701
 Sum of electronic and thermal Free Energies=         -280.450911
 
                     E (Thermal)             CV                S
                      KCal/Mol        Cal/Mol-Kelvin    Cal/Mol-Kelvin
 Total                   16.300             11.980             65.686
 Electronic               0.000              0.000              0.000
 Translational            0.889              2.981             38.341
 Rotational               0.889              2.981             23.062
 Vibrational             14.522              6.019              4.284
 Vibration     1          0.651              1.800              1.901
 Vibration     2          0.720              1.594              1.209
 Vibration     3          0.801              1.380              0.823
                       Q            Log10(Q)             Ln(Q)
 Total Bot       0.940283D+02          1.973259          4.543596
 Total V=0       0.105076D+13         12.021503         27.680533
 Vib (Bot)       0.195540D-09         -9.708765        -22.355257
 Vib (Bot)    1  0.867911D+00         -0.061525         -0.141666
 Vib (Bot)    2  0.544776D+00         -0.263782         -0.607381
 Vib (Bot)    3  0.391472D+00         -0.407299         -0.937841
 Vib (V=0)       0.218514D+01          0.339479          0.781680
 Vib (V=0)    1  0.150163D+01          0.176564          0.406554
 Vib (V=0)    2  0.123945D+01          0.093228          0.214665
 Vib (V=0)    3  0.113502D+01          0.055003          0.126650
 Electronic      0.100000D+01          0.000000          0.000000
 Translational   0.196526D+08          7.293420         16.793719
 Rotational      0.244683D+05          4.388604         10.105133
 
                                                                title
                                                             IR Spectrum
 
     3                                                                      1         1                                              
     7                                                                      6         3             9     7           4  3   2       
     7                                                                      7         7             6     8           4  4   2       
     9                                                                      7         1             6     7           1  1   7       
 
     X                                                                      X         X             X     X           X  X   X       
     X                                                                      X         X             X     X           X              
     X                                                                      X         X             X     X           X              
     X                                                                      X         X                   X           X              
     X                                                                      X         X                   X           X              
     X                                                                      X         X                   X           X              
     X                                                                      X         X                   X           X              
     X                                                                      X         X                   X           X              
                                                                            X         X                   X           X              
                                                                            X         X                   X           X              
                                                                            X         X                   X           X              
                                                                            X         X                   X           X              
                                                                            X         X                   X           X              
                                                                            X         X                   X           X              
                                                                                      X                   X           X              
                                                                                      X                   X           X              
                                                                                                          X           X              
                                                                                                          X           X              
                                                                                                                      X              
                                                                                                                      X              
 
 ***** Axes restored to original set *****
 -------------------------------------------------------------------
 Center     Atomic                   Forces (Hartrees/Bohr)
 Number     Number              X              Y              Z
 -------------------------------------------------------------------
      1        1           0.000318570   -0.000000000   -0.000024215
      2        8           0.000586356    0.000000000    0.001136144
      3        8           0.003662140   -0.000000000   -0.000781267
      4        7          -0.004501033    0.000000000    0.004547500
      5        8          -0.000066032   -0.000000000   -0.004878162
 -------------------------------------------------------------------
 Cartesian Forces:  Max     0.004878162 RMS     0.002316581
 -----------------------------------------------------------------------------------------------
                       Internal Coordinate Forces (Hartree/Bohr or radian)
  Cent   Atom   N1       Length/X         N2         Alpha/Y        N3         Beta/Z          J
 -----------------------------------------------------------------------------------------------
      1  H 
      2  O        1   0.000024(     1)
      3  O        2  -0.001044(     2)      1  -0.000583(     5)
      4  N        3  -0.000704(     3)      2  -0.002118(     6)      1  -0.000000(     8)     0
      5  O        4  -0.001376(     4)      3  -0.010355(     7)      2   0.000000(     9)     0
 -----------------------------------------------------------------------------------------------
 Internal  Forces:  Max     0.010354769 RMS     0.003582807
 Force constants in Cartesian coordinates: 
                1             2             3             4             5 
      1  0.646422D-01
      2  0.000000D+00 -0.241837D-02
      3  0.517005D-02  0.000000D+00  0.512423D+00
      4 -0.358674D-01  0.000000D+00 -0.162675D-01  0.272318D+00
      5  0.000000D+00  0.319407D-02  0.000000D+00  0.000000D+00  0.209432D-02
      6  0.483714D-01  0.000000D+00 -0.508572D+00  0.327019D-01  0.000000D+00
      7 -0.183551D-01  0.000000D+00  0.126582D-01 -0.220649D+00  0.000000D+00
      8  0.000000D+00  0.946878D-03  0.000000D+00  0.000000D+00 -0.632074D-02
      9 -0.531478D-01  0.000000D+00 -0.355826D-03 -0.193301D-01  0.000000D+00
     10 -0.944514D-02  0.000000D+00 -0.490160D-02 -0.164088D-01  0.000000D+00
     11  0.000000D+00 -0.274805D-02  0.000000D+00  0.000000D+00 -0.534699D-02
     12  0.526173D-02  0.000000D+00 -0.501313D-02  0.113574D-01  0.000000D+00
     13 -0.974588D-03  0.000000D+00  0.334083D-02  0.606774D-03  0.000000D+00
     14  0.000000D+00  0.102547D-02  0.000000D+00  0.000000D+00  0.637935D-02
     15 -0.565539D-02  0.000000D+00  0.151771D-02 -0.846167D-02  0.000000D+00
                6             7             8             9            10 
      6  0.594736D+00
      7 -0.208961D-01  0.339926D+00
      8  0.000000D+00  0.000000D+00  0.325882D-02
      9 -0.786381D-01  0.319875D-01  0.000000D+00  0.178786D+00
     10 -0.531900D-01 -0.803552D-01  0.000000D+00  0.178061D+00  0.827313D+00
     11  0.000000D+00  0.000000D+00  0.109315D-01  0.000000D+00  0.000000D+00
     12  0.166844D-01  0.639783D-01  0.000000D+00 -0.794253D-01 -0.850775D-02
     13 -0.698713D-02 -0.205670D-01  0.000000D+00 -0.137571D+00 -0.721104D+00
     14  0.000000D+00  0.000000D+00 -0.881644D-02  0.000000D+00  0.000000D+00
     15 -0.242112D-01 -0.877278D-01  0.000000D+00 -0.203667D-01 -0.111462D+00
               11            12            13            14            15 
     11  0.510389D-02
     12  0.000000D+00  0.189324D+00
     13  0.000000D+00 -0.720897D-01  0.742038D+00
     14 -0.794033D-02  0.000000D+00  0.000000D+00  0.935195D-02
     15  0.000000D+00 -0.121570D+00  0.213307D+00  0.000000D+00  0.164631D+00
 Force constants in internal coordinates: 
                1             2             3             4             5 
      1  0.512423D+00
      2 -0.104911D-01  0.280500D+00
      3  0.361161D-02  0.177995D-02  0.114396D+00
      4 -0.362602D-02  0.538828D-02  0.150999D+00  0.810794D+00
      5  0.978548D-02  0.651852D-01  0.228275D-02  0.450558D-02  0.216786D+00
      6  0.474289D-02  0.583572D-01  0.415737D-01  0.201996D-01  0.312532D-01
      7 -0.124477D-02  0.357028D-01  0.244147D-01  0.771400D-01  0.210038D-01
      8  0.000000D+00  0.000000D+00  0.000000D+00  0.000000D+00  0.000000D+00
      9  0.000000D+00  0.000000D+00  0.000000D+00  0.000000D+00  0.000000D+00
                6             7             8             9 
      6  0.282825D+00
      7  0.940066D-01  0.466219D+00
      8  0.000000D+00  0.000000D+00 -0.784633D-02
      9  0.000000D+00  0.000000D+00 -0.386103D-02  0.409496D-01
 Leave Link  716 at Mon Feb 21 20:55:20 2022, MaxMem= 16106127360 cpu:               0.7 elap:               0.0
 (Enter /sw/contrib/gaussian/g16/B01/g16/l103.exe)

 GradGradGradGradGradGradGradGradGradGradGradGradGradGradGradGradGradGrad
 Berny optimization.
 Search for a local minimum.
 Step number   1 out of a maximum of    2
 All quantities printed in internal units (Hartrees-Bohrs-Radians)
 Second derivative matrix not updated -- analytic derivatives used.
 The second derivative matrix:
                          r1        r2        r3        r4        a1
           r1           0.51242
           r2          -0.01049   0.28050
           r3           0.00361   0.00178   0.11440
           r4          -0.00363   0.00539   0.15100   0.81079
           a1           0.00979   0.06519   0.00228   0.00451   0.21679
           a2           0.00474   0.05836   0.04157   0.02020   0.03125
           a3          -0.00124   0.03570   0.02441   0.07714   0.02100
           d1           0.00000   0.00000   0.00000   0.00000   0.00000
           d2           0.00000  -0.00000  -0.00000  -0.00000  -0.00000
                          a2        a3        d1        d2
           a2           0.28283
           a3           0.09401   0.46622
           d1           0.00000   0.00000  -0.00785
           d2          -0.00000  -0.00000  -0.00386   0.04095
 ITU=  0
     Eigenvalues ---   -0.00815   0.04125   0.07587   0.17527   0.22584
     Eigenvalues ---    0.32311   0.50722   0.51320   0.86343
 Eigenvalue     1 is  -8.15D-03 should be greater than     0.000000 Eigenvector:
                          d1        d2        r3        a2        a3
   1                    0.99692   0.07839  -0.00000  -0.00000   0.00000
                          a1        r4        r2        r1
   1                    0.00000  -0.00000  -0.00000  -0.00000
 Angle between quadratic step and forces=  16.78 degrees.
 Linear search not attempted -- first point.
 Variable       Old X    -DE/DX   Delta X   Delta X   Delta X     New X
                                 (Linear)    (Quad)   (Total)
    r1        1.83110   0.00002   0.00000   0.00000   0.00000   1.83110
    r2        2.74940  -0.00104   0.00000  -0.00092  -0.00092   2.74848
    r3        2.75670  -0.00070   0.00000  -0.00279  -0.00279   2.75391
    r4        2.21236  -0.00138   0.00000   0.00093   0.00093   2.21329
    a1        1.70335  -0.00058   0.00000  -0.00032  -0.00032   1.70303
    a2        1.78543  -0.00212   0.00000   0.00047   0.00047   1.78590
    a3        1.92535  -0.01035   0.00000  -0.02223  -0.02223   1.90312
    d1        3.14159  -0.00000   0.00000  -0.00000   0.00000   3.14159
    d2        3.14159   0.00000   0.00000   0.00000   0.00000   3.14159
         Item               Value     Threshold  Converged?
 Maximum Force            0.010355     0.000450     NO 
 RMS     Force            0.003583     0.000300     NO 
 Maximum Displacement     0.022228     0.001800     NO 
 RMS     Displacement     0.007483     0.001200     NO 
 Predicted change in Energy=-1.154996D-04
                       ----------------------------
                       ! Non-Optimized Parameters !
                       ! (Angstroms and Degrees)  !
 ----------------------                            ----------------------
 !      Name          Value   Derivative information (Atomic Units)     !
 ------------------------------------------------------------------------
 !       r1          0.969    -DE/DX =    0.0                           !
 !       r2          1.4544   -DE/DX =   -0.001                         !
 !       r3          1.4573   -DE/DX =   -0.0007                        !
 !       r4          1.1712   -DE/DX =   -0.0014                        !
 !       a1         97.5767   -DE/DX =   -0.0006                        !
 !       a2        102.3243   -DE/DX =   -0.0021                        !
 !       a3        109.0407   -DE/DX =   -0.0104                        !
 !       d1        180.0      -DE/DX =    0.0                           !
 !       d2        180.0      -DE/DX =    0.0                           !
 ------------------------------------------------------------------------
 GradGradGradGradGradGradGradGradGradGradGradGradGradGradGradGradGradGrad

 Leave Link  103 at Mon Feb 21 20:55:20 2022, MaxMem= 16106127360 cpu:               1.0 elap:               0.1
 (Enter /sw/contrib/gaussian/g16/B01/g16/l9999.exe)

 ----------------------------------------------------------------------

 Electric dipole moment (input orientation):
 (Debye = 10**-18 statcoulomb cm , SI units = C m)
                  (au)            (Debye)         (10**-30 SI)
   Tot        0.576802D+00      0.146609D+01      0.489033D+01
   x         -0.143482D+00     -0.364695D+00     -0.121649D+01
   y          0.000000D+00      0.000000D+00      0.000000D+00
   z         -0.558672D+00     -0.142000D+01     -0.473661D+01

 Dipole polarizability, Alpha (input orientation).
 (esu units = cm**3 , SI units = C**2 m**2 J**-1)
 Alpha(0;0):
               (au)            (10**-24 esu)      (10**-40 SI)
   iso        0.274751D+02      0.407138D+01      0.453003D+01
   aniso      0.221247D+02      0.327854D+01      0.364787D+01
   xx         0.320967D+02      0.475624D+01      0.529203D+01
   yx         0.000000D+00      0.000000D+00      0.000000D+00
   yy         0.179508D+02      0.266003D+01      0.295969D+01
   zx         0.975264D+01      0.144519D+01      0.160799D+01
   zy         0.000000D+00      0.000000D+00      0.000000D+00
   zz         0.323777D+02      0.479788D+01      0.533836D+01

 ----------------------------------------------------------------------

 Dipole orientation:
     1         -0.00000000         -0.00000000          0.00000000
     8         -0.45549390         -0.00000000         -1.77354074
     8          2.09372663          0.00000000         -2.80342896
     7          1.62919255          0.00000000         -5.52070995
     8          3.54484934          0.00000000         -6.62740867

 Electric dipole moment (dipole orientation):
 (Debye = 10**-18 statcoulomb cm , SI units = C m)
                  (au)            (Debye)         (10**-30 SI)
   Tot        0.576802D+00      0.146609D+01      0.489033D+01
   x          0.000000D+00      0.000000D+00      0.000000D+00
   y          0.000000D+00      0.000000D+00      0.000000D+00
   z          0.576802D+00      0.146609D+01      0.489033D+01

 Dipole polarizability, Alpha (dipole orientation).
 (esu units = cm**3 , SI units = C**2 m**2 J**-1)
 Alpha(0;0):
               (au)            (10**-24 esu)      (10**-40 SI)
   iso        0.274751D+02      0.407138D+01      0.453003D+01
   aniso      0.221247D+02      0.327854D+01      0.364787D+01
   xx         0.274146D+02      0.406242D+01      0.452005D+01
   yx         0.000000D+00      0.000000D+00      0.000000D+00
   yy         0.179508D+02      0.266003D+01      0.295969D+01
   zx        -0.847797D+01     -0.125631D+01     -0.139783D+01
   zy         0.000000D+00      0.000000D+00      0.000000D+00
   zz         0.370598D+02      0.549170D+01      0.611034D+01

 ----------------------------------------------------------------------
 1\1\GINC-N2124\Freq\RMP2-FC\Aug-CC-pVTZ\H1N1O3\CGAVINH\21-Feb-2022\1\\
 #p freq mp2/aug-cc-pvtz density=current\\title\\0,1\H\O,1,r1\O,2,r2,1,
 a1\N,3,r3,2,a2,1,d1,0\O,4,r4,3,a3,2,d2,0\\r1=0.96897556\r2=1.45491931\
 r3=1.45878406\r4=1.17072885\a1=97.59494903\a2=102.29752444\a3=110.3143
 1566\d1=180.\d2=180.\\Version=ES64L-G16RevB.01\State=1-A'\HF=-279.5014
 794\MP2=-280.4466211\RMSD=3.852e-09\RMSF=2.317e-03\ZeroPoint=0.0218455
 \Thermal=0.0259754\Dipole=-0.1434822,0.,-0.5586716\DipoleDeriv=0.26705
 58,0.,0.0486514,0.,0.3557818,0.,0.0831649,0.,0.277457,-0.3255705,0.,-0
 .2062286,0.,-0.3139934,0.,-0.1094338,0.,-0.2207807,-0.0528415,0.,0.143
 4034,0.,-0.0850982,0.,-0.7578814,0.,-1.3761677,0.8917535,0.,0.9154038,
 0.,0.061794,0.,0.9327247,0.,1.7027828,-0.7803973,0.,-0.9012301,0.,-0.0
 184842,0.,-0.1485744,0.,-0.3832915\Polar=32.0966916,0.,17.9507942,9.75
 2636,0.,32.3777082\Quadrupole=-1.5016151,-0.7385323,2.2401474,0.,2.114
 4832,0.\PG=CS [SG(H1N1O3)]\NImag=1\\0.06464223,0.,-0.00241837,0.005170
 05,0.,0.51242290,-0.03586737,0.,-0.01626749,0.27231815,0.,0.00319407,0
 .,0.,0.00209432,0.04837141,0.,-0.50857165,0.03270186,0.,0.59473650,-0.
 01835513,0.,0.01265821,-0.22064877,0.,-0.02089611,0.33992607,0.,0.0009
 4688,0.,0.,-0.00632074,0.,0.,0.00325882,-0.05314781,0.,-0.00035583,-0.
 01933013,0.,-0.07863806,0.03198747,0.,0.17878586,-0.00944514,0.,-0.004
 90160,-0.01640878,0.,-0.05319003,-0.08035521,0.,0.17806140,0.82731277,
 0.,-0.00274805,0.,0.,-0.00534699,0.,0.,0.01093148,0.,0.,0.00510389,0.0
 0526173,0.,-0.00501313,0.01135743,0.,0.01668442,0.06397827,0.,-0.07942
 528,-0.00850775,0.,0.18932441,-0.00097459,0.,0.00334083,0.00060677,0.,
 -0.00698713,-0.02056696,0.,-0.13757094,-0.72110365,0.,-0.07208968,0.74
 203842,0.,0.00102547,0.,0.,0.00637935,0.,0.,-0.00881644,0.,0.,-0.00794
 033,0.,0.,0.00935195,-0.00565539,0.,0.00151771,-0.00846167,0.,-0.02421
 120,-0.08772784,0.,-0.02036669,-0.11146201,0.,-0.12157041,0.21330691,0
 .,0.16463060\\-0.00031857,0.,0.00002421,-0.00058636,0.,-0.00113614,-0.
 00366214,0.,0.00078127,0.00450103,0.,-0.00454750,0.00006603,0.,0.00487
 816\\\@


 CHARLIE BROWN.."I CAN'T GET THAT STUPID KITE IN THE
 AIR... I CAN'T... I C A N N O T..."
 LUCY.."OH COME NOW CHARLIE BROWN...THAT'S NO WAY TO TALK...
 THE TROUBLE WITH YOU IS YOU DON'T BELIEVE IN YOURSELF... YOU
 DON'T BELIEVE IN YOUR OWN ABILITIES...  YOU'VE GOT TO SAY TO
 YOURSELF...'I BELIEVE I CAN FLY THIS KITE.'... GO AHEAD SAY
 IT...."
 CHARLIE BROWN.."I BELIEVE THAT I CAN FLY THIS STUPID
 KITE.....I BELIEVE THAT I CAN FLY THIS KITE........
 I  A C T U A L L Y  B E L I E V E  T H A T  I  C A N ******"
 LUCY.."I'LL BET YOU TEN-TO-ONE YOU'RE WRONG......."    SCHULZ
 Job cpu time:       0 days  2 hours  0 minutes 26.7 seconds.
 Elapsed time:       0 days  0 hours  4 minutes 21.2 seconds.
 File lengths (MBytes):  RWF=   7239 Int=      0 D2E=      0 Chk=      8 Scr=      1
 Normal termination of Gaussian 16 at Mon Feb 21 20:55:21 2022.
