 Entering Gaussian System, Link 0=g16
 Input=hoono_a2_104p2219.gjf
 Output=hoono_a2_104p2219.log
 Initial command:
 /sw/contrib/gaussian/g16/B01/g16/l1.exe "/scr/Gau-29647.inp" -scrdir="/scr/"
 Entering Link 1 = /sw/contrib/gaussian/g16/B01/g16/l1.exe PID=     29648.
  
 Copyright (c) 1988-2017, Gaussian, Inc.  All Rights Reserved.
  
 This is part of the Gaussian(R) 16 program.  It is based on
 the Gaussian(R) 09 system (copyright 2009, Gaussian, Inc.),
 the Gaussian(R) 03 system (copyright 2003, Gaussian, Inc.),
 the Gaussian(R) 98 system (copyright 1998, Gaussian, Inc.),
 the Gaussian(R) 94 system (copyright 1995, Gaussian, Inc.),
 the Gaussian 92(TM) system (copyright 1992, Gaussian, Inc.),
 the Gaussian 90(TM) system (copyright 1990, Gaussian, Inc.),
 the Gaussian 88(TM) system (copyright 1988, Gaussian, Inc.),
 the Gaussian 86(TM) system (copyright 1986, Carnegie Mellon
 University), and the Gaussian 82(TM) system (copyright 1983,
 Carnegie Mellon University). Gaussian is a federally registered
 trademark of Gaussian, Inc.
  
 This software contains proprietary and confidential information,
 including trade secrets, belonging to Gaussian, Inc.
  
 This software is provided under written license and may be
 used, copied, transmitted, or stored only in accord with that
 written license.
  
 The following legend is applicable only to US Government
 contracts under FAR:
  
                    RESTRICTED RIGHTS LEGEND
  
 Use, reproduction and disclosure by the US Government is
 subject to restrictions as set forth in subparagraphs (a)
 and (c) of the Commercial Computer Software - Restricted
 Rights clause in FAR 52.227-19.
  
 Gaussian, Inc.
 340 Quinnipiac St., Bldg. 40, Wallingford CT 06492
  
  
 ---------------------------------------------------------------
 Warning -- This program may not be used in any manner that
 competes with the business of Gaussian, Inc. or will provide
 assistance to any competitor of Gaussian, Inc.  The licensee
 of this program is prohibited from giving any competitor of
 Gaussian, Inc. access to this program.  By using this program,
 the user acknowledges that Gaussian, Inc. is engaged in the
 business of creating and licensing software in the field of
 computational chemistry and represents and warrants to the
 licensee that it is not a competitor of Gaussian, Inc. and that
 it will not use this program in any manner prohibited above.
 ---------------------------------------------------------------
  

 Cite this work as:
 Gaussian 16, Revision B.01,
 M. J. Frisch, G. W. Trucks, H. B. Schlegel, G. E. Scuseria, 
 M. A. Robb, J. R. Cheeseman, G. Scalmani, V. Barone, 
 G. A. Petersson, H. Nakatsuji, X. Li, M. Caricato, A. V. Marenich, 
 J. Bloino, B. G. Janesko, R. Gomperts, B. Mennucci, H. P. Hratchian, 
 J. V. Ortiz, A. F. Izmaylov, J. L. Sonnenberg, D. Williams-Young, 
 F. Ding, F. Lipparini, F. Egidi, J. Goings, B. Peng, A. Petrone, 
 T. Henderson, D. Ranasinghe, V. G. Zakrzewski, J. Gao, N. Rega, 
 G. Zheng, W. Liang, M. Hada, M. Ehara, K. Toyota, R. Fukuda, 
 J. Hasegawa, M. Ishida, T. Nakajima, Y. Honda, O. Kitao, H. Nakai, 
 T. Vreven, K. Throssell, J. A. Montgomery, Jr., J. E. Peralta, 
 F. Ogliaro, M. J. Bearpark, J. J. Heyd, E. N. Brothers, K. N. Kudin, 
 V. N. Staroverov, T. A. Keith, R. Kobayashi, J. Normand, 
 K. Raghavachari, A. P. Rendell, J. C. Burant, S. S. Iyengar, 
 J. Tomasi, M. Cossi, J. M. Millam, M. Klene, C. Adamo, R. Cammi, 
 J. W. Ochterski, R. L. Martin, K. Morokuma, O. Farkas, 
 J. B. Foresman, and D. J. Fox, Gaussian, Inc., Wallingford CT, 2016.
 
 ******************************************
 Gaussian 16:  ES64L-G16RevB.01 20-Dec-2017
                21-Feb-2022 
 ******************************************
 %nproc=28
 Will use up to   28 processors via shared memory.
 %mem=120GB
 %chk=hoono_a2_104p2219.chk
 ---------------------------------------
 #p freq mp2/aug-cc-pvtz density=current
 ---------------------------------------
 1/10=4,30=1,38=1/1,3;
 2/12=2,17=6,18=5,40=1/2;
 3/5=16,6=1,7=10,11=9,25=1,30=1,71=2,140=1/1,2,3;
 4//1;
 5/5=2,38=5,98=1/2;
 8/6=3,8=1,10=1,19=11,30=-1/1;
 9/15=3,16=-3/6;
 11/6=1,8=1,15=11,17=12,24=-1,27=1,28=-2,29=300,32=6,42=3/1,2,10;
 10/6=2,21=1/2;
 8/6=4,8=1,10=1,19=11,30=-1/11,4;
 10/5=1,20=4/2;
 11/12=2,14=11,16=1,17=2,28=-2,42=3,76=2/2,10,12;
 6/7=2,8=2,9=2,10=2,22=-1/1;
 7/8=1,10=1,12=2,25=1,44=2/1,2,3,16;
 1/10=4,30=1/3;
 99//99;
 Leave Link    1 at Mon Feb 21 20:42:39 2022, MaxMem= 16106127360 cpu:               4.2 elap:               0.2
 (Enter /sw/contrib/gaussian/g16/B01/g16/l101.exe)
 -----
 title
 -----
 Symbolic Z-matrix:
 Charge =  0 Multiplicity = 1
 H
 O                    1    r1
 O                    2    r2       1    a1
 N                    3    r3       2    a2       1    d1       0
 O                    4    r4       3    a3       2    d2       0
       Variables:
  r1                    0.96898                  
  r2                    1.45492                  
  r3                    1.45878                  
  r4                    1.17073                  
  a1                   97.59495                  
  a2                  104.22191                  
  a3                  109.06955                  
  d1                  180.                       
  d2                  180.                       
 
 ITRead=  0  0  0  0  0
 MicOpt= -1 -1 -1 -1 -1
 NAtoms=      5 NQM=        5 NQMF=       0 NMMI=      0 NMMIF=      0
                NMic=       0 NMicF=      0.
                    Isotopes and Nuclear Properties:
 (Nuclear quadrupole moments (NQMom) in fm**2, nuclear magnetic moments (NMagM)
  in nuclear magnetons)

  Atom         1           2           3           4           5
 IAtWgt=           1          16          16          14          16
 AtmWgt=   1.0078250  15.9949146  15.9949146  14.0030740  15.9949146
 NucSpn=           1           0           0           2           0
 AtZEff=  -0.0000000  -0.0000000  -0.0000000  -0.0000000  -0.0000000
 NQMom=    0.0000000   0.0000000   0.0000000   2.0440000   0.0000000
 NMagM=    2.7928460   0.0000000   0.0000000   0.4037610   0.0000000
 AtZNuc=   1.0000000   8.0000000   8.0000000   7.0000000   8.0000000
 Leave Link  101 at Mon Feb 21 20:42:39 2022, MaxMem= 16106127360 cpu:               3.0 elap:               0.1
 (Enter /sw/contrib/gaussian/g16/B01/g16/l103.exe)

 GradGradGradGradGradGradGradGradGradGradGradGradGradGradGradGradGradGrad
 Berny optimization.
 Initialization pass.
                       ----------------------------
                       !    Initial Parameters    !
                       ! (Angstroms and Degrees)  !
 ----------------------                            ----------------------
 !      Name          Value   Derivative information (Atomic Units)     !
 ------------------------------------------------------------------------
 !       r1          0.969    calculate D2E/DX2 analytically            !
 !       r2          1.4549   calculate D2E/DX2 analytically            !
 !       r3          1.4588   calculate D2E/DX2 analytically            !
 !       r4          1.1707   calculate D2E/DX2 analytically            !
 !       a1         97.5949   calculate D2E/DX2 analytically            !
 !       a2        104.2219   calculate D2E/DX2 analytically            !
 !       a3        109.0696   calculate D2E/DX2 analytically            !
 !       d1        180.0      calculate D2E/DX2 analytically            !
 !       d2        180.0      calculate D2E/DX2 analytically            !
 ------------------------------------------------------------------------
 Trust Radius=3.00D-01 FncErr=1.00D-07 GrdErr=1.00D-07 EigMax=2.50D+02 EigMin=1.00D-04
 Number of steps in this run=      2 maximum allowed number of steps=      2.
 GradGradGradGradGradGradGradGradGradGradGradGradGradGradGradGradGradGrad

 Leave Link  103 at Mon Feb 21 20:42:39 2022, MaxMem= 16106127360 cpu:               0.5 elap:               0.0
 (Enter /sw/contrib/gaussian/g16/B01/g16/l202.exe)
                          Input orientation:                          
 ---------------------------------------------------------------------
 Center     Atomic      Atomic             Coordinates (Angstroms)
 Number     Number       Type             X           Y           Z
 ---------------------------------------------------------------------
      1          1           0        0.000000    0.000000    0.000000
      2          8           0        0.000000    0.000000    0.968976
      3          8           0        1.442156    0.000000    1.161271
      4          7           0        1.610506    0.000000    2.610308
      5          8           0        2.753737    0.000000    2.862555
 ---------------------------------------------------------------------
                    Distance matrix (angstroms):
                    1          2          3          4          5
     1  H    0.000000
     2  O    0.968976   0.000000
     3  O    1.851584   1.454919   0.000000
     4  N    3.067155   2.299500   1.458784   0.000000
     5  O    3.972064   3.341962   2.148165   1.170729   0.000000
 Stoichiometry    HNO3
 Framework group  CS[SG(HNO3)]
 Deg. of freedom     7
 Full point group                 CS      NOp   2
 Largest Abelian subgroup         CS      NOp   2
 Largest concise Abelian subgroup C1      NOp   1
                         Standard orientation:                         
 ---------------------------------------------------------------------
 Center     Atomic      Atomic             Coordinates (Angstroms)
 Number     Number       Type             X           Y           Z
 ---------------------------------------------------------------------
      1          1           0        1.511402    1.728795    0.000000
      2          8           0        1.451306    0.761685   -0.000000
      3          8           0       -0.000000    0.659203    0.000000
      4          7           0       -0.257896   -0.776603   -0.000000
      5          8           0       -1.414571   -0.957460   -0.000000
 ---------------------------------------------------------------------
 Rotational constants (GHZ):          56.6346170           4.9414179           4.5448738
 Leave Link  202 at Mon Feb 21 20:42:39 2022, MaxMem= 16106127360 cpu:               0.3 elap:               0.0
 (Enter /sw/contrib/gaussian/g16/B01/g16/l301.exe)
 Standard basis: Aug-CC-pVTZ (5D, 7F)
 Ernie: Thresh=  0.10000D-02 Tol=  0.10000D-05 Strict=F.
 Ernie:  12 primitive shells out of 131 were deleted.
 There are   166 symmetry adapted cartesian basis functions of A'  symmetry.
 There are    79 symmetry adapted cartesian basis functions of A"  symmetry.
 There are   136 symmetry adapted basis functions of A'  symmetry.
 There are    71 symmetry adapted basis functions of A"  symmetry.
   207 basis functions,   315 primitive gaussians,   245 cartesian basis functions
    16 alpha electrons       16 beta electrons
       nuclear repulsion energy       116.6199512454 Hartrees.
 IExCor=    0 DFT=F Ex=HF Corr=None ExCW=0 ScaHFX=  1.000000
 ScaDFX=  1.000000  1.000000  1.000000  1.000000 ScalE2=  1.000000  1.000000
 IRadAn=      5 IRanWt=     -1 IRanGd=            0 ICorTp=0 IEmpDi=  4
 NAtoms=    5 NActive=    5 NUniq=    5 SFac= 1.00D+00 NAtFMM=   60 NAOKFM=F Big=F
 Integral buffers will be    131072 words long.
 Raffenetti 1 integral format.
 Two-electron integral symmetry is turned on.
 Leave Link  301 at Mon Feb 21 20:42:39 2022, MaxMem= 16106127360 cpu:               3.6 elap:               0.2
 (Enter /sw/contrib/gaussian/g16/B01/g16/l302.exe)
 NPDir=0 NMtPBC=     1 NCelOv=     1 NCel=       1 NClECP=     1 NCelD=      1
         NCelK=      1 NCelE2=     1 NClLst=     1 CellRange=     0.0.
 One-electron integrals computed using PRISM.
 One-electron integral symmetry used in STVInt
 NBasis=   207 RedAO= T EigKep=  1.81D-04  NBF=   136    71
 NBsUse=   207 1.00D-06 EigRej= -1.00D+00 NBFU=   136    71
 Leave Link  302 at Mon Feb 21 20:42:39 2022, MaxMem= 16106127360 cpu:               4.5 elap:               0.2
 (Enter /sw/contrib/gaussian/g16/B01/g16/l303.exe)
 DipDrv:  MaxL=1.
 Leave Link  303 at Mon Feb 21 20:42:39 2022, MaxMem= 16106127360 cpu:               0.9 elap:               0.1
 (Enter /sw/contrib/gaussian/g16/B01/g16/l401.exe)
 ExpMin= 2.53D-02 ExpMax= 1.53D+04 ExpMxC= 5.22D+02 IAcc=3 IRadAn=         5 AccDes= 0.00D+00
 Harris functional with IExCor=  205 and IRadAn=       5 diagonalized for initial guess.
 HarFok:  IExCor=  205 AccDes= 0.00D+00 IRadAn=         5 IDoV= 1 UseB2=F ITyADJ=14
 ICtDFT=  3500011 ScaDFX=  1.000000  1.000000  1.000000  1.000000
 FoFCou: FMM=F IPFlag=           0 FMFlag=      100000 FMFlg1=           0
         NFxFlg=           0 DoJE=T BraDBF=F KetDBF=T FulRan=T
         wScrn=  0.000000 ICntrl=       500 IOpCl=  0 I1Cent=   200000004 NGrid=           0
         NMat0=    1 NMatS0=      1 NMatT0=    0 NMatD0=    1 NMtDS0=    0 NMtDT0=    0
 Petite list used in FoFCou.
 Harris En= -279.628884873594    
 JPrj=0 DoOrth=F DoCkMO=F.
 Initial guess orbital symmetries:
       Occupied  (A') (A') (A') (A') (A') (A') (A') (A') (A') (A')
                 (A") (A') (A') (A") (A") (A')
       Virtual   (A") (A') (A') (A') (A') (A') (A") (A') (A') (A')
                 (A") (A') (A") (A') (A') (A") (A') (A") (A') (A')
                 (A') (A') (A') (A') (A') (A") (A') (A") (A') (A')
                 (A") (A') (A") (A') (A') (A") (A') (A") (A') (A')
                 (A") (A') (A") (A') (A") (A') (A') (A') (A") (A")
                 (A') (A') (A') (A') (A") (A') (A") (A') (A") (A')
                 (A') (A') (A") (A') (A') (A") (A') (A") (A') (A')
                 (A") (A') (A') (A") (A") (A') (A') (A") (A') (A')
                 (A') (A") (A') (A") (A') (A") (A') (A") (A') (A')
                 (A') (A") (A') (A") (A') (A") (A") (A') (A') (A')
                 (A") (A') (A") (A') (A') (A") (A') (A') (A") (A')
                 (A") (A') (A') (A') (A") (A') (A') (A') (A") (A')
                 (A") (A') (A') (A") (A") (A') (A") (A') (A") (A')
                 (A') (A') (A') (A") (A") (A') (A") (A') (A') (A')
                 (A') (A") (A") (A') (A') (A") (A') (A') (A') (A')
                 (A") (A') (A') (A") (A') (A") (A') (A") (A') (A")
                 (A') (A") (A') (A") (A') (A") (A") (A") (A') (A')
                 (A") (A') (A") (A') (A") (A') (A") (A") (A') (A')
                 (A') (A') (A') (A') (A') (A') (A') (A') (A') (A')
                 (A')
 The electronic state of the initial guess is 1-A'.
 Leave Link  401 at Mon Feb 21 20:42:39 2022, MaxMem= 16106127360 cpu:               6.8 elap:               0.3
 (Enter /sw/contrib/gaussian/g16/B01/g16/l502.exe)
 Keep R1 ints in memory in symmetry-blocked form, NReq=348887737.
 FoFCou: FMM=F IPFlag=           0 FMFlag=           0 FMFlg1=           0
         NFxFlg=           0 DoJE=F BraDBF=F KetDBF=F FulRan=T
         wScrn=  0.000000 ICntrl=       600 IOpCl=  0 I1Cent=           0 NGrid=           0
         NMat0=    1 NMatS0=  21528 NMatT0=    0 NMatD0=    1 NMtDS0=    0 NMtDT0=    0
 Petite list used in FoFCou.
 Closed shell SCF:
 Using DIIS extrapolation, IDIIS=  1040.
 NGot= 16106127360 LenX= 15988850015 LenY= 15988789549
 Requested convergence on RMS density matrix=1.00D-08 within 128 cycles.
 Requested convergence on MAX density matrix=1.00D-06.
 Requested convergence on             energy=1.00D-06.
 No special actions if energy rises.

 Cycle   1  Pass 1  IDiag  1:
 E= -279.370700707966    
 DIIS: error= 2.47D-02 at cycle   1 NSaved=   1.
 NSaved= 1 IEnMin= 1 EnMin= -279.370700707966     IErMin= 1 ErrMin= 2.47D-02
 ErrMax= 2.47D-02  0.00D+00 EMaxC= 1.00D-01 BMatC= 4.38D-01 BMatP= 4.38D-01
 IDIUse=3 WtCom= 7.53D-01 WtEn= 2.47D-01
 Coeff-Com:  0.100D+01
 Coeff-En:   0.100D+01
 Coeff:      0.100D+01
 Gap=     0.512 Goal=   None    Shift=    0.000
 GapD=    0.512 DampG=2.000 DampE=0.500 DampFc=1.0000 IDamp=-1.
 RMSDP=1.62D-03 MaxDP=9.97D-02              OVMax= 1.12D-01

 Cycle   2  Pass 1  IDiag  1:
 E= -279.452604054290     Delta-E=       -0.081903346324 Rises=F Damp=F
 DIIS: error= 1.77D-02 at cycle   2 NSaved=   2.
 NSaved= 2 IEnMin= 2 EnMin= -279.452604054290     IErMin= 2 ErrMin= 1.77D-02
 ErrMax= 1.77D-02  0.00D+00 EMaxC= 1.00D-01 BMatC= 7.14D-02 BMatP= 4.38D-01
 IDIUse=3 WtCom= 8.23D-01 WtEn= 1.77D-01
 Coeff-Com:  0.194D+00 0.806D+00
 Coeff-En:   0.000D+00 0.100D+01
 Coeff:      0.160D+00 0.840D+00
 Gap=     0.529 Goal=   None    Shift=    0.000
 RMSDP=8.99D-04 MaxDP=3.73D-02 DE=-8.19D-02 OVMax= 6.93D-02

 Cycle   3  Pass 1  IDiag  1:
 E= -279.481504531870     Delta-E=       -0.028900477581 Rises=F Damp=F
 DIIS: error= 1.04D-02 at cycle   3 NSaved=   3.
 NSaved= 3 IEnMin= 3 EnMin= -279.481504531870     IErMin= 3 ErrMin= 1.04D-02
 ErrMax= 1.04D-02  0.00D+00 EMaxC= 1.00D-01 BMatC= 2.87D-02 BMatP= 7.14D-02
 IDIUse=3 WtCom= 8.96D-01 WtEn= 1.04D-01
 Coeff-Com: -0.331D-01 0.379D+00 0.654D+00
 Coeff-En:   0.000D+00 0.242D+00 0.758D+00
 Coeff:     -0.296D-01 0.365D+00 0.665D+00
 Gap=     0.510 Goal=   None    Shift=    0.000
 RMSDP=3.76D-04 MaxDP=1.55D-02 DE=-2.89D-02 OVMax= 3.81D-02

 Cycle   4  Pass 1  IDiag  1:
 E= -279.500573780783     Delta-E=       -0.019069248913 Rises=F Damp=F
 DIIS: error= 1.36D-03 at cycle   4 NSaved=   4.
 NSaved= 4 IEnMin= 4 EnMin= -279.500573780783     IErMin= 4 ErrMin= 1.36D-03
 ErrMax= 1.36D-03  0.00D+00 EMaxC= 1.00D-01 BMatC= 4.95D-04 BMatP= 2.87D-02
 IDIUse=3 WtCom= 9.86D-01 WtEn= 1.36D-02
 Coeff-Com: -0.117D-01 0.578D-01 0.159D+00 0.795D+00
 Coeff-En:   0.000D+00 0.000D+00 0.000D+00 0.100D+01
 Coeff:     -0.115D-01 0.570D-01 0.156D+00 0.798D+00
 Gap=     0.502 Goal=   None    Shift=    0.000
 RMSDP=9.05D-05 MaxDP=2.78D-03 DE=-1.91D-02 OVMax= 1.12D-02

 Cycle   5  Pass 1  IDiag  1:
 E= -279.501253045848     Delta-E=       -0.000679265064 Rises=F Damp=F
 DIIS: error= 7.55D-04 at cycle   5 NSaved=   5.
 NSaved= 5 IEnMin= 5 EnMin= -279.501253045848     IErMin= 5 ErrMin= 7.55D-04
 ErrMax= 7.55D-04  0.00D+00 EMaxC= 1.00D-01 BMatC= 8.78D-05 BMatP= 4.95D-04
 IDIUse=3 WtCom= 9.92D-01 WtEn= 7.55D-03
 Coeff-Com:  0.615D-02-0.728D-01-0.118D+00 0.215D-01 0.116D+01
 Coeff-En:   0.000D+00 0.000D+00 0.000D+00 0.000D+00 0.100D+01
 Coeff:      0.610D-02-0.723D-01-0.117D+00 0.214D-01 0.116D+01
 Gap=     0.502 Goal=   None    Shift=    0.000
 RMSDP=7.68D-05 MaxDP=2.11D-03 DE=-6.79D-04 OVMax= 1.12D-02

 Cycle   6  Pass 1  IDiag  1:
 E= -279.501571335304     Delta-E=       -0.000318289456 Rises=F Damp=F
 DIIS: error= 2.86D-04 at cycle   6 NSaved=   6.
 NSaved= 6 IEnMin= 6 EnMin= -279.501571335304     IErMin= 6 ErrMin= 2.86D-04
 ErrMax= 2.86D-04  0.00D+00 EMaxC= 1.00D-01 BMatC= 1.69D-05 BMatP= 8.78D-05
 IDIUse=3 WtCom= 9.97D-01 WtEn= 2.86D-03
 Coeff-Com:  0.572D-03 0.195D-02 0.509D-02-0.132D+00-0.234D+00 0.136D+01
 Coeff-En:   0.000D+00 0.000D+00 0.000D+00 0.000D+00 0.000D+00 0.100D+01
 Coeff:      0.570D-03 0.195D-02 0.508D-02-0.131D+00-0.233D+00 0.136D+01
 Gap=     0.502 Goal=   None    Shift=    0.000
 RMSDP=4.58D-05 MaxDP=1.26D-03 DE=-3.18D-04 OVMax= 5.61D-03

 Cycle   7  Pass 1  IDiag  1:
 E= -279.501645237831     Delta-E=       -0.000073902527 Rises=F Damp=F
 DIIS: error= 1.24D-04 at cycle   7 NSaved=   7.
 NSaved= 7 IEnMin= 7 EnMin= -279.501645237831     IErMin= 7 ErrMin= 1.24D-04
 ErrMax= 1.24D-04  0.00D+00 EMaxC= 1.00D-01 BMatC= 4.48D-06 BMatP= 1.69D-05
 IDIUse=3 WtCom= 9.99D-01 WtEn= 1.24D-03
 Coeff-Com: -0.952D-03 0.137D-01 0.267D-01-0.235D-01-0.285D+00 0.378D+00
 Coeff-Com:  0.891D+00
 Coeff-En:   0.000D+00 0.000D+00 0.000D+00 0.000D+00 0.000D+00 0.000D+00
 Coeff-En:   0.100D+01
 Coeff:     -0.951D-03 0.137D-01 0.266D-01-0.235D-01-0.284D+00 0.378D+00
 Coeff:      0.891D+00
 Gap=     0.502 Goal=   None    Shift=    0.000
 RMSDP=1.34D-05 MaxDP=3.83D-04 DE=-7.39D-05 OVMax= 1.56D-03

 Cycle   8  Pass 1  IDiag  1:
 E= -279.501654232118     Delta-E=       -0.000008994287 Rises=F Damp=F
 DIIS: error= 5.96D-05 at cycle   8 NSaved=   8.
 NSaved= 8 IEnMin= 8 EnMin= -279.501654232118     IErMin= 8 ErrMin= 5.96D-05
 ErrMax= 5.96D-05  0.00D+00 EMaxC= 1.00D-01 BMatC= 6.16D-07 BMatP= 4.48D-06
 IDIUse=1 WtCom= 1.00D+00 WtEn= 0.00D+00
 Coeff-Com: -0.451D-03 0.348D-02 0.764D-02 0.275D-01-0.412D-01-0.198D+00
 Coeff-Com:  0.180D+00 0.102D+01
 Coeff:     -0.451D-03 0.348D-02 0.764D-02 0.275D-01-0.412D-01-0.198D+00
 Coeff:      0.180D+00 0.102D+01
 Gap=     0.502 Goal=   None    Shift=    0.000
 RMSDP=6.97D-06 MaxDP=2.05D-04 DE=-8.99D-06 OVMax= 7.55D-04

 Cycle   9  Pass 1  IDiag  1:
 E= -279.501656033553     Delta-E=       -0.000001801435 Rises=F Damp=F
 DIIS: error= 1.48D-05 at cycle   9 NSaved=   9.
 NSaved= 9 IEnMin= 9 EnMin= -279.501656033553     IErMin= 9 ErrMin= 1.48D-05
 ErrMax= 1.48D-05  0.00D+00 EMaxC= 1.00D-01 BMatC= 7.18D-08 BMatP= 6.16D-07
 IDIUse=1 WtCom= 1.00D+00 WtEn= 0.00D+00
 Coeff-Com:  0.122D-03-0.173D-02-0.309D-02-0.183D-02 0.342D-01-0.112D-02
 Coeff-Com: -0.170D+00-0.903D-01 0.123D+01
 Coeff:      0.122D-03-0.173D-02-0.309D-02-0.183D-02 0.342D-01-0.112D-02
 Coeff:     -0.170D+00-0.903D-01 0.123D+01
 Gap=     0.502 Goal=   None    Shift=    0.000
 RMSDP=1.97D-06 MaxDP=6.67D-05 DE=-1.80D-06 OVMax= 1.77D-04

 Cycle  10  Pass 1  IDiag  1:
 E= -279.501656198155     Delta-E=       -0.000000164602 Rises=F Damp=F
 DIIS: error= 3.91D-06 at cycle  10 NSaved=  10.
 NSaved=10 IEnMin=10 EnMin= -279.501656198155     IErMin=10 ErrMin= 3.91D-06
 ErrMax= 3.91D-06  0.00D+00 EMaxC= 1.00D-01 BMatC= 5.67D-09 BMatP= 7.18D-08
 IDIUse=1 WtCom= 1.00D+00 WtEn= 0.00D+00
 Coeff-Com:  0.323D-04-0.256D-03-0.350D-03-0.276D-02 0.186D-02 0.200D-01
 Coeff-Com: -0.148D-01-0.751D-01-0.754D-01 0.115D+01
 Coeff:      0.323D-04-0.256D-03-0.350D-03-0.276D-02 0.186D-02 0.200D-01
 Coeff:     -0.148D-01-0.751D-01-0.754D-01 0.115D+01
 Gap=     0.502 Goal=   None    Shift=    0.000
 RMSDP=5.14D-07 MaxDP=2.14D-05 DE=-1.65D-07 OVMax= 4.19D-05

 Cycle  11  Pass 1  IDiag  1:
 E= -279.501656211041     Delta-E=       -0.000000012886 Rises=F Damp=F
 DIIS: error= 2.04D-06 at cycle  11 NSaved=  11.
 NSaved=11 IEnMin=11 EnMin= -279.501656211041     IErMin=11 ErrMin= 2.04D-06
 ErrMax= 2.04D-06  0.00D+00 EMaxC= 1.00D-01 BMatC= 6.75D-10 BMatP= 5.67D-09
 IDIUse=1 WtCom= 1.00D+00 WtEn= 0.00D+00
 Coeff-Com: -0.215D-04 0.247D-03 0.492D-03 0.530D-03-0.429D-02-0.364D-02
 Coeff-Com:  0.217D-01 0.302D-01-0.138D+00-0.183D+00 0.128D+01
 Coeff:     -0.215D-04 0.247D-03 0.492D-03 0.530D-03-0.429D-02-0.364D-02
 Coeff:      0.217D-01 0.302D-01-0.138D+00-0.183D+00 0.128D+01
 Gap=     0.502 Goal=   None    Shift=    0.000
 RMSDP=1.81D-07 MaxDP=6.73D-06 DE=-1.29D-08 OVMax= 1.75D-05

 Cycle  12  Pass 1  IDiag  1:
 E= -279.501656212897     Delta-E=       -0.000000001856 Rises=F Damp=F
 DIIS: error= 6.05D-07 at cycle  12 NSaved=  12.
 NSaved=12 IEnMin=12 EnMin= -279.501656212897     IErMin=12 ErrMin= 6.05D-07
 ErrMax= 6.05D-07  0.00D+00 EMaxC= 1.00D-01 BMatC= 7.35D-11 BMatP= 6.75D-10
 IDIUse=1 WtCom= 1.00D+00 WtEn= 0.00D+00
 Coeff-Com:  0.126D-05-0.297D-04-0.638D-04 0.183D-03 0.109D-02-0.230D-02
 Coeff-Com: -0.418D-02 0.553D-02 0.417D-01-0.110D+00-0.291D+00 0.136D+01
 Coeff:      0.126D-05-0.297D-04-0.638D-04 0.183D-03 0.109D-02-0.230D-02
 Coeff:     -0.418D-02 0.553D-02 0.417D-01-0.110D+00-0.291D+00 0.136D+01
 Gap=     0.502 Goal=   None    Shift=    0.000
 RMSDP=7.35D-08 MaxDP=2.92D-06 DE=-1.86D-09 OVMax= 6.73D-06

 Cycle  13  Pass 1  IDiag  1:
 E= -279.501656213134     Delta-E=       -0.000000000237 Rises=F Damp=F
 DIIS: error= 1.72D-07 at cycle  13 NSaved=  13.
 NSaved=13 IEnMin=13 EnMin= -279.501656213134     IErMin=13 ErrMin= 1.72D-07
 ErrMax= 1.72D-07  0.00D+00 EMaxC= 1.00D-01 BMatC= 4.11D-12 BMatP= 7.35D-11
 IDIUse=1 WtCom= 1.00D+00 WtEn= 0.00D+00
 Coeff-Com:  0.129D-05-0.141D-04-0.226D-04-0.899D-04 0.121D-03 0.771D-03
 Coeff-Com: -0.870D-03-0.324D-02 0.490D-03 0.407D-01-0.330D-01-0.330D+00
 Coeff-Com:  0.132D+01
 Coeff:      0.129D-05-0.141D-04-0.226D-04-0.899D-04 0.121D-03 0.771D-03
 Coeff:     -0.870D-03-0.324D-02 0.490D-03 0.407D-01-0.330D-01-0.330D+00
 Coeff:      0.132D+01
 Gap=     0.502 Goal=   None    Shift=    0.000
 RMSDP=1.95D-08 MaxDP=5.64D-07 DE=-2.37D-10 OVMax= 1.58D-06

 Cycle  14  Pass 1  IDiag  1:
 E= -279.501656213146     Delta-E=       -0.000000000012 Rises=F Damp=F
 DIIS: error= 2.49D-08 at cycle  14 NSaved=  14.
 NSaved=14 IEnMin=14 EnMin= -279.501656213146     IErMin=14 ErrMin= 2.49D-08
 ErrMax= 2.49D-08  0.00D+00 EMaxC= 1.00D-01 BMatC= 1.96D-13 BMatP= 4.11D-12
 IDIUse=1 WtCom= 1.00D+00 WtEn= 0.00D+00
 Coeff-Com: -0.188D-06 0.310D-05 0.554D-05 0.447D-05-0.820D-04 0.454D-04
 Coeff-Com:  0.285D-03 0.209D-03-0.240D-02 0.132D-02 0.172D-01-0.258D-01
 Coeff-Com: -0.198D+00 0.121D+01
 Coeff:     -0.188D-06 0.310D-05 0.554D-05 0.447D-05-0.820D-04 0.454D-04
 Coeff:      0.285D-03 0.209D-03-0.240D-02 0.132D-02 0.172D-01-0.258D-01
 Coeff:     -0.198D+00 0.121D+01
 Gap=     0.502 Goal=   None    Shift=    0.000
 RMSDP=3.81D-09 MaxDP=9.34D-08 DE=-1.23D-11 OVMax= 3.41D-07

 SCF Done:  E(RHF) =  -279.501656213     A.U. after   14 cycles
            NFock= 14  Conv=0.38D-08     -V/T= 2.0024
 KE= 2.788348056151D+02 PE=-8.945533676733D+02 EE= 2.195969545995D+02
 Leave Link  502 at Mon Feb 21 20:42:44 2022, MaxMem= 16106127360 cpu:              63.1 elap:               4.0
 (Enter /sw/contrib/gaussian/g16/B01/g16/l801.exe)
 ExpMin= 2.53D-02 ExpMax= 1.53D+04 ExpMxC= 5.22D+02 IAcc=3 IRadAn=         5 AccDes= 0.00D+00
 HarFok:  IExCor=  205 AccDes= 0.00D+00 IRadAn=         5 IDoV=-2 UseB2=F ITyADJ=14
 ICtDFT= 12500011 ScaDFX=  1.000000  1.000000  1.000000  1.000000
 Largest valence mixing into a core orbital is  2.08D-04
 Largest core mixing into a valence orbital is  3.62D-05
 Range of M.O.s used for correlation:     5   207
 NBasis=   207 NAE=    16 NBE=    16 NFC=     4 NFV=     0
 NROrb=    203 NOA=    12 NOB=    12 NVA=   191 NVB=   191

 **** Warning!!: The largest alpha MO coefficient is  0.17114572D+02

 Leave Link  801 at Mon Feb 21 20:42:44 2022, MaxMem= 16106127360 cpu:               2.3 elap:               0.1
 (Enter /sw/contrib/gaussian/g16/B01/g16/l906.exe)
 Frozen-core derivative calculation, NFC=   4 NFV=   0.
 FulOut=F Deriv=T AODrv=T NAtomX=     5
   MMem=           0  MDisk=          12 MDiskD=          12
  W3Min=      811440 MinDsk=     2425030 NBas6D=         245
 NBas2D=       30762    NTT=       30135    LW2=     7400000
    MDV= 16105574311 MDiskM=      328644 NBas2p=       30702
 Disk-based method using ON**2 memory for 12 occupieds at a time.
 Permanent disk used for amplitudes=    11516536 words.
 Estimated scratch disk usage=   321251614 words.
 IMap=   1   2   3   4   5   6   7   8   9  10  11  12  13  14  15  16
 Actual    scratch disk usage=   310331678 words.
 JobTyp=1 Pass  1:  I=   5 to  16 NPSUse= 28 ParTrn=T ParDer=T DoDerP=T.
 (rs|ai) integrals will be sorted in core.
 Spin components of T(2) and E(2):
     alpha-alpha T2 =       0.3403457968D-01 E2=     -0.1223869412D+00
     alpha-beta  T2 =       0.1868559758D+00 E2=     -0.7001480713D+00
     beta-beta   T2 =       0.3403457968D-01 E2=     -0.1223869412D+00
 The integrals were generated   1 times.
 ANorm=    0.1120234411D+01
 E2 =    -0.9449219538D+00 EUMP2 =    -0.28044657816691D+03
 Leave Link  906 at Mon Feb 21 20:44:20 2022, MaxMem= 16106127360 cpu:            2701.0 elap:              96.6
 (Enter /sw/contrib/gaussian/g16/B01/g16/l1101.exe)
 Using compressed Sx but separate Hx and Fx, NAtomX=     5.
 Will process      6 centers per pass.
 Leave Link 1101 at Mon Feb 21 20:44:21 2022, MaxMem= 16106127360 cpu:               5.7 elap:               0.2
 (Enter /sw/contrib/gaussian/g16/B01/g16/l1102.exe)
 Leave Link 1102 at Mon Feb 21 20:44:21 2022, MaxMem= 16106127360 cpu:               0.5 elap:               0.0
 (Enter /sw/contrib/gaussian/g16/B01/g16/l1110.exe)
 Forming Gx(P) for the SCF density, NAtomX=     5.
 Integral derivatives from FoFJK, PRISM(SPDF).
 Do as many integral derivatives as possible in FoFJK.
 G2DrvN: MDV=   16106126844.
 G2DrvN: will do     6 centers at a time, making    1 passes.
 Calling FoFCou, ICntrl=  3107 FMM=F I1Cent=   0 AccDes= 0.00D+00.
 FoFJK:  IHMeth= 1 ICntrl=    3107 DoSepK=F KAlg= 0 I1Cent=           0 FoldK=F
 IRaf=         0 NMat=       1 IRICut=       1 DoRegI=T DoRafI=F ISym2E= 1 IDoP0=0 IntGTp=1.
 FoFCou: FMM=F IPFlag=           0 FMFlag=      100000 FMFlg1=           0
         NFxFlg=           0 DoJE=F BraDBF=F KetDBF=F FulRan=T
         wScrn=  0.000000 ICntrl=      3107 IOpCl=  0 I1Cent=           0 NGrid=           0
         NMat0=    1 NMatS0=      1 NMatT0=    0 NMatD0=    1 NMtDS0=    0 NMtDT0=    0
 Petite list used in FoFCou.
 End of G2Drv F.D. properties file   721 does not exist.
 End of G2Drv F.D. properties file   722 does not exist.
 End of G2Drv F.D. properties file   788 does not exist.
 Leave Link 1110 at Mon Feb 21 20:44:24 2022, MaxMem= 16106127360 cpu:              83.2 elap:               3.0
 (Enter /sw/contrib/gaussian/g16/B01/g16/l1002.exe)
 Minotr:  Closed shell wavefunction.
          IDoAtm=11111
          Frozen-core window.
          Direct CPHF calculation.
          Differentiating once with respect to electric field.
                with respect to dipole field.
          Differentiating once with respect to nuclear coordinates.
          Requested convergence is 1.0D-08 RMS, and 1.0D-07 maximum.
          Secondary convergence is 1.0D-12 RMS, and 1.0D-12 maximum.
          NewPWx=T KeepS1=T KeepF1=T KeepIn=T MapXYZ=F SortEE=F KeepMc=T.
 Keep R1 ints in memory in symmetry-blocked form, NReq=348888983.
 FoFCou: FMM=F IPFlag=           0 FMFlag=           0 FMFlg1=           0
         NFxFlg=           0 DoJE=F BraDBF=F KetDBF=F FulRan=T
         wScrn=  0.000000 ICntrl=       600 IOpCl=  0 I1Cent=           0 NGrid=           0
         NMat0=    1 NMatS0=  21528 NMatT0=    0 NMatD0=    1 NMtDS0=    0 NMtDT0=    0
 Petite list used in FoFCou.
          MDV=   16106127360 using IRadAn=       1.
          Solving linear equations simultaneously, MaxMat=       0.
          There are    18 degrees of freedom in the 1st order CPHF.  IDoFFX=6 NUNeed=    18.
     15 vectors produced by pass  0 Test12= 1.70D-14 5.56D-09 XBig12= 8.29D+00 1.06D+00.
 AX will form    15 AO Fock derivatives at one time.
     15 vectors produced by pass  1 Test12= 1.70D-14 5.56D-09 XBig12= 1.34D+00 2.46D-01.
     15 vectors produced by pass  2 Test12= 1.70D-14 5.56D-09 XBig12= 1.42D-01 9.94D-02.
     15 vectors produced by pass  3 Test12= 1.70D-14 5.56D-09 XBig12= 5.02D-03 1.12D-02.
     15 vectors produced by pass  4 Test12= 1.70D-14 5.56D-09 XBig12= 9.94D-05 1.90D-03.
     15 vectors produced by pass  5 Test12= 1.70D-14 5.56D-09 XBig12= 1.37D-06 1.75D-04.
     15 vectors produced by pass  6 Test12= 1.70D-14 5.56D-09 XBig12= 1.09D-08 1.51D-05.
     12 vectors produced by pass  7 Test12= 1.70D-14 5.56D-09 XBig12= 8.13D-11 1.29D-06.
      3 vectors produced by pass  8 Test12= 1.70D-14 5.56D-09 XBig12= 5.82D-13 1.19D-07.
      2 vectors produced by pass  9 Test12= 1.70D-14 5.56D-09 XBig12= 3.89D-15 1.01D-08.
 InvSVY:  IOpt=1 It=  1 EMax= 8.88D-16
 Solved reduced A of dimension   122 with    15 vectors.
 FullF1:  Do perturbations      1 to      18.
 Saving first derivative matrices.
 End of Minotr F.D. properties file   721 does not exist.
 End of Minotr F.D. properties file   722 does not exist.
 End of Minotr F.D. properties file   788 does not exist.
 Leave Link 1002 at Mon Feb 21 20:44:27 2022, MaxMem= 16106127360 cpu:              78.7 elap:               2.8
 (Enter /sw/contrib/gaussian/g16/B01/g16/l811.exe)
 MDV= 16106127360.
 Form MO integral derivatives with frozen-active canonical formalism.
 MOERI=1 MOERIx=1 NAtoms=     5 NAtomX=     5.
 Discarding MO integrals.
 MO basis two electron integral derivatives will not be stored on disk.
 IAlg= 3 DoFC=T DoPWx=T Debug=F.
 Frozen-core window:  NFC=   4 NFV=   0.
 Reordered first order wavefunction length =     18678272
 In DefCFB: NBatch=  1 ICI= 16 ICA=191 LFMax= 96
            Large arrays: LIAPS=   619940160 LIARS=   288257200 words.
 In StABat: MaxSiz= 55 MinSiz= 25 NAtomB=  5
 DoIAMN: NPSUse= 28.
 Leave Link  811 at Mon Feb 21 20:45:46 2022, MaxMem= 16106127360 cpu:            2208.4 elap:              79.0
 (Enter /sw/contrib/gaussian/g16/B01/g16/l804.exe)
 Frozen-core window:  NFC=   4 NFV=   0.
 Closed-shell transformation, MDV= 16106127360 ITran=4 ISComp=1.
 Semi-Direct transformation.
 ModeAB=           2 MOrb=            16 LenV=   16104923079
 LASXX=     67341636 LTotXX=    67341636 LenRXX=    67341636
 LTotAB=    68301760 MaxLAS=    99807120 LenRXY=    99807120
 NonZer=   134683272 LenScr=   202817536 LnRSAI=           0
 LnScr1=           0 LExtra=           0 Total=    369966292
 MaxDsk=          -1 SrtSym=           F ITran=            4
 DoSDTr:  NPSUse= 28
 JobTyp=0 Pass  1:  I=   1 to  16.
 (rs|ai) integrals will be sorted in core.
 Complete sort for first half transformation.
 First half transformation complete.
 Begin second half transformation for I=  10.
 Begin second half transformation for I=  10.
 Complete sort for second half transformation.
 Second half transformation complete.
 Spin components of T(2) and E(2):
     alpha-alpha T2 =       0.3403457968D-01 E2=     -0.1223869412D+00
     alpha-beta  T2 =       0.1868559758D+00 E2=     -0.7001480713D+00
     beta-beta   T2 =       0.3403457968D-01 E2=     -0.1223869412D+00
 ANorm=    0.1584250697D+01
 E2 =    -0.9449219538D+00 EUMP2 =    -0.28044657816691D+03
 Leave Link  804 at Mon Feb 21 20:46:01 2022, MaxMem= 16106127360 cpu:             425.5 elap:              15.2
 (Enter /sw/contrib/gaussian/g16/B01/g16/l1002.exe)
 Minotr:  Closed shell wavefunction.
          Computing MP2/KS-MP2 derivatives.
          Using Z-Vector for PSCF gradient.
          Skipping F1 and S1 gradient terms here.
          IDoAtm=11111
          Frozen-core window.
          Using MO integrals in the linear equations.
          Forming densities via direct SCF.
          Differentiating once with respect to electric field.
                with respect to dipole field.
          Differentiating once with respect to nuclear coordinates.
          Using symmetry in CPHF.
          Requested convergence is 1.0D-10 RMS, and 1.0D-09 maximum.
          NewPWx=F KeepS1=T KeepF1=T KeepIn=T MapXYZ=F SortEE=F KeepMc=T.
          MDV=   16106127360 using IRadAn=       5.
          Solving linear equations separately, MaxMat=       0.
          There are     1 degrees of freedom in the 1st order CPHF.  IDoFFX=0 NUNeed=     1.
 FoFJK:  IHMeth= 1 ICntrl=       0 DoSepK=F KAlg= 0 I1Cent=           0 FoldK=F
 IRaf=         0 NMat=       1 IRICut=       1 DoRegI=T DoRafI=F ISym2E= 0 IDoP0=0 IntGTp=1.
 FoFCou: FMM=F IPFlag=           0 FMFlag=      100000 FMFlg1=           0
         NFxFlg=           0 DoJE=F BraDBF=F KetDBF=F FulRan=T
         wScrn=  0.000000 ICntrl=         0 IOpCl=  0 I1Cent=           0 NGrid=           0
         NMat0=    1 NMatS0=      1 NMatT0=    0 NMatD0=    1 NMtDS0=    0 NMtDT0=    0
 Symmetry not used in FoFCou.
 LinEq1:  Iter=  0 NonCon=     1 RMS=5.99D-03 Max=1.33D-01 NDo=     1
 LinEq1:  Iter=  1 NonCon=     1 RMS=1.92D-03 Max=3.83D-02 NDo=     1
 LinEq1:  Iter=  2 NonCon=     1 RMS=8.72D-04 Max=1.34D-02 NDo=     1
 LinEq1:  Iter=  3 NonCon=     1 RMS=3.89D-04 Max=7.89D-03 NDo=     1
 LinEq1:  Iter=  4 NonCon=     1 RMS=1.21D-04 Max=1.94D-03 NDo=     1
 LinEq1:  Iter=  5 NonCon=     1 RMS=4.76D-05 Max=7.51D-04 NDo=     1
 LinEq1:  Iter=  6 NonCon=     1 RMS=2.10D-05 Max=2.54D-04 NDo=     1
 LinEq1:  Iter=  7 NonCon=     1 RMS=8.33D-06 Max=1.58D-04 NDo=     1
 LinEq1:  Iter=  8 NonCon=     1 RMS=3.53D-06 Max=3.48D-05 NDo=     1
 LinEq1:  Iter=  9 NonCon=     1 RMS=9.53D-07 Max=1.30D-05 NDo=     1
 LinEq1:  Iter= 10 NonCon=     1 RMS=1.87D-07 Max=1.99D-06 NDo=     1
 LinEq1:  Iter= 11 NonCon=     1 RMS=3.44D-08 Max=3.43D-07 NDo=     1
 LinEq1:  Iter= 12 NonCon=     1 RMS=8.25D-09 Max=1.20D-07 NDo=     1
 LinEq1:  Iter= 13 NonCon=     1 RMS=1.48D-09 Max=2.55D-08 NDo=     1
 LinEq1:  Iter= 14 NonCon=     1 RMS=2.72D-10 Max=3.61D-09 NDo=     1
 LinEq1:  Iter= 15 NonCon=     0 RMS=4.95D-11 Max=5.70D-10 NDo=     1
 Linear equations converged to 1.000D-10 1.000D-09 after    15 iterations.
 End of Minotr F.D. properties file   721 does not exist.
 End of Minotr F.D. properties file   722 does not exist.
 End of Minotr F.D. properties file   788 does not exist.
 Leave Link 1002 at Mon Feb 21 20:46:03 2022, MaxMem= 16106127360 cpu:              66.1 elap:               2.4
 (Enter /sw/contrib/gaussian/g16/B01/g16/l1102.exe)
 Use density number 2.
 Symmetrizing basis deriv contribution to polar:
 IMax=3 JMax=2 DiffMx= 0.00D+00
 Leave Link 1102 at Mon Feb 21 20:46:03 2022, MaxMem= 16106127360 cpu:               0.8 elap:               0.1
 (Enter /sw/contrib/gaussian/g16/B01/g16/l1110.exe)
 Forming Gx(P) for generalized density number  2 NAtomX=     5.
 Integral derivatives from FoFJK, PRISM(SPDF).
 Do as many integral derivatives as possible in FoFJK.
 G2DrvN: MDV=   16106126844.
 G2DrvN: will do     6 centers at a time, making    1 passes.
 Calling FoFCou, ICntrl=  3107 FMM=F I1Cent=   0 AccDes= 0.00D+00.
 FoFJK:  IHMeth= 1 ICntrl=    3107 DoSepK=F KAlg= 0 I1Cent=           0 FoldK=F
 IRaf=         0 NMat=       1 IRICut=       1 DoRegI=T DoRafI=F ISym2E= 1 IDoP0=0 IntGTp=1.
 FoFCou: FMM=F IPFlag=           0 FMFlag=      100000 FMFlg1=           0
         NFxFlg=           0 DoJE=F BraDBF=F KetDBF=F FulRan=T
         wScrn=  0.000000 ICntrl=      3107 IOpCl=  0 I1Cent=           0 NGrid=           0
         NMat0=    1 NMatS0=      1 NMatT0=    0 NMatD0=    1 NMtDS0=    0 NMtDT0=    0
 Petite list used in FoFCou.
 End of G2Drv F.D. properties file   721 does not exist.
 End of G2Drv F.D. properties file   722 does not exist.
 End of G2Drv F.D. properties file   788 does not exist.
 Leave Link 1110 at Mon Feb 21 20:46:07 2022, MaxMem= 16106127360 cpu:              87.8 elap:               3.2
 (Enter /sw/contrib/gaussian/g16/B01/g16/l1112.exe)
 MP22nd: MDV=   16106127360
 This link is doing NAtomX=     5 total of    18 degrees of freedom.
 Using ON3 I/O method in MakUI.
 Frozen-core window:  NFC=   4 NFV=   0.
 Using Ix for Sx.
 Use MO integrals over full window.
 Using OV2 memory method for fx*t*t/D, MaxI=    16 DoOO2=F NP=  28.
 R2 and R3 integrals will be kept in memory, NReq=   915591705.
 FoFCou: FMM=F IPFlag=           0 FMFlag=           0 FMFlg1=           0
         NFxFlg=           0 DoJE=F BraDBF=F KetDBF=F FulRan=T
         wScrn=  0.000000 ICntrl=       600 IOpCl=  0 I1Cent=           0 NGrid=           0
         NMat0=    1 NMatS0=      1 NMatT0=    0 NMatD0=    1 NMtDS0=    0 NMtDT0=    0
 Symmetry not used in FoFCou.
 DD1Dir will call FoFMem   1 times, MxPair=       272
 NAB=   136 NAA=     0 NBB=     0.
 Symmetry is being used.
 FoFJK:  IHMeth= 1 ICntrl=       0 DoSepK=F KAlg= 0 I1Cent=           0 FoldK=F
 IRaf=         0 NMat=      18 IRICut=      45 DoRegI=T DoRafI=T ISym2E= 2 IDoP0=3 IntGTp=3.
 Discarding MO integrals.
 Leave Link 1112 at Mon Feb 21 20:46:51 2022, MaxMem= 16106127360 cpu:            1227.9 elap:              44.5
 (Enter /sw/contrib/gaussian/g16/B01/g16/l601.exe)
 Copying SCF densities to generalized density rwf, IOpCl= 0 IROHF=0.

 **********************************************************************

            Population analysis using the MP2 Density.

 **********************************************************************

 Orbital symmetries:
       Occupied  (A') (A') (A') (A') (A') (A') (A') (A') (A') (A')
                 (A") (A') (A") (A') (A") (A')
       Virtual   (A') (A") (A') (A') (A") (A') (A') (A') (A") (A')
                 (A") (A') (A') (A') (A") (A') (A') (A") (A') (A')
                 (A') (A') (A') (A') (A') (A") (A') (A") (A') (A')
                 (A") (A') (A") (A') (A') (A") (A') (A") (A') (A')
                 (A") (A') (A") (A') (A') (A") (A') (A') (A") (A')
                 (A") (A') (A') (A') (A") (A') (A") (A') (A") (A')
                 (A') (A') (A") (A') (A') (A") (A') (A") (A') (A')
                 (A") (A') (A') (A") (A") (A') (A') (A") (A') (A')
                 (A') (A") (A') (A") (A") (A') (A') (A") (A') (A')
                 (A") (A') (A') (A") (A') (A") (A') (A") (A') (A')
                 (A") (A') (A") (A') (A') (A") (A') (A') (A") (A')
                 (A") (A') (A') (A') (A") (A') (A') (A') (A") (A')
                 (A") (A') (A") (A') (A') (A") (A") (A') (A") (A')
                 (A') (A') (A') (A") (A") (A") (A') (A') (A') (A')
                 (A") (A') (A") (A') (A') (A") (A') (A') (A') (A')
                 (A") (A') (A') (A") (A') (A") (A') (A") (A') (A")
                 (A') (A") (A') (A") (A') (A") (A") (A') (A") (A')
                 (A") (A') (A") (A') (A") (A') (A") (A") (A') (A')
                 (A') (A') (A') (A') (A') (A') (A') (A') (A') (A')
                 (A')
 The electronic state is 1-A'.
 Alpha  occ. eigenvalues --  -20.69029 -20.68473 -20.66063 -15.81343  -1.62397
 Alpha  occ. eigenvalues --   -1.49519  -1.25530  -0.94771  -0.77134  -0.75994
 Alpha  occ. eigenvalues --   -0.71151  -0.68219  -0.62096  -0.58797  -0.48505
 Alpha  occ. eigenvalues --   -0.47211
 Alpha virt. eigenvalues --    0.02963   0.07145   0.08598   0.10223   0.13373
 Alpha virt. eigenvalues --    0.13375   0.14383   0.15386   0.17833   0.19436
 Alpha virt. eigenvalues --    0.20001   0.20602   0.22063   0.23514   0.23722
 Alpha virt. eigenvalues --    0.26749   0.29370   0.30285   0.31099   0.34393
 Alpha virt. eigenvalues --    0.34910   0.38638   0.42252   0.43315   0.52755
 Alpha virt. eigenvalues --    0.52761   0.55633   0.57874   0.62544   0.63976
 Alpha virt. eigenvalues --    0.67490   0.68459   0.70749   0.70992   0.72474
 Alpha virt. eigenvalues --    0.72837   0.74463   0.79215   0.79363   0.81145
 Alpha virt. eigenvalues --    0.81261   0.82873   0.86820   0.90850   0.92171
 Alpha virt. eigenvalues --    0.92686   0.95349   0.97098   0.98301   1.01635
 Alpha virt. eigenvalues --    1.05047   1.05625   1.07709   1.11299   1.13807
 Alpha virt. eigenvalues --    1.19188   1.21893   1.23523   1.34057   1.35180
 Alpha virt. eigenvalues --    1.38383   1.45517   1.48830   1.50864   1.53579
 Alpha virt. eigenvalues --    1.56503   1.57835   1.61078   1.65939   1.67335
 Alpha virt. eigenvalues --    1.70329   1.79114   1.83686   1.83735   1.87680
 Alpha virt. eigenvalues --    1.90674   1.95299   1.99070   2.00601   2.07879
 Alpha virt. eigenvalues --    2.12550   2.13327   2.14943   2.22276   2.26388
 Alpha virt. eigenvalues --    2.26554   2.29135   2.31163   2.33364   2.38382
 Alpha virt. eigenvalues --    2.42091   2.42969   2.45555   2.46055   2.47657
 Alpha virt. eigenvalues --    2.49596   2.58726   2.59821   2.61854   2.62868
 Alpha virt. eigenvalues --    2.63941   2.66421   2.75290   2.81643   2.83604
 Alpha virt. eigenvalues --    2.87258   2.89562   2.92783   2.96318   3.01306
 Alpha virt. eigenvalues --    3.06340   3.11701   3.20241   3.22242   3.31877
 Alpha virt. eigenvalues --    3.35114   3.53063   3.63234   3.83628   3.84313
 Alpha virt. eigenvalues --    4.14639   4.16387   4.18173   4.25391   4.35689
 Alpha virt. eigenvalues --    4.38917   4.46288   4.52110   4.65043   4.70913
 Alpha virt. eigenvalues --    4.79826   4.82362   4.83205   4.89425   5.02540
 Alpha virt. eigenvalues --    5.07778   5.10390   5.15307   5.17192   5.23791
 Alpha virt. eigenvalues --    5.27365   5.30786   5.32455   5.34626   5.58983
 Alpha virt. eigenvalues --    5.67330   5.76323   5.83226   5.95758   6.16228
 Alpha virt. eigenvalues --    6.30902   6.34026   6.39649   6.49442   6.50711
 Alpha virt. eigenvalues --    6.61004   6.67146   6.70154   6.75124   6.76309
 Alpha virt. eigenvalues --    6.83121   6.90105   7.01829   7.05558   7.06214
 Alpha virt. eigenvalues --    7.08969   7.12253   7.14593   7.18050   7.22714
 Alpha virt. eigenvalues --    7.23926   7.30606   7.32580   7.33551   7.39467
 Alpha virt. eigenvalues --    7.43461   7.48120   7.61427   7.61445   7.61964
 Alpha virt. eigenvalues --    7.66030   7.78604   7.87780   8.09614   8.31378
 Alpha virt. eigenvalues --    8.40960   8.54611  13.37359  14.43072  15.14164
 Alpha virt. eigenvalues --   16.14964
          Condensed to atoms (all electrons):
               1          2          3          4          5
     1  H    0.586075   0.128663   0.021745   0.011213  -0.000502
     2  O    0.128663   8.322967  -0.177284  -0.083821   0.014910
     3  O    0.021745  -0.177284   8.469495  -0.132911  -0.036658
     4  N    0.011213  -0.083821  -0.132911   6.972735  -0.055609
     5  O   -0.000502   0.014910  -0.036658  -0.055609   8.269238
 Mulliken charges:
               1
     1  H    0.252807
     2  O   -0.205435
     3  O   -0.144387
     4  N    0.288394
     5  O   -0.191379
 Sum of Mulliken charges =  -0.00000
 Mulliken charges with hydrogens summed into heavy atoms:
               1
     2  O    0.047372
     3  O   -0.144387
     4  N    0.288394
     5  O   -0.191379
 APT charges:
               1
     1  H    0.299762
     2  O   -0.297294
     3  O   -0.491421
     4  N    0.882823
     5  O   -0.393870
 Sum of APT charges =  -0.00000
 APT charges with hydrogens summed into heavy atoms:
               1
     2  O    0.002468
     3  O   -0.491421
     4  N    0.882823
     5  O   -0.393870
 Electronic spatial extent (au):  <R**2>=            255.0056
 Charge=             -0.0000 electrons
 Dipole moment (field-independent basis, Debye):
    X=              0.4590    Y=              1.3745    Z=              0.0000  Tot=              1.4491
 Quadrupole moment (field-independent basis, Debye-Ang):
   XX=            -22.6717   YY=            -18.4209   ZZ=            -22.0141
   XY=              3.1834   XZ=              0.0000   YZ=             -0.0000
 Traceless Quadrupole moment (field-independent basis, Debye-Ang):
   XX=             -1.6362   YY=              2.6147   ZZ=             -0.9785
   XY=              3.1834   XZ=              0.0000   YZ=             -0.0000
 Octapole moment (field-independent basis, Debye-Ang**2):
  XXX=              2.3100  YYY=             12.0183  ZZZ=              0.0000  XYY=              7.9690
  XXY=              6.2461  XXZ=              0.0000  XZZ=             -1.5734  YZZ=             -0.8748
  YYZ=              0.0000  XYZ=              0.0000
 Hexadecapole moment (field-independent basis, Debye-Ang**3):
 XXXX=           -158.5513 YYYY=            -91.5308 ZZZZ=            -18.2486 XXXY=            -38.6075
 XXXZ=              0.0000 YYYX=            -31.3356 YYYZ=             -0.0000 ZZZX=              0.0000
 ZZZY=             -0.0000 XXYY=            -34.5444 XXZZ=            -30.7012 YYZZ=            -21.2562
 XXYZ=             -0.0000 YYXZ=              0.0000 ZZXY=            -15.5015
 N-N= 1.166199512454D+02 E-N=-8.953350379089D+02  KE= 2.801870584078D+02
 Symmetry A'   KE= 2.662171287643D+02
 Symmetry A"   KE= 1.396992964353D+01
  Exact polarizability:  33.967   9.731  30.645  -0.000   0.000  17.950
 Approx polarizability:  28.979   5.349  23.653  -0.000   0.000  15.530
 No NMR shielding tensors so no spin-rotation constants.
 Leave Link  601 at Mon Feb 21 20:46:52 2022, MaxMem= 16106127360 cpu:               6.8 elap:               0.3
 (Enter /sw/contrib/gaussian/g16/B01/g16/l701.exe)
 ... and contract with generalized density number  2.
 Compute integral second derivatives.
 Leave Link  701 at Mon Feb 21 20:46:52 2022, MaxMem= 16106127360 cpu:               5.8 elap:               0.2
 (Enter /sw/contrib/gaussian/g16/B01/g16/l702.exe)
 L702 exits ... SP integral derivatives will be done elsewhere.
 Leave Link  702 at Mon Feb 21 20:46:52 2022, MaxMem= 16106127360 cpu:               0.5 elap:               0.0
 (Enter /sw/contrib/gaussian/g16/B01/g16/l703.exe)
 Integral derivatives from FoFJK, PRISM(SPDF).
 Compute integral second derivatives, UseDBF=F ICtDFT=           0.
 Calling FoFJK, ICntrl=  10100127 FMM=F ISym2X=1 I1Cent= 0 IOpClX= 0 NMat=1 NMatS=1 NMatT=0.
 FoFJK:  IHMeth= 1 ICntrl=10100127 DoSepK=F KAlg= 0 I1Cent=           0 FoldK=F
 IRaf=         0 NMat=       1 IRICut=       1 DoRegI=T DoRafI=F ISym2E= 1 IDoP0=0 IntGTp=1.
 FoFCou: FMM=F IPFlag=           0 FMFlag=      100000 FMFlg1=         800
         NFxFlg=           0 DoJE=F BraDBF=F KetDBF=F FulRan=T
         wScrn=  0.000000 ICntrl=  10100127 IOpCl=  0 I1Cent=           0 NGrid=           0
         NMat0=    1 NMatS0=      1 NMatT0=    0 NMatD0=    1 NMtDS0=    0 NMtDT0=    0
 Petite list used in FoFCou.
 Leave Link  703 at Mon Feb 21 20:47:07 2022, MaxMem= 16106127360 cpu:             422.8 elap:              15.2
 (Enter /sw/contrib/gaussian/g16/B01/g16/l716.exe)
 Dipole        = 1.80574087D-01 5.40777684D-01 9.92287821D-32
 Polarizability= 3.39666612D+01 9.73076603D+00 3.06450036D+01
                -1.20975846D-31 1.13655567D-30 1.79501500D+01
 Full mass-weighted force constant matrix:
 Low frequencies --- -281.3774  -87.2433    0.0017    0.0018    0.0018   25.9283
 Low frequencies ---   37.5668  233.0653  334.3322
 ******    1 imaginary frequencies (negative Signs) ****** 
 Diagonal vibrational polarizability:
       14.6442600      26.1716222      42.7042620
 Harmonic frequencies (cm**-1), IR intensities (KM/Mole), Raman scattering
 activities (A**4/AMU), depolarization ratios for plane and unpolarized
 incident light, reduced masses (AMU), force constants (mDyne/A),
 and normal coordinates:
                      1                      2                      3
                     A"                     A"                     A'
 Frequencies --   -281.3748               233.0221               334.3292
 Red. masses --      1.1408                10.6411                 8.8931
 Frc consts  --      0.0532                 0.3404                 0.5857
 IR Inten    --    124.4866                 0.7872                 1.9138
  Atom  AN      X      Y      Z        X      Y      Z        X      Y      Z
     1   1     0.00   0.00   1.00     0.00   0.00  -0.57    -0.51   0.44   0.00
     2   8     0.00   0.00  -0.06     0.00   0.00  -0.31     0.11   0.40   0.00
     3   8     0.00   0.00  -0.04     0.00   0.00   0.34     0.17  -0.38  -0.00
     4   7    -0.00  -0.00   0.06    -0.00  -0.00   0.51    -0.08  -0.31  -0.00
     5   8    -0.00  -0.00  -0.01    -0.00  -0.00  -0.44    -0.19   0.23   0.00
                      4                      5                      6
                     A'                     A'                     A'
 Frequencies --    437.9721               784.2804               967.8528
 Red. masses --     11.6670                12.6986                15.2234
 Frc consts  --      1.3186                 4.6020                 8.4020
 IR Inten    --    202.0942               173.0422                24.5492
  Atom  AN      X      Y      Z        X      Y      Z        X      Y      Z
     1   1     0.49   0.14   0.00    -0.37   0.18  -0.00    -0.20  -0.04   0.00
     2   8     0.30   0.15   0.00     0.42   0.10  -0.00    -0.51   0.02   0.00
     3   8     0.14   0.48  -0.00    -0.07  -0.28   0.00     0.75  -0.01  -0.00
     4   7    -0.33  -0.35  -0.00    -0.14   0.61   0.00    -0.12   0.25  -0.00
     5   8    -0.18  -0.33   0.00    -0.21  -0.36  -0.00    -0.12  -0.22   0.00
                      7                      8                      9
                     A'                     A'                     A'
 Frequencies --   1371.7636              1676.2105              3778.6924
 Red. masses --      1.1364                13.2607                 1.0676
 Frc consts  --      1.2599                21.9520                 8.9815
 IR Inten    --    155.3938               140.1028                86.0139
  Atom  AN      X      Y      Z        X      Y      Z        X      Y      Z
     1   1     1.00  -0.01   0.00    -0.34  -0.01  -0.00     0.07   1.00  -0.00
     2   8    -0.03   0.05   0.00    -0.00  -0.04  -0.00    -0.01  -0.06   0.00
     3   8    -0.02  -0.05  -0.00     0.00   0.15   0.00     0.00   0.00   0.00
     4   7     0.02   0.01  -0.00     0.71  -0.06   0.00    -0.00  -0.00  -0.00
     5   8    -0.03  -0.01   0.00    -0.60  -0.07  -0.00     0.00   0.00  -0.00

 -------------------
 - Thermochemistry -
 -------------------
 Temperature   298.150 Kelvin.  Pressure   1.00000 Atm.
 Atom     1 has atomic number  1 and mass   1.00783
 Atom     2 has atomic number  8 and mass  15.99491
 Atom     3 has atomic number  8 and mass  15.99491
 Atom     4 has atomic number  7 and mass  14.00307
 Atom     5 has atomic number  8 and mass  15.99491
 Molecular mass:    62.99564 amu.
 Principal axes and moments of inertia in atomic units:
                           1         2         3
     Eigenvalues --    31.86640 365.22740 397.09380
           X            0.80151  -0.59798   0.00000
           Y            0.59798   0.80151   0.00000
           Z            0.00000  -0.00000   1.00000
 This molecule is an asymmetric top.
 Rotational symmetry number  1.
 Rotational temperatures (Kelvin)      2.71803     0.23715     0.21812
 Rotational constants (GHZ):          56.63462     4.94142     4.54487
    1 imaginary frequencies ignored.
 Zero-point vibrational energy      57325.8 (Joules/Mol)
                                   13.70119 (Kcal/Mol)
 Warning -- explicit consideration of   3 degrees of freedom as
           vibrations may cause significant error
 Vibrational temperatures:    335.27   481.03   630.14  1128.40  1392.52
          (Kelvin)           1973.66  2411.69  5436.70
 
 Zero-point correction=                           0.021834 (Hartree/Particle)
 Thermal correction to Energy=                    0.025966
 Thermal correction to Enthalpy=                  0.026910
 Thermal correction to Gibbs Free Energy=        -0.004292
 Sum of electronic and zero-point Energies=           -280.424744
 Sum of electronic and thermal Energies=              -280.420612
 Sum of electronic and thermal Enthalpies=            -280.419668
 Sum of electronic and thermal Free Energies=         -280.450871
 
                     E (Thermal)             CV                S
                      KCal/Mol        Cal/Mol-Kelvin    Cal/Mol-Kelvin
 Total                   16.294             11.994             65.672
 Electronic               0.000              0.000              0.000
 Translational            0.889              2.981             38.341
 Rotational               0.889              2.981             23.051
 Vibrational             14.517              6.032              4.280
 Vibration     1          0.654              1.790              1.856
 Vibration     2          0.716              1.607              1.239
 Vibration     3          0.798              1.387              0.833
                       Q            Log10(Q)             Ln(Q)
 Total Bot       0.942709D+02          1.974378          4.546173
 Total V=0       0.104093D+13         12.017422         27.671136
 Vib (Bot)       0.197114D-09         -9.705282        -22.347238
 Vib (Bot)    1  0.844110D+00         -0.073601         -0.169472
 Vib (Bot)    2  0.557374D+00         -0.253853         -0.584519
 Vib (Bot)    3  0.395344D+00         -0.403025         -0.928000
 Vib (V=0)       0.217652D+01          0.337762          0.777725
 Vib (V=0)    1  0.148108D+01          0.170579          0.392773
 Vib (V=0)    2  0.124878D+01          0.096485          0.222164
 Vib (V=0)    3  0.113741D+01          0.055919          0.128757
 Electronic      0.100000D+01          0.000000          0.000000
 Translational   0.196526D+08          7.293420         16.793719
 Rotational      0.243355D+05          4.386240         10.099692
 
                                                                title
                                                             IR Spectrum
 
     3                                                                      1         1                                              
     7                                                                      6         3             9     7           4  3   2       
     7                                                                      7         7             6     8           3  3   3       
     9                                                                      6         2             8     4           8  4   3       
 
     X                                                                      X         X             X     X           X  X   X       
     X                                                                      X         X             X     X           X              
     X                                                                      X         X                   X           X              
     X                                                                      X         X                   X           X              
     X                                                                      X         X                   X           X              
     X                                                                      X         X                   X           X              
     X                                                                      X         X                   X           X              
     X                                                                      X         X                   X           X              
     X                                                                      X         X                   X           X              
                                                                            X         X                   X           X              
                                                                            X         X                   X           X              
                                                                            X         X                   X           X              
                                                                            X         X                   X           X              
                                                                            X         X                   X           X              
                                                                                      X                   X           X              
                                                                                                          X           X              
                                                                                                          X           X              
                                                                                                                      X              
                                                                                                                      X              
                                                                                                                      X              
 
 ***** Axes restored to original set *****
 -------------------------------------------------------------------
 Center     Atomic                   Forces (Hartrees/Bohr)
 Number     Number              X              Y              Z
 -------------------------------------------------------------------
      1        1           0.000639434    0.000000000    0.000143734
      2        8           0.000926242   -0.000000000    0.003845408
      3        8           0.003049424    0.000000000   -0.003243362
      4        7          -0.004563171   -0.000000000    0.000778582
      5        8          -0.000051929    0.000000000   -0.001524362
 -------------------------------------------------------------------
 Cartesian Forces:  Max     0.004563171 RMS     0.001994126
 -----------------------------------------------------------------------------------------------
                       Internal Coordinate Forces (Hartree/Bohr or radian)
  Cent   Atom   N1       Length/X         N2         Alpha/Y        N3         Beta/Z          J
 -----------------------------------------------------------------------------------------------
      1  H 
      2  O        1  -0.000144(     1)
      3  O        2  -0.002079(     2)      1  -0.001171(     5)
      4  N        3  -0.001273(     3)      2  -0.009132(     6)      1   0.000000(     8)     0
      5  O        4  -0.000379(     4)      3  -0.003268(     7)      2   0.000000(     9)     0
 -----------------------------------------------------------------------------------------------
 Internal  Forces:  Max     0.009131725 RMS     0.003359087
 Force constants in Cartesian coordinates: 
                1             2             3             4             5 
      1  0.645470D-01
      2  0.000000D+00 -0.257955D-02
      3  0.476444D-02  0.000000D+00  0.512325D+00
      4 -0.357172D-01  0.000000D+00 -0.158205D-01  0.269868D+00
      5  0.000000D+00  0.341417D-02  0.000000D+00  0.000000D+00  0.216845D-02
      6  0.486114D-01  0.000000D+00 -0.508967D+00  0.285398D-01  0.000000D+00
      7 -0.184803D-01  0.000000D+00  0.124022D-01 -0.220730D+00  0.000000D+00
      8  0.000000D+00  0.101112D-02  0.000000D+00  0.000000D+00 -0.606334D-02
      9 -0.539223D-01  0.000000D+00 -0.424432D-03 -0.161394D-01  0.000000D+00
     10 -0.861853D-02  0.000000D+00 -0.476041D-02 -0.134490D-01  0.000000D+00
     11  0.000000D+00 -0.287458D-02  0.000000D+00  0.000000D+00 -0.606214D-02
     12  0.628599D-02  0.000000D+00 -0.417482D-02  0.122155D-01  0.000000D+00
     13 -0.173101D-02  0.000000D+00  0.341429D-02  0.281501D-04  0.000000D+00
     14  0.000000D+00  0.102883D-02  0.000000D+00  0.000000D+00  0.654287D-02
     15 -0.573951D-02  0.000000D+00  0.124099D-02 -0.879538D-02  0.000000D+00
                6             7             8             9            10 
      6  0.591552D+00
      7 -0.203183D-01  0.342940D+00
      8  0.000000D+00  0.000000D+00  0.244017D-02
      9 -0.810432D-01  0.314163D-01  0.000000D+00  0.186100D+00
     10 -0.470438D-01 -0.715889D-01  0.000000D+00  0.175686D+00  0.822881D+00
     11  0.000000D+00  0.000000D+00  0.107816D-01  0.000000D+00  0.000000D+00
     12  0.228555D-01  0.671943D-01  0.000000D+00 -0.920932D-01 -0.459620D-01
     13 -0.978903D-02 -0.321402D-01  0.000000D+00 -0.137040D+00 -0.729224D+00
     14  0.000000D+00  0.000000D+00 -0.816953D-02  0.000000D+00  0.000000D+00
     15 -0.243971D-01 -0.906946D-01  0.000000D+00 -0.125393D-01 -0.779195D-01
               11            12            13            14            15 
     11  0.704445D-02
     12  0.000000D+00  0.184372D+00
     13  0.000000D+00 -0.397339D-01  0.763067D+00
     14 -0.888931D-02  0.000000D+00  0.000000D+00  0.948714D-02
     15  0.000000D+00 -0.110959D+00  0.183149D+00  0.000000D+00  0.146655D+00
 Force constants in internal coordinates: 
                1             2             3             4             5 
      1  0.512325D+00
      2 -0.105152D-01  0.277207D+00
      3  0.306958D-02  0.288549D-03  0.113831D+00
      4 -0.360149D-02  0.623468D-02  0.153181D+00  0.811520D+00
      5  0.936363D-02  0.652449D-01  0.119318D-02  0.535961D-02  0.216159D+00
      6  0.380619D-02  0.501063D-01  0.296550D-01  0.234601D-01  0.310168D-01
      7 -0.105350D-02  0.365314D-01  0.330691D-01  0.821191D-01  0.211952D-01
      8  0.000000D+00  0.000000D+00  0.000000D+00  0.000000D+00  0.000000D+00
      9  0.000000D+00  0.000000D+00  0.000000D+00  0.000000D+00  0.000000D+00
                6             7             8             9 
      6  0.258218D+00
      7  0.957438D-01  0.479810D+00
      8  0.000000D+00  0.000000D+00 -0.860242D-02
      9  0.000000D+00  0.000000D+00 -0.390401D-02  0.417384D-01
 Leave Link  716 at Mon Feb 21 20:47:07 2022, MaxMem= 16106127360 cpu:               1.1 elap:               0.1
 (Enter /sw/contrib/gaussian/g16/B01/g16/l103.exe)

 GradGradGradGradGradGradGradGradGradGradGradGradGradGradGradGradGradGrad
 Berny optimization.
 Search for a local minimum.
 Step number   1 out of a maximum of    2
 All quantities printed in internal units (Hartrees-Bohrs-Radians)
 Second derivative matrix not updated -- analytic derivatives used.
 The second derivative matrix:
                          r1        r2        r3        r4        a1
           r1           0.51233
           r2          -0.01052   0.27721
           r3           0.00307   0.00029   0.11383
           r4          -0.00360   0.00623   0.15318   0.81152
           a1           0.00936   0.06524   0.00119   0.00536   0.21616
           a2           0.00381   0.05011   0.02965   0.02346   0.03102
           a3          -0.00105   0.03653   0.03307   0.08212   0.02120
           d1           0.00000  -0.00000   0.00000   0.00000  -0.00000
           d2          -0.00000  -0.00000   0.00000   0.00000  -0.00000
                          a2        a3        d1        d2
           a2           0.25822
           a3           0.09574   0.47981
           d1          -0.00000  -0.00000  -0.00860
           d2          -0.00000  -0.00000  -0.00390   0.04174
 ITU=  0
     Eigenvalues ---   -0.00890   0.04204   0.07801   0.17409   0.20870
     Eigenvalues ---    0.31696   0.50964   0.51301   0.86866
 Eigenvalue     1 is  -8.90D-03 should be greater than     0.000000 Eigenvector:
                          d1        d2        r3        a3        a2
   1                    0.99704   0.07686  -0.00000   0.00000   0.00000
                          a1        r1        r4        r2
   1                   -0.00000   0.00000  -0.00000  -0.00000
 Angle between quadratic step and forces=  23.54 degrees.
 Linear search not attempted -- first point.
 Variable       Old X    -DE/DX   Delta X   Delta X   Delta X     New X
                                 (Linear)    (Quad)   (Total)
    r1        1.83110  -0.00014   0.00000  -0.00001  -0.00001   1.83109
    r2        2.74940  -0.00208   0.00000  -0.00124  -0.00124   2.74816
    r3        2.75670  -0.00127   0.00000  -0.00386  -0.00386   2.75284
    r4        2.21236  -0.00038   0.00000   0.00125   0.00125   2.21361
    a1        1.70335  -0.00117   0.00000  -0.00007  -0.00007   1.70328
    a2        1.81902  -0.00913   0.00000  -0.03490  -0.03490   1.78412
    a3        1.90362  -0.00327   0.00000   0.00030   0.00030   1.90392
    d1        3.14159   0.00000   0.00000  -0.00000   0.00000   3.14159
    d2        3.14159   0.00000   0.00000  -0.00000   0.00000   3.14159
         Item               Value     Threshold  Converged?
 Maximum Force            0.009132     0.000450     NO 
 RMS     Force            0.003359     0.000300     NO 
 Maximum Displacement     0.034897     0.001800     NO 
 RMS     Displacement     0.011718     0.001200     NO 
 Predicted change in Energy=-1.623952D-04
                       ----------------------------
                       ! Non-Optimized Parameters !
                       ! (Angstroms and Degrees)  !
 ----------------------                            ----------------------
 !      Name          Value   Derivative information (Atomic Units)     !
 ------------------------------------------------------------------------
 !       r1          0.969    -DE/DX =   -0.0001                        !
 !       r2          1.4543   -DE/DX =   -0.0021                        !
 !       r3          1.4567   -DE/DX =   -0.0013                        !
 !       r4          1.1714   -DE/DX =   -0.0004                        !
 !       a1         97.5907   -DE/DX =   -0.0012                        !
 !       a2        102.2225   -DE/DX =   -0.0091                        !
 !       a3        109.0868   -DE/DX =   -0.0033                        !
 !       d1        180.0      -DE/DX =    0.0                           !
 !       d2        180.0      -DE/DX =    0.0                           !
 ------------------------------------------------------------------------
 GradGradGradGradGradGradGradGradGradGradGradGradGradGradGradGradGradGrad

 Leave Link  103 at Mon Feb 21 20:47:07 2022, MaxMem= 16106127360 cpu:               0.5 elap:               0.0
 (Enter /sw/contrib/gaussian/g16/B01/g16/l9999.exe)

 ----------------------------------------------------------------------

 Electric dipole moment (input orientation):
 (Debye = 10**-18 statcoulomb cm , SI units = C m)
                  (au)            (Debye)         (10**-30 SI)
   Tot        0.570129D+00      0.144912D+01      0.483376D+01
   x         -0.146687D+00     -0.372841D+00     -0.124367D+01
   y          0.000000D+00      0.000000D+00      0.000000D+00
   z         -0.550936D+00     -0.140034D+01     -0.467103D+01

 Dipole polarizability, Alpha (input orientation).
 (esu units = cm**3 , SI units = C**2 m**2 J**-1)
 Alpha(0;0):
               (au)            (10**-24 esu)      (10**-40 SI)
   iso        0.275206D+02      0.407813D+01      0.453753D+01
   aniso      0.223254D+02      0.330828D+01      0.368096D+01
   xx         0.327492D+02      0.485293D+01      0.539961D+01
   yx         0.000000D+00      0.000000D+00      0.000000D+00
   yy         0.179501D+02      0.265994D+01      0.295958D+01
   zx         0.986152D+01      0.146133D+01      0.162595D+01
   zy         0.000000D+00      0.000000D+00      0.000000D+00
   zz         0.318625D+02      0.472153D+01      0.525341D+01

 ----------------------------------------------------------------------

 Dipole orientation:
     1         -0.00000000          0.00000000          0.00000000
     8         -0.47111857          0.00000000         -1.76945437
     8          2.06891933         -0.00000000         -2.82178630
     7          1.67181957         -0.00000000         -5.54973785
     8          3.63684067         -0.00000000         -6.56620974

 Electric dipole moment (dipole orientation):
 (Debye = 10**-18 statcoulomb cm , SI units = C m)
                  (au)            (Debye)         (10**-30 SI)
   Tot        0.570129D+00      0.144912D+01      0.483376D+01
   x          0.000000D+00      0.000000D+00      0.000000D+00
   y          0.000000D+00      0.000000D+00      0.000000D+00
   z          0.570129D+00      0.144912D+01      0.483376D+01

 Dipole polarizability, Alpha (dipole orientation).
 (esu units = cm**3 , SI units = C**2 m**2 J**-1)
 Alpha(0;0):
               (au)            (10**-24 esu)      (10**-40 SI)
   iso        0.275206D+02      0.407813D+01      0.453753D+01
   aniso      0.223254D+02      0.330828D+01      0.368096D+01
   xx         0.277868D+02      0.411758D+01      0.458143D+01
   yx         0.000000D+00      0.000000D+00      0.000000D+00
   yy         0.179501D+02      0.265994D+01      0.295958D+01
   zx        -0.877638D+01     -0.130053D+01     -0.144703D+01
   zy         0.000000D+00      0.000000D+00      0.000000D+00
   zz         0.368248D+02      0.545688D+01      0.607159D+01

 ----------------------------------------------------------------------
 1\1\GINC-N2127\Freq\RMP2-FC\Aug-CC-pVTZ\H1N1O3\CGAVINH\21-Feb-2022\1\\
 #p freq mp2/aug-cc-pvtz density=current\\title\\0,1\H\O,1,r1\O,2,r2,1,
 a1\N,3,r3,2,a2,1,d1,0\O,4,r4,3,a3,2,d2,0\\r1=0.96897556\r2=1.45491931\
 r3=1.45878406\r4=1.17072885\a1=97.59494903\a2=104.22191303\a3=109.0695
 5123\d1=180.\d2=180.\\Version=ES64L-G16RevB.01\State=1-A'\HF=-279.5016
 562\MP2=-280.4465782\RMSD=3.811e-09\RMSF=1.994e-03\ZeroPoint=0.0218342
 \Thermal=0.0259662\Dipole=-0.1466871,0.,-0.5509359\DipoleDeriv=0.26384
 5,0.,0.0458792,0.,0.3556747,0.,0.0868345,0.,0.2797665,-0.3424595,0.,-0
 .2149773,0.,-0.3117127,0.,-0.1210368,0.,-0.2377091,-0.0557539,0.,0.114
 4976,0.,-0.0897793,0.,-0.7862475,0.,-1.3287311,0.9545549,0.,0.9459972,
 0.,0.0650057,0.,0.9504596,0.,1.6289098,-0.8201864,0.,-0.8913967,0.,-0.
 0191884,0.,-0.1300099,0.,-0.3422361\Polar=32.7491922,0.,17.95015,9.861
 5208,0.,31.8624725\Quadrupole=-1.4973003,-0.7275005,2.2248008,0.,2.152
 9098,0.\PG=CS [SG(H1N1O3)]\NImag=1\\0.06454704,0.,-0.00257955,0.004764
 44,0.,0.51232504,-0.03571717,0.,-0.01582053,0.26986845,0.,0.00341417,0
 .,0.,0.00216845,0.04861136,0.,-0.50896678,0.02853975,0.,0.59155155,-0.
 01848033,0.,0.01240221,-0.22073039,0.,-0.02031832,0.34293980,0.,0.0010
 1112,0.,0.,-0.00606334,0.,0.,0.00244017,-0.05392228,0.,-0.00042443,-0.
 01613938,0.,-0.08104315,0.03141635,0.,0.18610011,-0.00861853,0.,-0.004
 76041,-0.01344904,0.,-0.04704377,-0.07158892,0.,0.17568568,0.82288059,
 0.,-0.00287458,0.,0.,-0.00606214,0.,0.,0.01078159,0.,0.,0.00704445,0.0
 0628599,0.,-0.00417482,0.01221554,0.,0.02285552,0.06719432,0.,-0.09209
 320,-0.04596199,0.,0.18437166,-0.00173101,0.,0.00341429,0.00002815,0.,
 -0.00978903,-0.03214016,0.,-0.13704037,-0.72922410,0.,-0.03973386,0.76
 306712,0.,0.00102883,0.,0.,0.00654287,0.,0.,-0.00816953,0.,0.,-0.00888
 931,0.,0.,0.00948714,-0.00573951,0.,0.00124099,-0.00879538,0.,-0.02439
 714,-0.09069456,0.,-0.01253933,-0.07791951,0.,-0.11095917,0.18314896,0
 .,0.14665465\\-0.00063943,0.,-0.00014373,-0.00092624,0.,-0.00384541,-0
 .00304942,0.,0.00324336,0.00456317,0.,-0.00077858,0.00005193,0.,0.0015
 2436\\\@


 THE GREAT THING ABOUT BEING IMPERFECT IS THE JOY IT BRINGS OTHERS.
   -- SIGN OUTSIDE LAKE AGASSIZ JR. HIGH SCHOOL, FARGO, N.D.
 Job cpu time:       0 days  2 hours  3 minutes 33.8 seconds.
 Elapsed time:       0 days  0 hours  4 minutes 28.5 seconds.
 File lengths (MBytes):  RWF=   7239 Int=      0 D2E=      0 Chk=      8 Scr=      1
 Normal termination of Gaussian 16 at Mon Feb 21 20:47:08 2022.
