 Entering Gaussian System, Link 0=g16
 Input=hoono_r2_1p476215.gjf
 Output=hoono_r2_1p476215.log
 Initial command:
 /sw/contrib/gaussian/g16/B01/g16/l1.exe "/scr/Gau-18291.inp" -scrdir="/scr/"
 Entering Link 1 = /sw/contrib/gaussian/g16/B01/g16/l1.exe PID=     18292.
  
 Copyright (c) 1988-2017, Gaussian, Inc.  All Rights Reserved.
  
 This is part of the Gaussian(R) 16 program.  It is based on
 the Gaussian(R) 09 system (copyright 2009, Gaussian, Inc.),
 the Gaussian(R) 03 system (copyright 2003, Gaussian, Inc.),
 the Gaussian(R) 98 system (copyright 1998, Gaussian, Inc.),
 the Gaussian(R) 94 system (copyright 1995, Gaussian, Inc.),
 the Gaussian 92(TM) system (copyright 1992, Gaussian, Inc.),
 the Gaussian 90(TM) system (copyright 1990, Gaussian, Inc.),
 the Gaussian 88(TM) system (copyright 1988, Gaussian, Inc.),
 the Gaussian 86(TM) system (copyright 1986, Carnegie Mellon
 University), and the Gaussian 82(TM) system (copyright 1983,
 Carnegie Mellon University). Gaussian is a federally registered
 trademark of Gaussian, Inc.
  
 This software contains proprietary and confidential information,
 including trade secrets, belonging to Gaussian, Inc.
  
 This software is provided under written license and may be
 used, copied, transmitted, or stored only in accord with that
 written license.
  
 The following legend is applicable only to US Government
 contracts under FAR:
  
                    RESTRICTED RIGHTS LEGEND
  
 Use, reproduction and disclosure by the US Government is
 subject to restrictions as set forth in subparagraphs (a)
 and (c) of the Commercial Computer Software - Restricted
 Rights clause in FAR 52.227-19.
  
 Gaussian, Inc.
 340 Quinnipiac St., Bldg. 40, Wallingford CT 06492
  
  
 ---------------------------------------------------------------
 Warning -- This program may not be used in any manner that
 competes with the business of Gaussian, Inc. or will provide
 assistance to any competitor of Gaussian, Inc.  The licensee
 of this program is prohibited from giving any competitor of
 Gaussian, Inc. access to this program.  By using this program,
 the user acknowledges that Gaussian, Inc. is engaged in the
 business of creating and licensing software in the field of
 computational chemistry and represents and warrants to the
 licensee that it is not a competitor of Gaussian, Inc. and that
 it will not use this program in any manner prohibited above.
 ---------------------------------------------------------------
  

 Cite this work as:
 Gaussian 16, Revision B.01,
 M. J. Frisch, G. W. Trucks, H. B. Schlegel, G. E. Scuseria, 
 M. A. Robb, J. R. Cheeseman, G. Scalmani, V. Barone, 
 G. A. Petersson, H. Nakatsuji, X. Li, M. Caricato, A. V. Marenich, 
 J. Bloino, B. G. Janesko, R. Gomperts, B. Mennucci, H. P. Hratchian, 
 J. V. Ortiz, A. F. Izmaylov, J. L. Sonnenberg, D. Williams-Young, 
 F. Ding, F. Lipparini, F. Egidi, J. Goings, B. Peng, A. Petrone, 
 T. Henderson, D. Ranasinghe, V. G. Zakrzewski, J. Gao, N. Rega, 
 G. Zheng, W. Liang, M. Hada, M. Ehara, K. Toyota, R. Fukuda, 
 J. Hasegawa, M. Ishida, T. Nakajima, Y. Honda, O. Kitao, H. Nakai, 
 T. Vreven, K. Throssell, J. A. Montgomery, Jr., J. E. Peralta, 
 F. Ogliaro, M. J. Bearpark, J. J. Heyd, E. N. Brothers, K. N. Kudin, 
 V. N. Staroverov, T. A. Keith, R. Kobayashi, J. Normand, 
 K. Raghavachari, A. P. Rendell, J. C. Burant, S. S. Iyengar, 
 J. Tomasi, M. Cossi, J. M. Millam, M. Klene, C. Adamo, R. Cammi, 
 J. W. Ochterski, R. L. Martin, K. Morokuma, O. Farkas, 
 J. B. Foresman, and D. J. Fox, Gaussian, Inc., Wallingford CT, 2016.
 
 ******************************************
 Gaussian 16:  ES64L-G16RevB.01 20-Dec-2017
                21-Feb-2022 
 ******************************************
 %nproc=28
 Will use up to   28 processors via shared memory.
 %mem=120GB
 %chk=hoono_r2_1p476215.chk
 ---------------------------------------
 #p freq mp2/aug-cc-pvtz density=current
 ---------------------------------------
 1/10=4,30=1,38=1/1,3;
 2/12=2,17=6,18=5,40=1/2;
 3/5=16,6=1,7=10,11=9,25=1,30=1,71=2,140=1/1,2,3;
 4//1;
 5/5=2,38=5,98=1/2;
 8/6=3,8=1,10=1,19=11,30=-1/1;
 9/15=3,16=-3/6;
 11/6=1,8=1,15=11,17=12,24=-1,27=1,28=-2,29=300,32=6,42=3/1,2,10;
 10/6=2,21=1/2;
 8/6=4,8=1,10=1,19=11,30=-1/11,4;
 10/5=1,20=4/2;
 11/12=2,14=11,16=1,17=2,28=-2,42=3,76=2/2,10,12;
 6/7=2,8=2,9=2,10=2,22=-1/1;
 7/8=1,10=1,12=2,25=1,44=2/1,2,3,16;
 1/10=4,30=1/3;
 99//99;
 Leave Link    1 at Mon Feb 21 20:07:40 2022, MaxMem= 16106127360 cpu:               3.3 elap:               0.1
 (Enter /sw/contrib/gaussian/g16/B01/g16/l101.exe)
 -----
 title
 -----
 Symbolic Z-matrix:
 Charge =  0 Multiplicity = 1
 H
 O                    1    r1
 O                    2    r2       1    a1
 N                    3    r3       2    a2       1    d1       0
 O                    4    r4       3    a3       2    d2       0
       Variables:
  r1                    0.96898                  
  r2                    1.47622                  
  r3                    1.45878                  
  r4                    1.17073                  
  a1                   97.59495                  
  a2                  102.29752                  
  a3                  109.06955                  
  d1                  180.                       
  d2                  180.                       
 
 ITRead=  0  0  0  0  0
 MicOpt= -1 -1 -1 -1 -1
 NAtoms=      5 NQM=        5 NQMF=       0 NMMI=      0 NMMIF=      0
                NMic=       0 NMicF=      0.
                    Isotopes and Nuclear Properties:
 (Nuclear quadrupole moments (NQMom) in fm**2, nuclear magnetic moments (NMagM)
  in nuclear magnetons)

  Atom         1           2           3           4           5
 IAtWgt=           1          16          16          14          16
 AtmWgt=   1.0078250  15.9949146  15.9949146  14.0030740  15.9949146
 NucSpn=           1           0           0           2           0
 AtZEff=  -0.0000000  -0.0000000  -0.0000000  -0.0000000  -0.0000000
 NQMom=    0.0000000   0.0000000   0.0000000   2.0440000   0.0000000
 NMagM=    2.7928460   0.0000000   0.0000000   0.4037610   0.0000000
 AtZNuc=   1.0000000   8.0000000   8.0000000   7.0000000   8.0000000
 Leave Link  101 at Mon Feb 21 20:07:40 2022, MaxMem= 16106127360 cpu:               2.1 elap:               0.1
 (Enter /sw/contrib/gaussian/g16/B01/g16/l103.exe)

 GradGradGradGradGradGradGradGradGradGradGradGradGradGradGradGradGradGrad
 Berny optimization.
 Initialization pass.
                       ----------------------------
                       !    Initial Parameters    !
                       ! (Angstroms and Degrees)  !
 ----------------------                            ----------------------
 !      Name          Value   Derivative information (Atomic Units)     !
 ------------------------------------------------------------------------
 !       r1          0.969    calculate D2E/DX2 analytically            !
 !       r2          1.4762   calculate D2E/DX2 analytically            !
 !       r3          1.4588   calculate D2E/DX2 analytically            !
 !       r4          1.1707   calculate D2E/DX2 analytically            !
 !       a1         97.5949   calculate D2E/DX2 analytically            !
 !       a2        102.2975   calculate D2E/DX2 analytically            !
 !       a3        109.0696   calculate D2E/DX2 analytically            !
 !       d1        180.0      calculate D2E/DX2 analytically            !
 !       d2        180.0      calculate D2E/DX2 analytically            !
 ------------------------------------------------------------------------
 Trust Radius=3.00D-01 FncErr=1.00D-07 GrdErr=1.00D-07 EigMax=2.50D+02 EigMin=1.00D-04
 Number of steps in this run=      2 maximum allowed number of steps=      2.
 GradGradGradGradGradGradGradGradGradGradGradGradGradGradGradGradGradGrad

 Leave Link  103 at Mon Feb 21 20:07:40 2022, MaxMem= 16106127360 cpu:               0.7 elap:               0.1
 (Enter /sw/contrib/gaussian/g16/B01/g16/l202.exe)
                          Input orientation:                          
 ---------------------------------------------------------------------
 Center     Atomic      Atomic             Coordinates (Angstroms)
 Number     Number       Type             X           Y           Z
 ---------------------------------------------------------------------
      1          1           0        0.000000    0.000000    0.000000
      2          8           0        0.000000    0.000000    0.968976
      3          8           0        1.463265    0.000000    1.164085
      4          7           0        1.582861    0.000000    2.617959
      5          8           0        2.716977    0.000000    2.908454
 ---------------------------------------------------------------------
                    Distance matrix (angstroms):
                    1          2          3          4          5
     1  H    0.000000
     2  O    0.968976   0.000000
     3  O    1.869823   1.476215   0.000000
     4  N    3.059274   2.285737   1.458784   0.000000
     5  O    3.980084   3.338194   2.148165   1.170729   0.000000
 Stoichiometry    HNO3
 Framework group  CS[SG(HNO3)]
 Deg. of freedom     7
 Full point group                 CS      NOp   2
 Largest Abelian subgroup         CS      NOp   2
 Largest concise Abelian subgroup C1      NOp   1
                         Standard orientation:                         
 ---------------------------------------------------------------------
 Center     Atomic      Atomic             Coordinates (Angstroms)
 Number     Number       Type             X           Y           Z
 ---------------------------------------------------------------------
      1          1           0        1.579363    1.673756    0.000000
      2          8           0        1.475739    0.710337    0.000000
      3          8           0        0.000000    0.672830    0.000000
      4          7           0       -0.274390   -0.759916   -0.000000
      5          8           0       -1.433068   -0.927460   -0.000000
 ---------------------------------------------------------------------
 Rotational constants (GHZ):          54.4373657           4.9613267           4.5469277
 Leave Link  202 at Mon Feb 21 20:07:40 2022, MaxMem= 16106127360 cpu:               0.5 elap:               0.0
 (Enter /sw/contrib/gaussian/g16/B01/g16/l301.exe)
 Standard basis: Aug-CC-pVTZ (5D, 7F)
 Ernie: Thresh=  0.10000D-02 Tol=  0.10000D-05 Strict=F.
 Ernie:  12 primitive shells out of 131 were deleted.
 There are   166 symmetry adapted cartesian basis functions of A'  symmetry.
 There are    79 symmetry adapted cartesian basis functions of A"  symmetry.
 There are   136 symmetry adapted basis functions of A'  symmetry.
 There are    71 symmetry adapted basis functions of A"  symmetry.
   207 basis functions,   315 primitive gaussians,   245 cartesian basis functions
    16 alpha electrons       16 beta electrons
       nuclear repulsion energy       116.3518390192 Hartrees.
 IExCor=    0 DFT=F Ex=HF Corr=None ExCW=0 ScaHFX=  1.000000
 ScaDFX=  1.000000  1.000000  1.000000  1.000000 ScalE2=  1.000000  1.000000
 IRadAn=      5 IRanWt=     -1 IRanGd=            0 ICorTp=0 IEmpDi=  4
 NAtoms=    5 NActive=    5 NUniq=    5 SFac= 1.00D+00 NAtFMM=   60 NAOKFM=F Big=F
 Integral buffers will be    131072 words long.
 Raffenetti 1 integral format.
 Two-electron integral symmetry is turned on.
 Leave Link  301 at Mon Feb 21 20:07:40 2022, MaxMem= 16106127360 cpu:               1.6 elap:               0.1
 (Enter /sw/contrib/gaussian/g16/B01/g16/l302.exe)
 NPDir=0 NMtPBC=     1 NCelOv=     1 NCel=       1 NClECP=     1 NCelD=      1
         NCelK=      1 NCelE2=     1 NClLst=     1 CellRange=     0.0.
 One-electron integrals computed using PRISM.
 One-electron integral symmetry used in STVInt
 NBasis=   207 RedAO= T EigKep=  1.84D-04  NBF=   136    71
 NBsUse=   207 1.00D-06 EigRej= -1.00D+00 NBFU=   136    71
 Leave Link  302 at Mon Feb 21 20:07:40 2022, MaxMem= 16106127360 cpu:               5.4 elap:               0.2
 (Enter /sw/contrib/gaussian/g16/B01/g16/l303.exe)
 DipDrv:  MaxL=1.
 Leave Link  303 at Mon Feb 21 20:07:40 2022, MaxMem= 16106127360 cpu:               0.8 elap:               0.1
 (Enter /sw/contrib/gaussian/g16/B01/g16/l401.exe)
 ExpMin= 2.53D-02 ExpMax= 1.53D+04 ExpMxC= 5.22D+02 IAcc=3 IRadAn=         5 AccDes= 0.00D+00
 Harris functional with IExCor=  205 and IRadAn=       5 diagonalized for initial guess.
 HarFok:  IExCor=  205 AccDes= 0.00D+00 IRadAn=         5 IDoV= 1 UseB2=F ITyADJ=14
 ICtDFT=  3500011 ScaDFX=  1.000000  1.000000  1.000000  1.000000
 FoFCou: FMM=F IPFlag=           0 FMFlag=      100000 FMFlg1=           0
         NFxFlg=           0 DoJE=T BraDBF=F KetDBF=T FulRan=T
         wScrn=  0.000000 ICntrl=       500 IOpCl=  0 I1Cent=   200000004 NGrid=           0
         NMat0=    1 NMatS0=      1 NMatT0=    0 NMatD0=    1 NMtDS0=    0 NMtDT0=    0
 Petite list used in FoFCou.
 Harris En= -279.627606661873    
 JPrj=0 DoOrth=F DoCkMO=F.
 Initial guess orbital symmetries:
       Occupied  (A') (A') (A') (A') (A') (A') (A') (A') (A') (A')
                 (A") (A') (A') (A") (A") (A')
       Virtual   (A") (A') (A') (A') (A') (A') (A") (A') (A') (A')
                 (A") (A') (A") (A') (A') (A") (A') (A") (A') (A')
                 (A') (A') (A') (A') (A') (A") (A') (A") (A') (A')
                 (A") (A') (A") (A') (A') (A") (A') (A") (A') (A')
                 (A") (A') (A") (A') (A") (A') (A') (A') (A") (A")
                 (A') (A') (A') (A') (A") (A') (A") (A') (A") (A')
                 (A') (A') (A") (A') (A') (A") (A') (A") (A') (A')
                 (A") (A') (A') (A") (A") (A') (A') (A") (A') (A')
                 (A') (A") (A') (A") (A') (A") (A') (A") (A') (A')
                 (A') (A") (A') (A") (A') (A") (A") (A') (A') (A")
                 (A') (A') (A") (A') (A') (A') (A') (A") (A") (A')
                 (A") (A') (A') (A') (A") (A') (A') (A') (A") (A')
                 (A") (A') (A') (A") (A") (A') (A") (A') (A") (A')
                 (A') (A') (A') (A") (A") (A') (A") (A') (A') (A')
                 (A') (A") (A") (A') (A') (A") (A') (A') (A') (A')
                 (A') (A") (A') (A") (A') (A") (A') (A") (A") (A')
                 (A') (A") (A') (A") (A') (A") (A") (A") (A') (A')
                 (A") (A') (A") (A') (A') (A") (A") (A") (A') (A')
                 (A') (A') (A') (A') (A') (A') (A') (A') (A') (A')
                 (A')
 The electronic state of the initial guess is 1-A'.
 Leave Link  401 at Mon Feb 21 20:07:41 2022, MaxMem= 16106127360 cpu:               7.0 elap:               0.3
 (Enter /sw/contrib/gaussian/g16/B01/g16/l502.exe)
 Keep R1 ints in memory in symmetry-blocked form, NReq=348887737.
 FoFCou: FMM=F IPFlag=           0 FMFlag=           0 FMFlg1=           0
         NFxFlg=           0 DoJE=F BraDBF=F KetDBF=F FulRan=T
         wScrn=  0.000000 ICntrl=       600 IOpCl=  0 I1Cent=           0 NGrid=           0
         NMat0=    1 NMatS0=  21528 NMatT0=    0 NMatD0=    1 NMtDS0=    0 NMtDT0=    0
 Petite list used in FoFCou.
 Closed shell SCF:
 Using DIIS extrapolation, IDIIS=  1040.
 NGot= 16106127360 LenX= 15988850015 LenY= 15988789549
 Requested convergence on RMS density matrix=1.00D-08 within 128 cycles.
 Requested convergence on MAX density matrix=1.00D-06.
 Requested convergence on             energy=1.00D-06.
 No special actions if energy rises.

 Cycle   1  Pass 1  IDiag  1:
 E= -279.367866449000    
 DIIS: error= 2.97D-02 at cycle   1 NSaved=   1.
 NSaved= 1 IEnMin= 1 EnMin= -279.367866449000     IErMin= 1 ErrMin= 2.97D-02
 ErrMax= 2.97D-02  0.00D+00 EMaxC= 1.00D-01 BMatC= 4.38D-01 BMatP= 4.38D-01
 IDIUse=3 WtCom= 7.03D-01 WtEn= 2.97D-01
 Coeff-Com:  0.100D+01
 Coeff-En:   0.100D+01
 Coeff:      0.100D+01
 Gap=     0.517 Goal=   None    Shift=    0.000
 GapD=    0.517 DampG=2.000 DampE=0.500 DampFc=1.0000 IDamp=-1.
 RMSDP=1.62D-03 MaxDP=9.92D-02              OVMax= 1.15D-01

 Cycle   2  Pass 1  IDiag  1:
 E= -279.449146189781     Delta-E=       -0.081279740781 Rises=F Damp=F
 DIIS: error= 1.83D-02 at cycle   2 NSaved=   2.
 NSaved= 2 IEnMin= 2 EnMin= -279.449146189781     IErMin= 2 ErrMin= 1.83D-02
 ErrMax= 1.83D-02  0.00D+00 EMaxC= 1.00D-01 BMatC= 7.37D-02 BMatP= 4.38D-01
 IDIUse=3 WtCom= 8.17D-01 WtEn= 1.83D-01
 Coeff-Com:  0.198D+00 0.802D+00
 Coeff-En:   0.841D-02 0.992D+00
 Coeff:      0.164D+00 0.836D+00
 Gap=     0.530 Goal=   None    Shift=    0.000
 RMSDP=9.08D-04 MaxDP=3.71D-02 DE=-8.13D-02 OVMax= 7.02D-02

 Cycle   3  Pass 1  IDiag  1:
 E= -279.479053825583     Delta-E=       -0.029907635802 Rises=F Damp=F
 DIIS: error= 1.06D-02 at cycle   3 NSaved=   3.
 NSaved= 3 IEnMin= 3 EnMin= -279.479053825583     IErMin= 3 ErrMin= 1.06D-02
 ErrMax= 1.06D-02  0.00D+00 EMaxC= 1.00D-01 BMatC= 2.94D-02 BMatP= 7.37D-02
 IDIUse=3 WtCom= 8.94D-01 WtEn= 1.06D-01
 Coeff-Com: -0.333D-01 0.378D+00 0.655D+00
 Coeff-En:   0.000D+00 0.242D+00 0.758D+00
 Coeff:     -0.297D-01 0.364D+00 0.666D+00
 Gap=     0.511 Goal=   None    Shift=    0.000
 RMSDP=3.80D-04 MaxDP=1.50D-02 DE=-2.99D-02 OVMax= 3.86D-02

 Cycle   4  Pass 1  IDiag  1:
 E= -279.498625024191     Delta-E=       -0.019571198608 Rises=F Damp=F
 DIIS: error= 1.31D-03 at cycle   4 NSaved=   4.
 NSaved= 4 IEnMin= 4 EnMin= -279.498625024191     IErMin= 4 ErrMin= 1.31D-03
 ErrMax= 1.31D-03  0.00D+00 EMaxC= 1.00D-01 BMatC= 5.11D-04 BMatP= 2.94D-02
 IDIUse=3 WtCom= 9.87D-01 WtEn= 1.31D-02
 Coeff-Com: -0.120D-01 0.592D-01 0.162D+00 0.791D+00
 Coeff-En:   0.000D+00 0.000D+00 0.000D+00 0.100D+01
 Coeff:     -0.119D-01 0.584D-01 0.160D+00 0.793D+00
 Gap=     0.503 Goal=   None    Shift=    0.000
 RMSDP=9.04D-05 MaxDP=2.85D-03 DE=-1.96D-02 OVMax= 1.13D-02

 Cycle   5  Pass 1  IDiag  1:
 E= -279.499304788321     Delta-E=       -0.000679764130 Rises=F Damp=F
 DIIS: error= 7.48D-04 at cycle   5 NSaved=   5.
 NSaved= 5 IEnMin= 5 EnMin= -279.499304788321     IErMin= 5 ErrMin= 7.48D-04
 ErrMax= 7.48D-04  0.00D+00 EMaxC= 1.00D-01 BMatC= 8.82D-05 BMatP= 5.11D-04
 IDIUse=3 WtCom= 9.93D-01 WtEn= 7.48D-03
 Coeff-Com:  0.610D-02-0.718D-01-0.116D+00 0.269D-01 0.116D+01
 Coeff-En:   0.000D+00 0.000D+00 0.000D+00 0.000D+00 0.100D+01
 Coeff:      0.605D-02-0.712D-01-0.115D+00 0.267D-01 0.115D+01
 Gap=     0.503 Goal=   None    Shift=    0.000
 RMSDP=7.51D-05 MaxDP=2.07D-03 DE=-6.80D-04 OVMax= 1.08D-02

 Cycle   6  Pass 1  IDiag  1:
 E= -279.499616441158     Delta-E=       -0.000311652837 Rises=F Damp=F
 DIIS: error= 2.98D-04 at cycle   6 NSaved=   6.
 NSaved= 6 IEnMin= 6 EnMin= -279.499616441158     IErMin= 6 ErrMin= 2.98D-04
 ErrMax= 2.98D-04  0.00D+00 EMaxC= 1.00D-01 BMatC= 1.71D-05 BMatP= 8.82D-05
 IDIUse=3 WtCom= 9.97D-01 WtEn= 2.98D-03
 Coeff-Com:  0.890D-03-0.204D-02-0.186D-02-0.124D+00-0.181D+00 0.131D+01
 Coeff-En:   0.000D+00 0.000D+00 0.000D+00 0.000D+00 0.000D+00 0.100D+01
 Coeff:      0.887D-03-0.203D-02-0.185D-02-0.123D+00-0.180D+00 0.131D+01
 Gap=     0.503 Goal=   None    Shift=    0.000
 RMSDP=4.40D-05 MaxDP=1.23D-03 DE=-3.12D-04 OVMax= 5.34D-03

 Cycle   7  Pass 1  IDiag  1:
 E= -279.499687976414     Delta-E=       -0.000071535256 Rises=F Damp=F
 DIIS: error= 1.31D-04 at cycle   7 NSaved=   7.
 NSaved= 7 IEnMin= 7 EnMin= -279.499687976414     IErMin= 7 ErrMin= 1.31D-04
 ErrMax= 1.31D-04  0.00D+00 EMaxC= 1.00D-01 BMatC= 5.55D-06 BMatP= 1.71D-05
 IDIUse=3 WtCom= 9.99D-01 WtEn= 1.31D-03
 Coeff-Com: -0.949D-03 0.140D-01 0.272D-01-0.311D-01-0.311D+00 0.463D+00
 Coeff-Com:  0.839D+00
 Coeff-En:   0.000D+00 0.000D+00 0.000D+00 0.000D+00 0.000D+00 0.000D+00
 Coeff-En:   0.100D+01
 Coeff:     -0.948D-03 0.140D-01 0.272D-01-0.311D-01-0.311D+00 0.463D+00
 Coeff:      0.839D+00
 Gap=     0.503 Goal=   None    Shift=    0.000
 RMSDP=1.41D-05 MaxDP=3.89D-04 DE=-7.15D-05 OVMax= 1.61D-03

 Cycle   8  Pass 1  IDiag  1:
 E= -279.499698264384     Delta-E=       -0.000010287970 Rises=F Damp=F
 DIIS: error= 5.26D-05 at cycle   8 NSaved=   8.
 NSaved= 8 IEnMin= 8 EnMin= -279.499698264384     IErMin= 8 ErrMin= 5.26D-05
 ErrMax= 5.26D-05  0.00D+00 EMaxC= 1.00D-01 BMatC= 6.09D-07 BMatP= 5.55D-06
 IDIUse=1 WtCom= 1.00D+00 WtEn= 0.00D+00
 Coeff-Com: -0.446D-03 0.339D-02 0.748D-02 0.274D-01-0.406D-01-0.190D+00
 Coeff-Com:  0.788D-01 0.111D+01
 Coeff:     -0.446D-03 0.339D-02 0.748D-02 0.274D-01-0.406D-01-0.190D+00
 Coeff:      0.788D-01 0.111D+01
 Gap=     0.503 Goal=   None    Shift=    0.000
 RMSDP=7.45D-06 MaxDP=2.15D-04 DE=-1.03D-05 OVMax= 8.06D-04

 Cycle   9  Pass 1  IDiag  1:
 E= -279.499700233079     Delta-E=       -0.000001968694 Rises=F Damp=F
 DIIS: error= 1.59D-05 at cycle   9 NSaved=   9.
 NSaved= 9 IEnMin= 9 EnMin= -279.499700233079     IErMin= 9 ErrMin= 1.59D-05
 ErrMax= 1.59D-05  0.00D+00 EMaxC= 1.00D-01 BMatC= 6.60D-08 BMatP= 6.09D-07
 IDIUse=1 WtCom= 1.00D+00 WtEn= 0.00D+00
 Coeff-Com:  0.124D-03-0.172D-02-0.306D-02-0.190D-02 0.342D-01 0.562D-03
 Coeff-Com: -0.139D+00-0.147D+00 0.126D+01
 Coeff:      0.124D-03-0.172D-02-0.306D-02-0.190D-02 0.342D-01 0.562D-03
 Coeff:     -0.139D+00-0.147D+00 0.126D+01
 Gap=     0.503 Goal=   None    Shift=    0.000
 RMSDP=1.94D-06 MaxDP=6.61D-05 DE=-1.97D-06 OVMax= 1.72D-04

 Cycle  10  Pass 1  IDiag  1:
 E= -279.499700392486     Delta-E=       -0.000000159408 Rises=F Damp=F
 DIIS: error= 4.10D-06 at cycle  10 NSaved=  10.
 NSaved=10 IEnMin=10 EnMin= -279.499700392486     IErMin=10 ErrMin= 4.10D-06
 ErrMax= 4.10D-06  0.00D+00 EMaxC= 1.00D-01 BMatC= 5.54D-09 BMatP= 6.60D-08
 IDIUse=1 WtCom= 1.00D+00 WtEn= 0.00D+00
 Coeff-Com:  0.297D-04-0.226D-03-0.296D-03-0.264D-02 0.124D-02 0.192D-01
 Coeff-Com: -0.590D-02-0.794D-01-0.855D-01 0.115D+01
 Coeff:      0.297D-04-0.226D-03-0.296D-03-0.264D-02 0.124D-02 0.192D-01
 Coeff:     -0.590D-02-0.794D-01-0.855D-01 0.115D+01
 Gap=     0.503 Goal=   None    Shift=    0.000
 RMSDP=5.09D-07 MaxDP=2.12D-05 DE=-1.59D-07 OVMax= 4.10D-05

 Cycle  11  Pass 1  IDiag  1:
 E= -279.499700405068     Delta-E=       -0.000000012581 Rises=F Damp=F
 DIIS: error= 2.00D-06 at cycle  11 NSaved=  11.
 NSaved=11 IEnMin=11 EnMin= -279.499700405068     IErMin=11 ErrMin= 2.00D-06
 ErrMax= 2.00D-06  0.00D+00 EMaxC= 1.00D-01 BMatC= 6.47D-10 BMatP= 5.54D-09
 IDIUse=1 WtCom= 1.00D+00 WtEn= 0.00D+00
 Coeff-Com: -0.213D-04 0.243D-03 0.480D-03 0.502D-03-0.427D-02-0.325D-02
 Coeff-Com:  0.159D-01 0.372D-01-0.138D+00-0.179D+00 0.127D+01
 Coeff:     -0.213D-04 0.243D-03 0.480D-03 0.502D-03-0.427D-02-0.325D-02
 Coeff:      0.159D-01 0.372D-01-0.138D+00-0.179D+00 0.127D+01
 Gap=     0.503 Goal=   None    Shift=    0.000
 RMSDP=1.77D-07 MaxDP=6.44D-06 DE=-1.26D-08 OVMax= 1.74D-05

 Cycle  12  Pass 1  IDiag  1:
 E= -279.499700406846     Delta-E=       -0.000000001778 Rises=F Damp=F
 DIIS: error= 5.80D-07 at cycle  12 NSaved=  12.
 NSaved=12 IEnMin=12 EnMin= -279.499700406846     IErMin=12 ErrMin= 5.80D-07
 ErrMax= 5.80D-07  0.00D+00 EMaxC= 1.00D-01 BMatC= 7.14D-11 BMatP= 6.47D-10
 IDIUse=1 WtCom= 1.00D+00 WtEn= 0.00D+00
 Coeff-Com:  0.123D-05-0.292D-04-0.624D-04 0.188D-03 0.110D-02-0.223D-02
 Coeff-Com: -0.408D-02 0.502D-02 0.419D-01-0.116D+00-0.274D+00 0.135D+01
 Coeff:      0.123D-05-0.292D-04-0.624D-04 0.188D-03 0.110D-02-0.223D-02
 Coeff:     -0.408D-02 0.502D-02 0.419D-01-0.116D+00-0.274D+00 0.135D+01
 Gap=     0.503 Goal=   None    Shift=    0.000
 RMSDP=7.16D-08 MaxDP=2.83D-06 DE=-1.78D-09 OVMax= 6.74D-06

 Cycle  13  Pass 1  IDiag  1:
 E= -279.499700407077     Delta-E=       -0.000000000231 Rises=F Damp=F
 DIIS: error= 1.76D-07 at cycle  13 NSaved=  13.
 NSaved=13 IEnMin=13 EnMin= -279.499700407077     IErMin=13 ErrMin= 1.76D-07
 ErrMax= 1.76D-07  0.00D+00 EMaxC= 1.00D-01 BMatC= 4.13D-12 BMatP= 7.14D-11
 IDIUse=1 WtCom= 1.00D+00 WtEn= 0.00D+00
 Coeff-Com:  0.130D-05-0.141D-04-0.228D-04-0.869D-04 0.120D-03 0.725D-03
 Coeff-Com: -0.508D-03-0.359D-02 0.584D-03 0.418D-01-0.393D-01-0.323D+00
 Coeff-Com:  0.132D+01
 Coeff:      0.130D-05-0.141D-04-0.228D-04-0.869D-04 0.120D-03 0.725D-03
 Coeff:     -0.508D-03-0.359D-02 0.584D-03 0.418D-01-0.393D-01-0.323D+00
 Coeff:      0.132D+01
 Gap=     0.503 Goal=   None    Shift=    0.000
 RMSDP=1.94D-08 MaxDP=5.64D-07 DE=-2.31D-10 OVMax= 1.63D-06

 Cycle  14  Pass 1  IDiag  1:
 E= -279.499700407091     Delta-E=       -0.000000000014 Rises=F Damp=F
 DIIS: error= 2.62D-08 at cycle  14 NSaved=  14.
 NSaved=14 IEnMin=14 EnMin= -279.499700407091     IErMin=14 ErrMin= 2.62D-08
 ErrMax= 2.62D-08  0.00D+00 EMaxC= 1.00D-01 BMatC= 2.22D-13 BMatP= 4.13D-12
 IDIUse=1 WtCom= 1.00D+00 WtEn= 0.00D+00
 Coeff-Com: -0.200D-06 0.327D-05 0.576D-05 0.453D-05-0.864D-04 0.476D-04
 Coeff-Com:  0.245D-03 0.298D-03-0.254D-02 0.148D-02 0.179D-01-0.260D-01
 Coeff-Com: -0.211D+00 0.122D+01
 Coeff:     -0.200D-06 0.327D-05 0.576D-05 0.453D-05-0.864D-04 0.476D-04
 Coeff:      0.245D-03 0.298D-03-0.254D-02 0.148D-02 0.179D-01-0.260D-01
 Coeff:     -0.211D+00 0.122D+01
 Gap=     0.503 Goal=   None    Shift=    0.000
 RMSDP=4.01D-09 MaxDP=9.34D-08 DE=-1.36D-11 OVMax= 3.74D-07

 SCF Done:  E(RHF) =  -279.499700407     A.U. after   14 cycles
            NFock= 14  Conv=0.40D-08     -V/T= 2.0025
 KE= 2.788101115512D+02 PE=-8.940073470998D+02 EE= 2.193456961223D+02
 Leave Link  502 at Mon Feb 21 20:07:45 2022, MaxMem= 16106127360 cpu:              59.8 elap:               3.9
 (Enter /sw/contrib/gaussian/g16/B01/g16/l801.exe)
 ExpMin= 2.53D-02 ExpMax= 1.53D+04 ExpMxC= 5.22D+02 IAcc=3 IRadAn=         5 AccDes= 0.00D+00
 HarFok:  IExCor=  205 AccDes= 0.00D+00 IRadAn=         5 IDoV=-2 UseB2=F ITyADJ=14
 ICtDFT= 12500011 ScaDFX=  1.000000  1.000000  1.000000  1.000000
 DSYEVD-2 returned Info=          93 IAlg= 4 N=    46 NDim=    46 NE2=   350130240 trying  DSYEV.
 Largest valence mixing into a core orbital is  2.08D-04
 Largest core mixing into a valence orbital is  3.64D-05
 Range of M.O.s used for correlation:     5   207
 NBasis=   207 NAE=    16 NBE=    16 NFC=     4 NFV=     0
 NROrb=    203 NOA=    12 NOB=    12 NVA=   191 NVB=   191

 **** Warning!!: The largest alpha MO coefficient is  0.17510196D+02

 Leave Link  801 at Mon Feb 21 20:07:45 2022, MaxMem= 16106127360 cpu:               5.3 elap:               0.2
 (Enter /sw/contrib/gaussian/g16/B01/g16/l906.exe)
 Frozen-core derivative calculation, NFC=   4 NFV=   0.
 FulOut=F Deriv=T AODrv=T NAtomX=     5
   MMem=           0  MDisk=          12 MDiskD=          12
  W3Min=      811440 MinDsk=     2425030 NBas6D=         245
 NBas2D=       30762    NTT=       30135    LW2=     7400000
    MDV= 16105574339 MDiskM=      328644 NBas2p=       30702
 Disk-based method using ON**2 memory for 12 occupieds at a time.
 Permanent disk used for amplitudes=    11516536 words.
 Estimated scratch disk usage=   321251614 words.
 IMap=   1   2   3   4   5   6   7   8   9  10  11  12  13  14  15  16
 Actual    scratch disk usage=   310331678 words.
 JobTyp=1 Pass  1:  I=   5 to  16 NPSUse= 28 ParTrn=T ParDer=T DoDerP=T.
 (rs|ai) integrals will be sorted in core.
 Spin components of T(2) and E(2):
     alpha-alpha T2 =       0.3422564541D-01 E2=     -0.1225397539D+00
     alpha-beta  T2 =       0.1884150632D+00 E2=     -0.7017262951D+00
     beta-beta   T2 =       0.3422564541D-01 E2=     -0.1225397539D+00
 The integrals were generated   1 times.
 ANorm=    0.1121100510D+01
 E2 =    -0.9468058028D+00 EUMP2 =    -0.28044650620994D+03
 Leave Link  906 at Mon Feb 21 20:09:22 2022, MaxMem= 16106127360 cpu:            2707.2 elap:              96.8
 (Enter /sw/contrib/gaussian/g16/B01/g16/l1101.exe)
 Using compressed Sx but separate Hx and Fx, NAtomX=     5.
 Will process      6 centers per pass.
 Leave Link 1101 at Mon Feb 21 20:09:22 2022, MaxMem= 16106127360 cpu:               6.6 elap:               0.3
 (Enter /sw/contrib/gaussian/g16/B01/g16/l1102.exe)
 Leave Link 1102 at Mon Feb 21 20:09:22 2022, MaxMem= 16106127360 cpu:               0.5 elap:               0.0
 (Enter /sw/contrib/gaussian/g16/B01/g16/l1110.exe)
 Forming Gx(P) for the SCF density, NAtomX=     5.
 Integral derivatives from FoFJK, PRISM(SPDF).
 Do as many integral derivatives as possible in FoFJK.
 G2DrvN: MDV=   16106126844.
 G2DrvN: will do     6 centers at a time, making    1 passes.
 Calling FoFCou, ICntrl=  3107 FMM=F I1Cent=   0 AccDes= 0.00D+00.
 FoFJK:  IHMeth= 1 ICntrl=    3107 DoSepK=F KAlg= 0 I1Cent=           0 FoldK=F
 IRaf=         0 NMat=       1 IRICut=       1 DoRegI=T DoRafI=F ISym2E= 1 IDoP0=0 IntGTp=1.
 FoFCou: FMM=F IPFlag=           0 FMFlag=      100000 FMFlg1=           0
         NFxFlg=           0 DoJE=F BraDBF=F KetDBF=F FulRan=T
         wScrn=  0.000000 ICntrl=      3107 IOpCl=  0 I1Cent=           0 NGrid=           0
         NMat0=    1 NMatS0=      1 NMatT0=    0 NMatD0=    1 NMtDS0=    0 NMtDT0=    0
 Petite list used in FoFCou.
 End of G2Drv F.D. properties file   721 does not exist.
 End of G2Drv F.D. properties file   722 does not exist.
 End of G2Drv F.D. properties file   788 does not exist.
 Leave Link 1110 at Mon Feb 21 20:09:25 2022, MaxMem= 16106127360 cpu:              84.0 elap:               3.0
 (Enter /sw/contrib/gaussian/g16/B01/g16/l1002.exe)
 Minotr:  Closed shell wavefunction.
          IDoAtm=11111
          Frozen-core window.
          Direct CPHF calculation.
          Differentiating once with respect to electric field.
                with respect to dipole field.
          Differentiating once with respect to nuclear coordinates.
          Requested convergence is 1.0D-08 RMS, and 1.0D-07 maximum.
          Secondary convergence is 1.0D-12 RMS, and 1.0D-12 maximum.
          NewPWx=T KeepS1=T KeepF1=T KeepIn=T MapXYZ=F SortEE=F KeepMc=T.
 Keep R1 ints in memory in symmetry-blocked form, NReq=348888983.
 FoFCou: FMM=F IPFlag=           0 FMFlag=           0 FMFlg1=           0
         NFxFlg=           0 DoJE=F BraDBF=F KetDBF=F FulRan=T
         wScrn=  0.000000 ICntrl=       600 IOpCl=  0 I1Cent=           0 NGrid=           0
         NMat0=    1 NMatS0=  21528 NMatT0=    0 NMatD0=    1 NMtDS0=    0 NMtDT0=    0
 Petite list used in FoFCou.
          MDV=   16106127360 using IRadAn=       1.
          Solving linear equations simultaneously, MaxMat=       0.
          There are    18 degrees of freedom in the 1st order CPHF.  IDoFFX=6 NUNeed=    18.
     15 vectors produced by pass  0 Test12= 1.70D-14 5.56D-09 XBig12= 8.56D+00 1.05D+00.
 AX will form    15 AO Fock derivatives at one time.
     15 vectors produced by pass  1 Test12= 1.70D-14 5.56D-09 XBig12= 1.38D+00 2.68D-01.
     15 vectors produced by pass  2 Test12= 1.70D-14 5.56D-09 XBig12= 1.46D-01 9.47D-02.
     15 vectors produced by pass  3 Test12= 1.70D-14 5.56D-09 XBig12= 5.06D-03 1.05D-02.
     15 vectors produced by pass  4 Test12= 1.70D-14 5.56D-09 XBig12= 1.00D-04 1.88D-03.
     15 vectors produced by pass  5 Test12= 1.70D-14 5.56D-09 XBig12= 1.43D-06 1.77D-04.
     15 vectors produced by pass  6 Test12= 1.70D-14 5.56D-09 XBig12= 1.13D-08 1.50D-05.
     12 vectors produced by pass  7 Test12= 1.70D-14 5.56D-09 XBig12= 8.31D-11 1.29D-06.
      3 vectors produced by pass  8 Test12= 1.70D-14 5.56D-09 XBig12= 5.92D-13 1.24D-07.
      2 vectors produced by pass  9 Test12= 1.70D-14 5.56D-09 XBig12= 3.92D-15 1.05D-08.
 InvSVY:  IOpt=1 It=  1 EMax= 1.22D-15
 Solved reduced A of dimension   122 with    15 vectors.
 FullF1:  Do perturbations      1 to      18.
 Saving first derivative matrices.
 End of Minotr F.D. properties file   721 does not exist.
 End of Minotr F.D. properties file   722 does not exist.
 End of Minotr F.D. properties file   788 does not exist.
 Leave Link 1002 at Mon Feb 21 20:09:28 2022, MaxMem= 16106127360 cpu:              79.0 elap:               2.9
 (Enter /sw/contrib/gaussian/g16/B01/g16/l811.exe)
 MDV= 16106127360.
 Form MO integral derivatives with frozen-active canonical formalism.
 MOERI=1 MOERIx=1 NAtoms=     5 NAtomX=     5.
 Discarding MO integrals.
 MO basis two electron integral derivatives will not be stored on disk.
 IAlg= 3 DoFC=T DoPWx=T Debug=F.
 Frozen-core window:  NFC=   4 NFV=   0.
 Reordered first order wavefunction length =     18678272
 In DefCFB: NBatch=  1 ICI= 16 ICA=191 LFMax= 96
            Large arrays: LIAPS=   619940160 LIARS=   288257200 words.
 In StABat: MaxSiz= 55 MinSiz= 25 NAtomB=  5
 DoIAMN: NPSUse= 28.
 Leave Link  811 at Mon Feb 21 20:10:48 2022, MaxMem= 16106127360 cpu:            2239.3 elap:              80.1
 (Enter /sw/contrib/gaussian/g16/B01/g16/l804.exe)
 Frozen-core window:  NFC=   4 NFV=   0.
 Closed-shell transformation, MDV= 16106127360 ITran=4 ISComp=1.
 Semi-Direct transformation.
 ModeAB=           2 MOrb=            16 LenV=   16104923065
 LASXX=     67341636 LTotXX=    67341636 LenRXX=    67341636
 LTotAB=    68301760 MaxLAS=    99807120 LenRXY=    99807120
 NonZer=   134683272 LenScr=   202817536 LnRSAI=           0
 LnScr1=           0 LExtra=           0 Total=    369966292
 MaxDsk=          -1 SrtSym=           F ITran=            4
 DoSDTr:  NPSUse= 28
 JobTyp=0 Pass  1:  I=   1 to  16.
 (rs|ai) integrals will be sorted in core.
 Complete sort for first half transformation.
 First half transformation complete.
 Begin second half transformation for I=  10.
 Begin second half transformation for I=  10.
 Complete sort for second half transformation.
 Second half transformation complete.
 Spin components of T(2) and E(2):
     alpha-alpha T2 =       0.3422564541D-01 E2=     -0.1225397539D+00
     alpha-beta  T2 =       0.1884150632D+00 E2=     -0.7017262951D+00
     beta-beta   T2 =       0.3422564541D-01 E2=     -0.1225397539D+00
 ANorm=    0.1585475546D+01
 E2 =    -0.9468058028D+00 EUMP2 =    -0.28044650620994D+03
 Leave Link  804 at Mon Feb 21 20:11:04 2022, MaxMem= 16106127360 cpu:             427.2 elap:              15.3
 (Enter /sw/contrib/gaussian/g16/B01/g16/l1002.exe)
 Minotr:  Closed shell wavefunction.
          Computing MP2/KS-MP2 derivatives.
          Using Z-Vector for PSCF gradient.
          Skipping F1 and S1 gradient terms here.
          IDoAtm=11111
          Frozen-core window.
          Using MO integrals in the linear equations.
          Forming densities via direct SCF.
          Differentiating once with respect to electric field.
                with respect to dipole field.
          Differentiating once with respect to nuclear coordinates.
          Using symmetry in CPHF.
          Requested convergence is 1.0D-10 RMS, and 1.0D-09 maximum.
          NewPWx=F KeepS1=T KeepF1=T KeepIn=T MapXYZ=F SortEE=F KeepMc=T.
          MDV=   16106127360 using IRadAn=       5.
          Solving linear equations separately, MaxMat=       0.
          There are     1 degrees of freedom in the 1st order CPHF.  IDoFFX=0 NUNeed=     1.
 FoFJK:  IHMeth= 1 ICntrl=       0 DoSepK=F KAlg= 0 I1Cent=           0 FoldK=F
 IRaf=         0 NMat=       1 IRICut=       1 DoRegI=T DoRafI=F ISym2E= 0 IDoP0=0 IntGTp=1.
 FoFCou: FMM=F IPFlag=           0 FMFlag=      100000 FMFlg1=           0
         NFxFlg=           0 DoJE=F BraDBF=F KetDBF=F FulRan=T
         wScrn=  0.000000 ICntrl=         0 IOpCl=  0 I1Cent=           0 NGrid=           0
         NMat0=    1 NMatS0=      1 NMatT0=    0 NMatD0=    1 NMtDS0=    0 NMtDT0=    0
 Symmetry not used in FoFCou.
 LinEq1:  Iter=  0 NonCon=     1 RMS=5.99D-03 Max=1.34D-01 NDo=     1
 LinEq1:  Iter=  1 NonCon=     1 RMS=1.91D-03 Max=3.79D-02 NDo=     1
 LinEq1:  Iter=  2 NonCon=     1 RMS=8.72D-04 Max=1.44D-02 NDo=     1
 LinEq1:  Iter=  3 NonCon=     1 RMS=3.87D-04 Max=7.71D-03 NDo=     1
 LinEq1:  Iter=  4 NonCon=     1 RMS=1.19D-04 Max=1.86D-03 NDo=     1
 LinEq1:  Iter=  5 NonCon=     1 RMS=4.34D-05 Max=6.86D-04 NDo=     1
 LinEq1:  Iter=  6 NonCon=     1 RMS=1.99D-05 Max=2.21D-04 NDo=     1
 LinEq1:  Iter=  7 NonCon=     1 RMS=8.16D-06 Max=1.30D-04 NDo=     1
 LinEq1:  Iter=  8 NonCon=     1 RMS=3.51D-06 Max=3.39D-05 NDo=     1
 LinEq1:  Iter=  9 NonCon=     1 RMS=9.59D-07 Max=1.34D-05 NDo=     1
 LinEq1:  Iter= 10 NonCon=     1 RMS=1.89D-07 Max=2.08D-06 NDo=     1
 LinEq1:  Iter= 11 NonCon=     1 RMS=3.51D-08 Max=3.70D-07 NDo=     1
 LinEq1:  Iter= 12 NonCon=     1 RMS=8.58D-09 Max=1.14D-07 NDo=     1
 LinEq1:  Iter= 13 NonCon=     1 RMS=1.60D-09 Max=2.33D-08 NDo=     1
 LinEq1:  Iter= 14 NonCon=     1 RMS=2.91D-10 Max=4.08D-09 NDo=     1
 LinEq1:  Iter= 15 NonCon=     0 RMS=5.29D-11 Max=5.59D-10 NDo=     1
 Linear equations converged to 1.000D-10 1.000D-09 after    15 iterations.
 End of Minotr F.D. properties file   721 does not exist.
 End of Minotr F.D. properties file   722 does not exist.
 End of Minotr F.D. properties file   788 does not exist.
 Leave Link 1002 at Mon Feb 21 20:11:06 2022, MaxMem= 16106127360 cpu:              66.4 elap:               2.4
 (Enter /sw/contrib/gaussian/g16/B01/g16/l1102.exe)
 Use density number 2.
 Symmetrizing basis deriv contribution to polar:
 IMax=3 JMax=2 DiffMx= 0.00D+00
 Leave Link 1102 at Mon Feb 21 20:11:06 2022, MaxMem= 16106127360 cpu:               0.9 elap:               0.1
 (Enter /sw/contrib/gaussian/g16/B01/g16/l1110.exe)
 Forming Gx(P) for generalized density number  2 NAtomX=     5.
 Integral derivatives from FoFJK, PRISM(SPDF).
 Do as many integral derivatives as possible in FoFJK.
 G2DrvN: MDV=   16106126844.
 G2DrvN: will do     6 centers at a time, making    1 passes.
 Calling FoFCou, ICntrl=  3107 FMM=F I1Cent=   0 AccDes= 0.00D+00.
 FoFJK:  IHMeth= 1 ICntrl=    3107 DoSepK=F KAlg= 0 I1Cent=           0 FoldK=F
 IRaf=         0 NMat=       1 IRICut=       1 DoRegI=T DoRafI=F ISym2E= 1 IDoP0=0 IntGTp=1.
 FoFCou: FMM=F IPFlag=           0 FMFlag=      100000 FMFlg1=           0
         NFxFlg=           0 DoJE=F BraDBF=F KetDBF=F FulRan=T
         wScrn=  0.000000 ICntrl=      3107 IOpCl=  0 I1Cent=           0 NGrid=           0
         NMat0=    1 NMatS0=      1 NMatT0=    0 NMatD0=    1 NMtDS0=    0 NMtDT0=    0
 Petite list used in FoFCou.
 End of G2Drv F.D. properties file   721 does not exist.
 End of G2Drv F.D. properties file   722 does not exist.
 End of G2Drv F.D. properties file   788 does not exist.
 Leave Link 1110 at Mon Feb 21 20:11:09 2022, MaxMem= 16106127360 cpu:              83.5 elap:               3.0
 (Enter /sw/contrib/gaussian/g16/B01/g16/l1112.exe)
 MP22nd: MDV=   16106127360
 This link is doing NAtomX=     5 total of    18 degrees of freedom.
 Using ON3 I/O method in MakUI.
 Frozen-core window:  NFC=   4 NFV=   0.
 Using Ix for Sx.
 Use MO integrals over full window.
 Using OV2 memory method for fx*t*t/D, MaxI=    16 DoOO2=F NP=  28.
 R2 and R3 integrals will be kept in memory, NReq=   915591705.
 FoFCou: FMM=F IPFlag=           0 FMFlag=           0 FMFlg1=           0
         NFxFlg=           0 DoJE=F BraDBF=F KetDBF=F FulRan=T
         wScrn=  0.000000 ICntrl=       600 IOpCl=  0 I1Cent=           0 NGrid=           0
         NMat0=    1 NMatS0=      1 NMatT0=    0 NMatD0=    1 NMtDS0=    0 NMtDT0=    0
 Symmetry not used in FoFCou.
 DD1Dir will call FoFMem   1 times, MxPair=       272
 NAB=   136 NAA=     0 NBB=     0.
 Symmetry is being used.
 FoFJK:  IHMeth= 1 ICntrl=       0 DoSepK=F KAlg= 0 I1Cent=           0 FoldK=F
 IRaf=         0 NMat=      18 IRICut=      45 DoRegI=T DoRafI=T ISym2E= 2 IDoP0=3 IntGTp=3.
 Discarding MO integrals.
 Leave Link 1112 at Mon Feb 21 20:11:50 2022, MaxMem= 16106127360 cpu:            1128.3 elap:              40.9
 (Enter /sw/contrib/gaussian/g16/B01/g16/l601.exe)
 Copying SCF densities to generalized density rwf, IOpCl= 0 IROHF=0.

 **********************************************************************

            Population analysis using the MP2 Density.

 **********************************************************************

 Orbital symmetries:
       Occupied  (A') (A') (A') (A') (A') (A') (A') (A') (A') (A')
                 (A") (A') (A") (A') (A") (A')
       Virtual   (A') (A") (A') (A') (A') (A") (A') (A') (A") (A')
                 (A") (A') (A') (A') (A") (A') (A') (A") (A') (A')
                 (A') (A') (A') (A') (A") (A') (A') (A") (A') (A')
                 (A") (A') (A") (A') (A') (A") (A') (A') (A") (A')
                 (A") (A') (A") (A') (A') (A") (A') (A') (A") (A')
                 (A") (A') (A') (A') (A") (A') (A") (A') (A") (A')
                 (A') (A') (A") (A') (A') (A") (A') (A") (A') (A')
                 (A") (A') (A') (A") (A") (A') (A') (A") (A') (A')
                 (A') (A") (A') (A") (A') (A") (A') (A") (A') (A')
                 (A") (A') (A') (A") (A') (A") (A') (A") (A') (A')
                 (A") (A') (A") (A') (A') (A") (A') (A') (A") (A')
                 (A") (A') (A') (A') (A") (A') (A') (A') (A") (A')
                 (A") (A') (A") (A') (A') (A") (A") (A') (A") (A')
                 (A') (A') (A') (A") (A") (A") (A') (A') (A') (A')
                 (A") (A') (A") (A') (A') (A") (A') (A') (A') (A')
                 (A') (A") (A') (A") (A') (A") (A') (A") (A") (A')
                 (A') (A") (A') (A") (A') (A") (A") (A') (A") (A')
                 (A") (A') (A") (A') (A") (A') (A") (A") (A') (A')
                 (A') (A') (A') (A') (A') (A') (A') (A') (A') (A')
                 (A')
 The electronic state is 1-A'.
 Alpha  occ. eigenvalues --  -20.69207 -20.68466 -20.66181 -15.81324  -1.62347
 Alpha  occ. eigenvalues --   -1.48747  -1.25817  -0.94778  -0.77063  -0.75752
 Alpha  occ. eigenvalues --   -0.70998  -0.67939  -0.61843  -0.58639  -0.48896
 Alpha  occ. eigenvalues --   -0.47296
 Alpha virt. eigenvalues --    0.02958   0.07165   0.08537   0.10161   0.13279
 Alpha virt. eigenvalues --    0.13398   0.14397   0.15444   0.17830   0.19437
 Alpha virt. eigenvalues --    0.19989   0.20607   0.21606   0.22877   0.23721
 Alpha virt. eigenvalues --    0.26591   0.29327   0.30370   0.30998   0.34225
 Alpha virt. eigenvalues --    0.34892   0.38695   0.42101   0.43130   0.52699
 Alpha virt. eigenvalues --    0.52883   0.55815   0.58104   0.62555   0.63844
 Alpha virt. eigenvalues --    0.67458   0.68469   0.70465   0.71176   0.72298
 Alpha virt. eigenvalues --    0.72992   0.74486   0.79006   0.79181   0.81033
 Alpha virt. eigenvalues --    0.81235   0.82914   0.86801   0.90614   0.92158
 Alpha virt. eigenvalues --    0.92453   0.95743   0.97642   0.98324   1.01639
 Alpha virt. eigenvalues --    1.05047   1.05530   1.08038   1.11536   1.13805
 Alpha virt. eigenvalues --    1.18803   1.22075   1.23112   1.33823   1.34912
 Alpha virt. eigenvalues --    1.38599   1.45280   1.48815   1.51039   1.53676
 Alpha virt. eigenvalues --    1.56524   1.57840   1.61195   1.66019   1.66874
 Alpha virt. eigenvalues --    1.70295   1.79041   1.82984   1.83426   1.87619
 Alpha virt. eigenvalues --    1.90828   1.95583   1.98958   2.00796   2.07650
 Alpha virt. eigenvalues --    2.11600   2.13169   2.14594   2.22343   2.25994
 Alpha virt. eigenvalues --    2.26328   2.28826   2.31204   2.33805   2.38851
 Alpha virt. eigenvalues --    2.42090   2.42540   2.45256   2.46315   2.47424
 Alpha virt. eigenvalues --    2.49917   2.58671   2.59358   2.61341   2.62176
 Alpha virt. eigenvalues --    2.62874   2.66152   2.75617   2.82315   2.84978
 Alpha virt. eigenvalues --    2.87377   2.88327   2.91722   2.95285   3.01034
 Alpha virt. eigenvalues --    3.06841   3.12599   3.17889   3.22077   3.30868
 Alpha virt. eigenvalues --    3.34909   3.50982   3.63998   3.83819   3.83932
 Alpha virt. eigenvalues --    4.14496   4.15621   4.18041   4.25503   4.34670
 Alpha virt. eigenvalues --    4.38837   4.44385   4.52249   4.65870   4.69939
 Alpha virt. eigenvalues --    4.80275   4.82293   4.83174   4.89395   5.02161
 Alpha virt. eigenvalues --    5.07670   5.09889   5.14495   5.17828   5.23967
 Alpha virt. eigenvalues --    5.27199   5.30752   5.32669   5.35009   5.59381
 Alpha virt. eigenvalues --    5.67329   5.76333   5.79102   5.95042   6.16431
 Alpha virt. eigenvalues --    6.33500   6.34214   6.39943   6.49544   6.50569
 Alpha virt. eigenvalues --    6.61827   6.68175   6.70206   6.75442   6.75913
 Alpha virt. eigenvalues --    6.83180   6.89640   6.99659   7.02565   7.04000
 Alpha virt. eigenvalues --    7.07554   7.12194   7.13653   7.17530   7.21953
 Alpha virt. eigenvalues --    7.23664   7.30318   7.32439   7.34761   7.39424
 Alpha virt. eigenvalues --    7.40579   7.48244   7.59216   7.61023   7.61645
 Alpha virt. eigenvalues --    7.65795   7.76835   7.88185   8.05778   8.28642
 Alpha virt. eigenvalues --    8.38564   8.54524  13.32958  14.36831  15.14021
 Alpha virt. eigenvalues --   16.14979
          Condensed to atoms (all electrons):
               1          2          3          4          5
     1  H    0.588162   0.127913   0.021068   0.011950  -0.000566
     2  O    0.127913   8.296642  -0.148233  -0.086990   0.014838
     3  O    0.021068  -0.148233   8.445429  -0.132174  -0.037925
     4  N    0.011950  -0.086990  -0.132174   6.968842  -0.055053
     5  O   -0.000566   0.014838  -0.037925  -0.055053   8.271273
 Mulliken charges:
               1
     1  H    0.251473
     2  O   -0.204169
     3  O   -0.148163
     4  N    0.293425
     5  O   -0.192565
 Sum of Mulliken charges =   0.00000
 Mulliken charges with hydrogens summed into heavy atoms:
               1
     2  O    0.047304
     3  O   -0.148163
     4  N    0.293425
     5  O   -0.192565
 APT charges:
               1
     1  H    0.297790
     2  O   -0.289440
     3  O   -0.495589
     4  N    0.877583
     5  O   -0.390343
 Sum of APT charges =  -0.00000
 APT charges with hydrogens summed into heavy atoms:
               1
     2  O    0.008349
     3  O   -0.495589
     4  N    0.877583
     5  O   -0.390343
 Electronic spatial extent (au):  <R**2>=            254.9415
 Charge=             -0.0000 electrons
 Dipole moment (field-independent basis, Debye):
    X=              0.5121    Y=              1.3420    Z=              0.0000  Tot=              1.4364
 Quadrupole moment (field-independent basis, Debye-Ang):
   XX=            -22.3519   YY=            -18.6942   ZZ=            -22.0397
   XY=              3.3217   XZ=              0.0000   YZ=             -0.0000
 Traceless Quadrupole moment (field-independent basis, Debye-Ang):
   XX=             -1.3233   YY=              2.3344   ZZ=             -1.0111
   XY=              3.3217   XZ=              0.0000   YZ=             -0.0000
 Octapole moment (field-independent basis, Debye-Ang**2):
  XXX=              3.1739  YYY=             11.0092  ZZZ=             -0.0000  XYY=              7.9306
  XXY=              6.7900  XXZ=              0.0000  XZZ=             -1.6207  YZZ=             -0.8688
  YYZ=              0.0000  XYZ=              0.0000
 Hexadecapole moment (field-independent basis, Debye-Ang**3):
 XXXX=           -161.6518 YYYY=            -88.7873 ZZZZ=            -18.2988 XXXY=            -36.1894
 XXXZ=             -0.0000 YYYX=            -30.8442 YYYZ=             -0.0000 ZZZX=             -0.0000
 ZZZY=             -0.0000 XXYY=            -33.9987 XXZZ=            -31.5503 YYZZ=            -20.4403
 XXYZ=             -0.0000 YYXZ=             -0.0000 ZZXY=            -15.0920
 N-N= 1.163518390192D+02 E-N=-8.948005879405D+02  KE= 2.801688650668D+02
 Symmetry A'   KE= 2.662093185463D+02
 Symmetry A"   KE= 1.395954652047D+01
  Exact polarizability:  34.520   9.504  30.168   0.000   0.000  17.998
 Approx polarizability:  29.643   5.088  23.474   0.000   0.000  15.556
 No NMR shielding tensors so no spin-rotation constants.
 Leave Link  601 at Mon Feb 21 20:11:50 2022, MaxMem= 16106127360 cpu:               4.8 elap:               0.2
 (Enter /sw/contrib/gaussian/g16/B01/g16/l701.exe)
 ... and contract with generalized density number  2.
 Compute integral second derivatives.
 Leave Link  701 at Mon Feb 21 20:11:51 2022, MaxMem= 16106127360 cpu:               6.0 elap:               0.2
 (Enter /sw/contrib/gaussian/g16/B01/g16/l702.exe)
 L702 exits ... SP integral derivatives will be done elsewhere.
 Leave Link  702 at Mon Feb 21 20:11:51 2022, MaxMem= 16106127360 cpu:               1.0 elap:               0.1
 (Enter /sw/contrib/gaussian/g16/B01/g16/l703.exe)
 Integral derivatives from FoFJK, PRISM(SPDF).
 Compute integral second derivatives, UseDBF=F ICtDFT=           0.
 Calling FoFJK, ICntrl=  10100127 FMM=F ISym2X=1 I1Cent= 0 IOpClX= 0 NMat=1 NMatS=1 NMatT=0.
 FoFJK:  IHMeth= 1 ICntrl=10100127 DoSepK=F KAlg= 0 I1Cent=           0 FoldK=F
 IRaf=         0 NMat=       1 IRICut=       1 DoRegI=T DoRafI=F ISym2E= 1 IDoP0=0 IntGTp=1.
 FoFCou: FMM=F IPFlag=           0 FMFlag=      100000 FMFlg1=         800
         NFxFlg=           0 DoJE=F BraDBF=F KetDBF=F FulRan=T
         wScrn=  0.000000 ICntrl=  10100127 IOpCl=  0 I1Cent=           0 NGrid=           0
         NMat0=    1 NMatS0=      1 NMatT0=    0 NMatD0=    1 NMtDS0=    0 NMtDT0=    0
 Petite list used in FoFCou.
 Leave Link  703 at Mon Feb 21 20:12:06 2022, MaxMem= 16106127360 cpu:             422.0 elap:              15.1
 (Enter /sw/contrib/gaussian/g16/B01/g16/l716.exe)
 Dipole        = 2.01478094D-01 5.27981999D-01 1.22537721D-32
 Polarizability= 3.45199326D+01 9.50406758D+00 3.01678063D+01
                 1.08751041D-31 5.15138396D-31 1.79983504D+01
 Full mass-weighted force constant matrix:
 Low frequencies --- -277.8409  -29.1495   -0.0003    0.0008    0.0012   43.0198
 Low frequencies ---   67.6997  237.2638  343.9060
 ******    1 imaginary frequencies (negative Signs) ****** 
 Diagonal vibrational polarizability:
       14.7655665      24.8502996      43.8443501
 Harmonic frequencies (cm**-1), IR intensities (KM/Mole), Raman scattering
 activities (A**4/AMU), depolarization ratios for plane and unpolarized
 incident light, reduced masses (AMU), force constants (mDyne/A),
 and normal coordinates:
                      1                      2                      3
                     A"                     A"                     A'
 Frequencies --   -277.3258               235.5654               343.7299
 Red. masses --      1.1420                10.2538                 8.7570
 Frc consts  --      0.0517                 0.3352                 0.6096
 IR Inten    --    123.9854                 0.9506                 2.3131
  Atom  AN      X      Y      Z        X      Y      Z        X      Y      Z
     1   1    -0.00  -0.00   1.00    -0.00   0.00  -0.59     0.51  -0.45  -0.00
     2   8    -0.00   0.00  -0.07    -0.00   0.00  -0.30    -0.11  -0.39  -0.00
     3   8    -0.00  -0.00  -0.04    -0.00  -0.00   0.32    -0.15   0.41   0.00
     4   7     0.00   0.00   0.06     0.00   0.00   0.52     0.07   0.28   0.00
     5   8     0.00   0.00  -0.01     0.00   0.00  -0.44     0.18  -0.24  -0.00
                      4                      5                      6
                     A'                     A'                     A'
 Frequencies --    445.4642               769.7373               927.2000
 Red. masses --     12.1140                13.2800                14.6683
 Frc consts  --      1.4163                 4.6359                 7.4298
 IR Inten    --    198.4897               159.8367                37.1368
  Atom  AN      X      Y      Z        X      Y      Z        X      Y      Z
     1   1     0.45   0.16  -0.00    -0.31   0.19   0.00    -0.27  -0.00  -0.00
     2   8     0.33   0.17  -0.00     0.48   0.07  -0.00    -0.44   0.04  -0.00
     3   8     0.16   0.46   0.00    -0.16  -0.27   0.00     0.72  -0.06   0.00
     4   7    -0.35  -0.37   0.00    -0.12   0.60   0.00    -0.14   0.32   0.00
     5   8    -0.21  -0.32  -0.00    -0.20  -0.34  -0.00    -0.15  -0.27  -0.00
                      7                      8                      9
                     A'                     A'                     A'
 Frequencies --   1347.3760              1676.2700              3780.6929
 Red. masses --      1.1323                13.4315                 1.0677
 Frc consts  --      1.2112                22.2363                 8.9915
 IR Inten    --    150.9606               141.7306                81.4515
  Atom  AN      X      Y      Z        X      Y      Z        X      Y      Z
     1   1     0.99  -0.06  -0.00    -0.32   0.01   0.00     0.11   0.99   0.00
     2   8    -0.03   0.05  -0.00    -0.00  -0.04   0.00    -0.01  -0.06   0.00
     3   8    -0.02  -0.05   0.00     0.00   0.15  -0.00     0.00   0.00  -0.00
     4   7     0.02   0.01   0.00     0.71  -0.06  -0.00    -0.00  -0.00  -0.00
     5   8    -0.03  -0.01  -0.00    -0.60  -0.06   0.00     0.00   0.00   0.00

 -------------------
 - Thermochemistry -
 -------------------
 Temperature   298.150 Kelvin.  Pressure   1.00000 Atm.
 Atom     1 has atomic number  1 and mass   1.00783
 Atom     2 has atomic number  8 and mass  15.99491
 Atom     3 has atomic number  8 and mass  15.99491
 Atom     4 has atomic number  7 and mass  14.00307
 Atom     5 has atomic number  8 and mass  15.99491
 Molecular mass:    62.99564 amu.
 Principal axes and moments of inertia in atomic units:
                           1         2         3
     Eigenvalues --    33.15262 363.76181 396.91443
           X            0.81787  -0.57540   0.00000
           Y            0.57540   0.81787   0.00000
           Z            0.00000  -0.00000   1.00000
 This molecule is an asymmetric top.
 Rotational symmetry number  1.
 Rotational temperatures (Kelvin)      2.61258     0.23811     0.21822
 Rotational constants (GHZ):          54.43737     4.96133     4.54693
    1 imaginary frequencies ignored.
 Zero-point vibrational energy      56978.3 (Joules/Mol)
                                   13.61815 (Kcal/Mol)
 Warning -- explicit consideration of   3 degrees of freedom as
           vibrations may cause significant error
 Vibrational temperatures:    338.93   494.55   640.92  1107.48  1334.03
          (Kelvin)           1938.57  2411.78  5439.57
 
 Zero-point correction=                           0.021702 (Hartree/Particle)
 Thermal correction to Energy=                    0.025825
 Thermal correction to Enthalpy=                  0.026770
 Thermal correction to Gibbs Free Energy=        -0.004425
 Sum of electronic and zero-point Energies=           -280.424804
 Sum of electronic and thermal Energies=              -280.420681
 Sum of electronic and thermal Enthalpies=            -280.419737
 Sum of electronic and thermal Free Energies=         -280.450931
 
                     E (Thermal)             CV                S
                      KCal/Mol        Cal/Mol-Kelvin    Cal/Mol-Kelvin
 Total                   16.206             12.039             65.654
 Electronic               0.000              0.000              0.000
 Translational            0.889              2.981             38.341
 Rotational               0.889              2.981             23.086
 Vibrational             14.428              6.077              4.227
 Vibration     1          0.655              1.786              1.836
 Vibration     2          0.722              1.588              1.195
 Vibration     3          0.805              1.371              0.810
                       Q            Log10(Q)             Ln(Q)
 Total Bot       0.108429D+03          2.035145          4.686095
 Total V=0       0.104069D+13         12.017320         27.670902
 Vib (Bot)       0.222774D-09         -9.652136        -22.224864
 Vib (Bot)    1  0.834052D+00         -0.078807         -0.181460
 Vib (Bot)    2  0.538927D+00         -0.268470         -0.618175
 Vib (Bot)    3  0.386376D+00         -0.412990         -0.950944
 Vib (V=0)       0.213815D+01          0.330039          0.759943
 Vib (V=0)    1  0.147244D+01          0.168038          0.386922
 Vib (V=0)    2  0.123515D+01          0.091719          0.211191
 Vib (V=0)    3  0.113189D+01          0.053805          0.123890
 Electronic      0.100000D+01          0.000000          0.000000
 Translational   0.196526D+08          7.293420         16.793719
 Rotational      0.247663D+05          4.393862         10.117240
 
                                                                title
                                                             IR Spectrum
 
     3                                                                      1          1                                             
     7                                                                      6          3             9     7          4  3   2       
     8                                                                      7          4             2     7          4  4   3       
     1                                                                      6          7             7     0          5  4   6       
 
     X                                                                      X          X             X     X          X  X   X       
     X                                                                      X          X             X     X          X              
     X                                                                      X          X             X     X          X              
     X                                                                      X          X             X     X          X              
     X                                                                      X          X                   X          X              
     X                                                                      X          X                   X          X              
     X                                                                      X          X                   X          X              
     X                                                                      X          X                   X          X              
                                                                            X          X                   X          X              
                                                                            X          X                   X          X              
                                                                            X          X                   X          X              
                                                                            X          X                   X          X              
                                                                            X          X                   X          X              
                                                                            X          X                   X          X              
                                                                                       X                   X          X              
                                                                                                           X          X              
                                                                                                                      X              
                                                                                                                      X              
                                                                                                                      X              
                                                                                                                      X              
 
 ***** Axes restored to original set *****
 -------------------------------------------------------------------
 Center     Atomic                   Forces (Hartrees/Bohr)
 Number     Number              X              Y              Z
 -------------------------------------------------------------------
      1        1           0.001447193    0.000000000   -0.000425714
      2        8           0.009110074    0.000000000    0.003636344
      3        8          -0.009142487   -0.000000000   -0.003150175
      4        7          -0.001746923   -0.000000000    0.000572031
      5        8           0.000332144   -0.000000000   -0.000632485
 -------------------------------------------------------------------
 Cartesian Forces:  Max     0.009142487 RMS     0.003613770
 -----------------------------------------------------------------------------------------------
                       Internal Coordinate Forces (Hartree/Bohr or radian)
  Cent   Atom   N1       Length/X         N2         Alpha/Y        N3         Beta/Z          J
 -----------------------------------------------------------------------------------------------
      1  H 
      2  O        1   0.000426(     1)
      3  O        2  -0.010889(     2)      1  -0.002650(     5)
      4  N        3  -0.000176(     3)      2  -0.002335(     6)      1   0.000000(     8)     0
      5  O        4   0.000165(     4)      3  -0.001538(     7)      2   0.000000(     9)     0
 -----------------------------------------------------------------------------------------------
 Internal  Forces:  Max     0.010888995 RMS     0.003853589
 Force constants in Cartesian coordinates: 
                1             2             3             4             5 
      1  0.624068D-01
      2  0.000000D+00 -0.253918D-02
      3  0.400061D-02  0.000000D+00  0.512859D+00
      4 -0.360237D-01  0.000000D+00 -0.153737D-01  0.244139D+00
      5  0.000000D+00  0.368515D-02  0.000000D+00  0.000000D+00  0.453168D-02
      6  0.471630D-01  0.000000D+00 -0.509575D+00  0.260247D-01  0.000000D+00
      7 -0.159468D-01  0.000000D+00  0.128082D-01 -0.193319D+00  0.000000D+00
      8  0.000000D+00  0.431346D-03  0.000000D+00  0.000000D+00 -0.920401D-02
      9 -0.506533D-01  0.000000D+00  0.186315D-03 -0.133429D-01  0.000000D+00
     10 -0.932572D-02  0.000000D+00 -0.467491D-02 -0.158806D-01  0.000000D+00
     11  0.000000D+00 -0.254708D-02  0.000000D+00  0.000000D+00 -0.525956D-02
     12  0.514381D-02  0.000000D+00 -0.492609D-02  0.112538D-01  0.000000D+00
     13 -0.111066D-02  0.000000D+00  0.323988D-02  0.108360D-02  0.000000D+00
     14  0.000000D+00  0.969765D-03  0.000000D+00  0.000000D+00  0.624674D-02
     15 -0.565413D-02  0.000000D+00  0.145610D-02 -0.856186D-02  0.000000D+00
                6             7             8             9            10 
      6  0.593738D+00
      7 -0.153552D-01  0.311638D+00
      8  0.000000D+00  0.000000D+00  0.707100D-02
      9 -0.777401D-01  0.282855D-01  0.000000D+00  0.179369D+00
     10 -0.499029D-01 -0.766468D-01  0.000000D+00  0.174431D+00  0.826027D+00
     11  0.000000D+00  0.000000D+00  0.893400D-02  0.000000D+00  0.000000D+00
     12  0.176154D-01  0.645027D-01  0.000000D+00 -0.812903D-01 -0.197241D-01
     13 -0.792956D-02 -0.257258D-01  0.000000D+00 -0.138720D+00 -0.724173D+00
     14  0.000000D+00  0.000000D+00 -0.723234D-02  0.000000D+00  0.000000D+00
     15 -0.240389D-01 -0.902412D-01  0.000000D+00 -0.205249D-01 -0.100129D+00
               11            12            13            14            15 
     11  0.801076D-02
     12  0.000000D+00  0.185243D+00
     13  0.000000D+00 -0.611762D-01  0.749926D+00
     14 -0.913812D-02  0.000000D+00  0.000000D+00  0.915396D-02
     15  0.000000D+00 -0.116643D+00  0.204586D+00  0.000000D+00  0.159750D+00
 Force constants in internal coordinates: 
                1             2             3             4             5 
      1  0.512859D+00
      2 -0.108394D-01  0.248127D+00
      3  0.357596D-02  0.184074D-02  0.115665D+00
      4 -0.349986D-02  0.486353D-02  0.153288D+00  0.811943D+00
      5  0.877273D-02  0.602687D-01  0.249814D-02  0.453907D-02  0.210025D+00
      6  0.450052D-02  0.541914D-01  0.382417D-01  0.222076D-01  0.312189D-01
      7 -0.134211D-02  0.362418D-01  0.308102D-01  0.837294D-01  0.210736D-01
      8  0.000000D+00  0.000000D+00  0.000000D+00  0.000000D+00  0.000000D+00
      9  0.000000D+00  0.000000D+00  0.000000D+00  0.000000D+00  0.000000D+00
                6             7             8             9 
      6  0.271632D+00
      7  0.944107D-01  0.478725D+00
      8  0.000000D+00  0.000000D+00 -0.725127D-02
      9  0.000000D+00  0.000000D+00 -0.367983D-02  0.408223D-01
 Leave Link  716 at Mon Feb 21 20:12:06 2022, MaxMem= 16106127360 cpu:               1.1 elap:               0.1
 (Enter /sw/contrib/gaussian/g16/B01/g16/l103.exe)

 GradGradGradGradGradGradGradGradGradGradGradGradGradGradGradGradGradGrad
 Berny optimization.
 Search for a local minimum.
 Step number   1 out of a maximum of    2
 All quantities printed in internal units (Hartrees-Bohrs-Radians)
 Second derivative matrix not updated -- analytic derivatives used.
 The second derivative matrix:
                          r1        r2        r3        r4        a1
           r1           0.51286
           r2          -0.01084   0.24813
           r3           0.00358   0.00184   0.11567
           r4          -0.00350   0.00486   0.15329   0.81194
           a1           0.00877   0.06027   0.00250   0.00454   0.21003
           a2           0.00450   0.05419   0.03824   0.02221   0.03122
           a3          -0.00134   0.03624   0.03081   0.08373   0.02107
           d1           0.00000  -0.00000  -0.00000  -0.00000  -0.00000
           d2          -0.00000   0.00000   0.00000   0.00000   0.00000
                          a2        a3        d1        d2
           a2           0.27163
           a3           0.09441   0.47872
           d1          -0.00000  -0.00000  -0.00725
           d2          -0.00000  -0.00000  -0.00368   0.04082
 ITU=  0
     Eigenvalues ---   -0.00753   0.04110   0.07733   0.16480   0.21367
     Eigenvalues ---    0.30180   0.50819   0.51354   0.86964
 Eigenvalue     1 is  -7.53D-03 should be greater than     0.000000 Eigenvector:
                          d1        d2        a3        a2        r3
   1                    0.99712   0.07588   0.00000   0.00000  -0.00000
                          r4        a1        r1        r2
   1                    0.00000  -0.00000  -0.00000   0.00000
 Angle between quadratic step and forces=  19.96 degrees.
 Linear search not attempted -- first point.
 Variable       Old X    -DE/DX   Delta X   Delta X   Delta X     New X
                                 (Linear)    (Quad)   (Total)
    r1        1.83110   0.00043   0.00000  -0.00008  -0.00008   1.83102
    r2        2.78964  -0.01089   0.00000  -0.04397  -0.04397   2.74568
    r3        2.75670  -0.00018   0.00000  -0.00208  -0.00208   2.75462
    r4        2.21236   0.00016   0.00000   0.00085   0.00085   2.21320
    a1        1.70335  -0.00265   0.00000  -0.00005  -0.00005   1.70330
    a2        1.78543  -0.00234   0.00000   0.00040   0.00040   1.78582
    a3        1.90362  -0.00154   0.00000   0.00003   0.00003   1.90365
    d1        3.14159   0.00000   0.00000   0.00000   0.00000   3.14159
    d2        3.14159   0.00000   0.00000   0.00000   0.00000   3.14159
         Item               Value     Threshold  Converged?
 Maximum Force            0.010889     0.000450     NO 
 RMS     Force            0.003854     0.000300     NO 
 Maximum Displacement     0.043967     0.001800     NO 
 RMS     Displacement     0.014675     0.001200     NO 
 Predicted change in Energy=-2.392010D-04
                       ----------------------------
                       ! Non-Optimized Parameters !
                       ! (Angstroms and Degrees)  !
 ----------------------                            ----------------------
 !      Name          Value   Derivative information (Atomic Units)     !
 ------------------------------------------------------------------------
 !       r1          0.9689   -DE/DX =    0.0004                        !
 !       r2          1.4529   -DE/DX =   -0.0109                        !
 !       r3          1.4577   -DE/DX =   -0.0002                        !
 !       r4          1.1712   -DE/DX =    0.0002                        !
 !       a1         97.592    -DE/DX =   -0.0026                        !
 !       a2        102.3202   -DE/DX =   -0.0023                        !
 !       a3        109.071    -DE/DX =   -0.0015                        !
 !       d1        180.0      -DE/DX =    0.0                           !
 !       d2        180.0      -DE/DX =    0.0                           !
 ------------------------------------------------------------------------
 GradGradGradGradGradGradGradGradGradGradGradGradGradGradGradGradGradGrad

 Leave Link  103 at Mon Feb 21 20:12:06 2022, MaxMem= 16106127360 cpu:               0.6 elap:               0.1
 (Enter /sw/contrib/gaussian/g16/B01/g16/l9999.exe)

 ----------------------------------------------------------------------

 Electric dipole moment (input orientation):
 (Debye = 10**-18 statcoulomb cm , SI units = C m)
                  (au)            (Debye)         (10**-30 SI)
   Tot        0.565118D+00      0.143639D+01      0.479127D+01
   x         -0.143859D+00     -0.365654D+00     -0.121969D+01
   y          0.000000D+00      0.000000D+00      0.000000D+00
   z         -0.546501D+00     -0.138907D+01     -0.463343D+01

 Dipole polarizability, Alpha (input orientation).
 (esu units = cm**3 , SI units = C**2 m**2 J**-1)
 Alpha(0;0):
               (au)            (10**-24 esu)      (10**-40 SI)
   iso        0.275620D+02      0.408427D+01      0.454436D+01
   aniso      0.221581D+02      0.328349D+01      0.365338D+01
   xx         0.324491D+02      0.480845D+01      0.535013D+01
   yx         0.000000D+00      0.000000D+00      0.000000D+00
   yy         0.179984D+02      0.266708D+01      0.296753D+01
   zx         0.974944D+01      0.144472D+01      0.160746D+01
   zy         0.000000D+00      0.000000D+00      0.000000D+00
   zz         0.322387D+02      0.477728D+01      0.531544D+01

 ----------------------------------------------------------------------

 Dipole orientation:
     1         -0.00000000          0.00000000          0.00000000
     8         -0.46613366          0.00000000         -1.77077409
     8          2.11408036          0.00000000         -2.83124734
     7          1.63324066          0.00000000         -5.54569038
     8          3.56605886          0.00000000         -6.62213677

 Electric dipole moment (dipole orientation):
 (Debye = 10**-18 statcoulomb cm , SI units = C m)
                  (au)            (Debye)         (10**-30 SI)
   Tot        0.565118D+00      0.143639D+01      0.479127D+01
   x          0.000000D+00      0.000000D+00      0.000000D+00
   y          0.000000D+00      0.000000D+00      0.000000D+00
   z          0.565118D+00      0.143639D+01      0.479127D+01

 Dipole polarizability, Alpha (dipole orientation).
 (esu units = cm**3 , SI units = C**2 m**2 J**-1)
 Alpha(0;0):
               (au)            (10**-24 esu)      (10**-40 SI)
   iso        0.275620D+02      0.408427D+01      0.454436D+01
   aniso      0.221581D+02      0.328349D+01      0.365338D+01
   xx         0.276352D+02      0.409512D+01      0.455643D+01
   yx         0.000000D+00      0.000000D+00      0.000000D+00
   yy         0.179984D+02      0.266708D+01      0.296753D+01
   zx        -0.853763D+01     -0.126515D+01     -0.140767D+01
   zy         0.000000D+00      0.000000D+00      0.000000D+00
   zz         0.370525D+02      0.549062D+01      0.610914D+01

 ----------------------------------------------------------------------
 1\1\GINC-N2129\Freq\RMP2-FC\Aug-CC-pVTZ\H1N1O3\CGAVINH\21-Feb-2022\1\\
 #p freq mp2/aug-cc-pvtz density=current\\title\\0,1\H\O,1,r1\O,2,r2,1,
 a1\N,3,r3,2,a2,1,d1,0\O,4,r4,3,a3,2,d2,0\\r1=0.96897556\r2=1.47621549\
 r3=1.45878406\r4=1.17072885\a1=97.59494903\a2=102.29752444\a3=109.0695
 5123\d1=180.\d2=180.\\Version=ES64L-G16RevB.01\State=1-A'\HF=-279.4997
 004\MP2=-280.4465062\RMSD=4.008e-09\RMSF=3.614e-03\ZeroPoint=0.0217019
 \Thermal=0.0258254\Dipole=-0.1438593,0.,-0.5465006\DipoleDeriv=0.26597
 48,0.,0.047058,0.,0.3546423,0.,0.0850679,0.,0.2727517,-0.3279048,0.,-0
 .1976221,0.,-0.3138332,0.,-0.1192414,0.,-0.2265833,-0.05144,0.,0.13587
 82,0.,-0.0876108,0.,-0.7520922,0.,-1.3477158,0.8954084,0.,0.9098881,0.
 ,0.0662087,0.,0.9298446,0.,1.6711321,-0.7820383,0.,-0.8952022,0.,-0.01
 9407,0.,-0.1435789,0.,-0.3695848\Polar=32.4490516,0.,17.9983504,9.7494
 353,0.,32.2386873\Quadrupole=-1.4779343,-0.7517386,2.2296729,0.,2.1239
 935,0.\PG=CS [SG(H1N1O3)]\NImag=1\\0.06240681,0.,-0.00253918,0.0040006
 1,0.,0.51285851,-0.03602366,0.,-0.01537374,0.24413948,0.,0.00368515,0.
 ,0.,0.00453168,0.04716301,0.,-0.50957483,0.02602466,0.,0.59373847,-0.0
 1594677,0.,0.01280817,-0.19331884,0.,-0.01535518,0.31163822,0.,0.00043
 135,0.,0.,-0.00920401,0.,0.,0.00707100,-0.05065330,0.,0.00018632,-0.01
 334290,0.,-0.07774013,0.02828547,0.,0.17936902,-0.00932572,0.,-0.00467
 491,-0.01588058,0.,-0.04990293,-0.07664684,0.,0.17443079,0.82602652,0.
 ,-0.00254708,0.,0.,-0.00525956,0.,0.,0.00893400,0.,0.,0.00801076,0.005
 14381,0.,-0.00492609,0.01125384,0.,0.01761543,0.06450273,0.,-0.0812902
 7,-0.01972414,0.,0.18524348,-0.00111066,0.,0.00323988,0.00108360,0.,-0
 .00792956,-0.02572576,0.,-0.13872006,-0.72417337,0.,-0.06117625,0.7499
 2619,0.,0.00096977,0.,0.,0.00624674,0.,0.,-0.00723234,0.,0.,-0.0091381
 2,0.,0.,0.00915396,-0.00565413,0.,0.00145610,-0.00856186,0.,-0.0240389
 4,-0.09024119,0.,-0.02052494,-0.10012881,0.,-0.11664255,0.20458599,0.,
 0.15975034\\-0.00144719,0.,0.00042571,-0.00911007,0.,-0.00363634,0.009
 14249,0.,0.00315017,0.00174692,0.,-0.00057203,-0.00033214,0.,0.0006324
 9\\\@


 IF THERE IS ONE WAY BETTER THAN ANOTHER IT IS THE WAY OF NATURE.

                          -- ARISTOTLE
 Job cpu time:       0 days  2 hours  2 minutes 26.8 seconds.
 Elapsed time:       0 days  0 hours  4 minutes 25.9 seconds.
 File lengths (MBytes):  RWF=   7239 Int=      0 D2E=      0 Chk=      8 Scr=      1
 Normal termination of Gaussian 16 at Mon Feb 21 20:12:07 2022.
