title                                                                   
Freq      RMP2-FC                                                     Aug-CC-pVTZ         
Number of atoms                            I                5
Info1-9                                    I   N=           9
          33          24           0           0           0         100
           6           2           1
Full Title                                 C   N=           1
title       
Route                                      C   N=           4
#p freq mp2/aug-cc-pvtz density=current         
Charge                                     I                0
Multiplicity                               I                1
Number of electrons                        I               32
Number of alpha electrons                  I               16
Number of beta electrons                   I               16
Number of basis functions                  I              207
Number of independent functions            I              207
Number of point charges in /Mol/           I                0
Number of translation vectors              I                0
Atomic numbers                             I   N=           5
           1           8           8           7           8
Nuclear charges                            R   N=           5
  1.00000000E+00  8.00000000E+00  8.00000000E+00  7.00000000E+00  8.00000000E+00
Current cartesian coordinates              R   N=          15
  2.84159004E+00  3.28226993E+00 -1.66128809E-31  2.74111298E+00  1.45393030E+00
 -1.20387428E-31  1.29862307E-16  1.24063550E+00 -9.23110654E-32 -4.85717108E-01
 -1.47293903E+00  7.89606559E-32 -2.67130926E+00 -1.81602788E+00  7.93932944E-32
Number of symbols in /Mol/                 I                0
Force Field                                I                0
Atom Types                                 C   N=           5
                                                            
Int Atom Types                             I   N=           5
           0           0           0           0           0
MM charges                                 R   N=           5
  0.00000000E+00  0.00000000E+00  0.00000000E+00  0.00000000E+00  0.00000000E+00
Integer atomic weights                     I   N=           5
           1          16          16          14          16
Real atomic weights                        R   N=           5
  1.00782504E+00  1.59949146E+01  1.59949146E+01  1.40030740E+01  1.59949146E+01
Atom fragment info                         I   N=           5
           0           0           0           0           0
Atom residue num                           I   N=           5
           0           0           0           0           0
Nuclear spins                              I   N=           5
           1           0           0           2           0
Nuclear ZEff                               R   N=           5
 -1.00000000E+00 -5.60000000E+00 -5.60000000E+00 -4.55000000E+00 -5.60000000E+00
Nuclear ZNuc                               R   N=           5
  1.00000000E+00  8.00000000E+00  8.00000000E+00  7.00000000E+00  8.00000000E+00
Nuclear QMom                               R   N=           5
  0.00000000E+00  0.00000000E+00  0.00000000E+00  2.04400000E+00  0.00000000E+00
Nuclear GFac                               R   N=           5
  2.79284600E+00  0.00000000E+00  0.00000000E+00  4.03761000E-01  0.00000000E+00
MicOpt                                     I   N=           5
          -1          -1          -1          -1          -1
Number of residues                         I                0
Number of secondary structures             I                0
SymInf integers                            I   N=          26
           1           2           1           1           1           1
           1          -1           0           0           0           0
           0           0           0           0           0           0
           0           0           0           0           0           0
           0           0
RotTr to input orientation                 R   N=          12
 -9.98493366E-01 -9.71144342E-17 -5.48725636E-02  5.48725636E-02 -7.46082066E-17
 -9.98493366E-01  9.28741747E-17 -1.00000000E+00  7.98247173E-17  2.65720224E+00
  0.00000000E+00  3.43325008E+00
Number of contracted shells                I               65
Number of primitive shells                 I              119
Pure/Cartesian d shells                    I                0
Pure/Cartesian f shells                    I                0
Highest angular momentum                   I                3
Largest degree of contraction              I                7
Shell types                                I   N=          65
           0           0           0           0           1           1
           1          -2          -2           0           0           0
           0           0           1           1           1           1
          -2          -2          -2          -3          -3           0
           0           0           0           0           1           1
           1           1          -2          -2          -2          -3
          -3           0           0           0           0           0
           1           1           1           1          -2          -2
          -2          -3          -3           0           0           0
           0           0           1           1           1           1
          -2          -2          -2          -3          -3
Number of primitives per shell             I   N=          65
           3           1           1           1           1           1
           1           1           1           7           6           1
           1           1           3           1           1           1
           1           1           1           1           1           7
           6           1           1           1           3           1
           1           1           1           1           1           1
           1           7           6           1           1           1
           3           1           1           1           1           1
           1           1           1           7           6           1
           1           1           3           1           1           1
           1           1           1           1           1
Shell to atom map                          I   N=          65
           1           1           1           1           1           1
           1           1           1           2           2           2
           2           2           2           2           2           2
           2           2           2           2           2           3
           3           3           3           3           3           3
           3           3           3           3           3           3
           3           4           4           4           4           4
           4           4           4           4           4           4
           4           4           4           5           5           5
           5           5           5           5           5           5
           5           5           5           5           5
Primitive exponents                        R   N=         119
  3.38700000E+01  5.09500000E+00  1.15900000E+00  3.25800000E-01  1.02700000E-01
  2.52600000E-02  1.40700000E+00  3.88000000E-01  1.02000000E-01  1.05700000E+00
  2.47000000E-01  1.53300000E+04  2.29900000E+03  5.22400000E+02  1.47300000E+02
  4.75500000E+01  1.67600000E+01  6.20700000E+00  5.22400000E+02  1.47300000E+02
  4.75500000E+01  1.67600000E+01  6.20700000E+00  6.88200000E-01  1.75200000E+00
  2.38400000E-01  7.37600000E-02  3.44600000E+01  7.74900000E+00  2.28000000E+00
  7.15600000E-01  2.14000000E-01  5.97400000E-02  2.31400000E+00  6.45000000E-01
  2.14000000E-01  1.42800000E+00  5.00000000E-01  1.53300000E+04  2.29900000E+03
  5.22400000E+02  1.47300000E+02  4.75500000E+01  1.67600000E+01  6.20700000E+00
  5.22400000E+02  1.47300000E+02  4.75500000E+01  1.67600000E+01  6.20700000E+00
  6.88200000E-01  1.75200000E+00  2.38400000E-01  7.37600000E-02  3.44600000E+01
  7.74900000E+00  2.28000000E+00  7.15600000E-01  2.14000000E-01  5.97400000E-02
  2.31400000E+00  6.45000000E-01  2.14000000E-01  1.42800000E+00  5.00000000E-01
  1.14200000E+04  1.71200000E+03  3.89300000E+02  1.10000000E+02  3.55700000E+01
  1.25400000E+01  4.64400000E+00  3.89300000E+02  1.10000000E+02  3.55700000E+01
  1.25400000E+01  4.64400000E+00  5.11800000E-01  1.29300000E+00  1.78700000E-01
  5.76000000E-02  2.66300000E+01  5.94800000E+00  1.74200000E+00  5.55000000E-01
  1.72500000E-01  4.91000000E-02  1.65400000E+00  4.69000000E-01  1.51000000E-01
  1.09300000E+00  3.64000000E-01  1.53300000E+04  2.29900000E+03  5.22400000E+02
  1.47300000E+02  4.75500000E+01  1.67600000E+01  6.20700000E+00  5.22400000E+02
  1.47300000E+02  4.75500000E+01  1.67600000E+01  6.20700000E+00  6.88200000E-01
  1.75200000E+00  2.38400000E-01  7.37600000E-02  3.44600000E+01  7.74900000E+00
  2.28000000E+00  7.15600000E-01  2.14000000E-01  5.97400000E-02  2.31400000E+00
  6.45000000E-01  2.14000000E-01  1.42800000E+00  5.00000000E-01
Contraction coefficients                   R   N=         119
  2.54948632E-02  1.90362766E-01  8.52162022E-01  1.00000000E+00  1.00000000E+00
  1.00000000E+00  1.00000000E+00  1.00000000E+00  1.00000000E+00  1.00000000E+00
  1.00000000E+00  5.19808943E-04  4.02025621E-03  2.07128267E-02  8.10105536E-02
  2.35962985E-01  4.42653446E-01  3.57064423E-01 -4.42115008E-05 -1.22591041E-03
 -1.05517725E-02 -6.74452633E-02 -1.71198607E-01  1.07329856E+00  1.00000000E+00
  1.00000000E+00  1.00000000E+00  4.11634896E-02  2.57762836E-01  8.02419274E-01
  1.00000000E+00  1.00000000E+00  1.00000000E+00  1.00000000E+00  1.00000000E+00
  1.00000000E+00  1.00000000E+00  1.00000000E+00  5.19808943E-04  4.02025621E-03
  2.07128267E-02  8.10105536E-02  2.35962985E-01  4.42653446E-01  3.57064423E-01
 -4.42115008E-05 -1.22591041E-03 -1.05517725E-02 -6.74452633E-02 -1.71198607E-01
  1.07329856E+00  1.00000000E+00  1.00000000E+00  1.00000000E+00  4.11634896E-02
  2.57762836E-01  8.02419274E-01  1.00000000E+00  1.00000000E+00  1.00000000E+00
  1.00000000E+00  1.00000000E+00  1.00000000E+00  1.00000000E+00  1.00000000E+00
  5.34563860E-04  4.13435660E-03  2.12335358E-02  8.25006224E-02  2.38138871E-01
  4.42551547E-01  3.53757422E-01 -4.89867350E-05 -1.19527323E-03 -1.03490714E-02
 -6.48680190E-02 -1.71552477E-01  1.07289568E+00  1.00000000E+00  1.00000000E+00
  1.00000000E+00  3.98072123E-02  2.49002660E-01  8.10479727E-01  1.00000000E+00
  1.00000000E+00  1.00000000E+00  1.00000000E+00  1.00000000E+00  1.00000000E+00
  1.00000000E+00  1.00000000E+00  5.19808943E-04  4.02025621E-03  2.07128267E-02
  8.10105536E-02  2.35962985E-01  4.42653446E-01  3.57064423E-01 -4.42115008E-05
 -1.22591041E-03 -1.05517725E-02 -6.74452633E-02 -1.71198607E-01  1.07329856E+00
  1.00000000E+00  1.00000000E+00  1.00000000E+00  4.11634896E-02  2.57762836E-01
  8.02419274E-01  1.00000000E+00  1.00000000E+00  1.00000000E+00  1.00000000E+00
  1.00000000E+00  1.00000000E+00  1.00000000E+00  1.00000000E+00
Coordinates of each shell                  R   N=         195
  2.84159004E+00  3.28226993E+00 -8.09897625E-32  2.84159004E+00  3.28226993E+00
 -8.09897625E-32  2.84159004E+00  3.28226993E+00 -8.09897625E-32  2.84159004E+00
  3.28226993E+00 -8.09897625E-32  2.84159004E+00  3.28226993E+00 -8.09897625E-32
  2.84159004E+00  3.28226993E+00 -8.09897625E-32  2.84159004E+00  3.28226993E+00
 -8.09897625E-32  2.84159004E+00  3.28226993E+00 -8.09897625E-32  2.84159004E+00
  3.28226993E+00 -8.09897625E-32  2.74111298E+00  1.45393030E+00 -4.65154787E-32
  2.74111298E+00  1.45393030E+00 -4.65154787E-32  2.74111298E+00  1.45393030E+00
 -4.65154787E-32  2.74111298E+00  1.45393030E+00 -4.65154787E-32  2.74111298E+00
  1.45393030E+00 -4.65154787E-32  2.74111298E+00  1.45393030E+00 -4.65154787E-32
  2.74111298E+00  1.45393030E+00 -4.65154787E-32  2.74111298E+00  1.45393030E+00
 -4.65154787E-32  2.74111298E+00  1.45393030E+00 -4.65154787E-32  2.74111298E+00
  1.45393030E+00 -4.65154787E-32  2.74111298E+00  1.45393030E+00 -4.65154787E-32
  2.74111298E+00  1.45393030E+00 -4.65154787E-32  2.74111298E+00  1.45393030E+00
 -4.65154787E-32  2.74111298E+00  1.45393030E+00 -4.65154787E-32 -2.03677597E-19
  1.24063550E+00 -2.29034605E-32 -2.03677597E-19  1.24063550E+00 -2.29034605E-32
 -2.03677597E-19  1.24063550E+00 -2.29034605E-32 -2.03677597E-19  1.24063550E+00
 -2.29034605E-32 -2.03677597E-19  1.24063550E+00 -2.29034605E-32 -2.03677597E-19
  1.24063550E+00 -2.29034605E-32 -2.03677597E-19  1.24063550E+00 -2.29034605E-32
 -2.03677597E-19  1.24063550E+00 -2.29034605E-32 -2.03677597E-19  1.24063550E+00
 -2.29034605E-32 -2.03677597E-19  1.24063550E+00 -2.29034605E-32 -2.03677597E-19
  1.24063550E+00 -2.29034605E-32 -2.03677597E-19  1.24063550E+00 -2.29034605E-32
 -2.03677597E-19  1.24063550E+00 -2.29034605E-32 -2.03677597E-19  1.24063550E+00
 -2.29034605E-32 -4.85717108E-01 -1.47293903E+00  3.06782724E-32 -4.85717108E-01
 -1.47293903E+00  3.06782724E-32 -4.85717108E-01 -1.47293903E+00  3.06782724E-32
 -4.85717108E-01 -1.47293903E+00  3.06782724E-32 -4.85717108E-01 -1.47293903E+00
  3.06782724E-32 -4.85717108E-01 -1.47293903E+00  3.06782724E-32 -4.85717108E-01
 -1.47293903E+00  3.06782724E-32 -4.85717108E-01 -1.47293903E+00  3.06782724E-32
 -4.85717108E-01 -1.47293903E+00  3.06782724E-32 -4.85717108E-01 -1.47293903E+00
  3.06782724E-32 -4.85717108E-01 -1.47293903E+00  3.06782724E-32 -4.85717108E-01
 -1.47293903E+00  3.06782724E-32 -4.85717108E-01 -1.47293903E+00  3.06782724E-32
 -4.85717108E-01 -1.47293903E+00  3.06782724E-32 -2.67130926E+00 -1.81602788E+00
  5.26991711E-32 -2.67130926E+00 -1.81602788E+00  5.26991711E-32 -2.67130926E+00
 -1.81602788E+00  5.26991711E-32 -2.67130926E+00 -1.81602788E+00  5.26991711E-32
 -2.67130926E+00 -1.81602788E+00  5.26991711E-32 -2.67130926E+00 -1.81602788E+00
  5.26991711E-32 -2.67130926E+00 -1.81602788E+00  5.26991711E-32 -2.67130926E+00
 -1.81602788E+00  5.26991711E-32 -2.67130926E+00 -1.81602788E+00  5.26991711E-32
 -2.67130926E+00 -1.81602788E+00  5.26991711E-32 -2.67130926E+00 -1.81602788E+00
  5.26991711E-32 -2.67130926E+00 -1.81602788E+00  5.26991711E-32 -2.67130926E+00
 -1.81602788E+00  5.26991711E-32 -2.67130926E+00 -1.81602788E+00  5.26991711E-32
Num ILSW                                   I              100
ILSW                                       I   N=         100
           0           0           0           0           2           0
           0           0           0           0           0          -1
           5           0           0           0           2           0
           0           0           0           0           1           0
           1           0           0           0           0           0
           0           0      100000           0          -1           0
           0           0           0           0           0           0
           0           0           0           1           1           0
           0 -2000000000           1           0           0           0
           0           0           4          52           0           0
           0           0           0           0           0           0
           0           0           0           5           4           1
           0           0           0           0           0           0
           0           0           0           0           0           0
           0           0           0           0           0           0
           0           0           0           0           0           0
           0           0           0           0
Num RLSW                                   I               52
RLSW                                       R   N=          52
  1.00000000E+00  1.00000000E+00  1.00000000E+00  1.00000000E+00  1.00000000E+00
  0.00000000E+00  0.00000000E+00  1.00000000E+00  0.00000000E+00  0.00000000E+00
  0.00000000E+00  0.00000000E+00  1.00000000E+00  0.00000000E+00  0.00000000E+00
  0.00000000E+00  0.00000000E+00  1.00000000E+00  0.00000000E+00  0.00000000E+00
  0.00000000E+00  0.00000000E+00  1.00000000E+00  0.00000000E+00  0.00000000E+00
  0.00000000E+00  0.00000000E+00  1.00000000E+00  0.00000000E+00  0.00000000E+00
  0.00000000E+00  0.00000000E+00  1.00000000E+00  0.00000000E+00  0.00000000E+00
  0.00000000E+00  0.00000000E+00  0.00000000E+00  1.00000000E+00  1.00000000E+00
  0.00000000E+00  1.00000000E+00  0.00000000E+00  0.00000000E+00  0.00000000E+00
  0.00000000E+00  0.00000000E+00  0.00000000E+00  0.00000000E+00  0.00000000E+00
  0.00000000E+00  0.00000000E+00
MxBond                                     I                2
NBond                                      I   N=           5
           1           2           2           2           1
IBond                                      I   N=          10
           2           0           1           3           2           4
           3           5           4           0
RBond                                      R   N=          10
  1.00000000E+00  0.00000000E+00  1.00000000E+00  1.00000000E+00  1.00000000E+00
  1.00000000E+00  1.00000000E+00  2.00000000E+00  2.00000000E+00  0.00000000E+00
Virial Ratio                               R      2.002398206689867E+00
SCF Energy                                 R     -2.795016073653366E+02
MP2 Energy                                 R     -2.804465127704403E+02
Total Energy                               R     -2.804465127704403E+02
Post-SCF wavefunction norm                 R      1.584256718745421E+00
RMS Force                                  R      2.364717796105515E-03
RMS Density                                R      3.815635947201430E-09
NImag                                      I                1
Job Status                                 I                1
Nuclear derivative order                   I                2
External E-field                           R   N=          35
  0.00000000E+00  0.00000000E+00  0.00000000E+00  0.00000000E+00  0.00000000E+00
  0.00000000E+00  0.00000000E+00  0.00000000E+00  0.00000000E+00  0.00000000E+00
  0.00000000E+00  0.00000000E+00  0.00000000E+00  0.00000000E+00  0.00000000E+00
  0.00000000E+00  0.00000000E+00  0.00000000E+00  0.00000000E+00  0.00000000E+00
  0.00000000E+00  0.00000000E+00  0.00000000E+00  0.00000000E+00  0.00000000E+00
  0.00000000E+00  0.00000000E+00  0.00000000E+00  0.00000000E+00  0.00000000E+00
  0.00000000E+00  0.00000000E+00  0.00000000E+00  0.00000000E+00  0.00000000E+00
IOpCl                                      I                0
IROHF                                      I                0
Alpha Orbital Energies                     R   N=         207
 -2.06901573E+01 -2.06848199E+01 -2.06607496E+01 -1.58135476E+01 -1.62396217E+00
 -1.49508289E+00 -1.25546596E+00 -9.47651373E-01 -7.71070342E-01 -7.60079577E-01
 -7.11454378E-01 -6.82714173E-01 -6.21049962E-01 -5.87680096E-01 -4.85012790E-01
 -4.72033662E-01  2.96350615E-02  7.14044857E-02  8.59869855E-02  1.02333810E-01
  1.33681396E-01  1.33703683E-01  1.43779918E-01  1.53724993E-01  1.78347297E-01
  1.94384528E-01  2.00053769E-01  2.05913021E-01  2.20601137E-01  2.35070659E-01
  2.37191720E-01  2.67788521E-01  2.93748694E-01  3.02653741E-01  3.11115993E-01
  3.44032467E-01  3.48979194E-01  3.86215010E-01  4.22601820E-01  4.33469756E-01
  5.27197556E-01  5.27662403E-01  5.55962081E-01  5.78176010E-01  6.25328299E-01
  6.40022423E-01  6.74996242E-01  6.84618659E-01  7.07694177E-01  7.09703856E-01
  7.24886701E-01  7.28176579E-01  7.44628217E-01  7.92154640E-01  7.94030594E-01
  8.11693333E-01  8.12613536E-01  8.28367059E-01  8.68196746E-01  9.08392048E-01
  9.21782172E-01  9.26963769E-01  9.52880889E-01  9.69754109E-01  9.82701434E-01
  1.01632813E+00  1.05015176E+00  1.05652863E+00  1.07608596E+00  1.11209210E+00
  1.13751307E+00  1.19236719E+00  1.21857057E+00  1.23580581E+00  1.34091342E+00
  1.35205383E+00  1.38334334E+00  1.45556319E+00  1.48841722E+00  1.50852248E+00
  1.53537048E+00  1.56464214E+00  1.57806931E+00  1.61036703E+00  1.65851318E+00
  1.67406535E+00  1.70328608E+00  1.79042229E+00  1.83790154E+00  1.83804763E+00
  1.87654036E+00  1.90609781E+00  1.95237227E+00  1.99045125E+00  2.00613304E+00
  2.07900106E+00  2.12638641E+00  2.13350355E+00  2.14936483E+00  2.22228919E+00
  2.26376092E+00  2.26568205E+00  2.29165704E+00  2.31122356E+00  2.33171006E+00
  2.38338437E+00  2.42019019E+00  2.42991071E+00  2.45587911E+00  2.46000891E+00
  2.47657677E+00  2.49518818E+00  2.58665584E+00  2.59847100E+00  2.61788136E+00
  2.62980077E+00  2.64040502E+00  2.66359711E+00  2.75210337E+00  2.81464022E+00
  2.83222004E+00  2.87010165E+00  2.89621779E+00  2.92860408E+00  2.96434041E+00
  3.01064808E+00  3.06255620E+00  3.11617937E+00  3.20200461E+00  3.22187835E+00
  3.31917815E+00  3.35291263E+00  3.53310569E+00  3.63033899E+00  3.83586962E+00
  3.84269490E+00  4.14596468E+00  4.16398302E+00  4.18134787E+00  4.25333845E+00
  4.35784955E+00  4.38836293E+00  4.46283501E+00  4.52148833E+00  4.64828746E+00
  4.70880522E+00  4.79688517E+00  4.82337138E+00  4.83277746E+00  4.89398488E+00
  5.02583714E+00  5.07780250E+00  5.10385740E+00  5.15482117E+00  5.17061922E+00
  5.23710187E+00  5.27397889E+00  5.30768772E+00  5.32362085E+00  5.34479601E+00
  5.58649691E+00  5.67324533E+00  5.76178791E+00  5.83325020E+00  5.95765059E+00
  6.16114690E+00  6.30911014E+00  6.34061417E+00  6.39693903E+00  6.49456866E+00
  6.50746300E+00  6.60931699E+00  6.67211071E+00  6.70190204E+00  6.74994941E+00
  6.76304169E+00  6.83097660E+00  6.90158767E+00  7.01923234E+00  7.05529136E+00
  7.06322342E+00  7.08960832E+00  7.12223727E+00  7.14513987E+00  7.18037038E+00
  7.22737747E+00  7.23880080E+00  7.30617028E+00  7.32591854E+00  7.33307630E+00
  7.39369193E+00  7.43524273E+00  7.48056412E+00  7.61253747E+00  7.61550485E+00
  7.61935498E+00  7.65926392E+00  7.78579793E+00  7.87619714E+00  8.09630878E+00
  8.31374096E+00  8.40976351E+00  8.54657305E+00  1.33700356E+01  1.44377415E+01
  1.51381985E+01  1.61492275E+01
Alpha MO coefficients                      R   N=       42849
  9.31667045E-05 -6.75167946E-04 -7.48425473E-04 -7.17790750E-06 -2.32167321E-05
 -2.75367488E-05  0.00000000E+00 -3.94046673E-05  7.14308621E-05  0.00000000E+00
  9.41704344E-05  4.46799925E-05  0.00000000E+00  3.27640091E-05  0.00000000E+00
  0.00000000E+00 -5.09979349E-05  1.67047206E-05 -3.60732616E-06  0.00000000E+00
  0.00000000E+00 -1.53123524E-04  1.06138361E-04  4.81066259E-03 -2.80311377E-04
  2.10268697E-05  1.65935057E-03  1.84955120E-03  1.08018034E-04  1.22694005E-05
  0.00000000E+00 -6.30954989E-04 -6.31393144E-05  0.00000000E+00 -1.18223616E-03
  7.69827330E-04  0.00000000E+00 -4.12271868E-04  4.70194374E-05  0.00000000E+00
  2.87862806E-05  0.00000000E+00  0.00000000E+00 -5.46762897E-05  1.02494024E-06
 -3.83234785E-04  0.00000000E+00  0.00000000E+00  7.45711831E-04  3.54041542E-05
 -4.51716824E-04  0.00000000E+00  0.00000000E+00  2.58594727E-04  3.52520917E-06
  0.00000000E+00  8.04338780E-05  1.65093833E-05  0.00000000E+00  0.00000000E+00
 -1.07460777E-04 -1.69625247E-05  0.00000000E+00  2.53541937E-04 -1.92852978E-05
  0.00000000E+00  0.00000000E+00 -3.65795074E-04  1.35520135E-06  9.76907714E-01
 -9.20058177E-03  4.33261002E-02  1.94108752E-03 -9.27001889E-04  1.52714430E-03
 -1.31684119E-03  0.00000000E+00 -1.45652408E-03  1.33339270E-03  0.00000000E+00
  5.10306780E-05 -1.16202005E-03  0.00000000E+00 -1.46253287E-04 -1.58301524E-05
  0.00000000E+00  4.27130991E-05  0.00000000E+00  0.00000000E+00 -3.50506485E-05
  2.56004778E-05  7.56654615E-04  0.00000000E+00  0.00000000E+00 -2.19763926E-04
 -4.49553871E-04 -3.58013798E-04  0.00000000E+00  0.00000000E+00 -3.04336826E-04
 -3.69418890E-04  0.00000000E+00  4.73346695E-05 -4.69103888E-05  0.00000000E+00
  0.00000000E+00 -3.81375255E-05 -1.96912166E-05  0.00000000E+00  2.60284751E-05
  2.29463973E-05  0.00000000E+00  0.00000000E+00 -3.05670533E-04 -1.71742162E-04
  4.06536465E-05  5.35813093E-05 -2.68795336E-04 -6.54093433E-04 -1.35473182E-04
 -2.75724128E-05 -9.92043325E-05  0.00000000E+00  2.86009081E-04  7.34470789E-04
  0.00000000E+00 -8.67890003E-04 -4.77517448E-04  0.00000000E+00 -1.18158398E-04
 -2.48564099E-05  0.00000000E+00 -1.88497184E-05  0.00000000E+00  0.00000000E+00
 -3.16143274E-05  1.48199663E-05 -3.31701121E-04  0.00000000E+00  0.00000000E+00
 -8.34760887E-04  1.29560799E-04 -3.62490773E-05  0.00000000E+00  0.00000000E+00
  1.02847725E-04 -1.22703893E-04  0.00000000E+00 -2.14016287E-05 -1.20847996E-04
  0.00000000E+00  0.00000000E+00 -5.90517579E-05 -1.37911620E-04  0.00000000E+00
  1.16519698E-05 -1.45232453E-04  0.00000000E+00  0.00000000E+00  4.47091938E-05
 -4.31646976E-04 -3.12477120E-03  1.26432562E-04 -1.49785201E-04 -2.79028450E-04
  1.24776841E-04 -9.08248655E-06 -2.95568267E-05  0.00000000E+00  6.97916374E-05
  1.74774896E-04  0.00000000E+00  2.30741336E-04  1.85776573E-04  0.00000000E+00
  1.24285510E-04  1.57327927E-05  0.00000000E+00 -3.56768276E-06  0.00000000E+00
  0.00000000E+00 -1.81237262E-05  1.10764704E-06 -2.94761990E-08  0.00000000E+00
  0.00000000E+00  8.25048655E-05  9.23334085E-05 -1.00568397E-04  0.00000000E+00
  0.00000000E+00  1.76063911E-04  1.55747483E-04  0.00000000E+00  1.56215535E-05
 -3.84129808E-06  0.00000000E+00  0.00000000E+00 -4.77350118E-06 -1.15893556E-05
  0.00000000E+00 -3.40581341E-05  4.62738446E-05  0.00000000E+00  0.00000000E+00
  8.82841299E-05  9.09261380E-05  3.46535782E-05 -9.72609208E-04 -5.08738137E-04
 -8.85550596E-06 -2.26083921E-05  1.68246501E-05  0.00000000E+00 -8.27494317E-06
  2.78371319E-04  0.00000000E+00 -3.38145483E-05  1.41281901E-04  0.00000000E+00
  2.47952098E-05  0.00000000E+00  0.00000000E+00  1.38703155E-05  1.27360464E-05
 -2.06301441E-05  0.00000000E+00  0.00000000E+00  5.76410057E-06  2.93885257E-05
  1.14101296E-04  6.73175402E-05 -2.71311934E-05  7.93940332E-04  7.36536672E-04
  9.85126699E-06  2.81031478E-06  0.00000000E+00 -6.50068690E-05  1.96076198E-05
  0.00000000E+00  2.47465009E-04  8.33201290E-04  0.00000000E+00 -2.39494386E-05
  6.83916297E-05  0.00000000E+00 -1.30491156E-06  0.00000000E+00  0.00000000E+00
  3.79961151E-07 -8.73791398E-06 -3.94682054E-05  0.00000000E+00  0.00000000E+00
 -3.19297699E-05  9.48917456E-05 -3.08684034E-05  0.00000000E+00  0.00000000E+00
 -2.48253933E-04 -1.41412536E-04  0.00000000E+00  9.05999060E-06  5.96495102E-06
  0.00000000E+00  0.00000000E+00  3.44266890E-06 -1.91448066E-05  0.00000000E+00
 -3.67336712E-05 -3.57655072E-05  0.00000000E+00  0.00000000E+00 -6.82957614E-05
 -2.70831003E-06  3.16408509E-03  3.55184406E-05  1.14862707E-04 -7.08847847E-05
 -4.93432440E-04  7.72367588E-06  1.57357605E-05  0.00000000E+00 -6.27338330E-05
 -6.02109079E-05  0.00000000E+00  2.31751072E-04 -1.39010408E-04  0.00000000E+00
 -2.12586085E-04 -7.39461008E-05  0.00000000E+00 -8.64537292E-06  0.00000000E+00
  0.00000000E+00  2.25765908E-05  1.89200357E-05  3.92446918E-06  0.00000000E+00
  0.00000000E+00 -1.18887893E-04 -4.27219253E-05 -2.37058752E-06  0.00000000E+00
  0.00000000E+00 -2.21497015E-04 -1.76473195E-04  0.00000000E+00  3.40031924E-06
  5.57717443E-07  0.00000000E+00  0.00000000E+00  2.03786312E-06 -1.49914772E-05
  0.00000000E+00 -4.74877481E-05 -1.35660405E-06  0.00000000E+00  0.00000000E+00
 -8.11649045E-05  1.99263194E-04  2.58782320E-04  1.46608990E-03 -7.86220881E-05
 -1.55681363E-03  3.55120054E-04 -1.44757299E-04 -6.57494759E-07  0.00000000E+00
 -2.07636678E-03 -4.03831524E-04  0.00000000E+00  9.71691454E-04  7.31106689E-04
  0.00000000E+00 -1.67434650E-04  4.96555217E-05  0.00000000E+00 -1.23543556E-04
  0.00000000E+00  0.00000000E+00  2.42233255E-04  9.65228443E-05 -4.40340216E-04
  0.00000000E+00  0.00000000E+00  9.00037759E-04 -6.86348284E-05  1.50241692E-05
  0.00000000E+00  0.00000000E+00 -3.27981164E-04 -1.38156279E-04  0.00000000E+00
 -2.62048651E-06  1.45282357E-05  0.00000000E+00  0.00000000E+00  2.03994508E-05
  1.60021349E-05  0.00000000E+00  1.73796160E-04 -6.78286965E-05  0.00000000E+00
  0.00000000E+00 -2.42804069E-04  3.07669670E-05  9.76648237E-01 -9.85225437E-03
  4.35645986E-02  4.47027901E-03 -4.36931004E-04  2.14832703E-03  4.92358319E-04
  0.00000000E+00 -2.38337742E-03 -6.13335500E-04  0.00000000E+00  1.14859293E-03
  3.37083130E-07  0.00000000E+00  7.84171954E-06 -4.76068112E-05  0.00000000E+00
 -2.31431509E-04  0.00000000E+00  0.00000000E+00  1.03012226E-04  3.15876031E-05
  3.90445373E-04  0.00000000E+00  0.00000000E+00 -8.27471301E-04 -4.25107823E-04
 -1.59591757E-04  0.00000000E+00  0.00000000E+00  2.63833219E-04  2.29518465E-05
  0.00000000E+00  5.22416902E-05  1.82117600E-05  0.00000000E+00  0.00000000E+00
 -2.14058850E-05 -1.38801089E-05  0.00000000E+00  1.36755632E-04  8.78583813E-06
  0.00000000E+00  0.00000000E+00 -1.86987363E-04 -1.42204487E-04  4.69403266E-04
  1.93145003E-03  7.48716105E-05  1.37151013E-05 -3.30046208E-05 -2.43542765E-04
  0.00000000E+00  1.72554591E-04 -1.22956275E-03  0.00000000E+00  3.67693179E-04
 -3.05767963E-04  0.00000000E+00 -8.58012320E-07  0.00000000E+00  0.00000000E+00
  7.63981068E-05  2.46069769E-05 -1.62544191E-04  0.00000000E+00  0.00000000E+00
 -5.31754958E-04 -7.35571128E-05  9.76831550E-01 -9.15730827E-03  4.34447732E-02
  2.63275639E-04 -1.26638239E-03 -1.63355843E-03  1.36603392E-03  0.00000000E+00
  1.64049994E-03 -1.20554236E-03  0.00000000E+00 -5.22946926E-04 -7.23723766E-04
  0.00000000E+00  6.52405715E-05 -6.99311494E-05  0.00000000E+00  3.08397707E-05
  0.00000000E+00  0.00000000E+00 -1.15135054E-04 -1.59535141E-05  7.50655932E-04
  0.00000000E+00  0.00000000E+00 -1.99573028E-04 -2.49452473E-04 -2.66407925E-04
  0.00000000E+00  0.00000000E+00  1.55940574E-04  9.17229795E-05  0.00000000E+00
 -6.50123178E-05  2.01788551E-07  0.00000000E+00  0.00000000E+00  2.00917638E-05