 Entering Gaussian System, Link 0=g16
 Input=hoono_d2_183p3042.gjf
 Output=hoono_d2_183p3042.log
 Initial command:
 /sw/contrib/gaussian/g16/B01/g16/l1.exe "/scr/Gau-4715.inp" -scrdir="/scr/"
 Entering Link 1 = /sw/contrib/gaussian/g16/B01/g16/l1.exe PID=      4716.
  
 Copyright (c) 1988-2017, Gaussian, Inc.  All Rights Reserved.
  
 This is part of the Gaussian(R) 16 program.  It is based on
 the Gaussian(R) 09 system (copyright 2009, Gaussian, Inc.),
 the Gaussian(R) 03 system (copyright 2003, Gaussian, Inc.),
 the Gaussian(R) 98 system (copyright 1998, Gaussian, Inc.),
 the Gaussian(R) 94 system (copyright 1995, Gaussian, Inc.),
 the Gaussian 92(TM) system (copyright 1992, Gaussian, Inc.),
 the Gaussian 90(TM) system (copyright 1990, Gaussian, Inc.),
 the Gaussian 88(TM) system (copyright 1988, Gaussian, Inc.),
 the Gaussian 86(TM) system (copyright 1986, Carnegie Mellon
 University), and the Gaussian 82(TM) system (copyright 1983,
 Carnegie Mellon University). Gaussian is a federally registered
 trademark of Gaussian, Inc.
  
 This software contains proprietary and confidential information,
 including trade secrets, belonging to Gaussian, Inc.
  
 This software is provided under written license and may be
 used, copied, transmitted, or stored only in accord with that
 written license.
  
 The following legend is applicable only to US Government
 contracts under FAR:
  
                    RESTRICTED RIGHTS LEGEND
  
 Use, reproduction and disclosure by the US Government is
 subject to restrictions as set forth in subparagraphs (a)
 and (c) of the Commercial Computer Software - Restricted
 Rights clause in FAR 52.227-19.
  
 Gaussian, Inc.
 340 Quinnipiac St., Bldg. 40, Wallingford CT 06492
  
  
 ---------------------------------------------------------------
 Warning -- This program may not be used in any manner that
 competes with the business of Gaussian, Inc. or will provide
 assistance to any competitor of Gaussian, Inc.  The licensee
 of this program is prohibited from giving any competitor of
 Gaussian, Inc. access to this program.  By using this program,
 the user acknowledges that Gaussian, Inc. is engaged in the
 business of creating and licensing software in the field of
 computational chemistry and represents and warrants to the
 licensee that it is not a competitor of Gaussian, Inc. and that
 it will not use this program in any manner prohibited above.
 ---------------------------------------------------------------
  

 Cite this work as:
 Gaussian 16, Revision B.01,
 M. J. Frisch, G. W. Trucks, H. B. Schlegel, G. E. Scuseria, 
 M. A. Robb, J. R. Cheeseman, G. Scalmani, V. Barone, 
 G. A. Petersson, H. Nakatsuji, X. Li, M. Caricato, A. V. Marenich, 
 J. Bloino, B. G. Janesko, R. Gomperts, B. Mennucci, H. P. Hratchian, 
 J. V. Ortiz, A. F. Izmaylov, J. L. Sonnenberg, D. Williams-Young, 
 F. Ding, F. Lipparini, F. Egidi, J. Goings, B. Peng, A. Petrone, 
 T. Henderson, D. Ranasinghe, V. G. Zakrzewski, J. Gao, N. Rega, 
 G. Zheng, W. Liang, M. Hada, M. Ehara, K. Toyota, R. Fukuda, 
 J. Hasegawa, M. Ishida, T. Nakajima, Y. Honda, O. Kitao, H. Nakai, 
 T. Vreven, K. Throssell, J. A. Montgomery, Jr., J. E. Peralta, 
 F. Ogliaro, M. J. Bearpark, J. J. Heyd, E. N. Brothers, K. N. Kudin, 
 V. N. Staroverov, T. A. Keith, R. Kobayashi, J. Normand, 
 K. Raghavachari, A. P. Rendell, J. C. Burant, S. S. Iyengar, 
 J. Tomasi, M. Cossi, J. M. Millam, M. Klene, C. Adamo, R. Cammi, 
 J. W. Ochterski, R. L. Martin, K. Morokuma, O. Farkas, 
 J. B. Foresman, and D. J. Fox, Gaussian, Inc., Wallingford CT, 2016.
 
 ******************************************
 Gaussian 16:  ES64L-G16RevB.01 20-Dec-2017
                21-Feb-2022 
 ******************************************
 %nproc=28
 Will use up to   28 processors via shared memory.
 %mem=120GB
 %chk=hoono_d2_183p3042.chk
 ---------------------------------------
 #p freq mp2/aug-cc-pvtz density=current
 ---------------------------------------
 1/10=4,30=1,38=1/1,3;
 2/12=2,17=6,18=5,40=1/2;
 3/5=16,6=1,7=10,11=9,25=1,30=1,71=2,140=1/1,2,3;
 4//1;
 5/5=2,38=5,98=1/2;
 8/6=3,8=1,10=1,19=11,30=-1/1;
 9/15=3,16=-3/6;
 11/6=1,8=1,15=11,17=12,24=-1,27=1,28=-2,29=300,32=6,42=3/1,2,10;
 10/6=2,21=1/2;
 8/6=4,8=1,10=1,19=11,30=-1/11,4;
 10/5=1,20=4/2;
 11/12=2,14=11,16=1,17=2,28=-2,42=3,76=2/2,10,12;
 6/7=2,8=2,9=2,10=2,22=-1/1;
 7/8=1,10=1,12=2,25=1,44=2/1,2,3,16;
 1/10=4,30=1/3;
 99//99;
 Leave Link    1 at Mon Feb 21 21:08:08 2022, MaxMem= 16106127360 cpu:               2.1 elap:               0.1
 (Enter /sw/contrib/gaussian/g16/B01/g16/l101.exe)
 -----
 title
 -----
 Symbolic Z-matrix:
 Charge =  0 Multiplicity = 1
 H
 O                    1    r1
 O                    2    r2       1    a1
 N                    3    r3       2    a2       1    d1       0
 O                    4    r4       3    a3       2    d2       0
       Variables:
  r1                    0.96898                  
  r2                    1.45492                  
  r3                    1.45878                  
  r4                    1.17073                  
  a1                   97.59495                  
  a2                  102.29752                  
  a3                  109.06955                  
  d1                  180.                       
  d2                  183.30425                  
 
 ITRead=  0  0  0  0  0
 MicOpt= -1 -1 -1 -1 -1
 NAtoms=      5 NQM=        5 NQMF=       0 NMMI=      0 NMMIF=      0
                NMic=       0 NMicF=      0.
                    Isotopes and Nuclear Properties:
 (Nuclear quadrupole moments (NQMom) in fm**2, nuclear magnetic moments (NMagM)
  in nuclear magnetons)

  Atom         1           2           3           4           5
 IAtWgt=           1          16          16          14          16
 AtmWgt=   1.0078250  15.9949146  15.9949146  14.0030740  15.9949146
 NucSpn=           1           0           0           2           0
 AtZEff=  -0.0000000  -0.0000000  -0.0000000  -0.0000000  -0.0000000
 NQMom=    0.0000000   0.0000000   0.0000000   2.0440000   0.0000000
 NMagM=    2.7928460   0.0000000   0.0000000   0.4037610   0.0000000
 AtZNuc=   1.0000000   8.0000000   8.0000000   7.0000000   8.0000000
 Leave Link  101 at Mon Feb 21 21:08:08 2022, MaxMem= 16106127360 cpu:               3.3 elap:               0.1
 (Enter /sw/contrib/gaussian/g16/B01/g16/l103.exe)

 GradGradGradGradGradGradGradGradGradGradGradGradGradGradGradGradGradGrad
 Berny optimization.
 Initialization pass.
                       ----------------------------
                       !    Initial Parameters    !
                       ! (Angstroms and Degrees)  !
 ----------------------                            ----------------------
 !      Name          Value   Derivative information (Atomic Units)     !
 ------------------------------------------------------------------------
 !       r1          0.969    calculate D2E/DX2 analytically            !
 !       r2          1.4549   calculate D2E/DX2 analytically            !
 !       r3          1.4588   calculate D2E/DX2 analytically            !
 !       r4          1.1707   calculate D2E/DX2 analytically            !
 !       a1         97.5949   calculate D2E/DX2 analytically            !
 !       a2        102.2975   calculate D2E/DX2 analytically            !
 !       a3        109.0696   calculate D2E/DX2 analytically            !
 !       d1        180.0      calculate D2E/DX2 analytically            !
 !       d2        183.3042   calculate D2E/DX2 analytically            !
 ------------------------------------------------------------------------
 Trust Radius=3.00D-01 FncErr=1.00D-07 GrdErr=1.00D-07 EigMax=2.50D+02 EigMin=1.00D-04
 Number of steps in this run=      2 maximum allowed number of steps=      2.
 GradGradGradGradGradGradGradGradGradGradGradGradGradGradGradGradGradGrad

 Leave Link  103 at Mon Feb 21 21:08:08 2022, MaxMem= 16106127360 cpu:               0.6 elap:               0.0
 (Enter /sw/contrib/gaussian/g16/B01/g16/l202.exe)
                          Input orientation:                          
 ---------------------------------------------------------------------
 Center     Atomic      Atomic             Coordinates (Angstroms)
 Number     Number       Type             X           Y           Z
 ---------------------------------------------------------------------
      1          1           0        0.000000    0.000000    0.000000
      2          8           0        0.000000    0.000000    0.968976
      3          8           0        1.442156    0.000000    1.161271
      4          7           0        1.561752    0.000000    2.615144
      5          8           0        2.694034    0.063776    2.905790
 ---------------------------------------------------------------------
                    Distance matrix (angstroms):
                    1          2          3          4          5
     1  H    0.000000
     2  O    0.968976   0.000000
     3  O    1.851584   1.454919   0.000000
     4  N    3.045989   2.269127   1.458784   0.000000
     5  O    3.963017   3.318605   2.148165   1.170729   0.000000
 Stoichiometry    HNO3
 Framework group  C1[X(HNO3)]
 Deg. of freedom     9
 Full point group                 C1      NOp   1
 Largest Abelian subgroup         C1      NOp   1
 Largest concise Abelian subgroup C1      NOp   1
                         Standard orientation:                         
 ---------------------------------------------------------------------
 Center     Atomic      Atomic             Coordinates (Angstroms)
 Number     Number       Type             X           Y           Z
 ---------------------------------------------------------------------
      1          1           0        2.248694    0.434365   -0.016704
      2          8           0        1.598472   -0.284044   -0.012946
      3          8           0        0.400450    0.541049    0.014577
      4          7           0       -0.663806   -0.456622    0.022437
      5          8           0       -1.699179    0.088244   -0.019176
 ---------------------------------------------------------------------
 Rotational constants (GHZ):          54.8556644           5.0121179           4.5941132
 Leave Link  202 at Mon Feb 21 21:08:08 2022, MaxMem= 16106127360 cpu:               0.3 elap:               0.0
 (Enter /sw/contrib/gaussian/g16/B01/g16/l301.exe)
 Standard basis: Aug-CC-pVTZ (5D, 7F)
 Ernie: Thresh=  0.10000D-02 Tol=  0.10000D-05 Strict=F.
 Ernie:  12 primitive shells out of 131 were deleted.
 There are   245 symmetry adapted cartesian basis functions of A   symmetry.
 There are   207 symmetry adapted basis functions of A   symmetry.
   207 basis functions,   315 primitive gaussians,   245 cartesian basis functions
    16 alpha electrons       16 beta electrons
       nuclear repulsion energy       116.8746016238 Hartrees.
 IExCor=    0 DFT=F Ex=HF Corr=None ExCW=0 ScaHFX=  1.000000
 ScaDFX=  1.000000  1.000000  1.000000  1.000000 ScalE2=  1.000000  1.000000
 IRadAn=      5 IRanWt=     -1 IRanGd=            0 ICorTp=0 IEmpDi=  4
 NAtoms=    5 NActive=    5 NUniq=    5 SFac= 1.00D+00 NAtFMM=   60 NAOKFM=F Big=F
 Integral buffers will be    131072 words long.
 Raffenetti 1 integral format.
 Two-electron integral symmetry is turned on.
 Leave Link  301 at Mon Feb 21 21:08:08 2022, MaxMem= 16106127360 cpu:               2.4 elap:               0.1
 (Enter /sw/contrib/gaussian/g16/B01/g16/l302.exe)
 NPDir=0 NMtPBC=     1 NCelOv=     1 NCel=       1 NClECP=     1 NCelD=      1
         NCelK=      1 NCelE2=     1 NClLst=     1 CellRange=     0.0.
 One-electron integrals computed using PRISM.
 One-electron integral symmetry used in STVInt
 NBasis=   207 RedAO= T EigKep=  1.82D-04  NBF=   207
 NBsUse=   207 1.00D-06 EigRej= -1.00D+00 NBFU=   207
 Leave Link  302 at Mon Feb 21 21:08:08 2022, MaxMem= 16106127360 cpu:               5.5 elap:               0.2
 (Enter /sw/contrib/gaussian/g16/B01/g16/l303.exe)
 DipDrv:  MaxL=1.
 Leave Link  303 at Mon Feb 21 21:08:08 2022, MaxMem= 16106127360 cpu:               2.3 elap:               0.1
 (Enter /sw/contrib/gaussian/g16/B01/g16/l401.exe)
 ExpMin= 2.53D-02 ExpMax= 1.53D+04 ExpMxC= 5.22D+02 IAcc=3 IRadAn=         5 AccDes= 0.00D+00
 Harris functional with IExCor=  205 and IRadAn=       5 diagonalized for initial guess.
 HarFok:  IExCor=  205 AccDes= 0.00D+00 IRadAn=         5 IDoV= 1 UseB2=F ITyADJ=14
 ICtDFT=  3500011 ScaDFX=  1.000000  1.000000  1.000000  1.000000
 FoFCou: FMM=F IPFlag=           0 FMFlag=      100000 FMFlg1=           0
         NFxFlg=           0 DoJE=T BraDBF=F KetDBF=T FulRan=T
         wScrn=  0.000000 ICntrl=       500 IOpCl=  0 I1Cent=   200000004 NGrid=           0
         NMat0=    1 NMatS0=      1 NMatT0=    0 NMatD0=    1 NMtDS0=    0 NMtDT0=    0
 Petite list used in FoFCou.
 Harris En= -279.628634512144    
 JPrj=0 DoOrth=F DoCkMO=F.
 Leave Link  401 at Mon Feb 21 21:08:09 2022, MaxMem= 16106127360 cpu:               7.0 elap:               0.3
 (Enter /sw/contrib/gaussian/g16/B01/g16/l502.exe)
 Keep R1 ints in memory in canonical form, NReq=245616893.
 FoFCou: FMM=F IPFlag=           0 FMFlag=           0 FMFlg1=           0
         NFxFlg=           0 DoJE=F BraDBF=F KetDBF=F FulRan=T
         wScrn=  0.000000 ICntrl=       600 IOpCl=  0 I1Cent=           0 NGrid=           0
         NMat0=    1 NMatS0=  21528 NMatT0=    0 NMatD0=    1 NMtDS0=    0 NMtDT0=    0
 Symmetry not used in FoFCou.
 Two-electron integral symmetry not used.
 Closed shell SCF:
 Using DIIS extrapolation, IDIIS=  1040.
 NGot= 16106127360 LenX= 15874260251 LenY= 15874199785
 Requested convergence on RMS density matrix=1.00D-08 within 128 cycles.
 Requested convergence on MAX density matrix=1.00D-06.
 Requested convergence on             energy=1.00D-06.
 No special actions if energy rises.

 Cycle   1  Pass 1  IDiag  1:
 E= -279.370468393240    
 DIIS: error= 2.58D-02 at cycle   1 NSaved=   1.
 NSaved= 1 IEnMin= 1 EnMin= -279.370468393240     IErMin= 1 ErrMin= 2.58D-02
 ErrMax= 2.58D-02  0.00D+00 EMaxC= 1.00D-01 BMatC= 4.38D-01 BMatP= 4.38D-01
 IDIUse=3 WtCom= 7.42D-01 WtEn= 2.58D-01
 Coeff-Com:  0.100D+01
 Coeff-En:   0.100D+01
 Coeff:      0.100D+01
 Gap=     0.519 Goal=   None    Shift=    0.000
 GapD=    0.519 DampG=2.000 DampE=0.500 DampFc=1.0000 IDamp=-1.
 RMSDP=1.62D-03 MaxDP=9.92D-02              OVMax= 1.13D-01

 Cycle   2  Pass 1  IDiag  1:
 E= -279.452417008178     Delta-E=       -0.081948614938 Rises=F Damp=F
 DIIS: error= 1.78D-02 at cycle   2 NSaved=   2.
 NSaved= 2 IEnMin= 2 EnMin= -279.452417008178     IErMin= 2 ErrMin= 1.78D-02
 ErrMax= 1.78D-02  0.00D+00 EMaxC= 1.00D-01 BMatC= 7.17D-02 BMatP= 4.38D-01
 IDIUse=3 WtCom= 8.22D-01 WtEn= 1.78D-01
 Coeff-Com:  0.195D+00 0.805D+00
 Coeff-En:   0.000D+00 0.100D+01
 Coeff:      0.160D+00 0.840D+00
 Gap=     0.534 Goal=   None    Shift=    0.000
 RMSDP=9.00D-04 MaxDP=3.73D-02 DE=-8.19D-02 OVMax= 6.91D-02

 Cycle   3  Pass 1  IDiag  1:
 E= -279.481513927679     Delta-E=       -0.029096919501 Rises=F Damp=F
 DIIS: error= 1.04D-02 at cycle   3 NSaved=   3.
 NSaved= 3 IEnMin= 3 EnMin= -279.481513927679     IErMin= 3 ErrMin= 1.04D-02
 ErrMax= 1.04D-02  0.00D+00 EMaxC= 1.00D-01 BMatC= 2.87D-02 BMatP= 7.17D-02
 IDIUse=3 WtCom= 8.96D-01 WtEn= 1.04D-01
 Coeff-Com: -0.330D-01 0.378D+00 0.655D+00
 Coeff-En:   0.000D+00 0.241D+00 0.759D+00
 Coeff:     -0.296D-01 0.364D+00 0.666D+00
 Gap=     0.510 Goal=   None    Shift=    0.000
 RMSDP=3.76D-04 MaxDP=1.54D-02 DE=-2.91D-02 OVMax= 3.81D-02

 Cycle   4  Pass 1  IDiag  1:
 E= -279.500567968110     Delta-E=       -0.019054040431 Rises=F Damp=F
 DIIS: error= 1.29D-03 at cycle   4 NSaved=   4.
 NSaved= 4 IEnMin= 4 EnMin= -279.500567968110     IErMin= 4 ErrMin= 1.29D-03
 ErrMax= 1.29D-03  0.00D+00 EMaxC= 1.00D-01 BMatC= 4.93D-04 BMatP= 2.87D-02
 IDIUse=3 WtCom= 9.87D-01 WtEn= 1.29D-02
 Coeff-Com: -0.117D-01 0.575D-01 0.158D+00 0.796D+00
 Coeff-En:   0.000D+00 0.000D+00 0.000D+00 0.100D+01
 Coeff:     -0.115D-01 0.567D-01 0.156D+00 0.798D+00
 Gap=     0.502 Goal=   None    Shift=    0.000
 RMSDP=9.02D-05 MaxDP=2.17D-03 DE=-1.91D-02 OVMax= 1.12D-02

 Cycle   5  Pass 1  IDiag  1:
 E= -279.501243781335     Delta-E=       -0.000675813225 Rises=F Damp=F
 DIIS: error= 7.36D-04 at cycle   5 NSaved=   5.
 NSaved= 5 IEnMin= 5 EnMin= -279.501243781335     IErMin= 5 ErrMin= 7.36D-04
 ErrMax= 7.36D-04  0.00D+00 EMaxC= 1.00D-01 BMatC= 8.71D-05 BMatP= 4.93D-04
 IDIUse=3 WtCom= 9.93D-01 WtEn= 7.36D-03
 Coeff-Com:  0.613D-02-0.724D-01-0.118D+00 0.202D-01 0.116D+01
 Coeff-En:   0.000D+00 0.000D+00 0.000D+00 0.000D+00 0.100D+01
 Coeff:      0.609D-02-0.719D-01-0.117D+00 0.200D-01 0.116D+01
 Gap=     0.502 Goal=   None    Shift=    0.000
 RMSDP=7.63D-05 MaxDP=2.10D-03 DE=-6.76D-04 OVMax= 1.11D-02

 Cycle   6  Pass 1  IDiag  1:
 E= -279.501559097723     Delta-E=       -0.000315316389 Rises=F Damp=F
 DIIS: error= 2.85D-04 at cycle   6 NSaved=   6.
 NSaved= 6 IEnMin= 6 EnMin= -279.501559097723     IErMin= 6 ErrMin= 2.85D-04
 ErrMax= 2.85D-04  0.00D+00 EMaxC= 1.00D-01 BMatC= 1.67D-05 BMatP= 8.71D-05
 IDIUse=3 WtCom= 9.97D-01 WtEn= 2.85D-03
 Coeff-Com:  0.593D-03 0.164D-02 0.456D-02-0.130D+00-0.231D+00 0.135D+01
 Coeff-En:   0.000D+00 0.000D+00 0.000D+00 0.000D+00 0.000D+00 0.100D+01
 Coeff:      0.591D-03 0.163D-02 0.454D-02-0.129D+00-0.231D+00 0.135D+01
 Gap=     0.502 Goal=   None    Shift=    0.000
 RMSDP=4.53D-05 MaxDP=1.06D-03 DE=-3.15D-04 OVMax= 5.55D-03

 Cycle   7  Pass 1  IDiag  1:
 E= -279.501631877526     Delta-E=       -0.000072779803 Rises=F Damp=F
 DIIS: error= 1.22D-04 at cycle   7 NSaved=   7.
 NSaved= 7 IEnMin= 7 EnMin= -279.501631877526     IErMin= 7 ErrMin= 1.22D-04
 ErrMax= 1.22D-04  0.00D+00 EMaxC= 1.00D-01 BMatC= 4.51D-06 BMatP= 1.67D-05
 IDIUse=3 WtCom= 9.99D-01 WtEn= 1.22D-03
 Coeff-Com: -0.939D-03 0.136D-01 0.265D-01-0.242D-01-0.287D+00 0.390D+00
 Coeff-Com:  0.882D+00
 Coeff-En:   0.000D+00 0.000D+00 0.000D+00 0.000D+00 0.000D+00 0.000D+00
 Coeff-En:   0.100D+01
 Coeff:     -0.938D-03 0.135D-01 0.264D-01-0.242D-01-0.287D+00 0.390D+00
 Coeff:      0.882D+00
 Gap=     0.502 Goal=   None    Shift=    0.000
 RMSDP=1.33D-05 MaxDP=3.78D-04 DE=-7.28D-05 OVMax= 1.55D-03

 Cycle   8  Pass 1  IDiag  1:
 E= -279.501640775406     Delta-E=       -0.000008897880 Rises=F Damp=F
 DIIS: error= 5.68D-05 at cycle   8 NSaved=   8.
 NSaved= 8 IEnMin= 8 EnMin= -279.501640775406     IErMin= 8 ErrMin= 5.68D-05
 ErrMax= 5.68D-05  0.00D+00 EMaxC= 1.00D-01 BMatC= 6.07D-07 BMatP= 4.51D-06
 IDIUse=1 WtCom= 1.00D+00 WtEn= 0.00D+00
 Coeff-Com: -0.449D-03 0.345D-02 0.761D-02 0.274D-01-0.409D-01-0.198D+00
 Coeff-Com:  0.172D+00 0.103D+01
 Coeff:     -0.449D-03 0.345D-02 0.761D-02 0.274D-01-0.409D-01-0.198D+00
 Coeff:      0.172D+00 0.103D+01
 Gap=     0.502 Goal=   None    Shift=    0.000
 RMSDP=6.91D-06 MaxDP=2.02D-04 DE=-8.90D-06 OVMax= 7.46D-04

 Cycle   9  Pass 1  IDiag  1:
 E= -279.501642553196     Delta-E=       -0.000001777790 Rises=F Damp=F
 DIIS: error= 1.58D-05 at cycle   9 NSaved=   9.
 NSaved= 9 IEnMin= 9 EnMin= -279.501642553196     IErMin= 9 ErrMin= 1.58D-05
 ErrMax= 1.58D-05  0.00D+00 EMaxC= 1.00D-01 BMatC= 6.94D-08 BMatP= 6.07D-07
 IDIUse=1 WtCom= 1.00D+00 WtEn= 0.00D+00
 Coeff-Com:  0.123D-03-0.173D-02-0.308D-02-0.207D-02 0.342D-01 0.487D-04
 Coeff-Com: -0.167D+00-0.103D+00 0.124D+01
 Coeff:      0.123D-03-0.173D-02-0.308D-02-0.207D-02 0.342D-01 0.487D-04
 Coeff:     -0.167D+00-0.103D+00 0.124D+01
 Gap=     0.502 Goal=   None    Shift=    0.000
 RMSDP=1.94D-06 MaxDP=5.17D-05 DE=-1.78D-06 OVMax= 1.75D-04

 Cycle  10  Pass 1  IDiag  1:
 E= -279.501642714290     Delta-E=       -0.000000161094 Rises=F Damp=F
 DIIS: error= 4.07D-06 at cycle  10 NSaved=  10.
 NSaved=10 IEnMin=10 EnMin= -279.501642714290     IErMin=10 ErrMin= 4.07D-06
 ErrMax= 4.07D-06  0.00D+00 EMaxC= 1.00D-01 BMatC= 5.59D-09 BMatP= 6.94D-08
 IDIUse=1 WtCom= 1.00D+00 WtEn= 0.00D+00
 Coeff-Com:  0.310D-04-0.242D-03-0.322D-03-0.270D-02 0.161D-02 0.197D-01
 Coeff-Com: -0.129D-01-0.744D-01-0.812D-01 0.115D+01
 Coeff:      0.310D-04-0.242D-03-0.322D-03-0.270D-02 0.161D-02 0.197D-01
 Coeff:     -0.129D-01-0.744D-01-0.812D-01 0.115D+01
 Gap=     0.502 Goal=   None    Shift=    0.000
 RMSDP=5.09D-07 MaxDP=2.11D-05 DE=-1.61D-07 OVMax= 4.18D-05

 Cycle  11  Pass 1  IDiag  1:
 E= -279.501642727038     Delta-E=       -0.000000012748 Rises=F Damp=F
 DIIS: error= 2.01D-06 at cycle  11 NSaved=  11.
 NSaved=11 IEnMin=11 EnMin= -279.501642727038     IErMin=11 ErrMin= 2.01D-06
 ErrMax= 2.01D-06  0.00D+00 EMaxC= 1.00D-01 BMatC= 6.74D-10 BMatP= 5.59D-09
 IDIUse=1 WtCom= 1.00D+00 WtEn= 0.00D+00
 Coeff-Com: -0.215D-04 0.246D-03 0.491D-03 0.541D-03-0.432D-02-0.362D-02
 Coeff-Com:  0.213D-01 0.313D-01-0.140D+00-0.181D+00 0.128D+01
 Coeff:     -0.215D-04 0.246D-03 0.491D-03 0.541D-03-0.432D-02-0.362D-02
 Coeff:      0.213D-01 0.313D-01-0.140D+00-0.181D+00 0.128D+01
 Gap=     0.502 Goal=   None    Shift=    0.000
 RMSDP=1.83D-07 MaxDP=6.52D-06 DE=-1.27D-08 OVMax= 1.75D-05

 Cycle  12  Pass 1  IDiag  1:
 E= -279.501642728927     Delta-E=       -0.000000001890 Rises=F Damp=F
 DIIS: error= 5.75D-07 at cycle  12 NSaved=  12.
 NSaved=12 IEnMin=12 EnMin= -279.501642728927     IErMin=12 ErrMin= 5.75D-07
 ErrMax= 5.75D-07  0.00D+00 EMaxC= 1.00D-01 BMatC= 7.54D-11 BMatP= 6.74D-10
 IDIUse=1 WtCom= 1.00D+00 WtEn= 0.00D+00
 Coeff-Com:  0.136D-05-0.307D-04-0.665D-04 0.184D-03 0.112D-02-0.232D-02
 Coeff-Com: -0.426D-02 0.539D-02 0.430D-01-0.115D+00-0.287D+00 0.136D+01
 Coeff:      0.136D-05-0.307D-04-0.665D-04 0.184D-03 0.112D-02-0.232D-02
 Coeff:     -0.426D-02 0.539D-02 0.430D-01-0.115D+00-0.287D+00 0.136D+01
 Gap=     0.502 Goal=   None    Shift=    0.000
 RMSDP=7.65D-08 MaxDP=2.82D-06 DE=-1.89D-09 OVMax= 6.77D-06

 Cycle  13  Pass 1  IDiag  1:
 E= -279.501642729181     Delta-E=       -0.000000000254 Rises=F Damp=F
 DIIS: error= 1.64D-07 at cycle  13 NSaved=  13.
 NSaved=13 IEnMin=13 EnMin= -279.501642729181     IErMin=13 ErrMin= 1.64D-07
 ErrMax= 1.64D-07  0.00D+00 EMaxC= 1.00D-01 BMatC= 5.03D-12 BMatP= 7.54D-11
 IDIUse=1 WtCom= 1.00D+00 WtEn= 0.00D+00
 Coeff-Com:  0.135D-05-0.145D-04-0.234D-04-0.959D-04 0.118D-03 0.832D-03
 Coeff-Com: -0.847D-03-0.354D-02 0.256D-03 0.446D-01-0.352D-01-0.351D+00
 Coeff-Com:  0.134D+01
 Coeff:      0.135D-05-0.145D-04-0.234D-04-0.959D-04 0.118D-03 0.832D-03
 Coeff:     -0.847D-03-0.354D-02 0.256D-03 0.446D-01-0.352D-01-0.351D+00
 Coeff:      0.134D+01
 Gap=     0.502 Goal=   None    Shift=    0.000
 RMSDP=2.30D-08 MaxDP=5.68D-07 DE=-2.54D-10 OVMax= 2.23D-06

 Cycle  14  Pass 1  IDiag  1:
 E= -279.501642729200     Delta-E=       -0.000000000019 Rises=F Damp=F
 DIIS: error= 6.64D-08 at cycle  14 NSaved=  14.
 NSaved=14 IEnMin=14 EnMin= -279.501642729200     IErMin=14 ErrMin= 6.64D-08
 ErrMax= 6.64D-08  0.00D+00 EMaxC= 1.00D-01 BMatC= 5.52D-13 BMatP= 5.03D-12
 IDIUse=1 WtCom= 1.00D+00 WtEn= 0.00D+00
 Coeff-Com: -0.333D-06 0.496D-05 0.856D-05 0.121D-04-0.111D-03-0.662D-06
 Coeff-Com:  0.422D-03 0.491D-03-0.302D-02-0.138D-02 0.240D-01-0.762D-02
 Coeff-Com: -0.334D+00 0.132D+01
 Coeff:     -0.333D-06 0.496D-05 0.856D-05 0.121D-04-0.111D-03-0.662D-06
 Coeff:      0.422D-03 0.491D-03-0.302D-02-0.138D-02 0.240D-01-0.762D-02
 Coeff:     -0.334D+00 0.132D+01
 Gap=     0.502 Goal=   None    Shift=    0.000
 RMSDP=7.71D-09 MaxDP=1.59D-07 DE=-1.91D-11 OVMax= 1.03D-06

 SCF Done:  E(RHF) =  -279.501642729     A.U. after   14 cycles
            NFock= 14  Conv=0.77D-08     -V/T= 2.0024
 KE= 2.788455332358D+02 PE=-8.950761959438D+02 EE= 2.198544183550D+02
 Leave Link  502 at Mon Feb 21 21:08:16 2022, MaxMem= 16106127360 cpu:              46.2 elap:               7.0
 (Enter /sw/contrib/gaussian/g16/B01/g16/l801.exe)
 ExpMin= 2.53D-02 ExpMax= 1.53D+04 ExpMxC= 5.22D+02 IAcc=3 IRadAn=         5 AccDes= 0.00D+00
 HarFok:  IExCor=  205 AccDes= 0.00D+00 IRadAn=         5 IDoV=-2 UseB2=F ITyADJ=14
 ICtDFT= 12500011 ScaDFX=  1.000000  1.000000  1.000000  1.000000
 Largest valence mixing into a core orbital is  2.08D-04
 Largest core mixing into a valence orbital is  3.63D-05
 Range of M.O.s used for correlation:     5   207
 NBasis=   207 NAE=    16 NBE=    16 NFC=     4 NFV=     0
 NROrb=    203 NOA=    12 NOB=    12 NVA=   191 NVB=   191

 **** Warning!!: The largest alpha MO coefficient is  0.17663061D+02

 Leave Link  801 at Mon Feb 21 21:08:16 2022, MaxMem= 16106127360 cpu:               3.8 elap:               0.2
 (Enter /sw/contrib/gaussian/g16/B01/g16/l906.exe)
 Frozen-core derivative calculation, NFC=   4 NFV=   0.
 FulOut=F Deriv=T AODrv=T NAtomX=     5
   MMem=           0  MDisk=          12 MDiskD=          12
  W3Min=      811440 MinDsk=     2425030 NBas6D=         245
 NBas2D=       30762    NTT=       30135    LW2=     7400000
    MDV= 16105638402 MDiskM=      328645 NBas2p=       30702
 Disk-based method using ON**2 memory for 12 occupieds at a time.
 Permanent disk used for amplitudes=    11516536 words.
 Estimated scratch disk usage=   321251614 words.
 IMap=   1   2   3   4   5   6   7   8   9  10  11  12  13  14  15  16
 Actual    scratch disk usage=   310331678 words.
 JobTyp=1 Pass  1:  I=   5 to  16 NPSUse= 28 ParTrn=T ParDer=T DoDerP=T.
 (rs|ai) integrals will be sorted in core.
 Spin components of T(2) and E(2):
     alpha-alpha T2 =       0.3402227736D-01 E2=     -0.1224004782D+00
     alpha-beta  T2 =       0.1868409587D+00 E2=     -0.7002227829D+00
     beta-beta   T2 =       0.3402227736D-01 E2=     -0.1224004782D+00
 The integrals were generated   1 times.
 ANorm=    0.1120216726D+01
 E2 =    -0.9450237392D+00 EUMP2 =    -0.28044666646840D+03
 Leave Link  906 at Mon Feb 21 21:09:53 2022, MaxMem= 16106127360 cpu:            2727.4 elap:              97.5
 (Enter /sw/contrib/gaussian/g16/B01/g16/l1101.exe)
 Using compressed Sx but separate Hx and Fx, NAtomX=     5.
 Will process      6 centers per pass.
 Leave Link 1101 at Mon Feb 21 21:09:54 2022, MaxMem= 16106127360 cpu:               6.5 elap:               0.3
 (Enter /sw/contrib/gaussian/g16/B01/g16/l1102.exe)
 Leave Link 1102 at Mon Feb 21 21:09:54 2022, MaxMem= 16106127360 cpu:               1.3 elap:               0.1
 (Enter /sw/contrib/gaussian/g16/B01/g16/l1110.exe)
 Forming Gx(P) for the SCF density, NAtomX=     5.
 Integral derivatives from FoFJK, PRISM(SPDF).
 Do as many integral derivatives as possible in FoFJK.
 G2DrvN: MDV=   16106126844.
 G2DrvN: will do     6 centers at a time, making    1 passes.
 Calling FoFCou, ICntrl=  3107 FMM=F I1Cent=   0 AccDes= 0.00D+00.
 FoFJK:  IHMeth= 1 ICntrl=    3107 DoSepK=F KAlg= 0 I1Cent=           0 FoldK=F
 IRaf=         0 NMat=       1 IRICut=       1 DoRegI=T DoRafI=F ISym2E= 0 IDoP0=0 IntGTp=1.
 FoFCou: FMM=F IPFlag=           0 FMFlag=      100000 FMFlg1=           0
         NFxFlg=           0 DoJE=F BraDBF=F KetDBF=F FulRan=T
         wScrn=  0.000000 ICntrl=      3107 IOpCl=  0 I1Cent=           0 NGrid=           0
         NMat0=    1 NMatS0=      1 NMatT0=    0 NMatD0=    1 NMtDS0=    0 NMtDT0=    0
 Symmetry not used in FoFCou.
 End of G2Drv F.D. properties file   721 does not exist.
 End of G2Drv F.D. properties file   722 does not exist.
 End of G2Drv F.D. properties file   788 does not exist.
 Leave Link 1110 at Mon Feb 21 21:09:57 2022, MaxMem= 16106127360 cpu:              83.2 elap:               3.0
 (Enter /sw/contrib/gaussian/g16/B01/g16/l1002.exe)
 Minotr:  Closed shell wavefunction.
          IDoAtm=11111
          Frozen-core window.
          Direct CPHF calculation.
          Differentiating once with respect to electric field.
                with respect to dipole field.
          Differentiating once with respect to nuclear coordinates.
          Requested convergence is 1.0D-08 RMS, and 1.0D-07 maximum.
          Secondary convergence is 1.0D-12 RMS, and 1.0D-12 maximum.
          NewPWx=T KeepS1=T KeepF1=T KeepIn=T MapXYZ=F SortEE=F KeepMc=T.
 Keep R1 ints in memory in canonical form, NReq=245618134.
 FoFCou: FMM=F IPFlag=           0 FMFlag=           0 FMFlg1=           0
         NFxFlg=           0 DoJE=F BraDBF=F KetDBF=F FulRan=T
         wScrn=  0.000000 ICntrl=       600 IOpCl=  0 I1Cent=           0 NGrid=           0
         NMat0=    1 NMatS0=  21528 NMatT0=    0 NMatD0=    1 NMtDS0=    0 NMtDT0=    0
 Symmetry not used in FoFCou.
 Two-electron integral symmetry not used.
          MDV=   16106127360 using IRadAn=       1.
          Solving linear equations simultaneously, MaxMat=       0.
          There are    18 degrees of freedom in the 1st order CPHF.  IDoFFX=6 NUNeed=    18.
     15 vectors produced by pass  0 Test12= 1.70D-14 5.56D-09 XBig12= 9.51D+00 1.10D+00.
 AX will form    15 AO Fock derivatives at one time.
     15 vectors produced by pass  1 Test12= 1.70D-14 5.56D-09 XBig12= 1.16D+00 2.28D-01.
     15 vectors produced by pass  2 Test12= 1.70D-14 5.56D-09 XBig12= 1.24D-01 9.43D-02.
     15 vectors produced by pass  3 Test12= 1.70D-14 5.56D-09 XBig12= 4.08D-03 1.04D-02.
     15 vectors produced by pass  4 Test12= 1.70D-14 5.56D-09 XBig12= 7.50D-05 1.58D-03.
     15 vectors produced by pass  5 Test12= 1.70D-14 5.56D-09 XBig12= 9.79D-07 1.28D-04.
     15 vectors produced by pass  6 Test12= 1.70D-14 5.56D-09 XBig12= 7.84D-09 1.10D-05.
     12 vectors produced by pass  7 Test12= 1.70D-14 5.56D-09 XBig12= 5.82D-11 9.32D-07.
      3 vectors produced by pass  8 Test12= 1.70D-14 5.56D-09 XBig12= 4.41D-13 9.87D-08.
      2 vectors produced by pass  9 Test12= 1.70D-14 5.56D-09 XBig12= 3.14D-15 9.06D-09.
 InvSVY:  IOpt=1 It=  1 EMax= 1.44D-15
 Solved reduced A of dimension   122 with    15 vectors.
 FullF1:  Do perturbations      1 to      18.
 Saving first derivative matrices.
 End of Minotr F.D. properties file   721 does not exist.
 End of Minotr F.D. properties file   722 does not exist.
 End of Minotr F.D. properties file   788 does not exist.
 Leave Link 1002 at Mon Feb 21 21:10:00 2022, MaxMem= 16106127360 cpu:              99.4 elap:               3.6
 (Enter /sw/contrib/gaussian/g16/B01/g16/l811.exe)
 MDV= 16106127360.
 Form MO integral derivatives with frozen-active canonical formalism.
 MOERI=1 MOERIx=1 NAtoms=     5 NAtomX=     5.
 Discarding MO integrals.
 MO basis two electron integral derivatives will not be stored on disk.
 IAlg= 3 DoFC=T DoPWx=T Debug=F.
 Frozen-core window:  NFC=   4 NFV=   0.
 Reordered first order wavefunction length =     18678272
 In DefCFB: NBatch=  1 ICI= 16 ICA=191 LFMax= 96
            Large arrays: LIAPS=   619940160 LIARS=   288257200 words.
 In StABat: MaxSiz= 55 MinSiz= 25 NAtomB=  5
 DoIAMN: NPSUse= 28.
 Leave Link  811 at Mon Feb 21 21:11:34 2022, MaxMem= 16106127360 cpu:            2618.0 elap:              93.6
 (Enter /sw/contrib/gaussian/g16/B01/g16/l804.exe)
 Frozen-core window:  NFC=   4 NFV=   0.
 Closed-shell transformation, MDV= 16106127360 ITran=4 ISComp=1.
 Semi-Direct transformation.
 ModeAB=           2 MOrb=            16 LenV=   16104925835
 LASXX=     67341636 LTotXX=    67341636 LenRXX=    67341636
 LTotAB=    68301760 MaxLAS=    99807120 LenRXY=    99807120
 NonZer=   134683272 LenScr=   202817536 LnRSAI=           0
 LnScr1=           0 LExtra=           0 Total=    369966292
 MaxDsk=          -1 SrtSym=           F ITran=            4
 DoSDTr:  NPSUse= 28
 JobTyp=0 Pass  1:  I=   1 to  16.
 (rs|ai) integrals will be sorted in core.
 Complete sort for first half transformation.
 First half transformation complete.
 Begin second half transformation for I=  10.
 Begin second half transformation for I=  10.
 Complete sort for second half transformation.
 Second half transformation complete.
 SymMOI:  orbitals are not symmetric.
 Spin components of T(2) and E(2):
     alpha-alpha T2 =       0.3402227736D-01 E2=     -0.1224004782D+00
     alpha-beta  T2 =       0.1868409587D+00 E2=     -0.7002227829D+00
     beta-beta   T2 =       0.3402227736D-01 E2=     -0.1224004782D+00
 ANorm=    0.1584225687D+01
 E2 =    -0.9450237392D+00 EUMP2 =    -0.28044666646840D+03
 Leave Link  804 at Mon Feb 21 21:11:48 2022, MaxMem= 16106127360 cpu:             382.8 elap:              13.8
 (Enter /sw/contrib/gaussian/g16/B01/g16/l1002.exe)
 Minotr:  Closed shell wavefunction.
          Computing MP2/KS-MP2 derivatives.
          Using Z-Vector for PSCF gradient.
          Skipping F1 and S1 gradient terms here.
          IDoAtm=11111
          Frozen-core window.
          Using MO integrals in the linear equations.
          Forming densities via direct SCF.
          Differentiating once with respect to electric field.
                with respect to dipole field.
          Differentiating once with respect to nuclear coordinates.
          Requested convergence is 1.0D-10 RMS, and 1.0D-09 maximum.
          NewPWx=F KeepS1=T KeepF1=T KeepIn=T MapXYZ=F SortEE=F KeepMc=T.
          MDV=   16106127360 using IRadAn=       5.
          Solving linear equations separately, MaxMat=       0.
          There are     1 degrees of freedom in the 1st order CPHF.  IDoFFX=0 NUNeed=     1.
 FoFJK:  IHMeth= 1 ICntrl=       0 DoSepK=F KAlg= 0 I1Cent=           0 FoldK=F
 IRaf=         0 NMat=       1 IRICut=       1 DoRegI=T DoRafI=F ISym2E= 0 IDoP0=0 IntGTp=1.
 FoFCou: FMM=F IPFlag=           0 FMFlag=      100000 FMFlg1=           0
         NFxFlg=           0 DoJE=F BraDBF=F KetDBF=F FulRan=T
         wScrn=  0.000000 ICntrl=         0 IOpCl=  0 I1Cent=           0 NGrid=           0
         NMat0=    1 NMatS0=      1 NMatT0=    0 NMatD0=    1 NMtDS0=    0 NMtDT0=    0
 Symmetry not used in FoFCou.
 LinEq1:  Iter=  0 NonCon=     1 RMS=5.96D-03 Max=1.32D-01 NDo=     1
 LinEq1:  Iter=  1 NonCon=     1 RMS=1.90D-03 Max=3.82D-02 NDo=     1
 LinEq1:  Iter=  2 NonCon=     1 RMS=8.68D-04 Max=1.40D-02 NDo=     1
 LinEq1:  Iter=  3 NonCon=     1 RMS=3.86D-04 Max=7.80D-03 NDo=     1
 LinEq1:  Iter=  4 NonCon=     1 RMS=1.19D-04 Max=1.89D-03 NDo=     1
 LinEq1:  Iter=  5 NonCon=     1 RMS=4.55D-05 Max=7.22D-04 NDo=     1
 LinEq1:  Iter=  6 NonCon=     1 RMS=2.03D-05 Max=2.17D-04 NDo=     1
 LinEq1:  Iter=  7 NonCon=     1 RMS=8.16D-06 Max=1.46D-04 NDo=     1
 LinEq1:  Iter=  8 NonCon=     1 RMS=3.49D-06 Max=3.39D-05 NDo=     1
 LinEq1:  Iter=  9 NonCon=     1 RMS=9.57D-07 Max=1.29D-05 NDo=     1
 LinEq1:  Iter= 10 NonCon=     1 RMS=1.95D-07 Max=2.30D-06 NDo=     1
 LinEq1:  Iter= 11 NonCon=     1 RMS=4.36D-08 Max=1.03D-06 NDo=     1
 LinEq1:  Iter= 12 NonCon=     1 RMS=1.45D-08 Max=4.00D-07 NDo=     1
 LinEq1:  Iter= 13 NonCon=     1 RMS=3.45D-09 Max=7.16D-08 NDo=     1
 LinEq1:  Iter= 14 NonCon=     1 RMS=6.56D-10 Max=1.00D-08 NDo=     1
 LinEq1:  Iter= 15 NonCon=     1 RMS=1.51D-10 Max=2.54D-09 NDo=     1
 LinEq1:  Iter= 16 NonCon=     0 RMS=3.98D-11 Max=6.93D-10 NDo=     1
 Linear equations converged to 1.000D-10 1.000D-09 after    16 iterations.
 End of Minotr F.D. properties file   721 does not exist.
 End of Minotr F.D. properties file   722 does not exist.
 End of Minotr F.D. properties file   788 does not exist.
 Leave Link 1002 at Mon Feb 21 21:11:50 2022, MaxMem= 16106127360 cpu:              66.3 elap:               2.4
 (Enter /sw/contrib/gaussian/g16/B01/g16/l1102.exe)
 Use density number 2.
 Symmetrizing basis deriv contribution to polar:
 IMax=3 JMax=2 DiffMx= 0.00D+00
 Leave Link 1102 at Mon Feb 21 21:11:51 2022, MaxMem= 16106127360 cpu:               2.7 elap:               0.1
 (Enter /sw/contrib/gaussian/g16/B01/g16/l1110.exe)
 Forming Gx(P) for generalized density number  2 NAtomX=     5.
 Integral derivatives from FoFJK, PRISM(SPDF).
 Do as many integral derivatives as possible in FoFJK.
 G2DrvN: MDV=   16106126844.
 G2DrvN: will do     6 centers at a time, making    1 passes.
 Calling FoFCou, ICntrl=  3107 FMM=F I1Cent=   0 AccDes= 0.00D+00.
 FoFJK:  IHMeth= 1 ICntrl=    3107 DoSepK=F KAlg= 0 I1Cent=           0 FoldK=F
 IRaf=         0 NMat=       1 IRICut=       1 DoRegI=T DoRafI=F ISym2E= 0 IDoP0=0 IntGTp=1.
 FoFCou: FMM=F IPFlag=           0 FMFlag=      100000 FMFlg1=           0
         NFxFlg=           0 DoJE=F BraDBF=F KetDBF=F FulRan=T
         wScrn=  0.000000 ICntrl=      3107 IOpCl=  0 I1Cent=           0 NGrid=           0
         NMat0=    1 NMatS0=      1 NMatT0=    0 NMatD0=    1 NMtDS0=    0 NMtDT0=    0
 Symmetry not used in FoFCou.
 End of G2Drv F.D. properties file   721 does not exist.
 End of G2Drv F.D. properties file   722 does not exist.
 End of G2Drv F.D. properties file   788 does not exist.
 Leave Link 1110 at Mon Feb 21 21:11:54 2022, MaxMem= 16106127360 cpu:              84.9 elap:               3.1
 (Enter /sw/contrib/gaussian/g16/B01/g16/l1112.exe)
 MP22nd: MDV=   16106127360
 This link is doing NAtomX=     5 total of    18 degrees of freedom.
 Using ON3 I/O method in MakUI.
 Frozen-core window:  NFC=   4 NFV=   0.
 Using Ix for Sx.
 Use MO integrals over full window.
 Using OV2 memory method for fx*t*t/D, MaxI=    16 DoOO2=F NP=  28.
 R2 and R3 integrals will be kept in memory, NReq=   915591705.
 FoFCou: FMM=F IPFlag=           0 FMFlag=           0 FMFlg1=           0
         NFxFlg=           0 DoJE=F BraDBF=F KetDBF=F FulRan=T
         wScrn=  0.000000 ICntrl=       600 IOpCl=  0 I1Cent=           0 NGrid=           0
         NMat0=    1 NMatS0=      1 NMatT0=    0 NMatD0=    1 NMtDS0=    0 NMtDT0=    0
 Symmetry not used in FoFCou.
 DD1Dir will call FoFMem   1 times, MxPair=       272
 NAB=   136 NAA=     0 NBB=     0.
 Symmetry is being used.
 FoFJK:  IHMeth= 1 ICntrl=       0 DoSepK=F KAlg= 0 I1Cent=           0 FoldK=F
 IRaf=         0 NMat=      18 IRICut=      45 DoRegI=T DoRafI=T ISym2E= 2 IDoP0=3 IntGTp=3.
 Discarding MO integrals.
 Leave Link 1112 at Mon Feb 21 21:12:32 2022, MaxMem= 16106127360 cpu:            1048.8 elap:              38.0
 (Enter /sw/contrib/gaussian/g16/B01/g16/l601.exe)
 Copying SCF densities to generalized density rwf, IOpCl= 0 IROHF=0.

 **********************************************************************

            Population analysis using the MP2 Density.

 **********************************************************************

 Orbital symmetries:
       Occupied  (A) (A) (A) (A) (A) (A) (A) (A) (A) (A) (A) (A)
                 (A) (A) (A) (A)
       Virtual   (A) (A) (A) (A) (A) (A) (A) (A) (A) (A) (A) (A)
                 (A) (A) (A) (A) (A) (A) (A) (A) (A) (A) (A) (A)
                 (A) (A) (A) (A) (A) (A) (A) (A) (A) (A) (A) (A)
                 (A) (A) (A) (A) (A) (A) (A) (A) (A) (A) (A) (A)
                 (A) (A) (A) (A) (A) (A) (A) (A) (A) (A) (A) (A)
                 (A) (A) (A) (A) (A) (A) (A) (A) (A) (A) (A) (A)
                 (A) (A) (A) (A) (A) (A) (A) (A) (A) (A) (A) (A)
                 (A) (A) (A) (A) (A) (A) (A) (A) (A) (A) (A) (A)
                 (A) (A) (A) (A) (A) (A) (A) (A) (A) (A) (A) (A)
                 (A) (A) (A) (A) (A) (A) (A) (A) (A) (A) (A) (A)
                 (A) (A) (A) (A) (A) (A) (A) (A) (A) (A) (A) (A)
                 (A) (A) (A) (A) (A) (A) (A) (A) (A) (A) (A) (A)
                 (A) (A) (A) (A) (A) (A) (A) (A) (A) (A) (A) (A)
                 (A) (A) (A) (A) (A) (A) (A) (A) (A) (A) (A) (A)
                 (A) (A) (A) (A) (A) (A) (A) (A) (A) (A) (A) (A)
                 (A) (A) (A) (A) (A) (A) (A) (A) (A) (A) (A)
 The electronic state is 1-A.
 Alpha  occ. eigenvalues --  -20.69083 -20.68433 -20.65999 -15.81281  -1.62404
 Alpha  occ. eigenvalues --   -1.49573  -1.25440  -0.94807  -0.77277  -0.75917
 Alpha  occ. eigenvalues --   -0.71191  -0.67925  -0.62049  -0.58940  -0.48522
 Alpha  occ. eigenvalues --   -0.47250
 Alpha virt. eigenvalues --    0.02963   0.07162   0.08597   0.10172   0.13295
 Alpha virt. eigenvalues --    0.13492   0.14409   0.15454   0.17818   0.19415
 Alpha virt. eigenvalues --    0.19970   0.20647   0.22085   0.23496   0.23793
 Alpha virt. eigenvalues --    0.26584   0.29343   0.30360   0.31091   0.34342
 Alpha virt. eigenvalues --    0.34979   0.38721   0.42174   0.43129   0.52639
 Alpha virt. eigenvalues --    0.53024   0.55844   0.58151   0.62598   0.63836
 Alpha virt. eigenvalues --    0.67344   0.68558   0.70642   0.71122   0.72448
 Alpha virt. eigenvalues --    0.72954   0.74470   0.79053   0.79324   0.80898
 Alpha virt. eigenvalues --    0.81411   0.83043   0.86818   0.90813   0.92194
 Alpha virt. eigenvalues --    0.92633   0.95643   0.97696   0.98495   1.01634
 Alpha virt. eigenvalues --    1.05101   1.05507   1.08345   1.11738   1.14070
 Alpha virt. eigenvalues --    1.18988   1.22112   1.23247   1.33865   1.35073
 Alpha virt. eigenvalues --    1.38687   1.45284   1.48768   1.50882   1.53806
 Alpha virt. eigenvalues --    1.56629   1.58048   1.61324   1.66386   1.66937
 Alpha virt. eigenvalues --    1.70353   1.79253   1.83000   1.83608   1.87890
 Alpha virt. eigenvalues --    1.91042   1.95612   1.99168   2.00651   2.07763
 Alpha virt. eigenvalues --    2.12059   2.13152   2.15044   2.22483   2.26420
 Alpha virt. eigenvalues --    2.26520   2.28973   2.31421   2.34442   2.38626
 Alpha virt. eigenvalues --    2.42171   2.43094   2.45407   2.46279   2.47699
 Alpha virt. eigenvalues --    2.50178   2.58984   2.59656   2.62004   2.62463
 Alpha virt. eigenvalues --    2.63495   2.66724   2.75663   2.82348   2.85472
 Alpha virt. eigenvalues --    2.88487   2.89676   2.92334   2.95946   3.02574
 Alpha virt. eigenvalues --    3.06847   3.12173   3.20483   3.22632   3.31616
 Alpha virt. eigenvalues --    3.34182   3.51638   3.64233   3.83778   3.84544
 Alpha virt. eigenvalues --    4.14878   4.16265   4.18389   4.25728   4.35170
 Alpha virt. eigenvalues --    4.39335   4.46366   4.51919   4.66067   4.71031
 Alpha virt. eigenvalues --    4.80538   4.82459   4.82828   4.89686   5.02307
 Alpha virt. eigenvalues --    5.07659   5.10389   5.14507   5.17907   5.24291
 Alpha virt. eigenvalues --    5.27241   5.30736   5.32950   5.35517   5.60628
 Alpha virt. eigenvalues --    5.67383   5.76925   5.82893   5.95761   6.16874
 Alpha virt. eigenvalues --    6.30908   6.33795   6.39431   6.49356   6.50540
 Alpha virt. eigenvalues --    6.61401   6.66777   6.69925   6.75740   6.76360
 Alpha virt. eigenvalues --    6.83257   6.89824   7.01383   7.05525   7.05784
 Alpha virt. eigenvalues --    7.09015   7.12462   7.15056   7.18155   7.22516
 Alpha virt. eigenvalues --    7.24182   7.30746   7.32551   7.34768   7.39937
 Alpha virt. eigenvalues --    7.43166   7.48418   7.60010   7.62394   7.62734
 Alpha virt. eigenvalues --    7.66681   7.78947   7.88667   8.09259   8.31415
 Alpha virt. eigenvalues --    8.40902   8.54401  13.39179  14.39235  15.16227
 Alpha virt. eigenvalues --   16.15149
          Condensed to atoms (all electrons):
               1          2          3          4          5
     1  H    0.589533   0.128399   0.019999   0.012416  -0.000646
     2  O    0.128399   8.321613  -0.173457  -0.090450   0.015469
     3  O    0.019999  -0.173457   8.469764  -0.130196  -0.038791
     4  N    0.012416  -0.090450  -0.130196   6.972268  -0.055739
     5  O   -0.000646   0.015469  -0.038791  -0.055739   8.272816
 Mulliken charges:
               1
     1  H    0.250300
     2  O   -0.201573
     3  O   -0.147318
     4  N    0.291701
     5  O   -0.193109
 Sum of Mulliken charges =  -0.00000
 Mulliken charges with hydrogens summed into heavy atoms:
               1
     2  O    0.048726
     3  O   -0.147318
     4  N    0.291701
     5  O   -0.193109
 APT charges:
               1
     1  H    0.299184
     2  O   -0.288183
     3  O   -0.495716
     4  N    0.876470
     5  O   -0.391756
 Sum of APT charges =  -0.00000
 APT charges with hydrogens summed into heavy atoms:
               1
     2  O    0.011001
     3  O   -0.495716
     4  N    0.876470
     5  O   -0.391756
 Electronic spatial extent (au):  <R**2>=            252.8529
 Charge=             -0.0000 electrons
 Dipole moment (field-independent basis, Debye):
    X=              1.2171    Y=              0.7911    Z=             -0.0061  Tot=              1.4516
 Quadrupole moment (field-independent basis, Debye-Ang):
   XX=            -17.9889   YY=            -23.0931   ZZ=            -22.0123
   XY=              2.7913   XZ=             -0.0900   YZ=              0.0351
 Traceless Quadrupole moment (field-independent basis, Debye-Ang):
   XX=              3.0425   YY=             -2.0617   ZZ=             -0.9808
   XY=              2.7913   XZ=             -0.0900   YZ=              0.0351
 Octapole moment (field-independent basis, Debye-Ang**2):
  XXX=             18.1962  YYY=              1.7569  ZZZ=             -0.0495  XYY=              1.0890
  XXY=              6.2027  XXZ=             -0.1110  XZZ=             -1.7743  YZZ=              0.2534
  YYZ=             -0.0658  XYZ=             -0.0793
 Hexadecapole moment (field-independent basis, Debye-Ang**3):
 XXXX=           -190.0414 YYYY=            -41.0776 ZZZZ=            -18.2860 XXXY=             12.1371
 XXXZ=             -0.4901 YYYX=              1.0057 YYYZ=              0.1130 ZZZX=              0.0758
 ZZZY=              0.0240 XXYY=            -42.4441 XXZZ=            -41.6513 YYZZ=             -9.8872
 XXYZ=              0.0008 YYXZ=             -0.0277 ZZXY=              0.4761
 N-N= 1.168746016238D+02 E-N=-8.958599111894D+02  KE= 2.801975478844D+02
  Exact polarizability:  41.718   0.975  22.519   0.054  -0.037  17.936
 Approx polarizability:  31.939  -1.130  20.577   0.108  -0.008  15.532
 No NMR shielding tensors so no spin-rotation constants.
 Leave Link  601 at Mon Feb 21 21:12:32 2022, MaxMem= 16106127360 cpu:               4.3 elap:               0.2
 (Enter /sw/contrib/gaussian/g16/B01/g16/l701.exe)
 ... and contract with generalized density number  2.
 Compute integral second derivatives.
 Leave Link  701 at Mon Feb 21 21:12:32 2022, MaxMem= 16106127360 cpu:               6.3 elap:               0.2
 (Enter /sw/contrib/gaussian/g16/B01/g16/l702.exe)
 L702 exits ... SP integral derivatives will be done elsewhere.
 Leave Link  702 at Mon Feb 21 21:12:32 2022, MaxMem= 16106127360 cpu:               0.5 elap:               0.0
 (Enter /sw/contrib/gaussian/g16/B01/g16/l703.exe)
 Integral derivatives from FoFJK, PRISM(SPDF).
 Compute integral second derivatives, UseDBF=F ICtDFT=           0.
 Calling FoFJK, ICntrl=  10100127 FMM=F ISym2X=0 I1Cent= 0 IOpClX= 0 NMat=1 NMatS=1 NMatT=0.
 FoFJK:  IHMeth= 1 ICntrl=10100127 DoSepK=F KAlg= 0 I1Cent=           0 FoldK=F
 IRaf=         0 NMat=       1 IRICut=       1 DoRegI=T DoRafI=F ISym2E= 0 IDoP0=0 IntGTp=1.
 FoFCou: FMM=F IPFlag=           0 FMFlag=      100000 FMFlg1=         800
         NFxFlg=           0 DoJE=F BraDBF=F KetDBF=F FulRan=T
         wScrn=  0.000000 ICntrl=  10100127 IOpCl=  0 I1Cent=           0 NGrid=           0
         NMat0=    1 NMatS0=      1 NMatT0=    0 NMatD0=    1 NMtDS0=    0 NMtDT0=    0
 Symmetry not used in FoFCou.
 Leave Link  703 at Mon Feb 21 21:12:47 2022, MaxMem= 16106127360 cpu:             424.7 elap:              15.2
 (Enter /sw/contrib/gaussian/g16/B01/g16/l716.exe)
 Dipole        = 4.78841057D-01 3.11238783D-01-2.38658108D-03
 Polarizability= 4.17184816D+01 9.74898095D-01 2.25189748D+01
                 5.36833963D-02-3.70016215D-02 1.79359844D+01
 Full mass-weighted force constant matrix:
 Low frequencies --- -269.4389  -12.2864   -4.3265    0.0005    0.0007    0.0008
 Low frequencies ---    4.3556  228.0060  341.5968
 ******    1 imaginary frequencies (negative Signs) ****** 
 Diagonal vibrational polarizability:
       34.7798251       4.5230680      46.6176644
 Harmonic frequencies (cm**-1), IR intensities (KM/Mole), Raman scattering
 activities (A**4/AMU), depolarization ratios for plane and unpolarized
 incident light, reduced masses (AMU), force constants (mDyne/A),
 and normal coordinates:
                      1                      2                      3
                      A                      A                      A
 Frequencies --   -269.4385               228.0012               341.5502
 Red. masses --      1.1387                10.5220                 8.6246
 Frc consts  --      0.0487                 0.3223                 0.5928
 IR Inten    --    124.7268                 1.0956                 4.4475
  Atom  AN      X      Y      Z        X      Y      Z        X      Y      Z
     1   1     0.02  -0.01   1.00     0.00  -0.04  -0.57     0.17  -0.67   0.02
     2   8    -0.00   0.00  -0.06    -0.02  -0.01  -0.31    -0.30  -0.25   0.01
     3   8     0.00   0.00  -0.04     0.02   0.03   0.33     0.14   0.43   0.00
     4   7    -0.00   0.00   0.06    -0.01   0.01   0.52     0.19   0.18  -0.05
     5   8     0.00  -0.00  -0.01     0.01  -0.03  -0.44    -0.02  -0.30   0.02
                      4                      5                      6
                      A                      A                      A
 Frequencies --    451.7435               785.5227               967.2509
 Red. masses --     12.3113                12.9157                15.3947
 Frc consts  --      1.4803                 4.6955                 8.4859
 IR Inten    --    199.5464               170.6193                22.5655
  Atom  AN      X      Y      Z        X      Y      Z        X      Y      Z
     1   1    -0.45   0.09  -0.00    -0.16   0.35   0.02    -0.16   0.07  -0.00
     2   8    -0.38   0.03  -0.00     0.39  -0.18  -0.01    -0.40   0.33   0.01
     3   8    -0.40  -0.25  -0.00    -0.21  -0.18   0.02     0.59  -0.46  -0.00
     4   7     0.52   0.12   0.01     0.26   0.58  -0.00     0.05   0.27  -0.00
     5   8     0.35   0.11  -0.00    -0.39  -0.17  -0.01    -0.22  -0.11  -0.00
                      7                      8                      9
                      A                      A                      A
 Frequencies --   1371.2011              1677.2189              3778.6972
 Red. masses --      1.1334                13.2088                 1.0675
 Frc consts  --      1.2556                21.8924                 8.9809
 IR Inten    --    152.9135               140.4011                82.5658
  Atom  AN      X      Y      Z        X      Y      Z        X      Y      Z
     1   1     0.77  -0.63  -0.02     0.27  -0.21  -0.01     0.67   0.74  -0.00
     2   8     0.01   0.06   0.00     0.03   0.03  -0.00    -0.04  -0.05   0.00
     3   8    -0.05  -0.03   0.00    -0.09  -0.12   0.00     0.00  -0.00  -0.00
     4   7     0.02  -0.00   0.00    -0.54   0.46  -0.03    -0.00  -0.00  -0.00
     5   8    -0.03   0.01  -0.00     0.52  -0.30   0.02     0.00  -0.00   0.00

 -------------------
 - Thermochemistry -
 -------------------
 Temperature   298.150 Kelvin.  Pressure   1.00000 Atm.
 Atom     1 has atomic number  1 and mass   1.00783
 Atom     2 has atomic number  8 and mass  15.99491
 Atom     3 has atomic number  8 and mass  15.99491
 Atom     4 has atomic number  7 and mass  14.00307
 Atom     5 has atomic number  8 and mass  15.99491
 Molecular mass:    62.99564 amu.
 Principal axes and moments of inertia in atomic units:
                           1         2         3
     Eigenvalues --    32.89981 360.07557 392.83778
           X            0.99994   0.01071  -0.00038
           Y           -0.01071   0.99994  -0.00083
           Z            0.00037   0.00083   1.00000
 This molecule is an asymmetric top.
 Rotational symmetry number  1.
 Rotational temperatures (Kelvin)      2.63266     0.24054     0.22048
 Rotational constants (GHZ):          54.85566     5.01212     4.59411
    1 imaginary frequencies ignored.
 Zero-point vibrational energy      57427.8 (Joules/Mol)
                                   13.72558 (Kcal/Mol)
 Warning -- explicit consideration of   3 degrees of freedom as
           vibrations may cause significant error
 Vibrational temperatures:    328.04   491.41   649.96  1130.19  1391.66
          (Kelvin)           1972.85  2413.14  5436.70
 
 Zero-point correction=                           0.021873 (Hartree/Particle)
 Thermal correction to Energy=                    0.025992
 Thermal correction to Enthalpy=                  0.026936
 Thermal correction to Gibbs Free Energy=        -0.004252
 Sum of electronic and zero-point Energies=           -280.424793
 Sum of electronic and thermal Energies=              -280.420674
 Sum of electronic and thermal Enthalpies=            -280.419730
 Sum of electronic and thermal Free Energies=         -280.450918
 
                     E (Thermal)             CV                S
                      KCal/Mol        Cal/Mol-Kelvin    Cal/Mol-Kelvin
 Total                   16.310             11.955             65.640
 Electronic               0.000              0.000              0.000
 Translational            0.889              2.981             38.341
 Rotational               0.889              2.981             23.058
 Vibrational             14.533              5.994              4.242
 Vibration     1          0.651              1.798              1.895
 Vibration     2          0.721              1.592              1.205
 Vibration     3          0.810              1.357              0.791
                       Q            Log10(Q)             Ln(Q)
 Total Bot       0.902831D+02          1.955606          4.502950
 Total V=0       0.103879D+13         12.016530         27.669082
 Vib (Bot)       0.188123D-09         -9.725559        -22.393927
 Vib (Bot)    1  0.864600D+00         -0.063185         -0.145489
 Vib (Bot)    2  0.543120D+00         -0.265105         -0.610426
 Vib (Bot)    3  0.379074D+00         -0.421276         -0.970024
 Vib (V=0)       0.216453D+01          0.335364          0.772205
 Vib (V=0)    1  0.149877D+01          0.175734          0.404642
 Vib (V=0)    2  0.123823D+01          0.092800          0.213680
 Vib (V=0)    3  0.112745D+01          0.052098          0.119961
 Electronic      0.100000D+01          0.000000          0.000000
 Translational   0.196526D+08          7.293420         16.793719
 Rotational      0.244200D+05          4.387746         10.103158
 
                                                                title
                                                             IR Spectrum
 
     3                                                                      1         1                                              
     7                                                                      6         3             9     7          4   3   2       
     7                                                                      7         7             6     8          5   4   2       
     9                                                                      7         1             7     6          2   2   8       
 
     X                                                                      X         X             X     X          X   X   X       
     X                                                                      X         X             X     X          X               
     X                                                                      X         X                   X          X               
     X                                                                      X         X                   X          X               
     X                                                                      X         X                   X          X               
     X                                                                      X         X                   X          X               
     X                                                                      X         X                   X          X               
     X                                                                      X         X                   X          X               
                                                                            X         X                   X          X               
                                                                            X         X                   X          X               
                                                                            X         X                   X          X               
                                                                            X         X                   X          X               
                                                                            X         X                   X          X               
                                                                            X         X                   X          X               
                                                                                      X                   X          X               
                                                                                                          X          X               
                                                                                                          X          X               
                                                                                                                     X               
                                                                                                                     X               
                                                                                                                     X               
 
 ***** Axes restored to original set *****
 -------------------------------------------------------------------
 Center     Atomic                   Forces (Hartrees/Bohr)
 Number     Number              X              Y              Z
 -------------------------------------------------------------------
      1        1           0.000070183   -0.000124145    0.000003158
      2        8           0.000151937   -0.000763661    0.000107319
      3        8          -0.000157396    0.000862943   -0.000101443
      4        7          -0.000497361    0.001134084   -0.000080872
      5        8           0.000432636   -0.001109221    0.000071837
 -------------------------------------------------------------------
 Cartesian Forces:  Max     0.001134084 RMS     0.000540409
 -----------------------------------------------------------------------------------------------
                       Internal Coordinate Forces (Hartree/Bohr or radian)
  Cent   Atom   N1       Length/X         N2         Alpha/Y        N3         Beta/Z          J
 -----------------------------------------------------------------------------------------------
      1  H 
      2  O        1  -0.000003(     1)
      3  O        2  -0.000235(     2)      1  -0.000128(     5)
      4  N        3  -0.000014(     3)      2  -0.000092(     6)      1   0.000225(     8)     0
      5  O        4   0.000376(     4)      3  -0.000037(     7)      2  -0.002367(     9)     0
 -----------------------------------------------------------------------------------------------
 Internal  Forces:  Max     0.002366723 RMS     0.000807937
 Force constants in Cartesian coordinates: 
                1             2             3             4             5 
      1  0.646420D-01
      2 -0.187324D-03 -0.236565D-02
      3  0.530317D-02  0.426382D-04  0.512360D+00
      4 -0.357933D-01  0.396273D-03 -0.163035D-01  0.272825D+00
      5  0.188075D-03  0.305816D-02 -0.576279D-04  0.119488D-03  0.207929D-02
      6  0.482479D-01 -0.143403D-03 -0.508534D+00  0.335048D-01 -0.453556D-04
      7 -0.183640D-01 -0.200293D-03  0.125399D-01 -0.220316D+00 -0.555921D-03
      8  0.358452D-03  0.999849D-03  0.571351D-05 -0.374320D-03 -0.655570D-02
      9 -0.531663D-01  0.981025D-04 -0.481511D-03 -0.194455D-01  0.110180D-02
     10 -0.924984D-02  0.290112D-04 -0.486985D-02 -0.170681D-01  0.544913D-03
     11 -0.270554D-03 -0.271836D-02 -0.158269D-03 -0.476114D-03 -0.488771D-02
     12  0.536456D-02  0.272656D-04 -0.474748D-02  0.115188D-01 -0.100266D-02
     13 -0.123496D-02 -0.376674D-04  0.333036D-02  0.352615D-03 -0.296555D-03
     14 -0.886494D-04  0.102600D-02  0.167545D-03  0.334673D-03  0.630595D-02
     15 -0.574932D-02 -0.246032D-04  0.140240D-02 -0.927461D-02  0.384450D-05
                6             7             8             9            10 
      6  0.594576D+00
      7 -0.212304D-01  0.341437D+00
      8  0.155831D-02  0.464131D-02  0.435118D-02
      9 -0.785289D-01  0.359941D-01 -0.211315D-02  0.181164D+00
     10 -0.524534D-01 -0.780057D-01 -0.425396D-02  0.174760D+00  0.826015D+00
     11 -0.819304D-03 -0.234156D-02  0.835575D-02  0.726223D-02  0.434569D-01
     12  0.171313D-01  0.629748D-01  0.495343D-02 -0.817716D-01 -0.178805D-01
     13 -0.806903D-02 -0.247518D-01 -0.371478D-03 -0.138142D+00 -0.721691D+00
     14 -0.550249D-03 -0.154353D-02 -0.715109D-02 -0.634897D-02 -0.397768D-01
     15 -0.246445D-01 -0.902784D-01 -0.440430D-02 -0.203820D-01 -0.995564D-01
               11            12            13            14            15 
     11  0.108997D-01
     12  0.335355D-03  0.186618D+00
     13 -0.403686D-01 -0.619777D-01  0.747326D+00
     14 -0.116494D-01 -0.431339D-02  0.410743D-01  0.114685D-01
     15 -0.662001D-02 -0.117231D+00  0.204859D+00  0.110451D-01  0.160855D+00
 Force constants in internal coordinates: 
                1             2             3             4             5 
      1  0.512360D+00
      2 -0.103981D-01  0.281344D+00
      3  0.346004D-02  0.247631D-02  0.117284D+00
      4 -0.357828D-02  0.590085D-02  0.153064D+00  0.811999D+00
      5  0.978074D-02  0.653217D-01  0.227643D-02  0.480936D-02  0.216736D+00
      6  0.464517D-02  0.590900D-01  0.409454D-01  0.218021D-01  0.313022D-01
      7 -0.117422D-02  0.376841D-01  0.322402D-01  0.847067D-01  0.213179D-01
      8 -0.456651D-04  0.351782D-03 -0.376589D-05 -0.239065D-04 -0.591641D-03
      9  0.364155D-04 -0.406259D-03 -0.261464D-02  0.188961D-03  0.171542D-03
                6             7             8             9 
      6  0.282456D+00
      7  0.957815D-01  0.482785D+00
      8 -0.142205D-04  0.136310D-03 -0.778142D-02
      9  0.125152D-02 -0.435726D-03 -0.389486D-02  0.408983D-01
 Leave Link  716 at Mon Feb 21 21:12:47 2022, MaxMem= 16106127360 cpu:               0.9 elap:               0.1
 (Enter /sw/contrib/gaussian/g16/B01/g16/l103.exe)

 GradGradGradGradGradGradGradGradGradGradGradGradGradGradGradGradGradGrad
 Berny optimization.
 Search for a local minimum.
 Step number   1 out of a maximum of    2
 All quantities printed in internal units (Hartrees-Bohrs-Radians)
 Second derivative matrix not updated -- analytic derivatives used.
 The second derivative matrix:
                          r1        r2        r3        r4        a1
           r1           0.51236
           r2          -0.01040   0.28134
           r3           0.00346   0.00248   0.11728
           r4          -0.00358   0.00590   0.15306   0.81200
           a1           0.00978   0.06532   0.00228   0.00481   0.21674
           a2           0.00465   0.05909   0.04095   0.02180   0.03130
           a3          -0.00117   0.03768   0.03224   0.08471   0.02132
           d1          -0.00005   0.00035  -0.00000  -0.00002  -0.00059
           d2           0.00004  -0.00041  -0.00261   0.00019   0.00017
                          a2        a3        d1        d2
           a2           0.28246
           a3           0.09578   0.48279
           d1          -0.00001   0.00014  -0.00778
           d2           0.00125  -0.00044  -0.00389   0.04090
 ITU=  0
     Eigenvalues ---   -0.00809   0.04099   0.07854   0.17532   0.22510
     Eigenvalues ---    0.32507   0.51299   0.51725   0.87092
 Eigenvalue     1 is  -8.09D-03 should be greater than     0.000000 Eigenvector:
                          d1        d2        a1        r3        r2
   1                    0.99684   0.07936   0.00313   0.00238  -0.00169
                          a2        r4        a3        r1
   1                   -0.00053  -0.00041  -0.00020  -0.00002
 Angle between quadratic step and forces=  10.89 degrees.
 Linear search not attempted -- first point.
 Variable       Old X    -DE/DX   Delta X   Delta X   Delta X     New X
                                 (Linear)    (Quad)   (Total)
    r1        1.83110  -0.00000   0.00000   0.00001   0.00001   1.83110
    r2        2.74940  -0.00023   0.00000  -0.00095  -0.00095   2.74845
    r3        2.75670  -0.00001   0.00000  -0.00287  -0.00287   2.75384
    r4        2.21236   0.00038   0.00000   0.00103   0.00103   2.21338
    a1        1.70335  -0.00013   0.00000  -0.00029  -0.00029   1.70306
    a2        1.78543  -0.00009   0.00000   0.00054   0.00054   1.78597
    a3        1.90362  -0.00004   0.00000  -0.00014  -0.00014   1.90348
    d1        3.14159   0.00022   0.00000   0.00906   0.00906   3.15066
    d2        3.19926  -0.00237   0.00000  -0.05736  -0.05736   3.14190
         Item               Value     Threshold  Converged?
 Maximum Force            0.002367     0.000450     NO 
 RMS     Force            0.000808     0.000300     NO 
 Maximum Displacement     0.057360     0.001800     NO 
 RMS     Displacement     0.019388     0.001200     NO 
 Predicted change in Energy=-6.938101D-05
                       ----------------------------
                       ! Non-Optimized Parameters !
                       ! (Angstroms and Degrees)  !
 ----------------------                            ----------------------
 !      Name          Value   Derivative information (Atomic Units)     !
 ------------------------------------------------------------------------
 !       r1          0.969    -DE/DX =    0.0                           !
 !       r2          1.4544   -DE/DX =   -0.0002                        !
 !       r3          1.4573   -DE/DX =    0.0                           !
 !       r4          1.1713   -DE/DX =    0.0004                        !
 !       a1         97.5781   -DE/DX =   -0.0001                        !
 !       a2        102.3287   -DE/DX =   -0.0001                        !
 !       a3        109.0615   -DE/DX =    0.0                           !
 !       d1        180.5194   -DE/DX =    0.0002                        !
 !       d2        180.0177   -DE/DX =   -0.0024                        !
 ------------------------------------------------------------------------
 GradGradGradGradGradGradGradGradGradGradGradGradGradGradGradGradGradGrad

 Leave Link  103 at Mon Feb 21 21:12:48 2022, MaxMem= 16106127360 cpu:               1.8 elap:               0.1
 (Enter /sw/contrib/gaussian/g16/B01/g16/l9999.exe)

 ----------------------------------------------------------------------

 Electric dipole moment (input orientation):
 (Debye = 10**-18 statcoulomb cm , SI units = C m)
                  (au)            (Debye)         (10**-30 SI)
   Tot        0.571108D+00      0.145161D+01      0.484205D+01
   x         -0.146145D+00     -0.371463D+00     -0.123907D+01
   y         -0.246904D-02     -0.627567D-02     -0.209334D-01
   z         -0.552087D+00     -0.140326D+01     -0.468079D+01

 Dipole polarizability, Alpha (input orientation).
 (esu units = cm**3 , SI units = C**2 m**2 J**-1)
 Alpha(0;0):
               (au)            (10**-24 esu)      (10**-40 SI)
   iso        0.273911D+02      0.405895D+01      0.451619D+01
   aniso      0.219199D+02      0.324819D+01      0.361410D+01
   xx         0.320942D+02      0.475586D+01      0.529161D+01
   yx         0.364979D+00      0.540844D-01      0.601770D-01
   yy         0.179449D+02      0.265917D+01      0.295872D+01
   zx         0.964595D+01      0.142938D+01      0.159040D+01
   zy         0.242810D+00      0.359807D-01      0.400339D-01
   zz         0.321343D+02      0.476182D+01      0.529824D+01

 ----------------------------------------------------------------------

 Dipole orientation:
     1          0.00000000          0.00000000         -0.00000000
     8         -0.46857226          0.00791629         -1.77011266
     8          2.07297662          0.01102032         -2.81878549
     7          1.58839850          0.02302524         -5.53253710
     8          3.51624206         -0.09391374         -6.61154938

 Electric dipole moment (dipole orientation):
 (Debye = 10**-18 statcoulomb cm , SI units = C m)
                  (au)            (Debye)         (10**-30 SI)
   Tot        0.571108D+00      0.145161D+01      0.484205D+01
   x          0.000000D+00      0.000000D+00      0.000000D+00
   y          0.000000D+00      0.000000D+00      0.000000D+00
   z          0.571108D+00      0.145161D+01      0.484205D+01

 Dipole polarizability, Alpha (dipole orientation).
 (esu units = cm**3 , SI units = C**2 m**2 J**-1)
 Alpha(0;0):
               (au)            (10**-24 esu)      (10**-40 SI)
   iso        0.273911D+02      0.405895D+01      0.451619D+01
   aniso      0.219199D+02      0.324819D+01      0.361410D+01
   xx         0.273241D+02      0.404901D+01      0.450514D+01
   yx        -0.259770D+00     -0.384939D-01     -0.428302D-01
   yy         0.179427D+02      0.265884D+01      0.295836D+01
   zx        -0.837373D+01     -0.124086D+01     -0.138064D+01
   zy         0.250857D+00      0.371731D-01      0.413607D-01
   zz         0.369066D+02      0.546899D+01      0.608507D+01

 ----------------------------------------------------------------------
 1\1\GINC-N2109\Freq\RMP2-FC\Aug-CC-pVTZ\H1N1O3\CGAVINH\21-Feb-2022\1\\
 #p freq mp2/aug-cc-pvtz density=current\\title\\0,1\H\O,1,r1\O,2,r2,1,
 a1\N,3,r3,2,a2,1,d1,0\O,4,r4,3,a3,2,d2,0\\r1=0.96897556\r2=1.45491931\
 r3=1.45878406\r4=1.17072885\a1=97.59494903\a2=102.29752444\a3=109.0695
 5123\d1=180.\d2=183.30424945\\Version=ES64L-G16RevB.01\State=1-A\HF=-2
 79.5016427\MP2=-280.4466665\RMSD=7.709e-09\RMSF=5.404e-04\ZeroPoint=0.
 0218731\Thermal=0.0259921\Dipole=-0.1461446,-0.002469,-0.5520867\Dipol
 eDeriv=0.2663696,-0.0004933,0.0482464,0.001152,0.3555614,0.0014531,0.0
 821304,0.000583,0.2756225,-0.3278422,-0.0027619,-0.2067668,0.0024311,-
 0.3140773,0.0027369,-0.1110005,-0.0031482,-0.2226302,-0.0465558,-0.004
 9269,0.1474684,-0.0063732,-0.0872896,0.0006253,-0.7515492,-0.0248704,-
 1.3533019,0.8926257,0.0382412,0.9084336,0.0415587,0.067801,0.039884,0.
 9217998,0.029836,1.6689845,-0.7845973,-0.0300591,-0.8973816,-0.0387686
 ,-0.0219955,-0.0446992,-0.1413805,-0.0024003,-0.3686747\Polar=32.09416
 69,0.3649795,17.9449378,9.6459472,0.2428097,32.1343361\Quadrupole=-1.5
 093092,-0.7318365,2.2411457,-0.0734736,2.0944639,0.0248668\PG=C01 [X(H
 1N1O3)]\NImag=1\\0.06464203,-0.00018732,-0.00236565,0.00530317,0.00004
 264,0.51236033,-0.03579329,0.00039627,-0.01630353,0.27282450,0.0001880
 8,0.00305816,-0.00005763,0.00011949,0.00207929,0.04824792,-0.00014340,
 -0.50853373,0.03350483,-0.00004536,0.59457588,-0.01836395,-0.00020029,
 0.01253985,-0.22031577,-0.00055592,-0.02123037,0.34143727,0.00035845,0
 .00099985,0.00000571,-0.00037432,-0.00655570,0.00155831,0.00464131,0.0
 0435118,-0.05316633,0.00009810,-0.00048151,-0.01944546,0.00110180,-0.0
 7852888,0.03599413,-0.00211315,0.18116397,-0.00924984,0.00002901,-0.00
 486985,-0.01706807,0.00054491,-0.05245335,-0.07800572,-0.00425396,0.17
 476002,0.82601500,-0.00027055,-0.00271836,-0.00015827,-0.00047611,-0.0
 0488771,-0.00081930,-0.00234156,0.00835575,0.00726223,0.04345685,0.010
 89972,0.00536456,0.00002727,-0.00474748,0.01151877,-0.00100266,0.01713
 127,0.06297482,0.00495343,-0.08177157,-0.01788046,0.00033536,0.1866183
 7,-0.00123496,-0.00003767,0.00333036,0.00035262,-0.00029655,-0.0080690
 3,-0.02475183,-0.00037148,-0.13814236,-0.72169138,-0.04036862,-0.06197
 769,0.74732555,-0.00008865,0.00102600,0.00016755,0.00033467,0.00630595
 ,-0.00055025,-0.00154353,-0.00715109,-0.00634897,-0.03977681,-0.011649
 41,-0.00431339,0.04107432,0.01146854,-0.00574932,-0.00002460,0.0014024
 0,-0.00927461,0.00000384,-0.02464454,-0.09027844,-0.00440430,-0.020382
 01,-0.09955636,-0.00662001,-0.11723059,0.20485872,0.01104507,0.1608547
 4\\-0.00007018,0.00012414,-0.00000316,-0.00015194,0.00076366,-0.000107
 32,0.00015740,-0.00086294,0.00010144,0.00049736,-0.00113408,0.00008087
 ,-0.00043264,0.00110922,-0.00007184\\\@


 "TIGER, TIGER BURNING BRIGHT
 IN THE FOREST OF THE NIGHT.
 WHAT IMMORTAL HAND OR EYE
 CAN FRAME THY FEARFUL SYMMETRYE?"
                     - WILLIAM BLAKE
 Job cpu time:       0 days  2 hours  7 minutes 14.9 seconds.
 Elapsed time:       0 days  0 hours  4 minutes 39.8 seconds.
 File lengths (MBytes):  RWF=   7239 Int=      0 D2E=      0 Chk=      8 Scr=      1
 Normal termination of Gaussian 16 at Mon Feb 21 21:12:49 2022.
