title                                                                   
Freq      RMP2-FC                                                     Aug-CC-pVTZ         
Number of atoms                            I                5
Info1-9                                    I   N=           9
          33          24           0           0           0         100
           6           2           1
Full Title                                 C   N=           1
title       
Route                                      C   N=           4
#p freq mp2/aug-cc-pvtz density=current         
Charge                                     I                0
Multiplicity                               I                1
Number of electrons                        I               32
Number of alpha electrons                  I               16
Number of beta electrons                   I               16
Number of basis functions                  I              207
Number of independent functions            I              207
Number of point charges in /Mol/           I                0
Number of translation vectors              I                0
Atomic numbers                             I   N=           5
           1           8           8           7           8
Nuclear charges                            R   N=           5
  1.00000000E+00  8.00000000E+00  8.00000000E+00  7.00000000E+00  8.00000000E+00
Current cartesian coordinates              R   N=          15
  2.84899779E+00  3.19927150E+00 -2.13160236E-32  2.74760307E+00  1.37098252E+00
 -5.57279588E-32 -1.51290747E-16  1.27162258E+00  3.20607358E-32 -4.89423471E-01
 -1.44128592E+00  5.23672885E-32 -2.67548225E+00 -1.78138886E+00  3.00679549E-32
Number of symbols in /Mol/                 I                0
Force Field                                I                0
Atom Types                                 C   N=           5
                                                            
Int Atom Types                             I   N=           5
           0           0           0           0           0
MM charges                                 R   N=           5
  0.00000000E+00  0.00000000E+00  0.00000000E+00  0.00000000E+00  0.00000000E+00
Integer atomic weights                     I   N=           5
           1          16          16          14          16
Real atomic weights                        R   N=           5
  1.00782504E+00  1.59949146E+01  1.59949146E+01  1.40030740E+01  1.59949146E+01
Atom fragment info                         I   N=           5
           0           0           0           0           0
Atom residue num                           I   N=           5
           0           0           0           0           0
Nuclear spins                              I   N=           5
           1           0           0           2           0
Nuclear ZEff                               R   N=           5
 -1.00000000E+00 -5.60000000E+00 -5.60000000E+00 -4.55000000E+00 -5.60000000E+00
Nuclear ZNuc                               R   N=           5
  1.00000000E+00  8.00000000E+00  8.00000000E+00  7.00000000E+00  8.00000000E+00
Nuclear QMom                               R   N=           5
  0.00000000E+00  0.00000000E+00  0.00000000E+00  2.04400000E+00  0.00000000E+00
Nuclear GFac                               R   N=           5
  2.79284600E+00  0.00000000E+00  0.00000000E+00  4.03761000E-01  0.00000000E+00
MicOpt                                     I   N=           5
          -1          -1          -1          -1          -1
Number of residues                         I                0
Number of secondary structures             I                0
SymInf integers                            I   N=          26
           1           2           1           1           1           1
           1          -1           0           0           0           0
           0           0           0           0           0           0
           0           0           0           0           0           0
           0           0
RotTr to input orientation                 R   N=          12
 -9.98465699E-01 -9.82378203E-17 -5.53737134E-02  5.53737134E-02 -7.31226948E-17
 -9.98465699E-01  9.40380187E-17 -1.00000000E+00  7.84502955E-17  2.66747102E+00
  0.00000000E+00  3.35212244E+00
Number of contracted shells                I               65
Number of primitive shells                 I              119
Pure/Cartesian d shells                    I                0
Pure/Cartesian f shells                    I                0
Highest angular momentum                   I                3
Largest degree of contraction              I                7
Shell types                                I   N=          65
           0           0           0           0           1           1
           1          -2          -2           0           0           0
           0           0           1           1           1           1
          -2          -2          -2          -3          -3           0
           0           0           0           0           1           1
           1           1          -2          -2          -2          -3
          -3           0           0           0           0           0
           1           1           1           1          -2          -2
          -2          -3          -3           0           0           0
           0           0           1           1           1           1
          -2          -2          -2          -3          -3
Number of primitives per shell             I   N=          65
           3           1           1           1           1           1
           1           1           1           7           6           1
           1           1           3           1           1           1
           1           1           1           1           1           7
           6           1           1           1           3           1
           1           1           1           1           1           1
           1           7           6           1           1           1
           3           1           1           1           1           1
           1           1           1           7           6           1
           1           1           3           1           1           1
           1           1           1           1           1
Shell to atom map                          I   N=          65
           1           1           1           1           1           1
           1           1           1           2           2           2
           2           2           2           2           2           2
           2           2           2           2           2           3
           3           3           3           3           3           3
           3           3           3           3           3           3
           3           4           4           4           4           4
           4           4           4           4           4           4
           4           4           4           5           5           5
           5           5           5           5           5           5
           5           5           5           5           5
Primitive exponents                        R   N=         119
  3.38700000E+01  5.09500000E+00  1.15900000E+00  3.25800000E-01  1.02700000E-01
  2.52600000E-02  1.40700000E+00  3.88000000E-01  1.02000000E-01  1.05700000E+00
  2.47000000E-01  1.53300000E+04  2.29900000E+03  5.22400000E+02  1.47300000E+02
  4.75500000E+01  1.67600000E+01  6.20700000E+00  5.22400000E+02  1.47300000E+02
  4.75500000E+01  1.67600000E+01  6.20700000E+00  6.88200000E-01  1.75200000E+00
  2.38400000E-01  7.37600000E-02  3.44600000E+01  7.74900000E+00  2.28000000E+00
  7.15600000E-01  2.14000000E-01  5.97400000E-02  2.31400000E+00  6.45000000E-01
  2.14000000E-01  1.42800000E+00  5.00000000E-01  1.53300000E+04  2.29900000E+03
  5.22400000E+02  1.47300000E+02  4.75500000E+01  1.67600000E+01  6.20700000E+00
  5.22400000E+02  1.47300000E+02  4.75500000E+01  1.67600000E+01  6.20700000E+00
  6.88200000E-01  1.75200000E+00  2.38400000E-01  7.37600000E-02  3.44600000E+01
  7.74900000E+00  2.28000000E+00  7.15600000E-01  2.14000000E-01  5.97400000E-02
  2.31400000E+00  6.45000000E-01  2.14000000E-01  1.42800000E+00  5.00000000E-01
  1.14200000E+04  1.71200000E+03  3.89300000E+02  1.10000000E+02  3.55700000E+01
  1.25400000E+01  4.64400000E+00  3.89300000E+02  1.10000000E+02  3.55700000E+01
  1.25400000E+01  4.64400000E+00  5.11800000E-01  1.29300000E+00  1.78700000E-01
  5.76000000E-02  2.66300000E+01  5.94800000E+00  1.74200000E+00  5.55000000E-01
  1.72500000E-01  4.91000000E-02  1.65400000E+00  4.69000000E-01  1.51000000E-01
  1.09300000E+00  3.64000000E-01  1.53300000E+04  2.29900000E+03  5.22400000E+02
  1.47300000E+02  4.75500000E+01  1.67600000E+01  6.20700000E+00  5.22400000E+02
  1.47300000E+02  4.75500000E+01  1.67600000E+01  6.20700000E+00  6.88200000E-01
  1.75200000E+00  2.38400000E-01  7.37600000E-02  3.44600000E+01  7.74900000E+00
  2.28000000E+00  7.15600000E-01  2.14000000E-01  5.97400000E-02  2.31400000E+00
  6.45000000E-01  2.14000000E-01  1.42800000E+00  5.00000000E-01
Contraction coefficients                   R   N=         119
  2.54948632E-02  1.90362766E-01  8.52162022E-01  1.00000000E+00  1.00000000E+00
  1.00000000E+00  1.00000000E+00  1.00000000E+00  1.00000000E+00  1.00000000E+00
  1.00000000E+00  5.19808943E-04  4.02025621E-03  2.07128267E-02  8.10105536E-02
  2.35962985E-01  4.42653446E-01  3.57064423E-01 -4.42115008E-05 -1.22591041E-03
 -1.05517725E-02 -6.74452633E-02 -1.71198607E-01  1.07329856E+00  1.00000000E+00
  1.00000000E+00  1.00000000E+00  4.11634896E-02  2.57762836E-01  8.02419274E-01
  1.00000000E+00  1.00000000E+00  1.00000000E+00  1.00000000E+00  1.00000000E+00
  1.00000000E+00  1.00000000E+00  1.00000000E+00  5.19808943E-04  4.02025621E-03
  2.07128267E-02  8.10105536E-02  2.35962985E-01  4.42653446E-01  3.57064423E-01
 -4.42115008E-05 -1.22591041E-03 -1.05517725E-02 -6.74452633E-02 -1.71198607E-01
  1.07329856E+00  1.00000000E+00  1.00000000E+00  1.00000000E+00  4.11634896E-02
  2.57762836E-01  8.02419274E-01  1.00000000E+00  1.00000000E+00  1.00000000E+00
  1.00000000E+00  1.00000000E+00  1.00000000E+00  1.00000000E+00  1.00000000E+00
  5.34563860E-04  4.13435660E-03  2.12335358E-02  8.25006224E-02  2.38138871E-01
  4.42551547E-01  3.53757422E-01 -4.89867350E-05 -1.19527323E-03 -1.03490714E-02
 -6.48680190E-02 -1.71552477E-01  1.07289568E+00  1.00000000E+00  1.00000000E+00
  1.00000000E+00  3.98072123E-02  2.49002660E-01  8.10479727E-01  1.00000000E+00
  1.00000000E+00  1.00000000E+00  1.00000000E+00  1.00000000E+00  1.00000000E+00
  1.00000000E+00  1.00000000E+00  5.19808943E-04  4.02025621E-03  2.07128267E-02
  8.10105536E-02  2.35962985E-01  4.42653446E-01  3.57064423E-01 -4.42115008E-05
 -1.22591041E-03 -1.05517725E-02 -6.74452633E-02 -1.71198607E-01  1.07329856E+00
  1.00000000E+00  1.00000000E+00  1.00000000E+00  4.11634896E-02  2.57762836E-01
  8.02419274E-01  1.00000000E+00  1.00000000E+00  1.00000000E+00  1.00000000E+00
  1.00000000E+00  1.00000000E+00  1.00000000E+00  1.00000000E+00
Coordinates of each shell                  R   N=         195
  2.84899779E+00  3.19927150E+00 -1.44575594E-32  2.84899779E+00  3.19927150E+00
 -1.44575594E-32  2.84899779E+00  3.19927150E+00 -1.44575594E-32  2.84899779E+00
  3.19927150E+00 -1.44575594E-32  2.84899779E+00  3.19927150E+00 -1.44575594E-32
  2.84899779E+00  3.19927150E+00 -1.44575594E-32  2.84899779E+00  3.19927150E+00
 -1.44575594E-32  2.84899779E+00  3.19927150E+00 -1.44575594E-32  2.84899779E+00
  3.19927150E+00 -1.44575594E-32  2.74760307E+00  1.37098252E+00 -2.44927884E-32
  2.74760307E+00  1.37098252E+00 -2.44927884E-32  2.74760307E+00  1.37098252E+00
 -2.44927884E-32  2.74760307E+00  1.37098252E+00 -2.44927884E-32  2.74760307E+00
  1.37098252E+00 -2.44927884E-32  2.74760307E+00  1.37098252E+00 -2.44927884E-32
  2.74760307E+00  1.37098252E+00 -2.44927884E-32  2.74760307E+00  1.37098252E+00
 -2.44927884E-32  2.74760307E+00  1.37098252E+00 -2.44927884E-32  2.74760307E+00
  1.37098252E+00 -2.44927884E-32  2.74760307E+00  1.37098252E+00 -2.44927884E-32
  2.74760307E+00  1.37098252E+00 -2.44927884E-32  2.74760307E+00  1.37098252E+00
 -2.44927884E-32  2.74760307E+00  1.37098252E+00 -2.44927884E-32  2.43660710E-18
  1.27162258E+00  7.82495493E-33  2.43660710E-18  1.27162258E+00  7.82495493E-33
  2.43660710E-18  1.27162258E+00  7.82495493E-33  2.43660710E-18  1.27162258E+00
  7.82495493E-33  2.43660710E-18  1.27162258E+00  7.82495493E-33  2.43660710E-18
  1.27162258E+00  7.82495493E-33  2.43660710E-18  1.27162258E+00  7.82495493E-33
  2.43660710E-18  1.27162258E+00  7.82495493E-33  2.43660710E-18  1.27162258E+00
  7.82495493E-33  2.43660710E-18  1.27162258E+00  7.82495493E-33  2.43660710E-18
  1.27162258E+00  7.82495493E-33  2.43660710E-18  1.27162258E+00  7.82495493E-33
  2.43660710E-18  1.27162258E+00  7.82495493E-33  2.43660710E-18  1.27162258E+00
  7.82495493E-33 -4.89423471E-01 -1.44128592E+00 -3.00339562E-33 -4.89423471E-01
 -1.44128592E+00 -3.00339562E-33 -4.89423471E-01 -1.44128592E+00 -3.00339562E-33
 -4.89423471E-01 -1.44128592E+00 -3.00339562E-33 -4.89423471E-01 -1.44128592E+00
 -3.00339562E-33 -4.89423471E-01 -1.44128592E+00 -3.00339562E-33 -4.89423471E-01
 -1.44128592E+00 -3.00339562E-33 -4.89423471E-01 -1.44128592E+00 -3.00339562E-33
 -4.89423471E-01 -1.44128592E+00 -3.00339562E-33 -4.89423471E-01 -1.44128592E+00
 -3.00339562E-33 -4.89423471E-01 -1.44128592E+00 -3.00339562E-33 -4.89423471E-01
 -1.44128592E+00 -3.00339562E-33 -4.89423471E-01 -1.44128592E+00 -3.00339562E-33
 -4.89423471E-01 -1.44128592E+00 -3.00339562E-33 -2.67548225E+00 -1.78138886E+00
  2.11029995E-32 -2.67548225E+00 -1.78138886E+00  2.11029995E-32 -2.67548225E+00
 -1.78138886E+00  2.11029995E-32 -2.67548225E+00 -1.78138886E+00  2.11029995E-32
 -2.67548225E+00 -1.78138886E+00  2.11029995E-32 -2.67548225E+00 -1.78138886E+00
  2.11029995E-32 -2.67548225E+00 -1.78138886E+00  2.11029995E-32 -2.67548225E+00
 -1.78138886E+00  2.11029995E-32 -2.67548225E+00 -1.78138886E+00  2.11029995E-32
 -2.67548225E+00 -1.78138886E+00  2.11029995E-32 -2.67548225E+00 -1.78138886E+00
  2.11029995E-32 -2.67548225E+00 -1.78138886E+00  2.11029995E-32 -2.67548225E+00
 -1.78138886E+00  2.11029995E-32 -2.67548225E+00 -1.78138886E+00  2.11029995E-32
Num ILSW                                   I              100
ILSW                                       I   N=         100
           0           0           0           0           2           0
           0           0           0           0           0          -1
           5           0           0           0           2           0
           0           0           0           0           1           0
           1           0           0           0           0           0
           0           0      100000           0          -1           0
           0           0           0           0           0           0
           0           0           0           1           1           0
           0 -2000000000           1           0           0           0
           0           0           4          52           0           0
           0           0           0           0           0           0
           0           0           0           5           4           1
           0           0           0           0           0           0
           0           0           0           0           0           0
           0           0           0           0           0           0
           0           0           0           0           0           0
           0           0           0           0
Num RLSW                                   I               52
RLSW                                       R   N=          52
  1.00000000E+00  1.00000000E+00  1.00000000E+00  1.00000000E+00  1.00000000E+00
  0.00000000E+00  0.00000000E+00  1.00000000E+00  0.00000000E+00  0.00000000E+00
  0.00000000E+00  0.00000000E+00  1.00000000E+00  0.00000000E+00  0.00000000E+00
  0.00000000E+00  0.00000000E+00  1.00000000E+00  0.00000000E+00  0.00000000E+00
  0.00000000E+00  0.00000000E+00  1.00000000E+00  0.00000000E+00  0.00000000E+00
  0.00000000E+00  0.00000000E+00  1.00000000E+00  0.00000000E+00  0.00000000E+00
  0.00000000E+00  0.00000000E+00  1.00000000E+00  0.00000000E+00  0.00000000E+00
  0.00000000E+00  0.00000000E+00  0.00000000E+00  1.00000000E+00  1.00000000E+00
  0.00000000E+00  1.00000000E+00  0.00000000E+00  0.00000000E+00  0.00000000E+00
  0.00000000E+00  0.00000000E+00  0.00000000E+00  0.00000000E+00  0.00000000E+00
  0.00000000E+00  0.00000000E+00
MxBond                                     I                2
NBond                                      I   N=           5
           1           2           2           2           1
IBond                                      I   N=          10
           2           0           1           3           2           4
           3           5           4           0
RBond                                      R   N=          10
  1.00000000E+00  0.00000000E+00  1.00000000E+00  1.00000000E+00  1.00000000E+00
  1.00000000E+00  1.00000000E+00  2.00000000E+00  2.00000000E+00  0.00000000E+00
Virial Ratio                               R      2.002319963688379E+00
SCF Energy                                 R     -2.795011600655952E+02
MP2 Energy                                 R     -2.804465556197206E+02
Total Energy                               R     -2.804465556197206E+02
Post-SCF wavefunction norm                 R      1.584333682490756E+00
RMS Force                                  R      2.026954353382981E-03
RMS Density                                R      3.767546729696759E-09
NImag                                      I                1
Job Status                                 I                1
Nuclear derivative order                   I                2
External E-field                           R   N=          35
  0.00000000E+00  0.00000000E+00  0.00000000E+00  0.00000000E+00  0.00000000E+00
  0.00000000E+00  0.00000000E+00  0.00000000E+00  0.00000000E+00  0.00000000E+00
  0.00000000E+00  0.00000000E+00  0.00000000E+00  0.00000000E+00  0.00000000E+00
  0.00000000E+00  0.00000000E+00  0.00000000E+00  0.00000000E+00  0.00000000E+00
  0.00000000E+00  0.00000000E+00  0.00000000E+00  0.00000000E+00  0.00000000E+00
  0.00000000E+00  0.00000000E+00  0.00000000E+00  0.00000000E+00  0.00000000E+00
  0.00000000E+00  0.00000000E+00  0.00000000E+00  0.00000000E+00  0.00000000E+00
IOpCl                                      I                0
IROHF                                      I                0
Alpha Orbital Energies                     R   N=         207
 -2.06906373E+01 -2.06842696E+01 -2.06608650E+01 -1.58127918E+01 -1.62415251E+00
 -1.49722885E+00 -1.25404605E+00 -9.48211467E-01 -7.74005397E-01 -7.57664049E-01
 -7.12068134E-01 -6.78685068E-01 -6.20878822E-01 -5.91585980E-01 -4.85518322E-01
 -4.72535617E-01  2.98950066E-02  7.15680108E-02  8.59179761E-02  1.01629807E-01
  1.33831800E-01  1.34089107E-01  1.44134877E-01  1.54660740E-01  1.78181447E-01
  1.93928655E-01  1.99597428E-01  2.06414066E-01  2.20675700E-01  2.35305296E-01
  2.37349018E-01  2.65032691E-01  2.93437631E-01  3.03689867E-01  3.11156055E-01
  3.43223891E-01  3.50087800E-01  3.87311837E-01  4.23859515E-01  4.30973568E-01
  5.27721374E-01  5.29425009E-01  5.58002526E-01  5.81029912E-01  6.26136779E-01
  6.38068464E-01  6.74672767E-01  6.84896934E-01  7.06519698E-01  7.09672863E-01
  7.28263904E-01  7.28788107E-01  7.44377501E-01  7.93757126E-01  7.94965233E-01
  8.12060456E-01  8.12071225E-01  8.29120395E-01  8.67609489E-01  9.08611043E-01
  9.20711744E-01  9.27714615E-01  9.54332576E-01  9.76180411E-01  9.86390768E-01
  1.01764914E+00  1.05145507E+00  1.05438297E+00  1.08272414E+00  1.11728660E+00
  1.14439600E+00  1.19036021E+00  1.22098426E+00  1.23612785E+00  1.33964242E+00
  1.35190823E+00  1.38564280E+00  1.45775749E+00  1.48695955E+00  1.50547692E+00
  1.53711158E+00  1.56642720E+00  1.57949806E+00  1.60989316E+00  1.66197483E+00
  1.67099582E+00  1.70309825E+00  1.79841241E+00  1.83052275E+00  1.83633697E+00
  1.87714797E+00  1.91139069E+00  1.95460271E+00  1.99445856E+00  2.00346094E+00
  2.07938364E+00  2.12763583E+00  2.13209076E+00  2.14965245E+00  2.22703628E+00
  2.26212529E+00  2.26403476E+00  2.29128186E+00  2.31364274E+00  2.34217412E+00
  2.38666741E+00  2.42832149E+00  2.43480853E+00  2.45308074E+00  2.46236836E+00
  2.48048311E+00  2.49904057E+00  2.59097120E+00  2.59955308E+00  2.61915713E+00
  2.62680500E+00  2.63527321E+00  2.66501548E+00  2.75801267E+00  2.82744763E+00
  2.84438265E+00  2.87827016E+00  2.89169633E+00  2.92889736E+00  2.95300239E+00
  3.02408120E+00  3.06934340E+00  3.11990093E+00  3.20953463E+00  3.22316687E+00
  3.31373176E+00  3.34308006E+00  3.51900352E+00  3.63748171E+00  3.83683464E+00
  3.84018338E+00  4.14573690E+00  4.17357713E+00  4.18335367E+00  4.25879018E+00
  4.34403102E+00  4.39688274E+00  4.46128262E+00  4.52925570E+00  4.65825644E+00
  4.73582765E+00  4.80201881E+00  4.82363556E+00  4.82837907E+00  4.89554343E+00
  5.02515330E+00  5.07685810E+00  5.10156120E+00  5.13506619E+00  5.17269914E+00
  5.25241803E+00  5.26971086E+00  5.30629466E+00  5.32839410E+00  5.35860742E+00
  5.60108068E+00  5.67347740E+00  5.76395635E+00  5.84476685E+00  5.95823860E+00
  6.17603911E+00  6.31196789E+00  6.33086658E+00  6.39349312E+00  6.49384839E+00
  6.50518303E+00  6.61532861E+00  6.66783091E+00  6.70350120E+00  6.76058145E+00
  6.76221406E+00  6.83513075E+00  6.89933924E+00  7.02708602E+00  7.04777863E+00
  7.05677086E+00  7.08892239E+00  7.12548114E+00  7.14054507E+00  7.18236796E+00
  7.22735149E+00  7.24149610E+00  7.30164350E+00  7.32425139E+00  7.35097000E+00
  7.39981582E+00  7.45280316E+00  7.48484620E+00  7.60691702E+00  7.62129966E+00
  7.62633958E+00  7.66735678E+00  7.79843118E+00  7.88712886E+00  8.09436077E+00
  8.31953109E+00  8.39136108E+00  8.54233811E+00  1.33892807E+01  1.43877413E+01
  1.51897376E+01  1.61544534E+01
Alpha MO coefficients                      R   N=       42849
  8.87418341E-05 -4.91010798E-04 -6.37721004E-04 -2.29863214E-06 -3.00892472E-06
 -3.05558053E-05  0.00000000E+00 -6.08205865E-05 -2.83735911E-05  0.00000000E+00
  7.02746813E-05 -6.98654576E-07  0.00000000E+00  2.57656969E-05  0.00000000E+00
  0.00000000E+00 -6.24710060E-05  1.54648773E-05 -1.02538250E-05  0.00000000E+00
  0.00000000E+00 -1.65963078E-04  1.27756477E-04  4.75591788E-03 -2.95544069E-04
  2.66393744E-05  1.33647774E-03  1.69934916E-03  1.05244116E-04  1.08311524E-05
  0.00000000E+00 -6.15206369E-04 -7.70007875E-05  0.00000000E+00 -1.06353925E-03
  6.80331084E-04  0.00000000E+00 -3.85528857E-04  5.74526441E-05  0.00000000E+00
  2.85422945E-05  0.00000000E+00  0.00000000E+00 -5.23318299E-05  6.86634003E-06
 -3.66694085E-04  0.00000000E+00  0.00000000E+00  7.47741953E-04 -3.28187014E-05
 -4.33476838E-04  0.00000000E+00  0.00000000E+00  2.38892666E-04  3.00199498E-06
  0.00000000E+00  7.96132481E-05  1.39500708E-05  0.00000000E+00  0.00000000E+00
 -1.09923031E-04 -1.31129915E-06  0.00000000E+00  2.55613500E-04 -2.64791478E-05
  0.00000000E+00  0.00000000E+00 -3.44954323E-04  4.03665346E-05  9.76907245E-01
 -9.21928611E-03  4.33228244E-02  2.04072636E-03 -8.60551516E-04  1.48496611E-03
 -1.35204114E-03  0.00000000E+00 -1.42490381E-03  1.38104361E-03  0.00000000E+00
  1.24856619E-04 -1.09377989E-03  0.00000000E+00 -1.20230586E-04 -5.68372804E-06
  0.00000000E+00  4.49241611E-05  0.00000000E+00  0.00000000E+00 -3.63115412E-05
  2.34819560E-05  7.49724192E-04  0.00000000E+00  0.00000000E+00 -2.21268430E-04
 -3.92505253E-04 -3.73583737E-04  0.00000000E+00  0.00000000E+00 -3.04642777E-04
 -3.39513956E-04  0.00000000E+00  4.69806094E-05 -4.81593684E-05  0.00000000E+00
  0.00000000E+00 -3.77418963E-05 -1.66854369E-05  0.00000000E+00  2.39716555E-05
  1.85789654E-05  0.00000000E+00  0.00000000E+00 -3.04878915E-04 -1.39814936E-04
  3.93307828E-05  4.66880910E-05 -2.66190457E-04 -6.75675234E-04 -1.37964820E-04
 -2.70118224E-05 -9.85672466E-05  0.00000000E+00  2.70727746E-04  7.16232218E-04
  0.00000000E+00 -8.12635433E-04 -4.22985270E-04  0.00000000E+00 -1.18147398E-04
 -2.29933346E-05  0.00000000E+00 -1.79522703E-05  0.00000000E+00  0.00000000E+00
 -2.95573859E-05  1.50504359E-05 -3.32018149E-04  0.00000000E+00  0.00000000E+00
 -8.33801569E-04  1.23803051E-04 -3.67247043E-05  0.00000000E+00  0.00000000E+00
  7.85276070E-05 -1.25156128E-04  0.00000000E+00 -2.05901007E-05 -1.20642814E-04
  0.00000000E+00  0.00000000E+00 -6.17130560E-05 -1.38658444E-04  0.00000000E+00
  3.53477959E-06 -1.55210893E-04  0.00000000E+00  0.00000000E+00  4.41202231E-05
 -4.18113121E-04 -2.67567855E-03  1.23085985E-04 -1.28013624E-04 -2.26445067E-04
  1.45070376E-04 -8.22285781E-06 -2.81246126E-05  0.00000000E+00  7.00381752E-05
  1.65539265E-04  0.00000000E+00  2.36008197E-04  1.74581475E-04  0.00000000E+00
  1.24703155E-04  2.19001378E-05  0.00000000E+00 -3.36867645E-06  0.00000000E+00
  0.00000000E+00 -1.80456877E-05  1.53001624E-06  6.47650582E-07  0.00000000E+00
  0.00000000E+00  8.11242243E-05  8.64093546E-05 -9.70795690E-05  0.00000000E+00
  0.00000000E+00  1.69695669E-04  1.51715483E-04  0.00000000E+00  1.58608041E-05
 -3.48546326E-06  0.00000000E+00  0.00000000E+00 -4.34535620E-06 -1.18329477E-05
  0.00000000E+00 -3.34621280E-05  4.59197950E-05  0.00000000E+00  0.00000000E+00
  8.43735528E-05  8.93606185E-05  4.38173580E-05 -9.87153260E-04 -4.77916813E-04
 -9.84929724E-06 -1.98246957E-05  1.51009788E-05  0.00000000E+00  3.62259150E-06
  2.77604540E-04  0.00000000E+00 -3.40169618E-05  1.32145572E-04  0.00000000E+00
  2.80928538E-05  0.00000000E+00  0.00000000E+00  1.04227966E-05  8.35133981E-06
 -2.45959334E-05  0.00000000E+00  0.00000000E+00  8.11907991E-06  2.88525697E-05
  1.16823872E-04  8.40491117E-05 -2.71495893E-05  7.51788489E-04  6.36454341E-04
  1.06497130E-05  2.42380520E-06  0.00000000E+00 -7.56824966E-05  1.84500938E-05
  0.00000000E+00  2.80022762E-04  8.91020255E-04  0.00000000E+00 -3.95768339E-06
  7.48910104E-05  0.00000000E+00 -2.44924869E-06  0.00000000E+00  0.00000000E+00
  1.65654991E-07 -5.27344738E-06 -3.52456418E-05  0.00000000E+00  0.00000000E+00
 -2.45147354E-05  7.47109890E-05 -2.37509896E-05  0.00000000E+00  0.00000000E+00
 -2.59051423E-04 -1.84604362E-04  0.00000000E+00  8.82945580E-06  5.90543692E-06
  0.00000000E+00  0.00000000E+00  3.06095878E-06 -1.93773650E-05  0.00000000E+00
 -3.71001410E-05 -3.77255768E-05  0.00000000E+00  0.00000000E+00 -6.90884115E-05
  1.73388603E-05  2.71471242E-03  3.88960186E-05  9.57700801E-05 -1.02002612E-04
 -4.52172346E-04  7.26839878E-06  1.59107261E-05  0.00000000E+00 -6.21385739E-05
 -5.75724650E-05  0.00000000E+00  2.32361868E-04 -1.69736908E-04  0.00000000E+00
 -1.81122528E-04 -6.11936511E-05  0.00000000E+00 -8.89209824E-06  0.00000000E+00
  0.00000000E+00  2.19842919E-05  1.99587205E-05  5.31433076E-06  0.00000000E+00
  0.00000000E+00 -1.14847872E-04 -4.82627191E-05 -9.88406433E-06  0.00000000E+00
  0.00000000E+00 -2.18410226E-04 -1.94172837E-04  0.00000000E+00  3.60546857E-06
 -1.84229478E-08  0.00000000E+00  0.00000000E+00  2.21783564E-06 -1.42289898E-05
  0.00000000E+00 -4.84504104E-05  9.26270720E-07  0.00000000E+00  0.00000000E+00
 -7.78267226E-05  1.89798588E-04  2.58617847E-04  1.46448067E-03 -7.83237571E-05
 -1.54152030E-03  3.84212762E-04 -1.44597954E-04 -5.65303675E-07  0.00000000E+00
 -2.08654472E-03 -4.05168984E-04  0.00000000E+00  1.05819962E-03  7.81403328E-04
  0.00000000E+00 -1.71138308E-04  5.30305392E-05  0.00000000E+00 -1.23306180E-04
  0.00000000E+00  0.00000000E+00  2.42724860E-04  9.50623997E-05 -4.42894054E-04
  0.00000000E+00  0.00000000E+00  8.96431225E-04 -6.30414420E-05  1.15107162E-05
  0.00000000E+00  0.00000000E+00 -3.44248417E-04 -1.22926962E-04  0.00000000E+00
 -1.48069266E-06  1.49542881E-05  0.00000000E+00  0.00000000E+00  1.90284527E-05
  1.33640072E-05  0.00000000E+00  1.65253523E-04 -7.15889339E-05  0.00000000E+00
  0.00000000E+00 -2.40328897E-04  4.04865959E-05  9.76648683E-01 -9.84878706E-03
  4.35683688E-02  4.52028265E-03 -4.33839747E-04  2.14661903E-03  4.83285789E-04
  0.00000000E+00 -2.38118328E-03 -6.06214254E-04  0.00000000E+00  1.14622443E-03
 -6.18796825E-06  0.00000000E+00  6.42455298E-06 -4.07262832E-05  0.00000000E+00
 -2.32516674E-04  0.00000000E+00  0.00000000E+00  1.02465473E-04  3.24525850E-05
  3.90032555E-04  0.00000000E+00  0.00000000E+00 -8.31760424E-04 -4.21777625E-04
 -1.52181541E-04  0.00000000E+00  0.00000000E+00  2.58360106E-04  1.55709884E-05
  0.00000000E+00  5.20755941E-05  1.77906627E-05  0.00000000E+00  0.00000000E+00
 -2.19682427E-05 -1.33317618E-05  0.00000000E+00  1.38686358E-04  9.61547869E-06
  0.00000000E+00  0.00000000E+00 -1.88428241E-04 -1.41690742E-04  4.69277900E-04
  1.90808695E-03  8.68699458E-05  1.92154144E-05 -3.69592619E-05 -2.50017516E-04
  0.00000000E+00  1.58659992E-04 -1.23982180E-03  0.00000000E+00  3.59317061E-04
 -3.30876465E-04  0.00000000E+00 -4.97289340E-06  0.00000000E+00  0.00000000E+00
  7.38644345E-05  3.09998610E-05 -1.72874366E-04  0.00000000E+00  0.00000000E+00
 -5.31910868E-04 -6.43455988E-05  9.76830628E-01 -9.17880689E-03  4.34411735E-02
  3.27125475E-04 -1.22262855E-03 -1.59122474E-03  1.41120712E-03  0.00000000E+00
  1.60990548E-03 -1.26875927E-03  0.00000000E+00 -5.27285674E-04 -7.36388005E-04
  0.00000000E+00  5.46095447E-05 -6.33866354E-05  0.00000000E+00  3.30396464E-05
  0.00000000E+00  0.00000000E+00 -1.17812008E-04 -1.64077473E-05  7.46363428E-04
  0.00000000E+00  0.00000000E+00 -1.95564404E-04 -1.87732017E-04 -2.70275381E-04
  0.00000000E+00  0.00000000E+00  1.35655558E-04  1.03026213E-04  0.00000000E+00
 -6.43162410E-05  3.28077636E-06  0.00000000E+00  0.00000000E+00  1.68259773E-05