 Entering Gaussian System, Link 0=g16
 Input=hoono_a2_100p6711.gjf
 Output=hoono_a2_100p6711.log
 Initial command:
 /sw/contrib/gaussian/g16/B01/g16/l1.exe "/scr/Gau-18606.inp" -scrdir="/scr/"
 Entering Link 1 = /sw/contrib/gaussian/g16/B01/g16/l1.exe PID=     18607.
  
 Copyright (c) 1988-2017, Gaussian, Inc.  All Rights Reserved.
  
 This is part of the Gaussian(R) 16 program.  It is based on
 the Gaussian(R) 09 system (copyright 2009, Gaussian, Inc.),
 the Gaussian(R) 03 system (copyright 2003, Gaussian, Inc.),
 the Gaussian(R) 98 system (copyright 1998, Gaussian, Inc.),
 the Gaussian(R) 94 system (copyright 1995, Gaussian, Inc.),
 the Gaussian 92(TM) system (copyright 1992, Gaussian, Inc.),
 the Gaussian 90(TM) system (copyright 1990, Gaussian, Inc.),
 the Gaussian 88(TM) system (copyright 1988, Gaussian, Inc.),
 the Gaussian 86(TM) system (copyright 1986, Carnegie Mellon
 University), and the Gaussian 82(TM) system (copyright 1983,
 Carnegie Mellon University). Gaussian is a federally registered
 trademark of Gaussian, Inc.
  
 This software contains proprietary and confidential information,
 including trade secrets, belonging to Gaussian, Inc.
  
 This software is provided under written license and may be
 used, copied, transmitted, or stored only in accord with that
 written license.
  
 The following legend is applicable only to US Government
 contracts under FAR:
  
                    RESTRICTED RIGHTS LEGEND
  
 Use, reproduction and disclosure by the US Government is
 subject to restrictions as set forth in subparagraphs (a)
 and (c) of the Commercial Computer Software - Restricted
 Rights clause in FAR 52.227-19.
  
 Gaussian, Inc.
 340 Quinnipiac St., Bldg. 40, Wallingford CT 06492
  
  
 ---------------------------------------------------------------
 Warning -- This program may not be used in any manner that
 competes with the business of Gaussian, Inc. or will provide
 assistance to any competitor of Gaussian, Inc.  The licensee
 of this program is prohibited from giving any competitor of
 Gaussian, Inc. access to this program.  By using this program,
 the user acknowledges that Gaussian, Inc. is engaged in the
 business of creating and licensing software in the field of
 computational chemistry and represents and warrants to the
 licensee that it is not a competitor of Gaussian, Inc. and that
 it will not use this program in any manner prohibited above.
 ---------------------------------------------------------------
  

 Cite this work as:
 Gaussian 16, Revision B.01,
 M. J. Frisch, G. W. Trucks, H. B. Schlegel, G. E. Scuseria, 
 M. A. Robb, J. R. Cheeseman, G. Scalmani, V. Barone, 
 G. A. Petersson, H. Nakatsuji, X. Li, M. Caricato, A. V. Marenich, 
 J. Bloino, B. G. Janesko, R. Gomperts, B. Mennucci, H. P. Hratchian, 
 J. V. Ortiz, A. F. Izmaylov, J. L. Sonnenberg, D. Williams-Young, 
 F. Ding, F. Lipparini, F. Egidi, J. Goings, B. Peng, A. Petrone, 
 T. Henderson, D. Ranasinghe, V. G. Zakrzewski, J. Gao, N. Rega, 
 G. Zheng, W. Liang, M. Hada, M. Ehara, K. Toyota, R. Fukuda, 
 J. Hasegawa, M. Ishida, T. Nakajima, Y. Honda, O. Kitao, H. Nakai, 
 T. Vreven, K. Throssell, J. A. Montgomery, Jr., J. E. Peralta, 
 F. Ogliaro, M. J. Bearpark, J. J. Heyd, E. N. Brothers, K. N. Kudin, 
 V. N. Staroverov, T. A. Keith, R. Kobayashi, J. Normand, 
 K. Raghavachari, A. P. Rendell, J. C. Burant, S. S. Iyengar, 
 J. Tomasi, M. Cossi, J. M. Millam, M. Klene, C. Adamo, R. Cammi, 
 J. W. Ochterski, R. L. Martin, K. Morokuma, O. Farkas, 
 J. B. Foresman, and D. J. Fox, Gaussian, Inc., Wallingford CT, 2016.
 
 ******************************************
 Gaussian 16:  ES64L-G16RevB.01 20-Dec-2017
                21-Feb-2022 
 ******************************************
 %nproc=28
 Will use up to   28 processors via shared memory.
 %mem=120GB
 %chk=hoono_a2_100p6711.chk
 ---------------------------------------
 #p freq mp2/aug-cc-pvtz density=current
 ---------------------------------------
 1/10=4,30=1,38=1/1,3;
 2/12=2,17=6,18=5,40=1/2;
 3/5=16,6=1,7=10,11=9,25=1,30=1,71=2,140=1/1,2,3;
 4//1;
 5/5=2,38=5,98=1/2;
 8/6=3,8=1,10=1,19=11,30=-1/1;
 9/15=3,16=-3/6;
 11/6=1,8=1,15=11,17=12,24=-1,27=1,28=-2,29=300,32=6,42=3/1,2,10;
 10/6=2,21=1/2;
 8/6=4,8=1,10=1,19=11,30=-1/11,4;
 10/5=1,20=4/2;
 11/12=2,14=11,16=1,17=2,28=-2,42=3,76=2/2,10,12;
 6/7=2,8=2,9=2,10=2,22=-1/1;
 7/8=1,10=1,12=2,25=1,44=2/1,2,3,16;
 1/10=4,30=1/3;
 99//99;
 Leave Link    1 at Mon Feb 21 20:46:37 2022, MaxMem= 16106127360 cpu:               5.0 elap:               0.2
 (Enter /sw/contrib/gaussian/g16/B01/g16/l101.exe)
 -----
 title
 -----
 Symbolic Z-matrix:
 Charge =  0 Multiplicity = 1
 H
 O                    1    r1
 O                    2    r2       1    a1
 N                    3    r3       2    a2       1    d1       0
 O                    4    r4       3    a3       2    d2       0
       Variables:
  r1                    0.96898                  
  r2                    1.45492                  
  r3                    1.45878                  
  r4                    1.17073                  
  a1                   97.59495                  
  a2                  100.67112                  
  a3                  109.06955                  
  d1                  180.                       
  d2                  180.                       
 
 ITRead=  0  0  0  0  0
 MicOpt= -1 -1 -1 -1 -1
 NAtoms=      5 NQM=        5 NQMF=       0 NMMI=      0 NMMIF=      0
                NMic=       0 NMicF=      0.
                    Isotopes and Nuclear Properties:
 (Nuclear quadrupole moments (NQMom) in fm**2, nuclear magnetic moments (NMagM)
  in nuclear magnetons)

  Atom         1           2           3           4           5
 IAtWgt=           1          16          16          14          16
 AtmWgt=   1.0078250  15.9949146  15.9949146  14.0030740  15.9949146
 NucSpn=           1           0           0           2           0
 AtZEff=  -0.0000000  -0.0000000  -0.0000000  -0.0000000  -0.0000000
 NQMom=    0.0000000   0.0000000   0.0000000   2.0440000   0.0000000
 NMagM=    2.7928460   0.0000000   0.0000000   0.4037610   0.0000000
 AtZNuc=   1.0000000   8.0000000   8.0000000   7.0000000   8.0000000
 Leave Link  101 at Mon Feb 21 20:46:37 2022, MaxMem= 16106127360 cpu:               2.6 elap:               0.1
 (Enter /sw/contrib/gaussian/g16/B01/g16/l103.exe)

 GradGradGradGradGradGradGradGradGradGradGradGradGradGradGradGradGradGrad
 Berny optimization.
 Initialization pass.
                       ----------------------------
                       !    Initial Parameters    !
                       ! (Angstroms and Degrees)  !
 ----------------------                            ----------------------
 !      Name          Value   Derivative information (Atomic Units)     !
 ------------------------------------------------------------------------
 !       r1          0.969    calculate D2E/DX2 analytically            !
 !       r2          1.4549   calculate D2E/DX2 analytically            !
 !       r3          1.4588   calculate D2E/DX2 analytically            !
 !       r4          1.1707   calculate D2E/DX2 analytically            !
 !       a1         97.5949   calculate D2E/DX2 analytically            !
 !       a2        100.6711   calculate D2E/DX2 analytically            !
 !       a3        109.0696   calculate D2E/DX2 analytically            !
 !       d1        180.0      calculate D2E/DX2 analytically            !
 !       d2        180.0      calculate D2E/DX2 analytically            !
 ------------------------------------------------------------------------
 Trust Radius=3.00D-01 FncErr=1.00D-07 GrdErr=1.00D-07 EigMax=2.50D+02 EigMin=1.00D-04
 Number of steps in this run=      2 maximum allowed number of steps=      2.
 GradGradGradGradGradGradGradGradGradGradGradGradGradGradGradGradGradGrad

 Leave Link  103 at Mon Feb 21 20:46:37 2022, MaxMem= 16106127360 cpu:               1.1 elap:               0.1
 (Enter /sw/contrib/gaussian/g16/B01/g16/l202.exe)
                          Input orientation:                          
 ---------------------------------------------------------------------
 Center     Atomic      Atomic             Coordinates (Angstroms)
 Number     Number       Type             X           Y           Z
 ---------------------------------------------------------------------
      1          1           0        0.000000    0.000000    0.000000
      2          8           0        0.000000    0.000000    0.968976
      3          8           0        1.442156    0.000000    1.161271
      4          7           0        1.520439    0.000000    2.617953
      5          8           0        2.645853    0.000000    2.940519
 ---------------------------------------------------------------------
                    Distance matrix (angstroms):
                    1          2          3          4          5
     1  H    0.000000
     2  O    0.968976   0.000000
     3  O    1.851584   1.454919   0.000000
     4  N    3.027443   2.242958   1.458784   0.000000
     5  O    3.955653   3.299625   2.148165   1.170729   0.000000
 Stoichiometry    HNO3
 Framework group  CS[SG(HNO3)]
 Deg. of freedom     7
 Full point group                 CS      NOp   2
 Largest Abelian subgroup         CS      NOp   2
 Largest concise Abelian subgroup C1      NOp   1
                         Standard orientation:                         
 ---------------------------------------------------------------------
 Center     Atomic      Atomic             Coordinates (Angstroms)
 Number     Number       Type             X           Y           Z
 ---------------------------------------------------------------------
      1          1           0        1.578812    1.652043    0.000000
      2          8           0        1.454906    0.691022    0.000000
      3          8           0        0.000000    0.684719    0.000000
      4          7           0       -0.263912   -0.749994    0.000000
      5          8           0       -1.421334   -0.926002    0.000000
 ---------------------------------------------------------------------
 Rotational constants (GHZ):          53.5635499           5.0730774           4.6341689
 Leave Link  202 at Mon Feb 21 20:46:37 2022, MaxMem= 16106127360 cpu:               0.3 elap:               0.0
 (Enter /sw/contrib/gaussian/g16/B01/g16/l301.exe)
 Standard basis: Aug-CC-pVTZ (5D, 7F)
 Ernie: Thresh=  0.10000D-02 Tol=  0.10000D-05 Strict=F.
 Ernie:  12 primitive shells out of 131 were deleted.
 There are   166 symmetry adapted cartesian basis functions of A'  symmetry.
 There are    79 symmetry adapted cartesian basis functions of A"  symmetry.
 There are   136 symmetry adapted basis functions of A'  symmetry.
 There are    71 symmetry adapted basis functions of A"  symmetry.
   207 basis functions,   315 primitive gaussians,   245 cartesian basis functions
    16 alpha electrons       16 beta electrons
       nuclear repulsion energy       117.0951117088 Hartrees.
 IExCor=    0 DFT=F Ex=HF Corr=None ExCW=0 ScaHFX=  1.000000
 ScaDFX=  1.000000  1.000000  1.000000  1.000000 ScalE2=  1.000000  1.000000
 IRadAn=      5 IRanWt=     -1 IRanGd=            0 ICorTp=0 IEmpDi=  4
 NAtoms=    5 NActive=    5 NUniq=    5 SFac= 1.00D+00 NAtFMM=   60 NAOKFM=F Big=F
 Integral buffers will be    131072 words long.
 Raffenetti 1 integral format.
 Two-electron integral symmetry is turned on.
 Leave Link  301 at Mon Feb 21 20:46:37 2022, MaxMem= 16106127360 cpu:               1.7 elap:               0.1
 (Enter /sw/contrib/gaussian/g16/B01/g16/l302.exe)
 NPDir=0 NMtPBC=     1 NCelOv=     1 NCel=       1 NClECP=     1 NCelD=      1
         NCelK=      1 NCelE2=     1 NClLst=     1 CellRange=     0.0.
 One-electron integrals computed using PRISM.
 One-electron integral symmetry used in STVInt
 NBasis=   207 RedAO= T EigKep=  1.82D-04  NBF=   136    71
 NBsUse=   207 1.00D-06 EigRej= -1.00D+00 NBFU=   136    71
 Leave Link  302 at Mon Feb 21 20:46:37 2022, MaxMem= 16106127360 cpu:               5.0 elap:               0.2
 (Enter /sw/contrib/gaussian/g16/B01/g16/l303.exe)
 DipDrv:  MaxL=1.
 Leave Link  303 at Mon Feb 21 20:46:37 2022, MaxMem= 16106127360 cpu:               1.8 elap:               0.1
 (Enter /sw/contrib/gaussian/g16/B01/g16/l401.exe)
 ExpMin= 2.53D-02 ExpMax= 1.53D+04 ExpMxC= 5.22D+02 IAcc=3 IRadAn=         5 AccDes= 0.00D+00
 Harris functional with IExCor=  205 and IRadAn=       5 diagonalized for initial guess.
 HarFok:  IExCor=  205 AccDes= 0.00D+00 IRadAn=         5 IDoV= 1 UseB2=F ITyADJ=14
 ICtDFT=  3500011 ScaDFX=  1.000000  1.000000  1.000000  1.000000
 FoFCou: FMM=F IPFlag=           0 FMFlag=      100000 FMFlg1=           0
         NFxFlg=           0 DoJE=T BraDBF=F KetDBF=T FulRan=T
         wScrn=  0.000000 ICntrl=       500 IOpCl=  0 I1Cent=   200000004 NGrid=           0
         NMat0=    1 NMatS0=      1 NMatT0=    0 NMatD0=    1 NMtDS0=    0 NMtDT0=    0
 Petite list used in FoFCou.
 Harris En= -279.628298780408    
 JPrj=0 DoOrth=F DoCkMO=F.
 Initial guess orbital symmetries:
       Occupied  (A') (A') (A') (A') (A') (A') (A') (A') (A') (A')
                 (A") (A') (A') (A") (A") (A')
       Virtual   (A") (A') (A') (A') (A') (A') (A") (A') (A') (A')
                 (A") (A') (A") (A') (A') (A") (A') (A") (A') (A')
                 (A') (A') (A') (A') (A') (A") (A') (A") (A') (A')
                 (A") (A') (A") (A') (A') (A") (A') (A") (A') (A')
                 (A") (A') (A") (A') (A") (A') (A') (A') (A") (A")
                 (A') (A') (A') (A') (A") (A') (A") (A') (A") (A')
                 (A') (A') (A") (A') (A') (A") (A') (A") (A') (A')
                 (A") (A') (A') (A") (A") (A') (A') (A") (A') (A')
                 (A') (A") (A') (A") (A') (A") (A') (A") (A') (A')
                 (A') (A") (A') (A") (A') (A") (A") (A') (A') (A")
                 (A') (A') (A") (A') (A') (A') (A') (A") (A") (A')
                 (A") (A') (A') (A') (A") (A') (A') (A') (A") (A')
                 (A") (A') (A') (A") (A") (A') (A') (A") (A") (A')
                 (A') (A') (A') (A") (A") (A') (A") (A') (A') (A')
                 (A') (A") (A") (A') (A') (A") (A') (A') (A') (A')
                 (A") (A') (A') (A") (A') (A") (A') (A") (A") (A')
                 (A') (A") (A') (A") (A') (A") (A") (A") (A') (A')
                 (A") (A') (A") (A') (A") (A') (A") (A") (A') (A')
                 (A') (A') (A') (A') (A') (A') (A') (A') (A') (A')
                 (A')
 The electronic state of the initial guess is 1-A'.
 Leave Link  401 at Mon Feb 21 20:46:38 2022, MaxMem= 16106127360 cpu:               6.8 elap:               0.3
 (Enter /sw/contrib/gaussian/g16/B01/g16/l502.exe)
 Keep R1 ints in memory in symmetry-blocked form, NReq=348887737.
 FoFCou: FMM=F IPFlag=           0 FMFlag=           0 FMFlg1=           0
         NFxFlg=           0 DoJE=F BraDBF=F KetDBF=F FulRan=T
         wScrn=  0.000000 ICntrl=       600 IOpCl=  0 I1Cent=           0 NGrid=           0
         NMat0=    1 NMatS0=  21528 NMatT0=    0 NMatD0=    1 NMtDS0=    0 NMtDT0=    0
 Petite list used in FoFCou.
 Closed shell SCF:
 Using DIIS extrapolation, IDIIS=  1040.
 NGot= 16106127360 LenX= 15988850015 LenY= 15988789549
 Requested convergence on RMS density matrix=1.00D-08 within 128 cycles.
 Requested convergence on MAX density matrix=1.00D-06.
 Requested convergence on             energy=1.00D-06.
 No special actions if energy rises.

 Cycle   1  Pass 1  IDiag  1:
 E= -279.370011052806    
 DIIS: error= 2.84D-02 at cycle   1 NSaved=   1.
 NSaved= 1 IEnMin= 1 EnMin= -279.370011052806     IErMin= 1 ErrMin= 2.84D-02
 ErrMax= 2.84D-02  0.00D+00 EMaxC= 1.00D-01 BMatC= 4.39D-01 BMatP= 4.39D-01
 IDIUse=3 WtCom= 7.16D-01 WtEn= 2.84D-01
 Coeff-Com:  0.100D+01
 Coeff-En:   0.100D+01
 Coeff:      0.100D+01
 Gap=     0.514 Goal=   None    Shift=    0.000
 GapD=    0.514 DampG=2.000 DampE=0.500 DampFc=1.0000 IDamp=-1.
 RMSDP=1.62D-03 MaxDP=9.89D-02              OVMax= 1.14D-01

 Cycle   2  Pass 1  IDiag  1:
 E= -279.451986000024     Delta-E=       -0.081974947218 Rises=F Damp=F
 DIIS: error= 1.80D-02 at cycle   2 NSaved=   2.
 NSaved= 2 IEnMin= 2 EnMin= -279.451986000024     IErMin= 2 ErrMin= 1.80D-02
 ErrMax= 1.80D-02  0.00D+00 EMaxC= 1.00D-01 BMatC= 7.21D-02 BMatP= 4.39D-01
 IDIUse=3 WtCom= 8.20D-01 WtEn= 1.80D-01
 Coeff-Com:  0.195D+00 0.805D+00
 Coeff-En:   0.000D+00 0.100D+01
 Coeff:      0.160D+00 0.840D+00
 Gap=     0.530 Goal=   None    Shift=    0.000
 RMSDP=9.02D-04 MaxDP=3.73D-02 DE=-8.20D-02 OVMax= 6.94D-02

 Cycle   3  Pass 1  IDiag  1:
 E= -279.481250806851     Delta-E=       -0.029264806827 Rises=F Damp=F
 DIIS: error= 1.04D-02 at cycle   3 NSaved=   3.
 NSaved= 3 IEnMin= 3 EnMin= -279.481250806851     IErMin= 3 ErrMin= 1.04D-02
 ErrMax= 1.04D-02  0.00D+00 EMaxC= 1.00D-01 BMatC= 2.88D-02 BMatP= 7.21D-02
 IDIUse=3 WtCom= 8.96D-01 WtEn= 1.04D-01
 Coeff-Com: -0.330D-01 0.378D+00 0.655D+00
 Coeff-En:   0.000D+00 0.240D+00 0.760D+00
 Coeff:     -0.295D-01 0.363D+00 0.666D+00
 Gap=     0.511 Goal=   None    Shift=    0.000
 RMSDP=3.77D-04 MaxDP=1.53D-02 DE=-2.93D-02 OVMax= 3.81D-02

 Cycle   4  Pass 1  IDiag  1:
 E= -279.500342863857     Delta-E=       -0.019092057006 Rises=F Damp=F
 DIIS: error= 1.27D-03 at cycle   4 NSaved=   4.
 NSaved= 4 IEnMin= 4 EnMin= -279.500342863857     IErMin= 4 ErrMin= 1.27D-03
 ErrMax= 1.27D-03  0.00D+00 EMaxC= 1.00D-01 BMatC= 4.93D-04 BMatP= 2.88D-02
 IDIUse=3 WtCom= 9.87D-01 WtEn= 1.27D-02
 Coeff-Com: -0.117D-01 0.573D-01 0.159D+00 0.796D+00
 Coeff-En:   0.000D+00 0.000D+00 0.000D+00 0.100D+01
 Coeff:     -0.115D-01 0.565D-01 0.157D+00 0.798D+00
 Gap=     0.502 Goal=   None    Shift=    0.000
 RMSDP=9.01D-05 MaxDP=2.77D-03 DE=-1.91D-02 OVMax= 1.12D-02

 Cycle   5  Pass 1  IDiag  1:
 E= -279.501017120538     Delta-E=       -0.000674256681 Rises=F Damp=F
 DIIS: error= 7.23D-04 at cycle   5 NSaved=   5.
 NSaved= 5 IEnMin= 5 EnMin= -279.501017120538     IErMin= 5 ErrMin= 7.23D-04
 ErrMax= 7.23D-04  0.00D+00 EMaxC= 1.00D-01 BMatC= 8.68D-05 BMatP= 4.93D-04
 IDIUse=3 WtCom= 9.93D-01 WtEn= 7.23D-03
 Coeff-Com:  0.611D-02-0.721D-01-0.118D+00 0.192D-01 0.116D+01
 Coeff-En:   0.000D+00 0.000D+00 0.000D+00 0.000D+00 0.100D+01
 Coeff:      0.607D-02-0.715D-01-0.117D+00 0.190D-01 0.116D+01
 Gap=     0.502 Goal=   None    Shift=    0.000
 RMSDP=7.59D-05 MaxDP=2.10D-03 DE=-6.74D-04 OVMax= 1.10D-02

 Cycle   6  Pass 1  IDiag  1:
 E= -279.501330419964     Delta-E=       -0.000313299426 Rises=F Damp=F
 DIIS: error= 2.84D-04 at cycle   6 NSaved=   6.
 NSaved= 6 IEnMin= 6 EnMin= -279.501330419964     IErMin= 6 ErrMin= 2.84D-04
 ErrMax= 2.84D-04  0.00D+00 EMaxC= 1.00D-01 BMatC= 1.66D-05 BMatP= 8.68D-05
 IDIUse=3 WtCom= 9.97D-01 WtEn= 2.84D-03
 Coeff-Com:  0.619D-03 0.128D-02 0.393D-02-0.128D+00-0.228D+00 0.135D+01
 Coeff-En:   0.000D+00 0.000D+00 0.000D+00 0.000D+00 0.000D+00 0.100D+01
 Coeff:      0.617D-03 0.128D-02 0.392D-02-0.128D+00-0.227D+00 0.135D+01
 Gap=     0.503 Goal=   None    Shift=    0.000
 RMSDP=4.50D-05 MaxDP=1.24D-03 DE=-3.13D-04 OVMax= 5.51D-03

 Cycle   7  Pass 1  IDiag  1:
 E= -279.501402478074     Delta-E=       -0.000072058110 Rises=F Damp=F
 DIIS: error= 1.22D-04 at cycle   7 NSaved=   7.
 NSaved= 7 IEnMin= 7 EnMin= -279.501402478074     IErMin= 7 ErrMin= 1.22D-04
 ErrMax= 1.22D-04  0.00D+00 EMaxC= 1.00D-01 BMatC= 4.58D-06 BMatP= 1.66D-05
 IDIUse=3 WtCom= 9.99D-01 WtEn= 1.22D-03
 Coeff-Com: -0.929D-03 0.135D-01 0.264D-01-0.250D-01-0.290D+00 0.404D+00
 Coeff-Com:  0.873D+00
 Coeff-En:   0.000D+00 0.000D+00 0.000D+00 0.000D+00 0.000D+00 0.000D+00
 Coeff-En:   0.100D+01
 Coeff:     -0.927D-03 0.135D-01 0.263D-01-0.250D-01-0.290D+00 0.403D+00
 Coeff:      0.873D+00
 Gap=     0.503 Goal=   None    Shift=    0.000
 RMSDP=1.32D-05 MaxDP=3.74D-04 DE=-7.21D-05 OVMax= 1.54D-03

 Cycle   8  Pass 1  IDiag  1:
 E= -279.501411355218     Delta-E=       -0.000008877144 Rises=F Damp=F
 DIIS: error= 5.51D-05 at cycle   8 NSaved=   8.
 NSaved= 8 IEnMin= 8 EnMin= -279.501411355218     IErMin= 8 ErrMin= 5.51D-05
 ErrMax= 5.51D-05  0.00D+00 EMaxC= 1.00D-01 BMatC= 6.01D-07 BMatP= 4.58D-06
 IDIUse=1 WtCom= 1.00D+00 WtEn= 0.00D+00
 Coeff-Com: -0.447D-03 0.342D-02 0.758D-02 0.274D-01-0.406D-01-0.197D+00
 Coeff-Com:  0.162D+00 0.104D+01
 Coeff:     -0.447D-03 0.342D-02 0.758D-02 0.274D-01-0.406D-01-0.197D+00
 Coeff:      0.162D+00 0.104D+01
 Gap=     0.502 Goal=   None    Shift=    0.000
 RMSDP=6.88D-06 MaxDP=2.02D-04 DE=-8.88D-06 OVMax= 7.42D-04

 Cycle   9  Pass 1  IDiag  1:
 E= -279.501413121486     Delta-E=       -0.000001766268 Rises=F Damp=F
 DIIS: error= 1.67D-05 at cycle   9 NSaved=   9.
 NSaved= 9 IEnMin= 9 EnMin= -279.501413121486     IErMin= 9 ErrMin= 1.67D-05
 ErrMax= 1.67D-05  0.00D+00 EMaxC= 1.00D-01 BMatC= 6.74D-08 BMatP= 6.01D-07
 IDIUse=1 WtCom= 1.00D+00 WtEn= 0.00D+00
 Coeff-Com:  0.124D-03-0.172D-02-0.307D-02-0.225D-02 0.342D-01 0.899D-03
 Coeff-Com: -0.163D+00-0.114D+00 0.125D+01
 Coeff:      0.124D-03-0.172D-02-0.307D-02-0.225D-02 0.342D-01 0.899D-03
 Coeff:     -0.163D+00-0.114D+00 0.125D+01
 Gap=     0.502 Goal=   None    Shift=    0.000
 RMSDP=1.92D-06 MaxDP=6.63D-05 DE=-1.77D-06 OVMax= 1.74D-04

 Cycle  10  Pass 1  IDiag  1:
 E= -279.501413278586     Delta-E=       -0.000000157100 Rises=F Damp=F
 DIIS: error= 4.43D-06 at cycle  10 NSaved=  10.
 NSaved=10 IEnMin=10 EnMin= -279.501413278586     IErMin=10 ErrMin= 4.43D-06
 ErrMax= 4.43D-06  0.00D+00 EMaxC= 1.00D-01 BMatC= 5.45D-09 BMatP= 6.74D-08
 IDIUse=1 WtCom= 1.00D+00 WtEn= 0.00D+00
 Coeff-Com:  0.299D-04-0.231D-03-0.300D-03-0.264D-02 0.141D-02 0.193D-01
 Coeff-Com: -0.114D-01-0.734D-01-0.847D-01 0.115D+01
 Coeff:      0.299D-04-0.231D-03-0.300D-03-0.264D-02 0.141D-02 0.193D-01
 Coeff:     -0.114D-01-0.734D-01-0.847D-01 0.115D+01
 Gap=     0.502 Goal=   None    Shift=    0.000
 RMSDP=4.97D-07 MaxDP=2.08D-05 DE=-1.57D-07 OVMax= 4.17D-05

 Cycle  11  Pass 1  IDiag  1:
 E= -279.501413290826     Delta-E=       -0.000000012240 Rises=F Damp=F
 DIIS: error= 2.01D-06 at cycle  11 NSaved=  11.
 NSaved=11 IEnMin=11 EnMin= -279.501413290826     IErMin=11 ErrMin= 2.01D-06
 ErrMax= 2.01D-06  0.00D+00 EMaxC= 1.00D-01 BMatC= 6.48D-10 BMatP= 5.45D-09
 IDIUse=1 WtCom= 1.00D+00 WtEn= 0.00D+00
 Coeff-Com: -0.211D-04 0.242D-03 0.484D-03 0.533D-03-0.428D-02-0.346D-02
 Coeff-Com:  0.204D-01 0.317D-01-0.140D+00-0.174D+00 0.127D+01
 Coeff:     -0.211D-04 0.242D-03 0.484D-03 0.533D-03-0.428D-02-0.346D-02
 Coeff:      0.204D-01 0.317D-01-0.140D+00-0.174D+00 0.127D+01
 Gap=     0.502 Goal=   None    Shift=    0.000
 RMSDP=1.75D-07 MaxDP=6.34D-06 DE=-1.22D-08 OVMax= 1.73D-05

 Cycle  12  Pass 1  IDiag  1:
 E= -279.501413292590     Delta-E=       -0.000000001765 Rises=F Damp=F
 DIIS: error= 5.71D-07 at cycle  12 NSaved=  12.
 NSaved=12 IEnMin=12 EnMin= -279.501413292590     IErMin=12 ErrMin= 5.71D-07
 ErrMax= 5.71D-07  0.00D+00 EMaxC= 1.00D-01 BMatC= 7.02D-11 BMatP= 6.48D-10
 IDIUse=1 WtCom= 1.00D+00 WtEn= 0.00D+00
 Coeff-Com:  0.121D-05-0.285D-04-0.621D-04 0.182D-03 0.107D-02-0.230D-02
 Coeff-Com: -0.404D-02 0.543D-02 0.416D-01-0.117D+00-0.269D+00 0.134D+01
 Coeff:      0.121D-05-0.285D-04-0.621D-04 0.182D-03 0.107D-02-0.230D-02
 Coeff:     -0.404D-02 0.543D-02 0.416D-01-0.117D+00-0.269D+00 0.134D+01
 Gap=     0.502 Goal=   None    Shift=    0.000
 RMSDP=7.02D-08 MaxDP=2.75D-06 DE=-1.76D-09 OVMax= 6.69D-06

 Cycle  13  Pass 1  IDiag  1:
 E= -279.501413292815     Delta-E=       -0.000000000224 Rises=F Damp=F
 DIIS: error= 1.66D-07 at cycle  13 NSaved=  13.
 NSaved=13 IEnMin=13 EnMin= -279.501413292815     IErMin=13 ErrMin= 1.66D-07
 ErrMax= 1.66D-07  0.00D+00 EMaxC= 1.00D-01 BMatC= 3.95D-12 BMatP= 7.02D-11
 IDIUse=1 WtCom= 1.00D+00 WtEn= 0.00D+00
 Coeff-Com:  0.127D-05-0.139D-04-0.224D-04-0.886D-04 0.124D-03 0.750D-03
 Coeff-Com: -0.813D-03-0.328D-02 0.640D-03 0.415D-01-0.382D-01-0.323D+00
 Coeff-Com:  0.132D+01
 Coeff:      0.127D-05-0.139D-04-0.224D-04-0.886D-04 0.124D-03 0.750D-03
 Coeff:     -0.813D-03-0.328D-02 0.640D-03 0.415D-01-0.382D-01-0.323D+00
 Coeff:      0.132D+01
 Gap=     0.502 Goal=   None    Shift=    0.000
 RMSDP=1.88D-08 MaxDP=5.58D-07 DE=-2.24D-10 OVMax= 1.56D-06

 Cycle  14  Pass 1  IDiag  1:
 E= -279.501413292827     Delta-E=       -0.000000000012 Rises=F Damp=F
 DIIS: error= 2.41D-08 at cycle  14 NSaved=  14.
 NSaved=14 IEnMin=14 EnMin= -279.501413292827     IErMin=14 ErrMin= 2.41D-08
 ErrMax= 2.41D-08  0.00D+00 EMaxC= 1.00D-01 BMatC= 1.96D-13 BMatP= 3.95D-12
 IDIUse=1 WtCom= 1.00D+00 WtEn= 0.00D+00
 Coeff-Com: -0.191D-06 0.311D-05 0.559D-05 0.454D-05-0.826D-04 0.456D-04
 Coeff-Com:  0.276D-03 0.240D-03-0.247D-02 0.155D-02 0.168D-01-0.254D-01
 Coeff-Com: -0.202D+00 0.121D+01
 Coeff:     -0.191D-06 0.311D-05 0.559D-05 0.454D-05-0.826D-04 0.456D-04
 Coeff:      0.276D-03 0.240D-03-0.247D-02 0.155D-02 0.168D-01-0.254D-01
 Coeff:     -0.202D+00 0.121D+01
 Gap=     0.502 Goal=   None    Shift=    0.000
 RMSDP=3.78D-09 MaxDP=8.93D-08 DE=-1.22D-11 OVMax= 3.42D-07

 SCF Done:  E(RHF) =  -279.501413293     A.U. after   14 cycles
            NFock= 14  Conv=0.38D-08     -V/T= 2.0023
 KE= 2.788553705381D+02 PE=-8.955293931560D+02 EE= 2.200774976163D+02
 Leave Link  502 at Mon Feb 21 20:46:41 2022, MaxMem= 16106127360 cpu:              54.4 elap:               3.5
 (Enter /sw/contrib/gaussian/g16/B01/g16/l801.exe)
 ExpMin= 2.53D-02 ExpMax= 1.53D+04 ExpMxC= 5.22D+02 IAcc=3 IRadAn=         5 AccDes= 0.00D+00
 HarFok:  IExCor=  205 AccDes= 0.00D+00 IRadAn=         5 IDoV=-2 UseB2=F ITyADJ=14
 ICtDFT= 12500011 ScaDFX=  1.000000  1.000000  1.000000  1.000000
 DSYEVD-2 returned Info=          93 IAlg= 4 N=    46 NDim=    46 NE2=   350130240 trying  DSYEV.
 Largest valence mixing into a core orbital is  2.08D-04
 Largest core mixing into a valence orbital is  3.64D-05
 Range of M.O.s used for correlation:     5   207
 NBasis=   207 NAE=    16 NBE=    16 NFC=     4 NFV=     0
 NROrb=    203 NOA=    12 NOB=    12 NVA=   191 NVB=   191

 **** Warning!!: The largest alpha MO coefficient is  0.18087161D+02

 Leave Link  801 at Mon Feb 21 20:46:41 2022, MaxMem= 16106127360 cpu:               2.3 elap:               0.1
 (Enter /sw/contrib/gaussian/g16/B01/g16/l906.exe)
 Frozen-core derivative calculation, NFC=   4 NFV=   0.
 FulOut=F Deriv=T AODrv=T NAtomX=     5
   MMem=           0  MDisk=          12 MDiskD=          12
  W3Min=      811440 MinDsk=     2425030 NBas6D=         245
 NBas2D=       30762    NTT=       30135    LW2=     7400000
    MDV= 16105574283 MDiskM=      328644 NBas2p=       30702
 Disk-based method using ON**2 memory for 12 occupieds at a time.
 Permanent disk used for amplitudes=    11516536 words.
 Estimated scratch disk usage=   321251614 words.
 IMap=   1   2   3   4   5   6   7   8   9  10  11  12  13  14  15  16
 Actual    scratch disk usage=   310331678 words.
 JobTyp=1 Pass  1:  I=   5 to  16 NPSUse= 28 ParTrn=T ParDer=T DoDerP=T.
 (rs|ai) integrals will be sorted in core.
 Spin components of T(2) and E(2):
     alpha-alpha T2 =       0.3402249381D-01 E2=     -0.1224315568D+00
     alpha-beta  T2 =       0.1868634962D+00 E2=     -0.7003429855D+00
     beta-beta   T2 =       0.3402249381D-01 E2=     -0.1224315568D+00
 The integrals were generated   1 times.
 ANorm=    0.1120226979D+01
 E2 =    -0.9452060991D+00 EUMP2 =    -0.28044661939191D+03
 Leave Link  906 at Mon Feb 21 20:48:18 2022, MaxMem= 16106127360 cpu:            2711.3 elap:              97.0
 (Enter /sw/contrib/gaussian/g16/B01/g16/l1101.exe)
 Using compressed Sx but separate Hx and Fx, NAtomX=     5.
 Will process      6 centers per pass.
 Leave Link 1101 at Mon Feb 21 20:48:19 2022, MaxMem= 16106127360 cpu:               5.3 elap:               0.2
 (Enter /sw/contrib/gaussian/g16/B01/g16/l1102.exe)
 Leave Link 1102 at Mon Feb 21 20:48:19 2022, MaxMem= 16106127360 cpu:               0.5 elap:               0.0
 (Enter /sw/contrib/gaussian/g16/B01/g16/l1110.exe)
 Forming Gx(P) for the SCF density, NAtomX=     5.
 Integral derivatives from FoFJK, PRISM(SPDF).
 Do as many integral derivatives as possible in FoFJK.
 G2DrvN: MDV=   16106126844.
 G2DrvN: will do     6 centers at a time, making    1 passes.
 Calling FoFCou, ICntrl=  3107 FMM=F I1Cent=   0 AccDes= 0.00D+00.
 FoFJK:  IHMeth= 1 ICntrl=    3107 DoSepK=F KAlg= 0 I1Cent=           0 FoldK=F
 IRaf=         0 NMat=       1 IRICut=       1 DoRegI=T DoRafI=F ISym2E= 1 IDoP0=0 IntGTp=1.
 FoFCou: FMM=F IPFlag=           0 FMFlag=      100000 FMFlg1=           0
         NFxFlg=           0 DoJE=F BraDBF=F KetDBF=F FulRan=T
         wScrn=  0.000000 ICntrl=      3107 IOpCl=  0 I1Cent=           0 NGrid=           0
         NMat0=    1 NMatS0=      1 NMatT0=    0 NMatD0=    1 NMtDS0=    0 NMtDT0=    0
 Petite list used in FoFCou.
 End of G2Drv F.D. properties file   721 does not exist.
 End of G2Drv F.D. properties file   722 does not exist.
 End of G2Drv F.D. properties file   788 does not exist.
 Leave Link 1110 at Mon Feb 21 20:48:22 2022, MaxMem= 16106127360 cpu:              86.2 elap:               3.1
 (Enter /sw/contrib/gaussian/g16/B01/g16/l1002.exe)
 Minotr:  Closed shell wavefunction.
          IDoAtm=11111
          Frozen-core window.
          Direct CPHF calculation.
          Differentiating once with respect to electric field.
                with respect to dipole field.
          Differentiating once with respect to nuclear coordinates.
          Requested convergence is 1.0D-08 RMS, and 1.0D-07 maximum.
          Secondary convergence is 1.0D-12 RMS, and 1.0D-12 maximum.
          NewPWx=T KeepS1=T KeepF1=T KeepIn=T MapXYZ=F SortEE=F KeepMc=T.
 Keep R1 ints in memory in symmetry-blocked form, NReq=348888983.
 FoFCou: FMM=F IPFlag=           0 FMFlag=           0 FMFlg1=           0
         NFxFlg=           0 DoJE=F BraDBF=F KetDBF=F FulRan=T
         wScrn=  0.000000 ICntrl=       600 IOpCl=  0 I1Cent=           0 NGrid=           0
         NMat0=    1 NMatS0=  21528 NMatT0=    0 NMatD0=    1 NMtDS0=    0 NMtDT0=    0
 Petite list used in FoFCou.
          MDV=   16106127360 using IRadAn=       1.
          Solving linear equations simultaneously, MaxMat=       0.
          There are    18 degrees of freedom in the 1st order CPHF.  IDoFFX=6 NUNeed=    18.
     15 vectors produced by pass  0 Test12= 1.70D-14 5.56D-09 XBig12= 8.28D+00 1.07D+00.
 AX will form    15 AO Fock derivatives at one time.
     15 vectors produced by pass  1 Test12= 1.70D-14 5.56D-09 XBig12= 1.34D+00 2.76D-01.
     15 vectors produced by pass  2 Test12= 1.70D-14 5.56D-09 XBig12= 1.40D-01 9.62D-02.
     15 vectors produced by pass  3 Test12= 1.70D-14 5.56D-09 XBig12= 4.85D-03 1.07D-02.
     15 vectors produced by pass  4 Test12= 1.70D-14 5.56D-09 XBig12= 9.74D-05 1.88D-03.
     15 vectors produced by pass  5 Test12= 1.70D-14 5.56D-09 XBig12= 1.41D-06 1.72D-04.
     15 vectors produced by pass  6 Test12= 1.70D-14 5.56D-09 XBig12= 1.12D-08 1.45D-05.
     13 vectors produced by pass  7 Test12= 1.70D-14 5.56D-09 XBig12= 8.15D-11 1.29D-06.
      3 vectors produced by pass  8 Test12= 1.70D-14 5.56D-09 XBig12= 5.60D-13 1.20D-07.
      2 vectors produced by pass  9 Test12= 1.70D-14 5.56D-09 XBig12= 3.61D-15 1.01D-08.
 InvSVY:  IOpt=1 It=  1 EMax= 1.33D-15
 Solved reduced A of dimension   123 with    15 vectors.
 FullF1:  Do perturbations      1 to      18.
 Saving first derivative matrices.
 End of Minotr F.D. properties file   721 does not exist.
 End of Minotr F.D. properties file   722 does not exist.
 End of Minotr F.D. properties file   788 does not exist.
 Leave Link 1002 at Mon Feb 21 20:48:25 2022, MaxMem= 16106127360 cpu:              79.3 elap:               2.9
 (Enter /sw/contrib/gaussian/g16/B01/g16/l811.exe)
 MDV= 16106127360.
 Form MO integral derivatives with frozen-active canonical formalism.
 MOERI=1 MOERIx=1 NAtoms=     5 NAtomX=     5.
 Discarding MO integrals.
 MO basis two electron integral derivatives will not be stored on disk.
 IAlg= 3 DoFC=T DoPWx=T Debug=F.
 Frozen-core window:  NFC=   4 NFV=   0.
 Reordered first order wavefunction length =     18678272
 In DefCFB: NBatch=  1 ICI= 16 ICA=191 LFMax= 96
            Large arrays: LIAPS=   619940160 LIARS=   288257200 words.
 In StABat: MaxSiz= 55 MinSiz= 25 NAtomB=  5
 DoIAMN: NPSUse= 28.
 Leave Link  811 at Mon Feb 21 20:49:45 2022, MaxMem= 16106127360 cpu:            2248.9 elap:              80.5
 (Enter /sw/contrib/gaussian/g16/B01/g16/l804.exe)
 Frozen-core window:  NFC=   4 NFV=   0.
 Closed-shell transformation, MDV= 16106127360 ITran=4 ISComp=1.
 Semi-Direct transformation.
 ModeAB=           2 MOrb=            16 LenV=   16104922995
 LASXX=     67341636 LTotXX=    67341636 LenRXX=    67341636
 LTotAB=    68301760 MaxLAS=    99807120 LenRXY=    99807120
 NonZer=   134683272 LenScr=   202817536 LnRSAI=           0
 LnScr1=           0 LExtra=           0 Total=    369966292
 MaxDsk=          -1 SrtSym=           F ITran=            4
 DoSDTr:  NPSUse= 28
 JobTyp=0 Pass  1:  I=   1 to  16.
 (rs|ai) integrals will be sorted in core.
 Complete sort for first half transformation.
 First half transformation complete.
 Begin second half transformation for I=  10.
 Begin second half transformation for I=  10.
 Complete sort for second half transformation.
 Second half transformation complete.
 Spin components of T(2) and E(2):
     alpha-alpha T2 =       0.3402249381D-01 E2=     -0.1224315568D+00
     alpha-beta  T2 =       0.1868634962D+00 E2=     -0.7003429855D+00
     beta-beta   T2 =       0.3402249381D-01 E2=     -0.1224315568D+00
 ANorm=    0.1584240186D+01
 E2 =    -0.9452060991D+00 EUMP2 =    -0.28044661939191D+03
 Leave Link  804 at Mon Feb 21 20:50:01 2022, MaxMem= 16106127360 cpu:             426.6 elap:              15.3
 (Enter /sw/contrib/gaussian/g16/B01/g16/l1002.exe)
 Minotr:  Closed shell wavefunction.
          Computing MP2/KS-MP2 derivatives.
          Using Z-Vector for PSCF gradient.
          Skipping F1 and S1 gradient terms here.
          IDoAtm=11111
          Frozen-core window.
          Using MO integrals in the linear equations.
          Forming densities via direct SCF.
          Differentiating once with respect to electric field.
                with respect to dipole field.
          Differentiating once with respect to nuclear coordinates.
          Using symmetry in CPHF.
          Requested convergence is 1.0D-10 RMS, and 1.0D-09 maximum.
          NewPWx=F KeepS1=T KeepF1=T KeepIn=T MapXYZ=F SortEE=F KeepMc=T.
          MDV=   16106127360 using IRadAn=       5.
          Solving linear equations separately, MaxMat=       0.
          There are     1 degrees of freedom in the 1st order CPHF.  IDoFFX=0 NUNeed=     1.
 FoFJK:  IHMeth= 1 ICntrl=       0 DoSepK=F KAlg= 0 I1Cent=           0 FoldK=F
 IRaf=         0 NMat=       1 IRICut=       1 DoRegI=T DoRafI=F ISym2E= 0 IDoP0=0 IntGTp=1.
 FoFCou: FMM=F IPFlag=           0 FMFlag=      100000 FMFlg1=           0
         NFxFlg=           0 DoJE=F BraDBF=F KetDBF=F FulRan=T
         wScrn=  0.000000 ICntrl=         0 IOpCl=  0 I1Cent=           0 NGrid=           0
         NMat0=    1 NMatS0=      1 NMatT0=    0 NMatD0=    1 NMtDS0=    0 NMtDT0=    0
 Symmetry not used in FoFCou.
 LinEq1:  Iter=  0 NonCon=     1 RMS=5.93D-03 Max=1.33D-01 NDo=     1
 LinEq1:  Iter=  1 NonCon=     1 RMS=1.90D-03 Max=3.83D-02 NDo=     1
 LinEq1:  Iter=  2 NonCon=     1 RMS=8.66D-04 Max=1.46D-02 NDo=     1
 LinEq1:  Iter=  3 NonCon=     1 RMS=3.85D-04 Max=7.74D-03 NDo=     1
 LinEq1:  Iter=  4 NonCon=     1 RMS=1.18D-04 Max=1.87D-03 NDo=     1
 LinEq1:  Iter=  5 NonCon=     1 RMS=4.38D-05 Max=7.01D-04 NDo=     1
 LinEq1:  Iter=  6 NonCon=     1 RMS=1.97D-05 Max=2.20D-04 NDo=     1
 LinEq1:  Iter=  7 NonCon=     1 RMS=7.98D-06 Max=1.59D-04 NDo=     1
 LinEq1:  Iter=  8 NonCon=     1 RMS=3.42D-06 Max=3.36D-05 NDo=     1
 LinEq1:  Iter=  9 NonCon=     1 RMS=9.39D-07 Max=1.32D-05 NDo=     1
 LinEq1:  Iter= 10 NonCon=     1 RMS=1.85D-07 Max=2.02D-06 NDo=     1
 LinEq1:  Iter= 11 NonCon=     1 RMS=3.47D-08 Max=3.80D-07 NDo=     1
 LinEq1:  Iter= 12 NonCon=     1 RMS=8.40D-09 Max=1.36D-07 NDo=     1
 LinEq1:  Iter= 13 NonCon=     1 RMS=1.52D-09 Max=2.59D-08 NDo=     1
 LinEq1:  Iter= 14 NonCon=     1 RMS=2.72D-10 Max=3.96D-09 NDo=     1
 LinEq1:  Iter= 15 NonCon=     0 RMS=4.86D-11 Max=5.34D-10 NDo=     1
 Linear equations converged to 1.000D-10 1.000D-09 after    15 iterations.
 End of Minotr F.D. properties file   721 does not exist.
 End of Minotr F.D. properties file   722 does not exist.
 End of Minotr F.D. properties file   788 does not exist.
 Leave Link 1002 at Mon Feb 21 20:50:03 2022, MaxMem= 16106127360 cpu:              65.5 elap:               2.4
 (Enter /sw/contrib/gaussian/g16/B01/g16/l1102.exe)
 Use density number 2.
 Symmetrizing basis deriv contribution to polar:
 IMax=3 JMax=2 DiffMx= 0.00D+00
 Leave Link 1102 at Mon Feb 21 20:50:03 2022, MaxMem= 16106127360 cpu:               0.6 elap:               0.1
 (Enter /sw/contrib/gaussian/g16/B01/g16/l1110.exe)
 Forming Gx(P) for generalized density number  2 NAtomX=     5.
 Integral derivatives from FoFJK, PRISM(SPDF).
 Do as many integral derivatives as possible in FoFJK.
 G2DrvN: MDV=   16106126844.
 G2DrvN: will do     6 centers at a time, making    1 passes.
 Calling FoFCou, ICntrl=  3107 FMM=F I1Cent=   0 AccDes= 0.00D+00.
 FoFJK:  IHMeth= 1 ICntrl=    3107 DoSepK=F KAlg= 0 I1Cent=           0 FoldK=F
 IRaf=         0 NMat=       1 IRICut=       1 DoRegI=T DoRafI=F ISym2E= 1 IDoP0=0 IntGTp=1.
 FoFCou: FMM=F IPFlag=           0 FMFlag=      100000 FMFlg1=           0
         NFxFlg=           0 DoJE=F BraDBF=F KetDBF=F FulRan=T
         wScrn=  0.000000 ICntrl=      3107 IOpCl=  0 I1Cent=           0 NGrid=           0
         NMat0=    1 NMatS0=      1 NMatT0=    0 NMatD0=    1 NMtDS0=    0 NMtDT0=    0
 Petite list used in FoFCou.
 End of G2Drv F.D. properties file   721 does not exist.
 End of G2Drv F.D. properties file   722 does not exist.
 End of G2Drv F.D. properties file   788 does not exist.
 Leave Link 1110 at Mon Feb 21 20:50:06 2022, MaxMem= 16106127360 cpu:              83.2 elap:               3.0
 (Enter /sw/contrib/gaussian/g16/B01/g16/l1112.exe)
 MP22nd: MDV=   16106127360
 This link is doing NAtomX=     5 total of    18 degrees of freedom.
 Using ON3 I/O method in MakUI.
 Frozen-core window:  NFC=   4 NFV=   0.
 Using Ix for Sx.
 Use MO integrals over full window.
 Using OV2 memory method for fx*t*t/D, MaxI=    16 DoOO2=F NP=  28.
 R2 and R3 integrals will be kept in memory, NReq=   915591705.
 FoFCou: FMM=F IPFlag=           0 FMFlag=           0 FMFlg1=           0
         NFxFlg=           0 DoJE=F BraDBF=F KetDBF=F FulRan=T
         wScrn=  0.000000 ICntrl=       600 IOpCl=  0 I1Cent=           0 NGrid=           0
         NMat0=    1 NMatS0=      1 NMatT0=    0 NMatD0=    1 NMtDS0=    0 NMtDT0=    0
 Symmetry not used in FoFCou.
 DD1Dir will call FoFMem   1 times, MxPair=       272
 NAB=   136 NAA=     0 NBB=     0.
 Symmetry is being used.
 FoFJK:  IHMeth= 1 ICntrl=       0 DoSepK=F KAlg= 0 I1Cent=           0 FoldK=F
 IRaf=         0 NMat=      18 IRICut=      45 DoRegI=T DoRafI=T ISym2E= 2 IDoP0=3 IntGTp=3.
 Discarding MO integrals.
 Leave Link 1112 at Mon Feb 21 20:50:42 2022, MaxMem= 16106127360 cpu:             985.5 elap:              35.5
 (Enter /sw/contrib/gaussian/g16/B01/g16/l601.exe)
 Copying SCF densities to generalized density rwf, IOpCl= 0 IROHF=0.

 **********************************************************************

            Population analysis using the MP2 Density.

 **********************************************************************

 Orbital symmetries:
       Occupied  (A') (A') (A') (A') (A') (A') (A') (A') (A') (A')
                 (A") (A') (A") (A') (A") (A')
       Virtual   (A') (A") (A') (A') (A') (A") (A') (A') (A") (A')
                 (A") (A') (A') (A') (A") (A') (A') (A") (A') (A')
                 (A') (A') (A') (A') (A") (A') (A') (A") (A') (A')
                 (A") (A') (A") (A') (A') (A") (A') (A') (A") (A')
                 (A") (A') (A") (A') (A') (A") (A') (A') (A") (A')
                 (A") (A') (A') (A') (A") (A') (A") (A') (A") (A')
                 (A') (A') (A") (A') (A') (A") (A') (A") (A') (A')
                 (A") (A') (A') (A") (A") (A') (A') (A") (A') (A')
                 (A') (A") (A') (A") (A') (A") (A') (A") (A') (A')
                 (A") (A') (A') (A") (A') (A") (A') (A") (A') (A')
                 (A") (A') (A") (A') (A') (A") (A') (A') (A") (A')
                 (A") (A') (A') (A') (A") (A') (A') (A') (A") (A')
                 (A") (A') (A") (A') (A') (A") (A") (A') (A") (A')
                 (A') (A') (A') (A") (A") (A") (A') (A') (A') (A')
                 (A") (A') (A") (A') (A') (A") (A') (A') (A') (A')
                 (A") (A') (A') (A") (A') (A") (A') (A") (A') (A")
                 (A') (A") (A') (A') (A") (A") (A") (A') (A") (A')
                 (A") (A') (A") (A') (A") (A') (A") (A") (A') (A')
                 (A') (A') (A') (A') (A') (A') (A') (A') (A') (A')
                 (A')
 The electronic state is 1-A'.
 Alpha  occ. eigenvalues --  -20.69128 -20.68393 -20.65943 -15.81234  -1.62410
 Alpha  occ. eigenvalues --   -1.49622  -1.25360  -0.94841  -0.77408  -0.75850
 Alpha  occ. eigenvalues --   -0.71204  -0.67679  -0.62000  -0.59062  -0.48535
 Alpha  occ. eigenvalues --   -0.47283
 Alpha virt. eigenvalues --    0.02962   0.07187   0.08591   0.10128   0.13410
 Alpha virt. eigenvalues --    0.13414   0.14428   0.15504   0.17819   0.19397
 Alpha virt. eigenvalues --    0.19965   0.20640   0.22107   0.23553   0.23752
 Alpha virt. eigenvalues --    0.26493   0.29315   0.30481   0.31017   0.34307
 Alpha virt. eigenvalues --    0.35026   0.38797   0.42139   0.43060   0.52709
 Alpha virt. eigenvalues --    0.53048   0.56071   0.58415   0.62623   0.63692
 Alpha virt. eigenvalues --    0.67417   0.68433   0.70543   0.71230   0.72374
 Alpha virt. eigenvalues --    0.73034   0.74473   0.78975   0.79191   0.80951
 Alpha virt. eigenvalues --    0.81293   0.83216   0.86825   0.90741   0.92280
 Alpha virt. eigenvalues --    0.92583   0.95918   0.98333   0.98606   1.01654
 Alpha virt. eigenvalues --    1.05316   1.05359   1.08692   1.12163   1.14416
 Alpha virt. eigenvalues --    1.18774   1.22230   1.23109   1.33750   1.34920
 Alpha virt. eigenvalues --    1.38814   1.45244   1.48751   1.50886   1.54005
 Alpha virt. eigenvalues --    1.56843   1.58085   1.61580   1.66553   1.66954
 Alpha virt. eigenvalues --    1.70324   1.79257   1.82758   1.83269   1.87974
 Alpha virt. eigenvalues --    1.91280   1.95897   1.99363   2.00613   2.07673
 Alpha virt. eigenvalues --    2.11727   2.13088   2.15045   2.22505   2.26373
 Alpha virt. eigenvalues --    2.26538   2.28791   2.31743   2.35324   2.38819
 Alpha virt. eigenvalues --    2.42723   2.42861   2.45336   2.46444   2.47711
 Alpha virt. eigenvalues --    2.50743   2.59007   2.59480   2.61865   2.62715
 Alpha virt. eigenvalues --    2.63098   2.67068   2.76212   2.83146   2.86826
 Alpha virt. eigenvalues --    2.89180   2.89670   2.92218   2.95588   3.03491
 Alpha virt. eigenvalues --    3.07255   3.12594   3.20695   3.23218   3.31492
 Alpha virt. eigenvalues --    3.33324   3.50504   3.65319   3.84025   3.84467
 Alpha virt. eigenvalues --    4.15081   4.16211   4.18563   4.26183   4.34689
 Alpha virt. eigenvalues --    4.39662   4.46398   4.51772   4.67196   4.71167
 Alpha virt. eigenvalues --    4.80988   4.82338   4.83009   4.89726   5.02164
 Alpha virt. eigenvalues --    5.07706   5.10099   5.13944   5.18495   5.24715
 Alpha virt. eigenvalues --    5.27116   5.30836   5.33432   5.36463   5.61954
 Alpha virt. eigenvalues --    5.67397   5.77271   5.82884   5.95745   6.17449
 Alpha virt. eigenvalues --    6.30870   6.33647   6.39295   6.49290   6.50406
 Alpha virt. eigenvalues --    6.61690   6.66494   6.69760   6.76310   6.76365
 Alpha virt. eigenvalues --    6.83431   6.89607   7.00940   7.05139   7.05792
 Alpha virt. eigenvalues --    7.09038   7.12637   7.15257   7.18292   7.22251
 Alpha virt. eigenvalues --    7.24406   7.31035   7.32459   7.35675   7.40303
 Alpha virt. eigenvalues --    7.42900   7.48737   7.60272   7.61767   7.63542
 Alpha virt. eigenvalues --    7.67052   7.79490   7.89539   8.08727   8.31590
 Alpha virt. eigenvalues --    8.40933   8.54347  13.40483  14.36079  15.18178
 Alpha virt. eigenvalues --   16.15605
          Condensed to atoms (all electrons):
               1          2          3          4          5
     1  H    0.592987   0.127652   0.018729   0.013540  -0.000790
     2  O    0.127652   8.321929  -0.170813  -0.096953   0.016123
     3  O    0.018729  -0.170813   8.470065  -0.127657  -0.040558
     4  N    0.013540  -0.096953  -0.127657   6.972688  -0.056117
     5  O   -0.000790   0.016123  -0.040558  -0.056117   8.276019
 Mulliken charges:
               1
     1  H    0.247881
     2  O   -0.197938
     3  O   -0.149766
     4  N    0.294499
     5  O   -0.194676
 Sum of Mulliken charges =  -0.00000
 Mulliken charges with hydrogens summed into heavy atoms:
               1
     2  O    0.049943
     3  O   -0.149766
     4  N    0.294499
     5  O   -0.194676
 APT charges:
               1
     1  H    0.298451
     2  O   -0.280435
     3  O   -0.499627
     4  N    0.872327
     5  O   -0.390716
 Sum of APT charges =  -0.00000
 APT charges with hydrogens summed into heavy atoms:
               1
     2  O    0.018016
     3  O   -0.499627
     4  N    0.872327
     5  O   -0.390716
 Electronic spatial extent (au):  <R**2>=            251.0724
 Charge=             -0.0000 electrons
 Dipole moment (field-independent basis, Debye):
    X=              0.5484    Y=              1.3466    Z=             -0.0000  Tot=              1.4540
 Quadrupole moment (field-independent basis, Debye-Ang):
   XX=            -22.2988   YY=            -18.7810   ZZ=            -22.0072
   XY=              3.3035   XZ=              0.0000   YZ=             -0.0000
 Traceless Quadrupole moment (field-independent basis, Debye-Ang):
   XX=             -1.2698   YY=              2.2480   ZZ=             -0.9782
   XY=              3.3035   XZ=              0.0000   YZ=             -0.0000
 Octapole moment (field-independent basis, Debye-Ang**2):
  XXX=              3.3238  YYY=             10.7048  ZZZ=             -0.0000  XYY=              7.8290
  XXY=              6.8290  XXZ=              0.0000  XZZ=             -1.5812  YZZ=             -0.8384
  YYZ=             -0.0000  XYZ=              0.0000
 Hexadecapole moment (field-independent basis, Debye-Ang**3):
 XXXX=           -158.1021 YYYY=            -88.3542 ZZZZ=            -18.2352 XXXY=            -35.0963
 XXXZ=              0.0000 YYYX=            -30.2479 YYYZ=             -0.0000 ZZZX=              0.0000
 ZZZY=             -0.0000 XXYY=            -33.5336 XXZZ=            -30.9701 YYZZ=            -20.2127
 XXYZ=             -0.0000 YYXZ=             -0.0000 ZZXY=            -14.6802
 N-N= 1.170951117088D+02 E-N=-8.963150022446D+02  KE= 2.802073685114D+02
 Symmetry A'   KE= 2.662348819508D+02
 Symmetry A"   KE= 1.397248656054D+01
  Exact polarizability:  34.007   9.255  29.950  -0.000   0.000  17.908
 Approx polarizability:  29.017   4.904  23.432  -0.000  -0.000  15.515
 No NMR shielding tensors so no spin-rotation constants.
 Leave Link  601 at Mon Feb 21 20:50:42 2022, MaxMem= 16106127360 cpu:               4.2 elap:               0.2
 (Enter /sw/contrib/gaussian/g16/B01/g16/l701.exe)
 ... and contract with generalized density number  2.
 Compute integral second derivatives.
 Leave Link  701 at Mon Feb 21 20:50:42 2022, MaxMem= 16106127360 cpu:               6.2 elap:               0.2
 (Enter /sw/contrib/gaussian/g16/B01/g16/l702.exe)
 L702 exits ... SP integral derivatives will be done elsewhere.
 Leave Link  702 at Mon Feb 21 20:50:42 2022, MaxMem= 16106127360 cpu:               0.8 elap:               0.1
 (Enter /sw/contrib/gaussian/g16/B01/g16/l703.exe)
 Integral derivatives from FoFJK, PRISM(SPDF).
 Compute integral second derivatives, UseDBF=F ICtDFT=           0.
 Calling FoFJK, ICntrl=  10100127 FMM=F ISym2X=1 I1Cent= 0 IOpClX= 0 NMat=1 NMatS=1 NMatT=0.
 FoFJK:  IHMeth= 1 ICntrl=10100127 DoSepK=F KAlg= 0 I1Cent=           0 FoldK=F
 IRaf=         0 NMat=       1 IRICut=       1 DoRegI=T DoRafI=F ISym2E= 1 IDoP0=0 IntGTp=1.
 FoFCou: FMM=F IPFlag=           0 FMFlag=      100000 FMFlg1=         800
         NFxFlg=           0 DoJE=F BraDBF=F KetDBF=F FulRan=T
         wScrn=  0.000000 ICntrl=  10100127 IOpCl=  0 I1Cent=           0 NGrid=           0
         NMat0=    1 NMatS0=      1 NMatT0=    0 NMatD0=    1 NMtDS0=    0 NMtDT0=    0
 Petite list used in FoFCou.
 Leave Link  703 at Mon Feb 21 20:50:57 2022, MaxMem= 16106127360 cpu:             425.5 elap:              15.2
 (Enter /sw/contrib/gaussian/g16/B01/g16/l716.exe)
 Dipole        = 2.15747363D-01 5.29812045D-01-1.82818579D-34
 Polarizability= 3.40070267D+01 9.25521705D+00 2.99499262D+01
                -4.95224185D-32 8.44104040D-32 1.79076331D+01
 Full mass-weighted force constant matrix:
 Low frequencies --- -257.7011  -36.4444  -26.2784   -0.0009   -0.0009   -0.0005
 Low frequencies ---   77.1465  224.9680  344.3854
 ******    1 imaginary frequencies (negative Signs) ****** 
 Diagonal vibrational polarizability:
       13.6589459      24.7240190      51.0370942
 Harmonic frequencies (cm**-1), IR intensities (KM/Mole), Raman scattering
 activities (A**4/AMU), depolarization ratios for plane and unpolarized
 incident light, reduced masses (AMU), force constants (mDyne/A),
 and normal coordinates:
                      1                      2                      3
                     A"                     A"                     A'
 Frequencies --   -257.7007               224.9503               344.3853
 Red. masses --      1.1373                10.4433                 8.5042
 Frc consts  --      0.0445                 0.3114                 0.5943
 IR Inten    --    124.9575                 0.7531                13.2554
  Atom  AN      X      Y      Z        X      Y      Z        X      Y      Z
     1   1     0.00   0.00   1.00     0.00  -0.00  -0.58     0.55  -0.44   0.00
     2   8     0.00   0.00  -0.07     0.00  -0.00  -0.30    -0.08  -0.36   0.00
     3   8     0.00   0.00  -0.04     0.00   0.00   0.31    -0.13   0.46  -0.00
     4   7    -0.00  -0.00   0.06    -0.00  -0.00   0.53     0.02   0.22  -0.00
     5   8    -0.00  -0.00  -0.01    -0.00  -0.00  -0.44     0.15  -0.27   0.00
                      4                      5                      6
                     A'                     A'                     A'
 Frequencies --    465.9672               786.4703               966.6643
 Red. masses --     12.6736                13.1007                15.5152
 Frc consts  --      1.6213                 4.7743                 8.5420
 IR Inten    --    191.7286               168.8552                21.0010
  Atom  AN      X      Y      Z        X      Y      Z        X      Y      Z
     1   1    -0.35  -0.24   0.00    -0.31   0.20  -0.00    -0.14  -0.04   0.00
     2   8    -0.33  -0.24  -0.00     0.42   0.07   0.00    -0.53   0.04   0.00
     3   8    -0.20  -0.40   0.00    -0.06  -0.26  -0.00     0.75  -0.03  -0.00
     4   7     0.36   0.44   0.00    -0.15   0.63  -0.00    -0.12   0.24  -0.00
     5   8     0.24   0.27  -0.00    -0.22  -0.38   0.00    -0.11  -0.22   0.00
                      7                      8                      9
                     A'                     A'                     A'
 Frequencies --   1370.7666              1678.1662              3778.6403
 Red. masses --      1.1310                13.1673                 1.0675
 Frc consts  --      1.2521                21.8482                 8.9801
 IR Inten    --    150.9755               141.1243                79.3879
  Atom  AN      X      Y      Z        X      Y      Z        X      Y      Z
     1   1     0.99  -0.08   0.00    -0.35   0.01  -0.00     0.13   0.99  -0.00
     2   8    -0.03   0.05   0.00    -0.01  -0.04  -0.00    -0.01  -0.06   0.00
     3   8    -0.02  -0.05  -0.00     0.00   0.15   0.00     0.00   0.00   0.00
     4   7     0.02   0.01  -0.00     0.70  -0.05   0.00    -0.00  -0.00  -0.00
     5   8    -0.03  -0.01   0.00    -0.59  -0.07  -0.00     0.00   0.00  -0.00

 -------------------
 - Thermochemistry -
 -------------------
 Temperature   298.150 Kelvin.  Pressure   1.00000 Atm.
 Atom     1 has atomic number  1 and mass   1.00783
 Atom     2 has atomic number  8 and mass  15.99491
 Atom     3 has atomic number  8 and mass  15.99491
 Atom     4 has atomic number  7 and mass  14.00307
 Atom     5 has atomic number  8 and mass  15.99491
 Molecular mass:    62.99564 amu.
 Principal axes and moments of inertia in atomic units:
                           1         2         3
     Eigenvalues --    33.69346 355.74880 389.44226
           X            0.81691  -0.57677   0.00000
           Y            0.57677   0.81691   0.00000
           Z            0.00000   0.00000   1.00000
 This molecule is an asymmetric top.
 Rotational symmetry number  1.
 Rotational temperatures (Kelvin)      2.57065     0.24347     0.22241
 Rotational constants (GHZ):          53.56355     5.07308     4.63417
    1 imaginary frequencies ignored.
 Zero-point vibrational energy      57516.5 (Joules/Mol)
                                   13.74678 (Kcal/Mol)
 Warning -- explicit consideration of   3 degrees of freedom as
           vibrations may cause significant error
 Vibrational temperatures:    323.65   495.49   670.42  1131.56  1390.81
          (Kelvin)           1972.23  2414.51  5436.62
 
 Zero-point correction=                           0.021907 (Hartree/Particle)
 Thermal correction to Energy=                    0.026015
 Thermal correction to Enthalpy=                  0.026959
 Thermal correction to Gibbs Free Energy=        -0.004215
 Sum of electronic and zero-point Energies=           -280.424713
 Sum of electronic and thermal Energies=              -280.420604
 Sum of electronic and thermal Enthalpies=            -280.419660
 Sum of electronic and thermal Free Energies=         -280.450835
 
                     E (Thermal)             CV                S
                      KCal/Mol        Cal/Mol-Kelvin    Cal/Mol-Kelvin
 Total                   16.325             11.922             65.612
 Electronic               0.000              0.000              0.000
 Translational            0.889              2.981             38.341
 Rotational               0.889              2.981             23.061
 Vibrational             14.547              5.960              4.211
 Vibration     1          0.650              1.803              1.919
 Vibration     2          0.723              1.587              1.192
 Vibration     3          0.823              1.326              0.749
                       Q            Log10(Q)             Ln(Q)
 Total Bot       0.868698D+02          1.938869          4.464410
 Total V=0       0.103592D+13         12.015327         27.666312
 Vib (Bot)       0.180733D-09         -9.742963        -22.434001
 Vib (Bot)    1  0.877479D+00         -0.056763         -0.130702
 Vib (Bot)    2  0.537676D+00         -0.269479         -0.620498
 Vib (Bot)    3  0.363214D+00         -0.439837         -1.012763
 Vib (V=0)       0.215524D+01          0.333495          0.767902
 Vib (V=0)    1  0.150994D+01          0.178958          0.412067
 Vib (V=0)    2  0.123423D+01          0.091397          0.210448
 Vib (V=0)    3  0.111800D+01          0.048442          0.111542
 Electronic      0.100000D+01          0.000000          0.000000
 Translational   0.196526D+08          7.293420         16.793719
 Rotational      0.244575D+05          4.388412         10.104691
 
                                                                title
                                                             IR Spectrum
 
     3                                                                      1         1                                              
     7                                                                      6         3             9     7          4   3   2       
     7                                                                      7         7             6     8          6   4   2       
     9                                                                      8         1             7     6          6   4   5       
 
     X                                                                      X         X             X     X          X   X   X       
     X                                                                      X         X             X     X          X               
     X                                                                      X         X                   X          X               
     X                                                                      X         X                   X          X               
     X                                                                      X         X                   X          X               
     X                                                                      X         X                   X          X               
     X                                                                      X         X                   X          X               
     X                                                                      X         X                   X          X               
                                                                            X         X                   X          X               
                                                                            X         X                   X          X               
                                                                            X         X                   X          X               
                                                                            X         X                   X          X               
                                                                            X         X                   X          X               
                                                                            X         X                   X          X               
                                                                            X         X                   X          X               
                                                                                      X                   X          X               
                                                                                                          X          X               
                                                                                                          X          X               
                                                                                                                     X               
                                                                                                                     X               
 
 ***** Axes restored to original set *****
 -------------------------------------------------------------------
 Center     Atomic                   Forces (Hartrees/Bohr)
 Number     Number              X              Y              Z
 -------------------------------------------------------------------
      1        1          -0.000419369   -0.000000000   -0.000141293
      2        8          -0.000680251   -0.000000000   -0.003330426
      3        8          -0.002936787   -0.000000000    0.002470659
      4        7           0.003423222    0.000000000   -0.000429744
      5        8           0.000613185    0.000000000    0.001430803
 -------------------------------------------------------------------
 Cartesian Forces:  Max     0.003423222 RMS     0.001649354
 -----------------------------------------------------------------------------------------------
                       Internal Coordinate Forces (Hartree/Bohr or radian)
  Cent   Atom   N1       Length/X         N2         Alpha/Y        N3         Beta/Z          J
 -----------------------------------------------------------------------------------------------
      1  H 
      2  O        1   0.000141(     1)
      3  O        2   0.001549(     2)      1   0.000768(     5)
      4  N        3   0.001216(     3)      2   0.008294(     6)      1  -0.000000(     8)     0
      5  O        4   0.000984(     4)      3   0.002669(     7)      2   0.000000(     9)     0
 -----------------------------------------------------------------------------------------------
 Internal  Forces:  Max     0.008293901 RMS     0.003006816
 Force constants in Cartesian coordinates: 
                1             2             3             4             5 
      1  0.647232D-01
      2  0.000000D+00 -0.216456D-02
      3  0.576079D-02  0.000000D+00  0.512376D+00
      4 -0.358748D-01  0.000000D+00 -0.167033D-01  0.275476D+00
      5  0.000000D+00  0.272746D-02  0.000000D+00  0.000000D+00  0.195779D-02
      6  0.479309D-01  0.000000D+00 -0.508110D+00  0.380395D-01  0.000000D+00
      7 -0.182953D-01  0.000000D+00  0.126567D-01 -0.219818D+00  0.000000D+00
      8  0.000000D+00  0.978440D-03  0.000000D+00  0.000000D+00 -0.696274D-02
      9 -0.525190D-01  0.000000D+00 -0.520593D-03 -0.222023D-01  0.000000D+00
     10 -0.972498D-02  0.000000D+00 -0.496733D-02 -0.204784D-01  0.000000D+00
     11  0.000000D+00 -0.256722D-02  0.000000D+00  0.000000D+00 -0.388785D-02
     12  0.456158D-02  0.000000D+00 -0.529229D-02  0.106097D-01  0.000000D+00
     13 -0.828066D-03  0.000000D+00  0.325314D-02  0.695432D-03  0.000000D+00
     14  0.000000D+00  0.102587D-02  0.000000D+00  0.000000D+00  0.616533D-02
     15 -0.573424D-02  0.000000D+00  0.154722D-02 -0.974355D-02  0.000000D+00
                6             7             8             9            10 
      6  0.597432D+00
      7 -0.221635D-01  0.339948D+00
      8  0.000000D+00  0.000000D+00  0.562326D-02
      9 -0.763634D-01  0.399185D-01  0.000000D+00  0.177158D+00
     10 -0.570757D-01 -0.830447D-01  0.000000D+00  0.173705D+00  0.831451D+00
     11  0.000000D+00  0.000000D+00  0.667382D-02  0.000000D+00  0.000000D+00
     12  0.118359D-01  0.592525D-01  0.000000D+00 -0.733276D-01  0.601222D-02
     13 -0.673115D-02 -0.187906D-01  0.000000D+00 -0.138902D+00 -0.718203D+00
     14  0.000000D+00  0.000000D+00 -0.631277D-02  0.000000D+00  0.000000D+00
     15 -0.247938D-01 -0.896642D-01  0.000000D+00 -0.269460D-01 -0.117674D+00
               11            12            13            14            15 
     11  0.964732D-02
     12  0.000000D+00  0.190559D+00
     13  0.000000D+00 -0.804359D-01  0.737126D+00
     14 -0.986608D-02  0.000000D+00  0.000000D+00  0.898764D-02
     15  0.000000D+00 -0.123775D+00  0.222816D+00  0.000000D+00  0.173968D+00
 Force constants in internal coordinates: 
                1             2             3             4             5 
      1  0.512376D+00
      2 -0.102827D-01  0.285053D+00
      3  0.383166D-02  0.458622D-02  0.120313D+00
      4 -0.355352D-02  0.564195D-02  0.153012D+00  0.812405D+00
      5  0.101292D-01  0.653549D-01  0.318127D-02  0.435056D-02  0.217271D+00
      6  0.547221D-02  0.674387D-01  0.511530D-01  0.206206D-01  0.314679D-01
      7 -0.130753D-02  0.388022D-01  0.313080D-01  0.869051D-01  0.214076D-01
      8  0.000000D+00  0.000000D+00  0.000000D+00  0.000000D+00  0.000000D+00
      9  0.000000D+00  0.000000D+00  0.000000D+00  0.000000D+00  0.000000D+00
                6             7             8             9 
      6  0.305980D+00
      7  0.956178D-01  0.485210D+00
      8  0.000000D+00  0.000000D+00 -0.697659D-02
      9  0.000000D+00  0.000000D+00 -0.389265D-02  0.404143D-01
 Leave Link  716 at Mon Feb 21 20:50:57 2022, MaxMem= 16106127360 cpu:               0.9 elap:               0.1
 (Enter /sw/contrib/gaussian/g16/B01/g16/l103.exe)

 GradGradGradGradGradGradGradGradGradGradGradGradGradGradGradGradGradGrad
 Berny optimization.
 Search for a local minimum.
 Step number   1 out of a maximum of    2
 All quantities printed in internal units (Hartrees-Bohrs-Radians)
 Second derivative matrix not updated -- analytic derivatives used.
 The second derivative matrix:
                          r1        r2        r3        r4        a1
           r1           0.51238
           r2          -0.01028   0.28505
           r3           0.00383   0.00459   0.12031
           r4          -0.00355   0.00564   0.15301   0.81241
           a1           0.01013   0.06535   0.00318   0.00435   0.21727
           a2           0.00547   0.06744   0.05115   0.02062   0.03147
           a3          -0.00131   0.03880   0.03131   0.08691   0.02141
           d1           0.00000  -0.00000  -0.00000  -0.00000  -0.00000
           d2          -0.00000   0.00000   0.00000   0.00000   0.00000
                          a2        a3        d1        d2
           a2           0.30598
           a3           0.09562   0.48521
           d1          -0.00000  -0.00000  -0.00698
           d2          -0.00000  -0.00000  -0.00389   0.04041
 ITU=  0
     Eigenvalues ---   -0.00729   0.04073   0.07808   0.17626   0.23870
     Eigenvalues ---    0.33453   0.51306   0.52497   0.87301
 Eigenvalue     1 is  -7.29D-03 should be greater than     0.000000 Eigenvector:
                          d1        d2        a3        a2        r3
   1                    0.99669   0.08132   0.00000   0.00000  -0.00000
                          r4        a1        r2        r1
   1                    0.00000  -0.00000   0.00000  -0.00000
 Angle between quadratic step and forces=  26.33 degrees.
 Linear search not attempted -- first point.
 Variable       Old X    -DE/DX   Delta X   Delta X   Delta X     New X
                                 (Linear)    (Quad)   (Total)
    r1        1.83110   0.00014   0.00000  -0.00001  -0.00001   1.83109
    r2        2.74940   0.00155   0.00000  -0.00109  -0.00109   2.74831
    r3        2.75670   0.00122   0.00000  -0.00305  -0.00305   2.75365
    r4        2.21236   0.00098   0.00000   0.00107   0.00107   2.21343
    a1        1.70335   0.00077   0.00000  -0.00015  -0.00015   1.70321
    a2        1.75704   0.00829   0.00000   0.02776   0.02776   1.78480
    a3        1.90362   0.00267   0.00000   0.00013   0.00013   1.90375
    d1        3.14159  -0.00000   0.00000  -0.00000   0.00000   3.14159
    d2        3.14159   0.00000   0.00000   0.00000   0.00000   3.14159
         Item               Value     Threshold  Converged?
 Maximum Force            0.008294     0.000450     NO 
 RMS     Force            0.003007     0.000300     NO 
 Maximum Displacement     0.027759     0.001800     NO 
 RMS     Displacement     0.009323     0.001200     NO 
 Predicted change in Energy=-1.130586D-04
                       ----------------------------
                       ! Non-Optimized Parameters !
                       ! (Angstroms and Degrees)  !
 ----------------------                            ----------------------
 !      Name          Value   Derivative information (Atomic Units)     !
 ------------------------------------------------------------------------
 !       r1          0.969    -DE/DX =    0.0001                        !
 !       r2          1.4543   -DE/DX =    0.0015                        !
 !       r3          1.4572   -DE/DX =    0.0012                        !
 !       r4          1.1713   -DE/DX =    0.001                         !
 !       a1         97.5865   -DE/DX =    0.0008                        !
 !       a2        102.2616   -DE/DX =    0.0083                        !
 !       a3        109.0769   -DE/DX =    0.0027                        !
 !       d1        180.0      -DE/DX =    0.0                           !
 !       d2        180.0      -DE/DX =    0.0                           !
 ------------------------------------------------------------------------
 GradGradGradGradGradGradGradGradGradGradGradGradGradGradGradGradGradGrad

 Leave Link  103 at Mon Feb 21 20:50:57 2022, MaxMem= 16106127360 cpu:               0.8 elap:               0.1
 (Enter /sw/contrib/gaussian/g16/B01/g16/l9999.exe)

 ----------------------------------------------------------------------

 Electric dipole moment (input orientation):
 (Debye = 10**-18 statcoulomb cm , SI units = C m)
                  (au)            (Debye)         (10**-30 SI)
   Tot        0.572056D+00      0.145402D+01      0.485009D+01
   x         -0.146227D+00     -0.371673D+00     -0.123977D+01
   y          0.000000D+00      0.000000D+00      0.000000D+00
   z         -0.553051D+00     -0.140572D+01     -0.468896D+01

 Dipole polarizability, Alpha (input orientation).
 (esu units = cm**3 , SI units = C**2 m**2 J**-1)
 Alpha(0;0):
               (au)            (10**-24 esu)      (10**-40 SI)
   iso        0.272882D+02      0.404369D+01      0.449922D+01
   aniso      0.216174D+02      0.320336D+01      0.356422D+01
   xx         0.315931D+02      0.468162D+01      0.520900D+01
   yx         0.000000D+00      0.000000D+00      0.000000D+00
   yy         0.179076D+02      0.265364D+01      0.295257D+01
   zx         0.946708D+01      0.140288D+01      0.156091D+01
   zy         0.000000D+00      0.000000D+00      0.000000D+00
   zz         0.323638D+02      0.479582D+01      0.533607D+01

 ----------------------------------------------------------------------

 Dipole orientation:
     1         -0.00000000          0.00000000          0.00000000
     8         -0.46806035          0.00000000         -1.77026579
     8          2.07379212          0.00000000         -2.81820712
     7          1.51316645          0.00000000         -5.51730080
     8          3.41342222          0.00000000         -6.65023992

 Electric dipole moment (dipole orientation):
 (Debye = 10**-18 statcoulomb cm , SI units = C m)
                  (au)            (Debye)         (10**-30 SI)
   Tot        0.572056D+00      0.145402D+01      0.485009D+01
   x          0.000000D+00      0.000000D+00      0.000000D+00
   y          0.000000D+00      0.000000D+00      0.000000D+00
   z          0.572056D+00      0.145402D+01      0.485009D+01

 Dipole polarizability, Alpha (dipole orientation).
 (esu units = cm**3 , SI units = C**2 m**2 J**-1)
 Alpha(0;0):
               (au)            (10**-24 esu)      (10**-40 SI)
   iso        0.272882D+02      0.404369D+01      0.449922D+01
   aniso      0.216174D+02      0.320336D+01      0.356422D+01
   xx         0.269644D+02      0.399571D+01      0.444583D+01
   yx         0.000000D+00      0.000000D+00      0.000000D+00
   yy         0.179076D+02      0.265364D+01      0.295257D+01
   zx        -0.803946D+01     -0.119132D+01     -0.132553D+01
   zy         0.000000D+00      0.000000D+00      0.000000D+00
   zz         0.369926D+02      0.548173D+01      0.609925D+01

 ----------------------------------------------------------------------
 1\1\GINC-N2124\Freq\RMP2-FC\Aug-CC-pVTZ\H1N1O3\CGAVINH\21-Feb-2022\1\\
 #p freq mp2/aug-cc-pvtz density=current\\title\\0,1\H\O,1,r1\O,2,r2,1,
 a1\N,3,r3,2,a2,1,d1,0\O,4,r4,3,a3,2,d2,0\\r1=0.96897556\r2=1.45491931\
 r3=1.45878406\r4=1.17072885\a1=97.59494903\a2=100.67111923\a3=109.0695
 5123\d1=180.\d2=180.\\Version=ES64L-G16RevB.01\State=1-A'\HF=-279.5014
 133\MP2=-280.4466194\RMSD=3.778e-09\RMSF=1.649e-03\ZeroPoint=0.0219069
 \Thermal=0.0260152\Dipole=-0.1462273,0.,-0.5530509\DipoleDeriv=0.26833
 42,0.,0.0502956,0.,0.3554585,0.,0.0780485,0.,0.2715613,-0.3161251,0.,-
 0.1991831,0.,-0.3162812,0.,-0.1034213,0.,-0.2088986,-0.0408264,0.,0.17
 59472,0.,-0.0846973,0.,-0.7229115,0.,-1.3733581,0.8473027,0.,0.8773537
 ,0.,0.0672399,0.,0.8984208,0.,1.7024376,-0.7586853,0.,-0.9044133,0.,-0
 .0217199,0.,-0.1501365,0.,-0.3917423\Polar=31.5931259,0.,17.9076331,9.
 4670779,0.,32.3638269\Quadrupole=-1.5242997,-0.7272554,2.2515552,0.,2.
 0440588,0.\PG=CS [SG(H1N1O3)]\NImag=1\\0.06472316,0.,-0.00216456,0.005
 76079,0.,0.51237609,-0.03587482,0.,-0.01670331,0.27547557,0.,0.0027274
 6,0.,0.,0.00195779,0.04793085,0.,-0.50811043,0.03803945,0.,0.59743179,
 -0.01829530,0.,0.01265671,-0.21981782,0.,-0.02216348,0.33994841,0.,0.0
 0097844,0.,0.,-0.00696274,0.,0.,0.00562326,-0.05251899,0.,-0.00052059,
 -0.02220226,0.,-0.07636340,0.03991847,0.,0.17715766,-0.00972498,0.,-0.
 00496733,-0.02047837,0.,-0.05707567,-0.08304466,0.,0.17370513,0.831451
 14,0.,-0.00256722,0.,0.,-0.00388785,0.,0.,0.00667382,0.,0.,0.00964732,
 0.00456158,0.,-0.00529229,0.01060966,0.,0.01183587,0.05925247,0.,-0.07
 332763,0.00601222,0.,0.19055894,-0.00082807,0.,0.00325314,0.00069543,0
 .,-0.00673115,-0.01879063,0.,-0.13890235,-0.71820313,0.,-0.08043594,0.
 73712640,0.,0.00102587,0.,0.,0.00616533,0.,0.,-0.00631277,0.,0.,-0.009
 86608,0.,0.,0.00898764,-0.00573424,0.,0.00154722,-0.00974355,0.,-0.024
 79381,-0.08966417,0.,-0.02694604,-0.11767435,0.,-0.12377489,0.22281630
 ,0.,0.17396752\\0.00041937,0.,0.00014129,0.00068025,0.,0.00333043,0.00
 293679,0.,-0.00247066,-0.00342322,0.,0.00042974,-0.00061319,0.,-0.0014
 3080\\\@


 It takes a long time to grow an old friend.
                            -- John Leonard
 Job cpu time:       0 days  2 hours  0 minutes 14.1 seconds.
 Elapsed time:       0 days  0 hours  4 minutes 20.6 seconds.
 File lengths (MBytes):  RWF=   7239 Int=      0 D2E=      0 Chk=      8 Scr=      1
 Normal termination of Gaussian 16 at Mon Feb 21 20:50:59 2022.
