 Entering Gaussian System, Link 0=g16
 Input=hoono_r2_1p468388.gjf
 Output=hoono_r2_1p468388.log
 Initial command:
 /sw/contrib/gaussian/g16/B01/g16/l1.exe "/scr/Gau-31530.inp" -scrdir="/scr/"
 Entering Link 1 = /sw/contrib/gaussian/g16/B01/g16/l1.exe PID=     31531.
  
 Copyright (c) 1988-2017, Gaussian, Inc.  All Rights Reserved.
  
 This is part of the Gaussian(R) 16 program.  It is based on
 the Gaussian(R) 09 system (copyright 2009, Gaussian, Inc.),
 the Gaussian(R) 03 system (copyright 2003, Gaussian, Inc.),
 the Gaussian(R) 98 system (copyright 1998, Gaussian, Inc.),
 the Gaussian(R) 94 system (copyright 1995, Gaussian, Inc.),
 the Gaussian 92(TM) system (copyright 1992, Gaussian, Inc.),
 the Gaussian 90(TM) system (copyright 1990, Gaussian, Inc.),
 the Gaussian 88(TM) system (copyright 1988, Gaussian, Inc.),
 the Gaussian 86(TM) system (copyright 1986, Carnegie Mellon
 University), and the Gaussian 82(TM) system (copyright 1983,
 Carnegie Mellon University). Gaussian is a federally registered
 trademark of Gaussian, Inc.
  
 This software contains proprietary and confidential information,
 including trade secrets, belonging to Gaussian, Inc.
  
 This software is provided under written license and may be
 used, copied, transmitted, or stored only in accord with that
 written license.
  
 The following legend is applicable only to US Government
 contracts under FAR:
  
                    RESTRICTED RIGHTS LEGEND
  
 Use, reproduction and disclosure by the US Government is
 subject to restrictions as set forth in subparagraphs (a)
 and (c) of the Commercial Computer Software - Restricted
 Rights clause in FAR 52.227-19.
  
 Gaussian, Inc.
 340 Quinnipiac St., Bldg. 40, Wallingford CT 06492
  
  
 ---------------------------------------------------------------
 Warning -- This program may not be used in any manner that
 competes with the business of Gaussian, Inc. or will provide
 assistance to any competitor of Gaussian, Inc.  The licensee
 of this program is prohibited from giving any competitor of
 Gaussian, Inc. access to this program.  By using this program,
 the user acknowledges that Gaussian, Inc. is engaged in the
 business of creating and licensing software in the field of
 computational chemistry and represents and warrants to the
 licensee that it is not a competitor of Gaussian, Inc. and that
 it will not use this program in any manner prohibited above.
 ---------------------------------------------------------------
  

 Cite this work as:
 Gaussian 16, Revision B.01,
 M. J. Frisch, G. W. Trucks, H. B. Schlegel, G. E. Scuseria, 
 M. A. Robb, J. R. Cheeseman, G. Scalmani, V. Barone, 
 G. A. Petersson, H. Nakatsuji, X. Li, M. Caricato, A. V. Marenich, 
 J. Bloino, B. G. Janesko, R. Gomperts, B. Mennucci, H. P. Hratchian, 
 J. V. Ortiz, A. F. Izmaylov, J. L. Sonnenberg, D. Williams-Young, 
 F. Ding, F. Lipparini, F. Egidi, J. Goings, B. Peng, A. Petrone, 
 T. Henderson, D. Ranasinghe, V. G. Zakrzewski, J. Gao, N. Rega, 
 G. Zheng, W. Liang, M. Hada, M. Ehara, K. Toyota, R. Fukuda, 
 J. Hasegawa, M. Ishida, T. Nakajima, Y. Honda, O. Kitao, H. Nakai, 
 T. Vreven, K. Throssell, J. A. Montgomery, Jr., J. E. Peralta, 
 F. Ogliaro, M. J. Bearpark, J. J. Heyd, E. N. Brothers, K. N. Kudin, 
 V. N. Staroverov, T. A. Keith, R. Kobayashi, J. Normand, 
 K. Raghavachari, A. P. Rendell, J. C. Burant, S. S. Iyengar, 
 J. Tomasi, M. Cossi, J. M. Millam, M. Klene, C. Adamo, R. Cammi, 
 J. W. Ochterski, R. L. Martin, K. Morokuma, O. Farkas, 
 J. B. Foresman, and D. J. Fox, Gaussian, Inc., Wallingford CT, 2016.
 
 ******************************************
 Gaussian 16:  ES64L-G16RevB.01 20-Dec-2017
                21-Feb-2022 
 ******************************************
 %nproc=28
 Will use up to   28 processors via shared memory.
 %mem=120GB
 %chk=hoono_r2_1p468388.chk
 ---------------------------------------
 #p freq mp2/aug-cc-pvtz density=current
 ---------------------------------------
 1/10=4,30=1,38=1/1,3;
 2/12=2,17=6,18=5,40=1/2;
 3/5=16,6=1,7=10,11=9,25=1,30=1,71=2,140=1/1,2,3;
 4//1;
 5/5=2,38=5,98=1/2;
 8/6=3,8=1,10=1,19=11,30=-1/1;
 9/15=3,16=-3/6;
 11/6=1,8=1,15=11,17=12,24=-1,27=1,28=-2,29=300,32=6,42=3/1,2,10;
 10/6=2,21=1/2;
 8/6=4,8=1,10=1,19=11,30=-1/11,4;
 10/5=1,20=4/2;
 11/12=2,14=11,16=1,17=2,28=-2,42=3,76=2/2,10,12;
 6/7=2,8=2,9=2,10=2,22=-1/1;
 7/8=1,10=1,12=2,25=1,44=2/1,2,3,16;
 1/10=4,30=1/3;
 99//99;
 Leave Link    1 at Mon Feb 21 20:06:30 2022, MaxMem= 16106127360 cpu:               2.7 elap:               0.1
 (Enter /sw/contrib/gaussian/g16/B01/g16/l101.exe)
 -----
 title
 -----
 Symbolic Z-matrix:
 Charge =  0 Multiplicity = 1
 H
 O                    1    r1
 O                    2    r2       1    a1
 N                    3    r3       2    a2       1    d1       0
 O                    4    r4       3    a3       2    d2       0
       Variables:
  r1                    0.96898                  
  r2                    1.46839                  
  r3                    1.45878                  
  r4                    1.17073                  
  a1                   97.59495                  
  a2                  102.29752                  
  a3                  109.06955                  
  d1                  180.                       
  d2                  180.                       
 
 ITRead=  0  0  0  0  0
 MicOpt= -1 -1 -1 -1 -1
 NAtoms=      5 NQM=        5 NQMF=       0 NMMI=      0 NMMIF=      0
                NMic=       0 NMicF=      0.
                    Isotopes and Nuclear Properties:
 (Nuclear quadrupole moments (NQMom) in fm**2, nuclear magnetic moments (NMagM)
  in nuclear magnetons)

  Atom         1           2           3           4           5
 IAtWgt=           1          16          16          14          16
 AtmWgt=   1.0078250  15.9949146  15.9949146  14.0030740  15.9949146
 NucSpn=           1           0           0           2           0
 AtZEff=  -0.0000000  -0.0000000  -0.0000000  -0.0000000  -0.0000000
 NQMom=    0.0000000   0.0000000   0.0000000   2.0440000   0.0000000
 NMagM=    2.7928460   0.0000000   0.0000000   0.4037610   0.0000000
 AtZNuc=   1.0000000   8.0000000   8.0000000   7.0000000   8.0000000
 Leave Link  101 at Mon Feb 21 20:06:30 2022, MaxMem= 16106127360 cpu:               2.6 elap:               0.1
 (Enter /sw/contrib/gaussian/g16/B01/g16/l103.exe)

 GradGradGradGradGradGradGradGradGradGradGradGradGradGradGradGradGradGrad
 Berny optimization.
 Initialization pass.
                       ----------------------------
                       !    Initial Parameters    !
                       ! (Angstroms and Degrees)  !
 ----------------------                            ----------------------
 !      Name          Value   Derivative information (Atomic Units)     !
 ------------------------------------------------------------------------
 !       r1          0.969    calculate D2E/DX2 analytically            !
 !       r2          1.4684   calculate D2E/DX2 analytically            !
 !       r3          1.4588   calculate D2E/DX2 analytically            !
 !       r4          1.1707   calculate D2E/DX2 analytically            !
 !       a1         97.5949   calculate D2E/DX2 analytically            !
 !       a2        102.2975   calculate D2E/DX2 analytically            !
 !       a3        109.0696   calculate D2E/DX2 analytically            !
 !       d1        180.0      calculate D2E/DX2 analytically            !
 !       d2        180.0      calculate D2E/DX2 analytically            !
 ------------------------------------------------------------------------
 Trust Radius=3.00D-01 FncErr=1.00D-07 GrdErr=1.00D-07 EigMax=2.50D+02 EigMin=1.00D-04
 Number of steps in this run=      2 maximum allowed number of steps=      2.
 GradGradGradGradGradGradGradGradGradGradGradGradGradGradGradGradGradGrad

 Leave Link  103 at Mon Feb 21 20:06:30 2022, MaxMem= 16106127360 cpu:               0.5 elap:               0.0
 (Enter /sw/contrib/gaussian/g16/B01/g16/l202.exe)
                          Input orientation:                          
 ---------------------------------------------------------------------
 Center     Atomic      Atomic             Coordinates (Angstroms)
 Number     Number       Type             X           Y           Z
 ---------------------------------------------------------------------
      1          1           0        0.000000    0.000000    0.000000
      2          8           0        0.000000    0.000000    0.968976
      3          8           0        1.455506    0.000000    1.163051
      4          7           0        1.575102    0.000000    2.616924
      5          8           0        2.709218    0.000000    2.907419
 ---------------------------------------------------------------------
                    Distance matrix (angstroms):
                    1          2          3          4          5
     1  H    0.000000
     2  O    0.968976   0.000000
     3  O    1.863112   1.468388   0.000000
     4  N    3.054380   2.279623   1.458784   0.000000
     5  O    3.974034   3.331280   2.148165   1.170729   0.000000
 Stoichiometry    HNO3
 Framework group  CS[SG(HNO3)]
 Deg. of freedom     7
 Full point group                 CS      NOp   2
 Largest Abelian subgroup         CS      NOp   2
 Largest concise Abelian subgroup C1      NOp   1
                         Standard orientation:                         
 ---------------------------------------------------------------------
 Center     Atomic      Atomic             Coordinates (Angstroms)
 Number     Number       Type             X           Y           Z
 ---------------------------------------------------------------------
      1          1           0        1.568257    1.678751   -0.000000
      2          8           0        1.467784    0.714998    0.000000
      3          8           0       -0.000000    0.672890   -0.000000
      4          7           0       -0.269703   -0.760746    0.000000
      5          8           0       -1.427827   -0.932079   -0.000000
 ---------------------------------------------------------------------
 Rotational constants (GHZ):          54.6264463           4.9795805           4.5635786
 Leave Link  202 at Mon Feb 21 20:06:30 2022, MaxMem= 16106127360 cpu:               2.8 elap:               0.1
 (Enter /sw/contrib/gaussian/g16/B01/g16/l301.exe)
 Standard basis: Aug-CC-pVTZ (5D, 7F)
 Ernie: Thresh=  0.10000D-02 Tol=  0.10000D-05 Strict=F.
 Ernie:  12 primitive shells out of 131 were deleted.
 There are   166 symmetry adapted cartesian basis functions of A'  symmetry.
 There are    79 symmetry adapted cartesian basis functions of A"  symmetry.
 There are   136 symmetry adapted basis functions of A'  symmetry.
 There are    71 symmetry adapted basis functions of A"  symmetry.
   207 basis functions,   315 primitive gaussians,   245 cartesian basis functions
    16 alpha electrons       16 beta electrons
       nuclear repulsion energy       116.5416740737 Hartrees.
 IExCor=    0 DFT=F Ex=HF Corr=None ExCW=0 ScaHFX=  1.000000
 ScaDFX=  1.000000  1.000000  1.000000  1.000000 ScalE2=  1.000000  1.000000
 IRadAn=      5 IRanWt=     -1 IRanGd=            0 ICorTp=0 IEmpDi=  4
 NAtoms=    5 NActive=    5 NUniq=    5 SFac= 1.00D+00 NAtFMM=   60 NAOKFM=F Big=F
 Integral buffers will be    131072 words long.
 Raffenetti 1 integral format.
 Two-electron integral symmetry is turned on.
 Leave Link  301 at Mon Feb 21 20:06:30 2022, MaxMem= 16106127360 cpu:               1.4 elap:               0.1
 (Enter /sw/contrib/gaussian/g16/B01/g16/l302.exe)
 NPDir=0 NMtPBC=     1 NCelOv=     1 NCel=       1 NClECP=     1 NCelD=      1
         NCelK=      1 NCelE2=     1 NClLst=     1 CellRange=     0.0.
 One-electron integrals computed using PRISM.
 One-electron integral symmetry used in STVInt
 NBasis=   207 RedAO= T EigKep=  1.83D-04  NBF=   136    71
 NBsUse=   207 1.00D-06 EigRej= -1.00D+00 NBFU=   136    71
 Leave Link  302 at Mon Feb 21 20:06:31 2022, MaxMem= 16106127360 cpu:               4.8 elap:               0.2
 (Enter /sw/contrib/gaussian/g16/B01/g16/l303.exe)
 DipDrv:  MaxL=1.
 Leave Link  303 at Mon Feb 21 20:06:31 2022, MaxMem= 16106127360 cpu:               1.0 elap:               0.1
 (Enter /sw/contrib/gaussian/g16/B01/g16/l401.exe)
 ExpMin= 2.53D-02 ExpMax= 1.53D+04 ExpMxC= 5.22D+02 IAcc=3 IRadAn=         5 AccDes= 0.00D+00
 Harris functional with IExCor=  205 and IRadAn=       5 diagonalized for initial guess.
 HarFok:  IExCor=  205 AccDes= 0.00D+00 IRadAn=         5 IDoV= 1 UseB2=F ITyADJ=14
 ICtDFT=  3500011 ScaDFX=  1.000000  1.000000  1.000000  1.000000
 FoFCou: FMM=F IPFlag=           0 FMFlag=      100000 FMFlg1=           0
         NFxFlg=           0 DoJE=T BraDBF=F KetDBF=T FulRan=T
         wScrn=  0.000000 ICntrl=       500 IOpCl=  0 I1Cent=   200000004 NGrid=           0
         NMat0=    1 NMatS0=      1 NMatT0=    0 NMatD0=    1 NMtDS0=    0 NMtDT0=    0
 Petite list used in FoFCou.
 Harris En= -279.628055014364    
 JPrj=0 DoOrth=F DoCkMO=F.
 Initial guess orbital symmetries:
       Occupied  (A') (A') (A') (A') (A') (A') (A') (A') (A') (A')
                 (A") (A') (A') (A") (A") (A')
       Virtual   (A") (A') (A') (A') (A') (A') (A") (A') (A') (A')
                 (A") (A') (A") (A') (A') (A") (A') (A") (A') (A')
                 (A') (A') (A') (A') (A') (A") (A') (A") (A') (A')
                 (A") (A') (A") (A') (A') (A") (A') (A") (A') (A')
                 (A") (A') (A") (A') (A") (A') (A') (A') (A") (A")
                 (A') (A') (A') (A') (A") (A') (A") (A') (A") (A')
                 (A') (A') (A") (A') (A') (A") (A') (A") (A') (A')
                 (A") (A') (A') (A") (A") (A') (A') (A") (A') (A')
                 (A') (A") (A') (A") (A') (A") (A') (A") (A') (A')
                 (A') (A") (A') (A") (A') (A") (A") (A') (A') (A")
                 (A') (A') (A") (A') (A') (A') (A') (A") (A") (A')
                 (A") (A') (A') (A') (A") (A') (A') (A') (A") (A')
                 (A") (A') (A') (A") (A") (A') (A") (A') (A") (A')
                 (A') (A') (A') (A") (A") (A') (A") (A') (A') (A')
                 (A') (A") (A") (A') (A') (A") (A') (A') (A') (A')
                 (A') (A") (A') (A") (A') (A") (A') (A") (A") (A')
                 (A') (A") (A') (A") (A') (A") (A") (A") (A') (A')
                 (A") (A') (A") (A') (A') (A") (A") (A") (A') (A')
                 (A') (A') (A') (A') (A') (A') (A') (A') (A') (A')
                 (A')
 The electronic state of the initial guess is 1-A'.
 Leave Link  401 at Mon Feb 21 20:06:31 2022, MaxMem= 16106127360 cpu:               7.8 elap:               0.3
 (Enter /sw/contrib/gaussian/g16/B01/g16/l502.exe)
 Keep R1 ints in memory in symmetry-blocked form, NReq=348887737.
 FoFCou: FMM=F IPFlag=           0 FMFlag=           0 FMFlg1=           0
         NFxFlg=           0 DoJE=F BraDBF=F KetDBF=F FulRan=T
         wScrn=  0.000000 ICntrl=       600 IOpCl=  0 I1Cent=           0 NGrid=           0
         NMat0=    1 NMatS0=  21528 NMatT0=    0 NMatD0=    1 NMtDS0=    0 NMtDT0=    0
 Petite list used in FoFCou.
 Closed shell SCF:
 Using DIIS extrapolation, IDIIS=  1040.
 NGot= 16106127360 LenX= 15988850015 LenY= 15988789549
 Requested convergence on RMS density matrix=1.00D-08 within 128 cycles.
 Requested convergence on MAX density matrix=1.00D-06.
 Requested convergence on             energy=1.00D-06.
 No special actions if energy rises.

 Cycle   1  Pass 1  IDiag  1:
 E= -279.368886391548    
 DIIS: error= 2.90D-02 at cycle   1 NSaved=   1.
 NSaved= 1 IEnMin= 1 EnMin= -279.368886391548     IErMin= 1 ErrMin= 2.90D-02
 ErrMax= 2.90D-02  0.00D+00 EMaxC= 1.00D-01 BMatC= 4.38D-01 BMatP= 4.38D-01
 IDIUse=3 WtCom= 7.10D-01 WtEn= 2.90D-01
 Coeff-Com:  0.100D+01
 Coeff-En:   0.100D+01
 Coeff:      0.100D+01
 Gap=     0.515 Goal=   None    Shift=    0.000
 GapD=    0.515 DampG=2.000 DampE=0.500 DampFc=1.0000 IDamp=-1.
 RMSDP=1.62D-03 MaxDP=9.92D-02              OVMax= 1.14D-01

 Cycle   2  Pass 1  IDiag  1:
 E= -279.450410827713     Delta-E=       -0.081524436165 Rises=F Damp=F
 DIIS: error= 1.81D-02 at cycle   2 NSaved=   2.
 NSaved= 2 IEnMin= 2 EnMin= -279.450410827713     IErMin= 2 ErrMin= 1.81D-02
 ErrMax= 1.81D-02  0.00D+00 EMaxC= 1.00D-01 BMatC= 7.30D-02 BMatP= 4.38D-01
 IDIUse=3 WtCom= 8.19D-01 WtEn= 1.81D-01
 Coeff-Com:  0.197D+00 0.803D+00
 Coeff-En:   0.198D-02 0.998D+00
 Coeff:      0.162D+00 0.838D+00
 Gap=     0.530 Goal=   None    Shift=    0.000
 RMSDP=9.06D-04 MaxDP=3.72D-02 DE=-8.15D-02 OVMax= 7.00D-02

 Cycle   3  Pass 1  IDiag  1:
 E= -279.479958432553     Delta-E=       -0.029547604839 Rises=F Damp=F
 DIIS: error= 1.06D-02 at cycle   3 NSaved=   3.
 NSaved= 3 IEnMin= 3 EnMin= -279.479958432553     IErMin= 3 ErrMin= 1.06D-02
 ErrMax= 1.06D-02  0.00D+00 EMaxC= 1.00D-01 BMatC= 2.93D-02 BMatP= 7.30D-02
 IDIUse=3 WtCom= 8.94D-01 WtEn= 1.06D-01
 Coeff-Com: -0.332D-01 0.379D+00 0.655D+00
 Coeff-En:   0.000D+00 0.243D+00 0.757D+00
 Coeff:     -0.297D-01 0.364D+00 0.665D+00
 Gap=     0.511 Goal=   None    Shift=    0.000
 RMSDP=3.79D-04 MaxDP=1.52D-02 DE=-2.95D-02 OVMax= 3.85D-02

 Cycle   4  Pass 1  IDiag  1:
 E= -279.499409427367     Delta-E=       -0.019450994814 Rises=F Damp=F
 DIIS: error= 1.31D-03 at cycle   4 NSaved=   4.
 NSaved= 4 IEnMin= 4 EnMin= -279.499409427367     IErMin= 4 ErrMin= 1.31D-03
 ErrMax= 1.31D-03  0.00D+00 EMaxC= 1.00D-01 BMatC= 5.04D-04 BMatP= 2.93D-02
 IDIUse=3 WtCom= 9.87D-01 WtEn= 1.31D-02
 Coeff-Com: -0.119D-01 0.586D-01 0.161D+00 0.793D+00
 Coeff-En:   0.000D+00 0.000D+00 0.000D+00 0.100D+01
 Coeff:     -0.117D-01 0.578D-01 0.158D+00 0.795D+00
 Gap=     0.502 Goal=   None    Shift=    0.000
 RMSDP=9.03D-05 MaxDP=2.82D-03 DE=-1.95D-02 OVMax= 1.12D-02

 Cycle   5  Pass 1  IDiag  1:
 E= -279.500087590002     Delta-E=       -0.000678162635 Rises=F Damp=F
 DIIS: error= 7.44D-04 at cycle   5 NSaved=   5.
 NSaved= 5 IEnMin= 5 EnMin= -279.500087590002     IErMin= 5 ErrMin= 7.44D-04
 ErrMax= 7.44D-04  0.00D+00 EMaxC= 1.00D-01 BMatC= 8.78D-05 BMatP= 5.04D-04
 IDIUse=3 WtCom= 9.93D-01 WtEn= 7.44D-03
 Coeff-Com:  0.611D-02-0.721D-01-0.117D+00 0.246D-01 0.116D+01
 Coeff-En:   0.000D+00 0.000D+00 0.000D+00 0.000D+00 0.100D+01
 Coeff:      0.607D-02-0.715D-01-0.116D+00 0.244D-01 0.116D+01
 Gap=     0.502 Goal=   None    Shift=    0.000
 RMSDP=7.55D-05 MaxDP=2.08D-03 DE=-6.78D-04 OVMax= 1.09D-02

 Cycle   6  Pass 1  IDiag  1:
 E= -279.500400448644     Delta-E=       -0.000312858642 Rises=F Damp=F
 DIIS: error= 2.94D-04 at cycle   6 NSaved=   6.
 NSaved= 6 IEnMin= 6 EnMin= -279.500400448644     IErMin= 6 ErrMin= 2.94D-04
 ErrMax= 2.94D-04  0.00D+00 EMaxC= 1.00D-01 BMatC= 1.69D-05 BMatP= 8.78D-05
 IDIUse=3 WtCom= 9.97D-01 WtEn= 2.94D-03
 Coeff-Com:  0.773D-03-0.612D-03 0.625D-03-0.126D+00-0.200D+00 0.133D+01
 Coeff-En:   0.000D+00 0.000D+00 0.000D+00 0.000D+00 0.000D+00 0.100D+01
 Coeff:      0.771D-03-0.610D-03 0.623D-03-0.126D+00-0.200D+00 0.132D+01
 Gap=     0.503 Goal=   None    Shift=    0.000
 RMSDP=4.45D-05 MaxDP=1.24D-03 DE=-3.13D-04 OVMax= 5.42D-03

 Cycle   7  Pass 1  IDiag  1:
 E= -279.500472447293     Delta-E=       -0.000071998649 Rises=F Damp=F
 DIIS: error= 1.29D-04 at cycle   7 NSaved=   7.
 NSaved= 7 IEnMin= 7 EnMin= -279.500472447293     IErMin= 7 ErrMin= 1.29D-04
 ErrMax= 1.29D-04  0.00D+00 EMaxC= 1.00D-01 BMatC= 5.17D-06 BMatP= 1.69D-05
 IDIUse=3 WtCom= 9.99D-01 WtEn= 1.29D-03
 Coeff-Com: -0.944D-03 0.139D-01 0.269D-01-0.294D-01-0.304D+00 0.444D+00
 Coeff-Com:  0.849D+00
 Coeff-En:   0.000D+00 0.000D+00 0.000D+00 0.000D+00 0.000D+00 0.000D+00
 Coeff-En:   0.100D+01
 Coeff:     -0.943D-03 0.139D-01 0.269D-01-0.294D-01-0.303D+00 0.444D+00
 Coeff:      0.849D+00
 Gap=     0.503 Goal=   None    Shift=    0.000
 RMSDP=1.37D-05 MaxDP=3.84D-04 DE=-7.20D-05 OVMax= 1.58D-03

 Cycle   8  Pass 1  IDiag  1:
 E= -279.500482183252     Delta-E=       -0.000009735959 Rises=F Damp=F
 DIIS: error= 5.44D-05 at cycle   8 NSaved=   8.
 NSaved= 8 IEnMin= 8 EnMin= -279.500482183252     IErMin= 8 ErrMin= 5.44D-05
 ErrMax= 5.44D-05  0.00D+00 EMaxC= 1.00D-01 BMatC= 6.08D-07 BMatP= 5.17D-06
 IDIUse=1 WtCom= 1.00D+00 WtEn= 0.00D+00
 Coeff-Com: -0.447D-03 0.342D-02 0.752D-02 0.275D-01-0.408D-01-0.193D+00
 Coeff-Com:  0.110D+00 0.109D+01
 Coeff:     -0.447D-03 0.342D-02 0.752D-02 0.275D-01-0.408D-01-0.193D+00
 Coeff:      0.110D+00 0.109D+01
 Gap=     0.502 Goal=   None    Shift=    0.000
 RMSDP=7.29D-06 MaxDP=2.12D-04 DE=-9.74D-06 OVMax= 7.88D-04

 Cycle   9  Pass 1  IDiag  1:
 E= -279.500484093538     Delta-E=       -0.000001910286 Rises=F Damp=F
 DIIS: error= 1.59D-05 at cycle   9 NSaved=   9.
 NSaved= 9 IEnMin= 9 EnMin= -279.500484093538     IErMin= 9 ErrMin= 1.59D-05
 ErrMax= 1.59D-05  0.00D+00 EMaxC= 1.00D-01 BMatC= 6.71D-08 BMatP= 6.08D-07
 IDIUse=1 WtCom= 1.00D+00 WtEn= 0.00D+00
 Coeff-Com:  0.123D-03-0.172D-02-0.306D-02-0.195D-02 0.342D-01 0.279D-03
 Coeff-Com: -0.148D+00-0.133D+00 0.125D+01
 Coeff:      0.123D-03-0.172D-02-0.306D-02-0.195D-02 0.342D-01 0.279D-03
 Coeff:     -0.148D+00-0.133D+00 0.125D+01
 Gap=     0.502 Goal=   None    Shift=    0.000
 RMSDP=1.94D-06 MaxDP=6.63D-05 DE=-1.91D-06 OVMax= 1.73D-04

 Cycle  10  Pass 1  IDiag  1:
 E= -279.500484253330     Delta-E=       -0.000000159792 Rises=F Damp=F
 DIIS: error= 4.09D-06 at cycle  10 NSaved=  10.
 NSaved=10 IEnMin=10 EnMin= -279.500484253330     IErMin=10 ErrMin= 4.09D-06
 ErrMax= 4.09D-06  0.00D+00 EMaxC= 1.00D-01 BMatC= 5.54D-09 BMatP= 6.71D-08
 IDIUse=1 WtCom= 1.00D+00 WtEn= 0.00D+00
 Coeff-Com:  0.301D-04-0.232D-03-0.304D-03-0.266D-02 0.137D-02 0.194D-01
 Coeff-Com: -0.824D-02-0.775D-01-0.841D-01 0.115D+01
 Coeff:      0.301D-04-0.232D-03-0.304D-03-0.266D-02 0.137D-02 0.194D-01
 Coeff:     -0.824D-02-0.775D-01-0.841D-01 0.115D+01
 Gap=     0.502 Goal=   None    Shift=    0.000
 RMSDP=5.07D-07 MaxDP=2.11D-05 DE=-1.60D-07 OVMax= 4.13D-05

 Cycle  11  Pass 1  IDiag  1:
 E= -279.500484265888     Delta-E=       -0.000000012558 Rises=F Damp=F
 DIIS: error= 2.01D-06 at cycle  11 NSaved=  11.
 NSaved=11 IEnMin=11 EnMin= -279.500484265888     IErMin=11 ErrMin= 2.01D-06
 ErrMax= 2.01D-06  0.00D+00 EMaxC= 1.00D-01 BMatC= 6.51D-10 BMatP= 5.54D-09
 IDIUse=1 WtCom= 1.00D+00 WtEn= 0.00D+00
 Coeff-Com: -0.212D-04 0.243D-03 0.482D-03 0.512D-03-0.428D-02-0.335D-02
 Coeff-Com:  0.176D-01 0.352D-01-0.138D+00-0.179D+00 0.127D+01
 Coeff:     -0.212D-04 0.243D-03 0.482D-03 0.512D-03-0.428D-02-0.335D-02
 Coeff:      0.176D-01 0.352D-01-0.138D+00-0.179D+00 0.127D+01
 Gap=     0.502 Goal=   None    Shift=    0.000
 RMSDP=1.77D-07 MaxDP=6.46D-06 DE=-1.26D-08 OVMax= 1.74D-05

 Cycle  12  Pass 1  IDiag  1:
 E= -279.500484267678     Delta-E=       -0.000000001790 Rises=F Damp=F
 DIIS: error= 5.83D-07 at cycle  12 NSaved=  12.
 NSaved=12 IEnMin=12 EnMin= -279.500484267678     IErMin=12 ErrMin= 5.83D-07
 ErrMax= 5.83D-07  0.00D+00 EMaxC= 1.00D-01 BMatC= 7.15D-11 BMatP= 6.51D-10
 IDIUse=1 WtCom= 1.00D+00 WtEn= 0.00D+00
 Coeff-Com:  0.123D-05-0.292D-04-0.625D-04 0.187D-03 0.109D-02-0.226D-02
 Coeff-Com: -0.408D-02 0.515D-02 0.418D-01-0.115D+00-0.276D+00 0.135D+01
 Coeff:      0.123D-05-0.292D-04-0.625D-04 0.187D-03 0.109D-02-0.226D-02
 Coeff:     -0.408D-02 0.515D-02 0.418D-01-0.115D+00-0.276D+00 0.135D+01
 Gap=     0.502 Goal=   None    Shift=    0.000
 RMSDP=7.16D-08 MaxDP=2.83D-06 DE=-1.79D-09 OVMax= 6.73D-06

 Cycle  13  Pass 1  IDiag  1:
 E= -279.500484267907     Delta-E=       -0.000000000229 Rises=F Damp=F
 DIIS: error= 1.74D-07 at cycle  13 NSaved=  13.
 NSaved=13 IEnMin=13 EnMin= -279.500484267907     IErMin=13 ErrMin= 1.74D-07
 ErrMax= 1.74D-07  0.00D+00 EMaxC= 1.00D-01 BMatC= 4.09D-12 BMatP= 7.15D-11
 IDIUse=1 WtCom= 1.00D+00 WtEn= 0.00D+00
 Coeff-Com:  0.129D-05-0.141D-04-0.226D-04-0.879D-04 0.121D-03 0.738D-03
 Coeff-Com: -0.619D-03-0.348D-02 0.574D-03 0.416D-01-0.381D-01-0.324D+00
 Coeff-Com:  0.132D+01
 Coeff:      0.129D-05-0.141D-04-0.226D-04-0.879D-04 0.121D-03 0.738D-03
 Coeff:     -0.619D-03-0.348D-02 0.574D-03 0.416D-01-0.381D-01-0.324D+00
 Coeff:      0.132D+01
 Gap=     0.502 Goal=   None    Shift=    0.000
 RMSDP=1.93D-08 MaxDP=5.63D-07 DE=-2.29D-10 OVMax= 1.60D-06

 Cycle  14  Pass 1  IDiag  1:
 E= -279.500484267920     Delta-E=       -0.000000000012 Rises=F Damp=F
 DIIS: error= 2.56D-08 at cycle  14 NSaved=  14.
 NSaved=14 IEnMin=14 EnMin= -279.500484267920     IErMin=14 ErrMin= 2.56D-08
 ErrMax= 2.56D-08  0.00D+00 EMaxC= 1.00D-01 BMatC= 2.12D-13 BMatP= 4.09D-12
 IDIUse=1 WtCom= 1.00D+00 WtEn= 0.00D+00
 Coeff-Com: -0.195D-06 0.320D-05 0.567D-05 0.447D-05-0.848D-04 0.474D-04
 Coeff-Com:  0.256D-03 0.273D-03-0.250D-02 0.148D-02 0.175D-01-0.259D-01
 Coeff-Com: -0.206D+00 0.122D+01
 Coeff:     -0.195D-06 0.320D-05 0.567D-05 0.447D-05-0.848D-04 0.474D-04
 Coeff:      0.256D-03 0.273D-03-0.250D-02 0.148D-02 0.175D-01-0.259D-01
 Coeff:     -0.206D+00 0.122D+01
 Gap=     0.502 Goal=   None    Shift=    0.000
 RMSDP=3.93D-09 MaxDP=9.19D-08 DE=-1.24D-11 OVMax= 3.61D-07

 SCF Done:  E(RHF) =  -279.500484268     A.U. after   14 cycles
            NFock= 14  Conv=0.39D-08     -V/T= 2.0024
 KE= 2.788227363546D+02 PE=-8.943953992322D+02 EE= 2.195305045359D+02
 Leave Link  502 at Mon Feb 21 20:06:35 2022, MaxMem= 16106127360 cpu:              55.7 elap:               3.7
 (Enter /sw/contrib/gaussian/g16/B01/g16/l801.exe)
 ExpMin= 2.53D-02 ExpMax= 1.53D+04 ExpMxC= 5.22D+02 IAcc=3 IRadAn=         5 AccDes= 0.00D+00
 HarFok:  IExCor=  205 AccDes= 0.00D+00 IRadAn=         5 IDoV=-2 UseB2=F ITyADJ=14
 ICtDFT= 12500011 ScaDFX=  1.000000  1.000000  1.000000  1.000000
 Largest valence mixing into a core orbital is  2.08D-04
 Largest core mixing into a valence orbital is  3.64D-05
 Range of M.O.s used for correlation:     5   207
 NBasis=   207 NAE=    16 NBE=    16 NFC=     4 NFV=     0
 NROrb=    203 NOA=    12 NOB=    12 NVA=   191 NVB=   191

 **** Warning!!: The largest alpha MO coefficient is  0.17570638D+02

 Leave Link  801 at Mon Feb 21 20:06:35 2022, MaxMem= 16106127360 cpu:               3.1 elap:               0.2
 (Enter /sw/contrib/gaussian/g16/B01/g16/l906.exe)
 Frozen-core derivative calculation, NFC=   4 NFV=   0.
 FulOut=F Deriv=T AODrv=T NAtomX=     5
   MMem=           0  MDisk=          12 MDiskD=          12
  W3Min=      811440 MinDsk=     2425030 NBas6D=         245
 NBas2D=       30762    NTT=       30135    LW2=     7400000
    MDV= 16105574339 MDiskM=      328644 NBas2p=       30702
 Disk-based method using ON**2 memory for 12 occupieds at a time.
 Permanent disk used for amplitudes=    11516536 words.
 Estimated scratch disk usage=   321251614 words.
 IMap=   1   2   3   4   5   6   7   8   9  10  11  12  13  14  15  16
 Actual    scratch disk usage=   310331678 words.
 JobTyp=1 Pass  1:  I=   5 to  16 NPSUse= 28 ParTrn=T ParDer=T DoDerP=T.
 (rs|ai) integrals will be sorted in core.
 Spin components of T(2) and E(2):
     alpha-alpha T2 =       0.3415172297D-01 E2=     -0.1224900021D+00
     alpha-beta  T2 =       0.1878331662D+00 E2=     -0.7011754312D+00
     beta-beta   T2 =       0.3415172297D-01 E2=     -0.1224900021D+00
 The integrals were generated   1 times.
 ANorm=    0.1120775005D+01
 E2 =    -0.9461554354D+00 EUMP2 =    -0.28044663970329D+03
 Leave Link  906 at Mon Feb 21 20:08:13 2022, MaxMem= 16106127360 cpu:            2731.8 elap:              97.7
 (Enter /sw/contrib/gaussian/g16/B01/g16/l1101.exe)
 Using compressed Sx but separate Hx and Fx, NAtomX=     5.
 Will process      6 centers per pass.
 Leave Link 1101 at Mon Feb 21 20:08:13 2022, MaxMem= 16106127360 cpu:               5.1 elap:               0.2
 (Enter /sw/contrib/gaussian/g16/B01/g16/l1102.exe)
 Leave Link 1102 at Mon Feb 21 20:08:13 2022, MaxMem= 16106127360 cpu:               1.3 elap:               0.1
 (Enter /sw/contrib/gaussian/g16/B01/g16/l1110.exe)
 Forming Gx(P) for the SCF density, NAtomX=     5.
 Integral derivatives from FoFJK, PRISM(SPDF).
 Do as many integral derivatives as possible in FoFJK.
 G2DrvN: MDV=   16106126844.
 G2DrvN: will do     6 centers at a time, making    1 passes.
 Calling FoFCou, ICntrl=  3107 FMM=F I1Cent=   0 AccDes= 0.00D+00.
 FoFJK:  IHMeth= 1 ICntrl=    3107 DoSepK=F KAlg= 0 I1Cent=           0 FoldK=F
 IRaf=         0 NMat=       1 IRICut=       1 DoRegI=T DoRafI=F ISym2E= 1 IDoP0=0 IntGTp=1.
 FoFCou: FMM=F IPFlag=           0 FMFlag=      100000 FMFlg1=           0
         NFxFlg=           0 DoJE=F BraDBF=F KetDBF=F FulRan=T
         wScrn=  0.000000 ICntrl=      3107 IOpCl=  0 I1Cent=           0 NGrid=           0
         NMat0=    1 NMatS0=      1 NMatT0=    0 NMatD0=    1 NMtDS0=    0 NMtDT0=    0
 Petite list used in FoFCou.
 End of G2Drv F.D. properties file   721 does not exist.
 End of G2Drv F.D. properties file   722 does not exist.
 End of G2Drv F.D. properties file   788 does not exist.
 Leave Link 1110 at Mon Feb 21 20:08:16 2022, MaxMem= 16106127360 cpu:              83.7 elap:               3.0
 (Enter /sw/contrib/gaussian/g16/B01/g16/l1002.exe)
 Minotr:  Closed shell wavefunction.
          IDoAtm=11111
          Frozen-core window.
          Direct CPHF calculation.
          Differentiating once with respect to electric field.
                with respect to dipole field.
          Differentiating once with respect to nuclear coordinates.
          Requested convergence is 1.0D-08 RMS, and 1.0D-07 maximum.
          Secondary convergence is 1.0D-12 RMS, and 1.0D-12 maximum.
          NewPWx=T KeepS1=T KeepF1=T KeepIn=T MapXYZ=F SortEE=F KeepMc=T.
 Keep R1 ints in memory in symmetry-blocked form, NReq=348888983.
 FoFCou: FMM=F IPFlag=           0 FMFlag=           0 FMFlg1=           0
         NFxFlg=           0 DoJE=F BraDBF=F KetDBF=F FulRan=T
         wScrn=  0.000000 ICntrl=       600 IOpCl=  0 I1Cent=           0 NGrid=           0
         NMat0=    1 NMatS0=  21528 NMatT0=    0 NMatD0=    1 NMtDS0=    0 NMtDT0=    0
 Petite list used in FoFCou.
          MDV=   16106127360 using IRadAn=       1.
          Solving linear equations simultaneously, MaxMat=       0.
          There are    18 degrees of freedom in the 1st order CPHF.  IDoFFX=6 NUNeed=    18.
     15 vectors produced by pass  0 Test12= 1.70D-14 5.56D-09 XBig12= 8.46D+00 9.78D-01.
 AX will form    15 AO Fock derivatives at one time.
     15 vectors produced by pass  1 Test12= 1.70D-14 5.56D-09 XBig12= 1.37D+00 2.67D-01.
     15 vectors produced by pass  2 Test12= 1.70D-14 5.56D-09 XBig12= 1.44D-01 9.58D-02.
     15 vectors produced by pass  3 Test12= 1.70D-14 5.56D-09 XBig12= 5.01D-03 1.06D-02.
     15 vectors produced by pass  4 Test12= 1.70D-14 5.56D-09 XBig12= 9.95D-05 1.90D-03.
     15 vectors produced by pass  5 Test12= 1.70D-14 5.56D-09 XBig12= 1.41D-06 1.77D-04.
     15 vectors produced by pass  6 Test12= 1.70D-14 5.56D-09 XBig12= 1.12D-08 1.50D-05.
     12 vectors produced by pass  7 Test12= 1.70D-14 5.56D-09 XBig12= 8.24D-11 1.28D-06.
      3 vectors produced by pass  8 Test12= 1.70D-14 5.56D-09 XBig12= 5.83D-13 1.22D-07.
      2 vectors produced by pass  9 Test12= 1.70D-14 5.56D-09 XBig12= 3.84D-15 1.04D-08.
 InvSVY:  IOpt=1 It=  1 EMax= 9.99D-16
 Solved reduced A of dimension   122 with    15 vectors.
 FullF1:  Do perturbations      1 to      18.
 Saving first derivative matrices.
 End of Minotr F.D. properties file   721 does not exist.
 End of Minotr F.D. properties file   722 does not exist.
 End of Minotr F.D. properties file   788 does not exist.
 Leave Link 1002 at Mon Feb 21 20:08:19 2022, MaxMem= 16106127360 cpu:              79.8 elap:               2.9
 (Enter /sw/contrib/gaussian/g16/B01/g16/l811.exe)
 MDV= 16106127360.
 Form MO integral derivatives with frozen-active canonical formalism.
 MOERI=1 MOERIx=1 NAtoms=     5 NAtomX=     5.
 Discarding MO integrals.
 MO basis two electron integral derivatives will not be stored on disk.
 IAlg= 3 DoFC=T DoPWx=T Debug=F.
 Frozen-core window:  NFC=   4 NFV=   0.
 Reordered first order wavefunction length =     18678272
 In DefCFB: NBatch=  1 ICI= 16 ICA=191 LFMax= 96
            Large arrays: LIAPS=   619940160 LIARS=   288257200 words.
 In StABat: MaxSiz= 55 MinSiz= 25 NAtomB=  5
 DoIAMN: NPSUse= 28.
 Leave Link  811 at Mon Feb 21 20:09:40 2022, MaxMem= 16106127360 cpu:            2261.1 elap:              81.0
 (Enter /sw/contrib/gaussian/g16/B01/g16/l804.exe)
 Frozen-core window:  NFC=   4 NFV=   0.
 Closed-shell transformation, MDV= 16106127360 ITran=4 ISComp=1.
 Semi-Direct transformation.
 ModeAB=           2 MOrb=            16 LenV=   16104923065
 LASXX=     67341636 LTotXX=    67341636 LenRXX=    67341636
 LTotAB=    68301760 MaxLAS=    99807120 LenRXY=    99807120
 NonZer=   134683272 LenScr=   202817536 LnRSAI=           0
 LnScr1=           0 LExtra=           0 Total=    369966292
 MaxDsk=          -1 SrtSym=           F ITran=            4
 DoSDTr:  NPSUse= 28
 JobTyp=0 Pass  1:  I=   1 to  16.
 (rs|ai) integrals will be sorted in core.
 Complete sort for first half transformation.
 First half transformation complete.
 Begin second half transformation for I=  10.
 Begin second half transformation for I=  10.
 Complete sort for second half transformation.
 Second half transformation complete.
 Spin components of T(2) and E(2):
     alpha-alpha T2 =       0.3415172297D-01 E2=     -0.1224900021D+00
     alpha-beta  T2 =       0.1878331662D+00 E2=     -0.7011754312D+00
     beta-beta   T2 =       0.3415172297D-01 E2=     -0.1224900021D+00
 ANorm=    0.1585015213D+01
 E2 =    -0.9461554354D+00 EUMP2 =    -0.28044663970329D+03
 Leave Link  804 at Mon Feb 21 20:09:55 2022, MaxMem= 16106127360 cpu:             432.3 elap:              15.5
 (Enter /sw/contrib/gaussian/g16/B01/g16/l1002.exe)
 Minotr:  Closed shell wavefunction.
          Computing MP2/KS-MP2 derivatives.
          Using Z-Vector for PSCF gradient.
          Skipping F1 and S1 gradient terms here.
          IDoAtm=11111
          Frozen-core window.
          Using MO integrals in the linear equations.
          Forming densities via direct SCF.
          Differentiating once with respect to electric field.
                with respect to dipole field.
          Differentiating once with respect to nuclear coordinates.
          Using symmetry in CPHF.
          Requested convergence is 1.0D-10 RMS, and 1.0D-09 maximum.
          NewPWx=F KeepS1=T KeepF1=T KeepIn=T MapXYZ=F SortEE=F KeepMc=T.
          MDV=   16106127360 using IRadAn=       5.
          Solving linear equations separately, MaxMat=       0.
          There are     1 degrees of freedom in the 1st order CPHF.  IDoFFX=0 NUNeed=     1.
 FoFJK:  IHMeth= 1 ICntrl=       0 DoSepK=F KAlg= 0 I1Cent=           0 FoldK=F
 IRaf=         0 NMat=       1 IRICut=       1 DoRegI=T DoRafI=F ISym2E= 0 IDoP0=0 IntGTp=1.
 FoFCou: FMM=F IPFlag=           0 FMFlag=      100000 FMFlg1=           0
         NFxFlg=           0 DoJE=F BraDBF=F KetDBF=F FulRan=T
         wScrn=  0.000000 ICntrl=         0 IOpCl=  0 I1Cent=           0 NGrid=           0
         NMat0=    1 NMatS0=      1 NMatT0=    0 NMatD0=    1 NMtDS0=    0 NMtDT0=    0
 Symmetry not used in FoFCou.
 LinEq1:  Iter=  0 NonCon=     1 RMS=5.98D-03 Max=1.34D-01 NDo=     1
 LinEq1:  Iter=  1 NonCon=     1 RMS=1.91D-03 Max=3.80D-02 NDo=     1
 LinEq1:  Iter=  2 NonCon=     1 RMS=8.71D-04 Max=1.43D-02 NDo=     1
 LinEq1:  Iter=  3 NonCon=     1 RMS=3.87D-04 Max=7.75D-03 NDo=     1
 LinEq1:  Iter=  4 NonCon=     1 RMS=1.19D-04 Max=1.88D-03 NDo=     1
 LinEq1:  Iter=  5 NonCon=     1 RMS=4.42D-05 Max=7.01D-04 NDo=     1
 LinEq1:  Iter=  6 NonCon=     1 RMS=2.01D-05 Max=2.14D-04 NDo=     1
 LinEq1:  Iter=  7 NonCon=     1 RMS=8.17D-06 Max=1.46D-04 NDo=     1
 LinEq1:  Iter=  8 NonCon=     1 RMS=3.50D-06 Max=3.40D-05 NDo=     1
 LinEq1:  Iter=  9 NonCon=     1 RMS=9.54D-07 Max=1.33D-05 NDo=     1
 LinEq1:  Iter= 10 NonCon=     1 RMS=1.88D-07 Max=2.06D-06 NDo=     1
 LinEq1:  Iter= 11 NonCon=     1 RMS=3.49D-08 Max=3.40D-07 NDo=     1
 LinEq1:  Iter= 12 NonCon=     1 RMS=8.48D-09 Max=1.11D-07 NDo=     1
 LinEq1:  Iter= 13 NonCon=     1 RMS=1.56D-09 Max=2.17D-08 NDo=     1
 LinEq1:  Iter= 14 NonCon=     1 RMS=2.84D-10 Max=3.99D-09 NDo=     1
 LinEq1:  Iter= 15 NonCon=     0 RMS=5.15D-11 Max=5.24D-10 NDo=     1
 Linear equations converged to 1.000D-10 1.000D-09 after    15 iterations.
 End of Minotr F.D. properties file   721 does not exist.
 End of Minotr F.D. properties file   722 does not exist.
 End of Minotr F.D. properties file   788 does not exist.
 Leave Link 1002 at Mon Feb 21 20:09:58 2022, MaxMem= 16106127360 cpu:              65.0 elap:               2.4
 (Enter /sw/contrib/gaussian/g16/B01/g16/l1102.exe)
 Use density number 2.
 Symmetrizing basis deriv contribution to polar:
 IMax=3 JMax=2 DiffMx= 0.00D+00
 Leave Link 1102 at Mon Feb 21 20:09:58 2022, MaxMem= 16106127360 cpu:               0.6 elap:               0.0
 (Enter /sw/contrib/gaussian/g16/B01/g16/l1110.exe)
 Forming Gx(P) for generalized density number  2 NAtomX=     5.
 Integral derivatives from FoFJK, PRISM(SPDF).
 Do as many integral derivatives as possible in FoFJK.
 G2DrvN: MDV=   16106126844.
 G2DrvN: will do     6 centers at a time, making    1 passes.
 Calling FoFCou, ICntrl=  3107 FMM=F I1Cent=   0 AccDes= 0.00D+00.
 FoFJK:  IHMeth= 1 ICntrl=    3107 DoSepK=F KAlg= 0 I1Cent=           0 FoldK=F
 IRaf=         0 NMat=       1 IRICut=       1 DoRegI=T DoRafI=F ISym2E= 1 IDoP0=0 IntGTp=1.
 FoFCou: FMM=F IPFlag=           0 FMFlag=      100000 FMFlg1=           0
         NFxFlg=           0 DoJE=F BraDBF=F KetDBF=F FulRan=T
         wScrn=  0.000000 ICntrl=      3107 IOpCl=  0 I1Cent=           0 NGrid=           0
         NMat0=    1 NMatS0=      1 NMatT0=    0 NMatD0=    1 NMtDS0=    0 NMtDT0=    0
 Petite list used in FoFCou.
 End of G2Drv F.D. properties file   721 does not exist.
 End of G2Drv F.D. properties file   722 does not exist.
 End of G2Drv F.D. properties file   788 does not exist.
 Leave Link 1110 at Mon Feb 21 20:10:01 2022, MaxMem= 16106127360 cpu:              84.1 elap:               3.0
 (Enter /sw/contrib/gaussian/g16/B01/g16/l1112.exe)
 MP22nd: MDV=   16106127360
 This link is doing NAtomX=     5 total of    18 degrees of freedom.
 Using ON3 I/O method in MakUI.
 Frozen-core window:  NFC=   4 NFV=   0.
 Using Ix for Sx.
 Use MO integrals over full window.
 Using OV2 memory method for fx*t*t/D, MaxI=    16 DoOO2=F NP=  28.
 R2 and R3 integrals will be kept in memory, NReq=   915591705.
 FoFCou: FMM=F IPFlag=           0 FMFlag=           0 FMFlg1=           0
         NFxFlg=           0 DoJE=F BraDBF=F KetDBF=F FulRan=T
         wScrn=  0.000000 ICntrl=       600 IOpCl=  0 I1Cent=           0 NGrid=           0
         NMat0=    1 NMatS0=      1 NMatT0=    0 NMatD0=    1 NMtDS0=    0 NMtDT0=    0
 Symmetry not used in FoFCou.
 DD1Dir will call FoFMem   1 times, MxPair=       272
 NAB=   136 NAA=     0 NBB=     0.
 Symmetry is being used.
 FoFJK:  IHMeth= 1 ICntrl=       0 DoSepK=F KAlg= 0 I1Cent=           0 FoldK=F
 IRaf=         0 NMat=      18 IRICut=      45 DoRegI=T DoRafI=T ISym2E= 2 IDoP0=3 IntGTp=3.
 Discarding MO integrals.
 Leave Link 1112 at Mon Feb 21 20:10:40 2022, MaxMem= 16106127360 cpu:            1064.6 elap:              38.5
 (Enter /sw/contrib/gaussian/g16/B01/g16/l601.exe)
 Copying SCF densities to generalized density rwf, IOpCl= 0 IROHF=0.

 **********************************************************************

            Population analysis using the MP2 Density.

 **********************************************************************

 Orbital symmetries:
       Occupied  (A') (A') (A') (A') (A') (A') (A') (A') (A') (A')
                 (A") (A') (A") (A') (A") (A')
       Virtual   (A') (A") (A') (A') (A') (A") (A') (A') (A") (A')
                 (A") (A') (A') (A') (A") (A') (A') (A") (A') (A')
                 (A') (A') (A') (A') (A") (A') (A') (A") (A') (A')
                 (A") (A') (A") (A') (A') (A") (A') (A') (A") (A')
                 (A") (A') (A") (A') (A') (A") (A') (A') (A") (A')
                 (A") (A') (A') (A') (A") (A') (A") (A') (A") (A')
                 (A') (A') (A") (A') (A') (A") (A') (A") (A') (A')
                 (A") (A') (A') (A") (A") (A') (A') (A") (A') (A')
                 (A') (A") (A') (A") (A') (A") (A') (A") (A') (A')
                 (A") (A') (A') (A") (A') (A") (A') (A") (A') (A')
                 (A") (A') (A") (A') (A') (A") (A') (A') (A") (A')
                 (A") (A') (A') (A') (A") (A') (A') (A') (A") (A')
                 (A") (A') (A") (A') (A') (A") (A") (A') (A") (A')
                 (A') (A') (A') (A") (A") (A") (A') (A') (A') (A')
                 (A") (A') (A") (A') (A') (A") (A') (A') (A') (A')
                 (A") (A') (A') (A") (A') (A") (A') (A") (A") (A')
                 (A') (A") (A') (A") (A') (A") (A") (A') (A") (A')
                 (A") (A') (A") (A') (A") (A') (A") (A") (A') (A')
                 (A') (A') (A') (A') (A') (A') (A') (A') (A') (A')
                 (A')
 The electronic state is 1-A'.
 Alpha  occ. eigenvalues --  -20.69164 -20.68453 -20.66114 -15.81310  -1.62366
 Alpha  occ. eigenvalues --   -1.49047  -1.25680  -0.94788  -0.77140  -0.75812
 Alpha  occ. eigenvalues --   -0.71062  -0.67937  -0.61917  -0.58754  -0.48761
 Alpha  occ. eigenvalues --   -0.47280
 Alpha virt. eigenvalues --    0.02960   0.07166   0.08559   0.10165   0.13325
 Alpha virt. eigenvalues --    0.13397   0.14401   0.15447   0.17829   0.19430
 Alpha virt. eigenvalues --    0.19986   0.20621   0.21832   0.23062   0.23727
 Alpha virt. eigenvalues --    0.26596   0.29333   0.30377   0.31015   0.34266
 Alpha virt. eigenvalues --    0.34922   0.38703   0.42135   0.43142   0.52712
 Alpha virt. eigenvalues --    0.52898   0.55828   0.58127   0.62570   0.63839
 Alpha virt. eigenvalues --    0.67454   0.68461   0.70529   0.71153   0.72339
 Alpha virt. eigenvalues --    0.72973   0.74479   0.79061   0.79190   0.81032
 Alpha virt. eigenvalues --    0.81248   0.82966   0.86809   0.90694   0.92172
 Alpha virt. eigenvalues --    0.92518   0.95713   0.97683   0.98375   1.01641
 Alpha virt. eigenvalues --    1.05104   1.05512   1.08111   1.11620   1.13920
 Alpha virt. eigenvalues --    1.18856   1.22077   1.23169   1.33847   1.34963
 Alpha virt. eigenvalues --    1.38609   1.45305   1.48802   1.50989   1.53724
 Alpha virt. eigenvalues --    1.56586   1.57888   1.61243   1.66179   1.66894
 Alpha virt. eigenvalues --    1.70307   1.79146   1.83035   1.83442   1.87696
 Alpha virt. eigenvalues --    1.90898   1.95600   1.99052   2.00711   2.07694
 Alpha virt. eigenvalues --    2.11795   2.13181   2.14724   2.22380   2.26168
 Alpha virt. eigenvalues --    2.26375   2.28876   2.31287   2.34023   2.38767
 Alpha virt. eigenvalues --    2.42224   2.42669   2.45317   2.46303   2.47511
 Alpha virt. eigenvalues --    2.49991   2.58775   2.59477   2.61664   2.62262
 Alpha virt. eigenvalues --    2.63082   2.66342   2.75666   2.82392   2.85191
 Alpha virt. eigenvalues --    2.87761   2.88727   2.91975   2.95477   3.01595
 Alpha virt. eigenvalues --    3.06830   3.12444   3.18815   3.22259   3.31177
 Alpha virt. eigenvalues --    3.34646   3.51232   3.64123   3.83827   3.84125
 Alpha virt. eigenvalues --    4.14630   4.15864   4.18168   4.25596   4.34845
 Alpha virt. eigenvalues --    4.39019   4.45072   4.52125   4.65983   4.70352
 Alpha virt. eigenvalues --    4.80374   4.82399   4.83026   4.89461   5.02220
 Alpha virt. eigenvalues --    5.07700   5.10061   5.14468   5.17855   5.24069
 Alpha virt. eigenvalues --    5.27205   5.30784   5.32775   5.35192   5.59862
 Alpha virt. eigenvalues --    5.67342   5.76566   5.80524   5.95268   6.16576
 Alpha virt. eigenvalues --    6.32987   6.33622   6.39753   6.49470   6.50558
 Alpha virt. eigenvalues --    6.61678   6.67674   6.70114   6.75755   6.75866
 Alpha virt. eigenvalues --    6.83219   6.89708   7.00268   7.03775   7.04628
 Alpha virt. eigenvalues --    7.08055   7.12275   7.14094   7.17732   7.22155
 Alpha virt. eigenvalues --    7.23828   7.30484   7.32468   7.34744   7.39613
 Alpha virt. eigenvalues --    7.41503   7.48318   7.59801   7.61314   7.62034
 Alpha virt. eigenvalues --    7.66085   7.77585   7.88359   8.07068   8.29691
 Alpha virt. eigenvalues --    8.39449   8.54466  13.35175  14.37706  15.14726
 Alpha virt. eigenvalues --   16.15072
          Condensed to atoms (all electrons):
               1          2          3          4          5
     1  H    0.588659   0.128057   0.020735   0.012118  -0.000596
     2  O    0.128057   8.305586  -0.157287  -0.088231   0.015078
     3  O    0.020735  -0.157287   8.454046  -0.131415  -0.038235
     4  N    0.012118  -0.088231  -0.131415   6.969992  -0.055297
     5  O   -0.000596   0.015078  -0.038235  -0.055297   8.271866
 Mulliken charges:
               1
     1  H    0.251028
     2  O   -0.203203
     3  O   -0.147844
     4  N    0.292834
     5  O   -0.192816
 Sum of Mulliken charges =  -0.00000
 Mulliken charges with hydrogens summed into heavy atoms:
               1
     2  O    0.047826
     3  O   -0.147844
     4  N    0.292834
     5  O   -0.192816
 APT charges:
               1
     1  H    0.298287
     2  O   -0.288952
     3  O   -0.495667
     4  N    0.877313
     5  O   -0.390980
 Sum of APT charges =  -0.00000
 APT charges with hydrogens summed into heavy atoms:
               1
     2  O    0.009335
     3  O   -0.495667
     4  N    0.877313
     5  O   -0.390980
 Electronic spatial extent (au):  <R**2>=            254.1870
 Charge=             -0.0000 electrons
 Dipole moment (field-independent basis, Debye):
    X=              0.5107    Y=              1.3488    Z=             -0.0000  Tot=              1.4423
 Quadrupole moment (field-independent basis, Debye-Ang):
   XX=            -22.3950   YY=            -18.6652   ZZ=            -22.0290
   XY=              3.2980   XZ=             -0.0000   YZ=              0.0000
 Traceless Quadrupole moment (field-independent basis, Debye-Ang):
   XX=             -1.3652   YY=              2.3645   ZZ=             -0.9993
   XY=              3.2980   XZ=             -0.0000   YZ=              0.0000
 Octapole moment (field-independent basis, Debye-Ang**2):
  XXX=              3.0580  YYY=             11.1155  ZZZ=             -0.0000  XYY=              7.9242
  XXY=              6.7132  XXZ=             -0.0000  XZZ=             -1.6052  YZZ=             -0.8637
  YYZ=             -0.0000  XYZ=             -0.0000
 Hexadecapole moment (field-independent basis, Debye-Ang**3):
 XXXX=           -160.4763 YYYY=            -89.1377 ZZZZ=            -18.2777 XXXY=            -36.3754
 XXXZ=             -0.0000 YYYX=            -30.8048 YYYZ=              0.0000 ZZZX=             -0.0000
 ZZZY=              0.0000 XXYY=            -33.9829 XXZZ=            -31.2997 YYZZ=            -20.5252
 XXYZ=             -0.0000 YYXZ=             -0.0000 ZZXY=            -15.0811
 N-N= 1.165416740737D+02 E-N=-8.951852121933D+02  KE= 2.801790525577D+02
 Symmetry A'   KE= 2.662152294599D+02
 Symmetry A"   KE= 1.396382309778D+01
  Exact polarizability:  34.331   9.493  30.199   0.000  -0.000  17.972
 Approx polarizability:  29.406   5.095  23.491   0.000  -0.000  15.544
 No NMR shielding tensors so no spin-rotation constants.
 Leave Link  601 at Mon Feb 21 20:10:40 2022, MaxMem= 16106127360 cpu:               4.4 elap:               0.2
 (Enter /sw/contrib/gaussian/g16/B01/g16/l701.exe)
 ... and contract with generalized density number  2.
 Compute integral second derivatives.
 Leave Link  701 at Mon Feb 21 20:10:40 2022, MaxMem= 16106127360 cpu:               6.5 elap:               0.3
 (Enter /sw/contrib/gaussian/g16/B01/g16/l702.exe)
 L702 exits ... SP integral derivatives will be done elsewhere.
 Leave Link  702 at Mon Feb 21 20:10:40 2022, MaxMem= 16106127360 cpu:               1.2 elap:               0.1
 (Enter /sw/contrib/gaussian/g16/B01/g16/l703.exe)
 Integral derivatives from FoFJK, PRISM(SPDF).
 Compute integral second derivatives, UseDBF=F ICtDFT=           0.
 Calling FoFJK, ICntrl=  10100127 FMM=F ISym2X=1 I1Cent= 0 IOpClX= 0 NMat=1 NMatS=1 NMatT=0.
 FoFJK:  IHMeth= 1 ICntrl=10100127 DoSepK=F KAlg= 0 I1Cent=           0 FoldK=F
 IRaf=         0 NMat=       1 IRICut=       1 DoRegI=T DoRafI=F ISym2E= 1 IDoP0=0 IntGTp=1.
 FoFCou: FMM=F IPFlag=           0 FMFlag=      100000 FMFlg1=         800
         NFxFlg=           0 DoJE=F BraDBF=F KetDBF=F FulRan=T
         wScrn=  0.000000 ICntrl=  10100127 IOpCl=  0 I1Cent=           0 NGrid=           0
         NMat0=    1 NMatS0=      1 NMatT0=    0 NMatD0=    1 NMtDS0=    0 NMtDT0=    0
 Petite list used in FoFCou.
 Leave Link  703 at Mon Feb 21 20:10:55 2022, MaxMem= 16106127360 cpu:             423.0 elap:              15.2
 (Enter /sw/contrib/gaussian/g16/B01/g16/l716.exe)
 Dipole        = 2.00937336D-01 5.30661125D-01-1.01342675D-31
 Polarizability= 3.43305048D+01 9.49303155D+00 3.01986209D+01
                 3.96770421D-31-3.54782651D-30 1.79722334D+01
 Full mass-weighted force constant matrix:
 Low frequencies --- -274.5233  -23.0727   -0.0010   -0.0003    0.0011   35.0011
 Low frequencies ---   55.4173  234.1399  343.1820
 ******    1 imaginary frequencies (negative Signs) ****** 
 Diagonal vibrational polarizability:
       14.4843777      24.9596934      44.8839763
 Harmonic frequencies (cm**-1), IR intensities (KM/Mole), Raman scattering
 activities (A**4/AMU), depolarization ratios for plane and unpolarized
 incident light, reduced masses (AMU), force constants (mDyne/A),
 and normal coordinates:
                      1                      2                      3
                     A"                     A"                     A'
 Frequencies --   -274.2939               233.3732               343.1034
 Red. masses --      1.1409                10.3421                 8.7016
 Frc consts  --      0.0506                 0.3319                 0.6035
 IR Inten    --    124.2553                 0.8898                 2.9428
  Atom  AN      X      Y      Z        X      Y      Z        X      Y      Z
     1   1     0.00   0.00   1.00     0.00   0.00  -0.58     0.52  -0.45  -0.00
     2   8     0.00   0.00  -0.07     0.00   0.00  -0.30    -0.11  -0.38  -0.00
     3   8     0.00  -0.00  -0.04     0.00  -0.00   0.32    -0.15   0.42   0.00
     4   7    -0.00  -0.00   0.06    -0.00  -0.00   0.52     0.06   0.27   0.00
     5   8    -0.00   0.00  -0.01    -0.00   0.00  -0.44     0.17  -0.25  -0.00
                      4                      5                      6
                     A'                     A'                     A'
 Frequencies --    447.7082               776.1618               941.0106
 Red. masses --     12.1929                13.1200                14.9695
 Frc consts  --      1.4400                 4.6568                 7.8099
 IR Inten    --    199.2280               164.7311                30.8689
  Atom  AN      X      Y      Z        X      Y      Z        X      Y      Z
     1   1     0.43   0.17   0.00    -0.32   0.19  -0.00    -0.23  -0.02  -0.00
     2   8     0.32   0.18   0.00     0.46   0.08  -0.00    -0.47   0.04  -0.00
     3   8     0.17   0.45  -0.00    -0.12  -0.27   0.00     0.73  -0.04   0.00
     4   7    -0.35  -0.38  -0.00    -0.13   0.61   0.00    -0.13   0.29   0.00
     5   8    -0.21  -0.31   0.00    -0.21  -0.35  -0.00    -0.13  -0.25  -0.00
                      7                      8                      9
                     A'                     A'                     A'
 Frequencies --   1356.1395              1676.6533              3779.9759
 Red. masses --      1.1326                13.3544                 1.0676
 Frc consts  --      1.2273                22.1188                 8.9877
 IR Inten    --    151.6726               141.3087                81.8684
  Atom  AN      X      Y      Z        X      Y      Z        X      Y      Z
     1   1     0.99  -0.06   0.00    -0.33   0.01  -0.00     0.11   0.99  -0.00
     2   8    -0.03   0.05   0.00    -0.00  -0.04  -0.00    -0.01  -0.06   0.00
     3   8    -0.02  -0.05  -0.00     0.00   0.15   0.00     0.00   0.00   0.00
     4   7     0.02   0.01  -0.00     0.71  -0.06   0.00    -0.00  -0.00  -0.00
     5   8    -0.03  -0.01   0.00    -0.60  -0.06  -0.00     0.00   0.00  -0.00

 -------------------
 - Thermochemistry -
 -------------------
 Temperature   298.150 Kelvin.  Pressure   1.00000 Atm.
 Atom     1 has atomic number  1 and mass   1.00783
 Atom     2 has atomic number  8 and mass  15.99491
 Atom     3 has atomic number  8 and mass  15.99491
 Atom     4 has atomic number  7 and mass  14.00307
 Atom     5 has atomic number  8 and mass  15.99491
 Molecular mass:    62.99564 amu.
 Principal axes and moments of inertia in atomic units:
                           1         2         3
     Eigenvalues --    33.03787 362.42836 395.46623
           X            0.81505  -0.57939   0.00000
           Y            0.57939   0.81505   0.00000
           Z            0.00000  -0.00000   1.00000
 This molecule is an asymmetric top.
 Rotational symmetry number  1.
 Rotational temperatures (Kelvin)      2.62166     0.23898     0.21902
 Rotational constants (GHZ):          54.62645     4.97958     4.56358
    1 imaginary frequencies ignored.
 Zero-point vibrational energy      57146.4 (Joules/Mol)
                                   13.65831 (Kcal/Mol)
 Warning -- explicit consideration of   3 degrees of freedom as
           vibrations may cause significant error
 Vibrational temperatures:    335.77   493.65   644.15  1116.72  1353.90
          (Kelvin)           1951.18  2412.33  5438.54
 
 Zero-point correction=                           0.021766 (Hartree/Particle)
 Thermal correction to Energy=                    0.025886
 Thermal correction to Enthalpy=                  0.026831
 Thermal correction to Gibbs Free Energy=        -0.004358
 Sum of electronic and zero-point Energies=           -280.424874
 Sum of electronic and thermal Energies=              -280.420753
 Sum of electronic and thermal Enthalpies=            -280.419809
 Sum of electronic and thermal Free Energies=         -280.450998
 
                     E (Thermal)             CV                S
                      KCal/Mol        Cal/Mol-Kelvin    Cal/Mol-Kelvin
 Total                   16.244             12.007             65.642
 Electronic               0.000              0.000              0.000
 Translational            0.889              2.981             38.341
 Rotational               0.889              2.981             23.075
 Vibrational             14.467              6.045              4.227
 Vibration     1          0.654              1.790              1.853
 Vibration     2          0.722              1.589              1.198
 Vibration     3          0.807              1.366              0.803
                       Q            Log10(Q)             Ln(Q)
 Total Bot       0.101057D+03          2.004565          4.615682
 Total V=0       0.103795D+13         12.016176         27.668267
 Vib (Bot)       0.208751D-09         -9.680372        -22.289879
 Vib (Bot)    1  0.842709D+00         -0.074322         -0.171133
 Vib (Bot)    2  0.540127D+00         -0.267504         -0.615951
 Vib (Bot)    3  0.383745D+00         -0.415958         -0.957778
 Vib (V=0)       0.214407D+01          0.331238          0.762705
 Vib (V=0)    1  0.147988D+01          0.170226          0.391959
 Vib (V=0)    2  0.123603D+01          0.092028          0.211903
 Vib (V=0)    3  0.113029D+01          0.053188          0.122470
 Electronic      0.100000D+01          0.000000          0.000000
 Translational   0.196526D+08          7.293420         16.793719
 Rotational      0.246330D+05          4.391517         10.111842
 
                                                                title
                                                             IR Spectrum
 
     3                                                                      1          1                                             
     7                                                                      6          3             9    7          4   3   2       
     8                                                                      7          5             4    7          4   4   3       
     0                                                                      7          6             1    6          8   3   3       
 
     X                                                                      X          X             X    X          X   X   X       
     X                                                                      X          X             X    X          X               
     X                                                                      X          X             X    X          X               
     X                                                                      X          X                  X          X               
     X                                                                      X          X                  X          X               
     X                                                                      X          X                  X          X               
     X                                                                      X          X                  X          X               
     X                                                                      X          X                  X          X               
                                                                            X          X                  X          X               
                                                                            X          X                  X          X               
                                                                            X          X                  X          X               
                                                                            X          X                  X          X               
                                                                            X          X                  X          X               
                                                                            X          X                  X          X               
                                                                                       X                  X          X               
                                                                                                          X          X               
                                                                                                          X          X               
                                                                                                                     X               
                                                                                                                     X               
                                                                                                                     X               
 
 ***** Axes restored to original set *****
 -------------------------------------------------------------------
 Center     Atomic                   Forces (Hartrees/Bohr)
 Number     Number              X              Y              Z
 -------------------------------------------------------------------
      1        1           0.000952962   -0.000000000   -0.000266439
      2        8           0.005960903   -0.000000000    0.002375631
      3        8          -0.005991265    0.000000000   -0.002037188
      4        7          -0.001266515    0.000000000    0.000305462
      5        8           0.000343914   -0.000000000   -0.000377466
 -------------------------------------------------------------------
 Cartesian Forces:  Max     0.005991265 RMS     0.002368665
 -----------------------------------------------------------------------------------------------
                       Internal Coordinate Forces (Hartree/Bohr or radian)
  Cent   Atom   N1       Length/X         N2         Alpha/Y        N3         Beta/Z          J
 -----------------------------------------------------------------------------------------------
      1  H 
      2  O        1   0.000266(     1)
      3  O        2  -0.007132(     2)      1  -0.001745(     5)
      4  N        3  -0.000147(     3)      2  -0.001521(     6)      1  -0.000000(     8)     0
      5  O        4   0.000239(     4)      3  -0.000998(     7)      2  -0.000000(     9)     0
 -----------------------------------------------------------------------------------------------
 Internal  Forces:  Max     0.007131981 RMS     0.002524729
 Force constants in Cartesian coordinates: 
                1             2             3             4             5 
      1  0.632259D-01
      2  0.000000D+00 -0.247245D-02
      3  0.446873D-02  0.000000D+00  0.512680D+00
      4 -0.359487D-01  0.000000D+00 -0.157206D-01  0.254330D+00
      5  0.000000D+00  0.345858D-02  0.000000D+00  0.000000D+00  0.369738D-02
      6  0.475645D-01  0.000000D+00 -0.509203D+00  0.286944D-01  0.000000D+00
      7 -0.168161D-01  0.000000D+00  0.127239D-01 -0.202879D+00  0.000000D+00
      8  0.000000D+00  0.631196D-03  0.000000D+00  0.000000D+00 -0.829645D-02
      9 -0.515700D-01  0.000000D+00 -0.488362D-04 -0.155126D-01  0.000000D+00
     10 -0.930244D-02  0.000000D+00 -0.474713D-02 -0.163354D-01  0.000000D+00
     11  0.000000D+00 -0.260895D-02  0.000000D+00  0.000000D+00 -0.514177D-02
     12  0.522812D-02  0.000000D+00 -0.486643D-02  0.113641D-01  0.000000D+00
     13 -0.115868D-02  0.000000D+00  0.327507D-02  0.832756D-03  0.000000D+00
     14  0.000000D+00  0.991622D-03  0.000000D+00  0.000000D+00  0.628226D-02
     15 -0.569142D-02  0.000000D+00  0.143832D-02 -0.882535D-02  0.000000D+00
                6             7             8             9            10 
      6  0.594099D+00
      7 -0.174234D-01  0.322303D+00
      8  0.000000D+00  0.000000D+00  0.608619D-02
      9 -0.780891D-01  0.310155D-01  0.000000D+00  0.180063D+00
     10 -0.508404D-01 -0.771915D-01  0.000000D+00  0.174615D+00  0.826945D+00
     11  0.000000D+00  0.000000D+00  0.878758D-02  0.000000D+00  0.000000D+00
     12  0.174618D-01  0.639769D-01  0.000000D+00 -0.814761D-01 -0.190616D-01
     13 -0.799517D-02 -0.254170D-01  0.000000D+00 -0.138548D+00 -0.724115D+00
     14  0.000000D+00  0.000000D+00 -0.720851D-02  0.000000D+00  0.000000D+00
     15 -0.242691D-01 -0.902929D-01  0.000000D+00 -0.204488D-01 -0.999655D-01
               11            12            13            14            15 
     11  0.820979D-02
     12  0.000000D+00  0.185735D+00
     13  0.000000D+00 -0.615075D-01  0.749858D+00
     14 -0.924665D-02  0.000000D+00  0.000000D+00  0.918129D-02
     15  0.000000D+00 -0.116854D+00  0.204775D+00  0.000000D+00  0.160134D+00
 Force constants in internal coordinates: 
                1             2             3             4             5 
      1  0.512680D+00
      2 -0.106936D-01  0.259944D+00
      3  0.353726D-02  0.206130D-02  0.116232D+00
      4 -0.352953D-02  0.523651D-02  0.153199D+00  0.811994D+00
      5  0.913567D-02  0.621018D-01  0.241605D-02  0.464119D-02  0.212480D+00
      6  0.455432D-02  0.559797D-01  0.392187D-01  0.220804D-01  0.312647D-01
      7 -0.128469D-02  0.367862D-01  0.313172D-01  0.840922D-01  0.211717D-01
      8  0.000000D+00  0.000000D+00  0.000000D+00  0.000000D+00  0.000000D+00
      9  0.000000D+00  0.000000D+00  0.000000D+00  0.000000D+00  0.000000D+00
                6             7             8             9 
      6  0.275661D+00
      7  0.949397D-01  0.480185D+00
      8  0.000000D+00  0.000000D+00 -0.743653D-02
      9  0.000000D+00  0.000000D+00 -0.376276D-02  0.409226D-01
 Leave Link  716 at Mon Feb 21 20:10:55 2022, MaxMem= 16106127360 cpu:               1.7 elap:               0.1
 (Enter /sw/contrib/gaussian/g16/B01/g16/l103.exe)

 GradGradGradGradGradGradGradGradGradGradGradGradGradGradGradGradGradGrad
 Berny optimization.
 Search for a local minimum.
 Step number   1 out of a maximum of    2
 All quantities printed in internal units (Hartrees-Bohrs-Radians)
 Second derivative matrix not updated -- analytic derivatives used.
 The second derivative matrix:
                          r1        r2        r3        r4        a1
           r1           0.51268
           r2          -0.01069   0.25994
           r3           0.00354   0.00206   0.11623
           r4          -0.00353   0.00524   0.15320   0.81199
           a1           0.00914   0.06210   0.00242   0.00464   0.21248
           a2           0.00455   0.05598   0.03922   0.02208   0.03126
           a3          -0.00128   0.03679   0.03132   0.08409   0.02117
           d1          -0.00000   0.00000  -0.00000  -0.00000   0.00000
           d2           0.00000   0.00000  -0.00000  -0.00000   0.00000
                          a2        a3        d1        d2
           a2           0.27566
           a3           0.09494   0.48018
           d1           0.00000   0.00000  -0.00744
           d2           0.00000   0.00000  -0.00376   0.04092
 ITU=  0
     Eigenvalues ---   -0.00773   0.04121   0.07769   0.16876   0.21787
     Eigenvalues ---    0.31001   0.51128   0.51345   0.87013
 Eigenvalue     1 is  -7.73D-03 should be greater than     0.000000 Eigenvector:
                          d1        d2        r3        a2        a3
   1                    0.99702   0.07711   0.00000  -0.00000  -0.00000
                          a1        r4        r2        r1
   1                    0.00000  -0.00000  -0.00000  -0.00000
 Angle between quadratic step and forces=  19.81 degrees.
 Linear search not attempted -- first point.
 Variable       Old X    -DE/DX   Delta X   Delta X   Delta X     New X
                                 (Linear)    (Quad)   (Total)
    r1        1.83110   0.00027   0.00000  -0.00003  -0.00003   1.83107
    r2        2.77485  -0.00713   0.00000  -0.02745  -0.02745   2.74741
    r3        2.75670  -0.00015   0.00000  -0.00198  -0.00198   2.75472
    r4        2.21236   0.00024   0.00000   0.00084   0.00084   2.21320
    a1        1.70335  -0.00174   0.00000  -0.00023  -0.00023   1.70313
    a2        1.78543  -0.00152   0.00000   0.00031   0.00031   1.78574
    a3        1.90362  -0.00100   0.00000  -0.00005  -0.00005   1.90358
    d1        3.14159  -0.00000   0.00000   0.00000   0.00000   3.14159
    d2        3.14159  -0.00000   0.00000  -0.00000   0.00000   3.14159
         Item               Value     Threshold  Converged?
 Maximum Force            0.007132     0.000450     NO 
 RMS     Force            0.002525     0.000300     NO 
 Maximum Displacement     0.027446     0.001800     NO 
 RMS     Displacement     0.009178     0.001200     NO 
 Predicted change in Energy=-9.809726D-05
                       ----------------------------
                       ! Non-Optimized Parameters !
                       ! (Angstroms and Degrees)  !
 ----------------------                            ----------------------
 !      Name          Value   Derivative information (Atomic Units)     !
 ------------------------------------------------------------------------
 !       r1          0.969    -DE/DX =    0.0003                        !
 !       r2          1.4539   -DE/DX =   -0.0071                        !
 !       r3          1.4577   -DE/DX =   -0.0001                        !
 !       r4          1.1712   -DE/DX =    0.0002                        !
 !       a1         97.582    -DE/DX =   -0.0017                        !
 !       a2        102.3155   -DE/DX =   -0.0015                        !
 !       a3        109.0669   -DE/DX =   -0.001                         !
 !       d1        180.0      -DE/DX =    0.0                           !
 !       d2        180.0      -DE/DX =    0.0                           !
 ------------------------------------------------------------------------
 GradGradGradGradGradGradGradGradGradGradGradGradGradGradGradGradGradGrad

 Leave Link  103 at Mon Feb 21 20:10:55 2022, MaxMem= 16106127360 cpu:               0.6 elap:               0.0
 (Enter /sw/contrib/gaussian/g16/B01/g16/l9999.exe)

 ----------------------------------------------------------------------

 Electric dipole moment (input orientation):
 (Debye = 10**-18 statcoulomb cm , SI units = C m)
                  (au)            (Debye)         (10**-30 SI)
   Tot        0.567430D+00      0.144226D+01      0.481087D+01
   x         -0.144830D+00     -0.368122D+00     -0.122792D+01
   y          0.000000D+00      0.000000D+00      0.000000D+00
   z         -0.548636D+00     -0.139449D+01     -0.465153D+01

 Dipole polarizability, Alpha (input orientation).
 (esu units = cm**3 , SI units = C**2 m**2 J**-1)
 Alpha(0;0):
               (au)            (10**-24 esu)      (10**-40 SI)
   iso        0.275005D+02      0.407515D+01      0.453421D+01
   aniso      0.220778D+02      0.327159D+01      0.364013D+01
   xx         0.323280D+02      0.479052D+01      0.533017D+01
   yx         0.000000D+00      0.000000D+00      0.000000D+00
   yy         0.179722D+02      0.266321D+01      0.296322D+01
   zx         0.971503D+01      0.143962D+01      0.160179D+01
   zy         0.000000D+00      0.000000D+00      0.000000D+00
   zz         0.322011D+02      0.477171D+01      0.530924D+01

 ----------------------------------------------------------------------

 Dipole orientation:
     1         -0.00000000          0.00000000         -0.00000000
     8         -0.46736751          0.00000000         -1.77044883
     8          2.09842983          0.00000000         -2.82708740
     7          1.61569869          0.00000000         -5.54119471
     8          3.54776631          0.00000000         -6.61898771

 Electric dipole moment (dipole orientation):
 (Debye = 10**-18 statcoulomb cm , SI units = C m)
                  (au)            (Debye)         (10**-30 SI)
   Tot        0.567430D+00      0.144226D+01      0.481087D+01
   x          0.000000D+00      0.000000D+00      0.000000D+00
   y          0.000000D+00      0.000000D+00      0.000000D+00
   z          0.567430D+00      0.144226D+01      0.481087D+01

 Dipole polarizability, Alpha (dipole orientation).
 (esu units = cm**3 , SI units = C**2 m**2 J**-1)
 Alpha(0;0):
               (au)            (10**-24 esu)      (10**-40 SI)
   iso        0.275005D+02      0.407515D+01      0.453421D+01
   aniso      0.220778D+02      0.327159D+01      0.364013D+01
   xx         0.275247D+02      0.407874D+01      0.453821D+01
   yx         0.000000D+00      0.000000D+00      0.000000D+00
   yy         0.179722D+02      0.266321D+01      0.296322D+01
   zx        -0.848055D+01     -0.125669D+01     -0.139825D+01
   zy         0.000000D+00      0.000000D+00      0.000000D+00
   zz         0.370044D+02      0.548349D+01      0.610120D+01

 ----------------------------------------------------------------------
 1\1\GINC-N2110\Freq\RMP2-FC\Aug-CC-pVTZ\H1N1O3\CGAVINH\21-Feb-2022\1\\
 #p freq mp2/aug-cc-pvtz density=current\\title\\0,1\H\O,1,r1\O,2,r2,1,
 a1\N,3,r3,2,a2,1,d1,0\O,4,r4,3,a3,2,d2,0\\r1=0.96897556\r2=1.4683882\r
 3=1.45878406\r4=1.17072885\a1=97.59494903\a2=102.29752444\a3=109.06955
 123\d1=180.\d2=180.\\Version=ES64L-G16RevB.01\State=1-A'\HF=-279.50048
 43\MP2=-280.4466397\RMSD=3.925e-09\RMSF=2.369e-03\ZeroPoint=0.0217659\
 Thermal=0.0258865\Dipole=-0.1448303,0.,-0.5486358\DipoleDeriv=0.266067
 9,0.,0.0475093,0.,0.354976,0.,0.084052,0.,0.2738158,-0.3277549,0.,-0.2
 008851,0.,-0.3139714,0.,-0.1163489,0.,-0.2251291,-0.0497597,0.,0.14013
 55,0.,-0.0873349,0.,-0.7522954,0.,-1.3499066,0.8952358,0.,0.9097355,0.
 ,0.0661689,0.,0.9274481,0.,1.6705332,-0.7837892,0.,-0.8964952,0.,-0.01
 98386,0.,-0.1428558,0.,-0.3693134\Polar=32.3280374,0.,17.9722334,9.715
 0263,0.,32.2010883\Quadrupole=-1.4909584,-0.7429273,2.2338857,0.,2.113
 2878,0.\PG=CS [SG(H1N1O3)]\NImag=1\\0.06322588,0.,-0.00247245,0.004468
 73,0.,0.51267971,-0.03594870,0.,-0.01572059,0.25433011,0.,0.00345858,0
 .,0.,0.00369738,0.04756454,0.,-0.50920276,0.02869443,0.,0.59409907,-0.
 01681606,0.,0.01272393,-0.20287880,0.,-0.01742343,0.32230339,0.,0.0006
 3120,0.,0.,-0.00829645,0.,0.,0.00608619,-0.05156996,0.,-0.00004884,-0.
 01551262,0.,-0.07808905,0.03101547,0.,0.18006275,-0.00930244,0.,-0.004
 74713,-0.01633537,0.,-0.05084038,-0.07719149,0.,0.17461463,0.82694472,
 0.,-0.00260895,0.,0.,-0.00514177,0.,0.,0.00878758,0.,0.,0.00820979,0.0
 0522812,0.,-0.00486643,0.01136412,0.,0.01746184,0.06397687,0.,-0.08147
 612,-0.01906159,0.,0.18573485,-0.00115868,0.,0.00327507,0.00083276,0.,
 -0.00799517,-0.02541704,0.,-0.13854753,-0.72411543,0.,-0.06150753,0.74
 985840,0.,0.00099162,0.,0.,0.00628226,0.,0.,-0.00720851,0.,0.,-0.00924
 665,0.,0.,0.00918129,-0.00569142,0.,0.00143832,-0.00882535,0.,-0.02426
 910,-0.09029285,0.,-0.02044875,-0.09996553,0.,-0.11685414,0.20477516,0
 .,0.16013367\\-0.00095296,0.,0.00026644,-0.00596090,0.,-0.00237563,0.0
 0599126,0.,0.00203719,0.00126652,0.,-0.00030546,-0.00034391,0.,0.00037
 747\\\@


 TO DETECT ERRORS, THE PROGRAMMER MUST HAVE A CONNIVING MIND,
 ONE THAT DELIGHTS IN UNCOVERING FLAWS WHERE BEAUTY AND
 PERFECTION WERE ONCE THOUGHT TO LIE.

             -- THE PSYCHOLOGY OF COMPUTER PROGRAMMING
                GERALD M. WEINBERG
 Job cpu time:       0 days  2 hours  2 minutes 10.3 seconds.
 Elapsed time:       0 days  0 hours  4 minutes 25.1 seconds.
 File lengths (MBytes):  RWF=   7239 Int=      0 D2E=      0 Chk=      8 Scr=      1
 Normal termination of Gaussian 16 at Mon Feb 21 20:10:56 2022.
