 Entering Gaussian System, Link 0=g16
 Input=hoono_r4_1p163863.gjf
 Output=hoono_r4_1p163863.log
 Initial command:
 /sw/contrib/gaussian/g16/B01/g16/l1.exe "/scr/Gau-21972.inp" -scrdir="/scr/"
 Entering Link 1 = /sw/contrib/gaussian/g16/B01/g16/l1.exe PID=     21973.
  
 Copyright (c) 1988-2017, Gaussian, Inc.  All Rights Reserved.
  
 This is part of the Gaussian(R) 16 program.  It is based on
 the Gaussian(R) 09 system (copyright 2009, Gaussian, Inc.),
 the Gaussian(R) 03 system (copyright 2003, Gaussian, Inc.),
 the Gaussian(R) 98 system (copyright 1998, Gaussian, Inc.),
 the Gaussian(R) 94 system (copyright 1995, Gaussian, Inc.),
 the Gaussian 92(TM) system (copyright 1992, Gaussian, Inc.),
 the Gaussian 90(TM) system (copyright 1990, Gaussian, Inc.),
 the Gaussian 88(TM) system (copyright 1988, Gaussian, Inc.),
 the Gaussian 86(TM) system (copyright 1986, Carnegie Mellon
 University), and the Gaussian 82(TM) system (copyright 1983,
 Carnegie Mellon University). Gaussian is a federally registered
 trademark of Gaussian, Inc.
  
 This software contains proprietary and confidential information,
 including trade secrets, belonging to Gaussian, Inc.
  
 This software is provided under written license and may be
 used, copied, transmitted, or stored only in accord with that
 written license.
  
 The following legend is applicable only to US Government
 contracts under FAR:
  
                    RESTRICTED RIGHTS LEGEND
  
 Use, reproduction and disclosure by the US Government is
 subject to restrictions as set forth in subparagraphs (a)
 and (c) of the Commercial Computer Software - Restricted
 Rights clause in FAR 52.227-19.
  
 Gaussian, Inc.
 340 Quinnipiac St., Bldg. 40, Wallingford CT 06492
  
  
 ---------------------------------------------------------------
 Warning -- This program may not be used in any manner that
 competes with the business of Gaussian, Inc. or will provide
 assistance to any competitor of Gaussian, Inc.  The licensee
 of this program is prohibited from giving any competitor of
 Gaussian, Inc. access to this program.  By using this program,
 the user acknowledges that Gaussian, Inc. is engaged in the
 business of creating and licensing software in the field of
 computational chemistry and represents and warrants to the
 licensee that it is not a competitor of Gaussian, Inc. and that
 it will not use this program in any manner prohibited above.
 ---------------------------------------------------------------
  

 Cite this work as:
 Gaussian 16, Revision B.01,
 M. J. Frisch, G. W. Trucks, H. B. Schlegel, G. E. Scuseria, 
 M. A. Robb, J. R. Cheeseman, G. Scalmani, V. Barone, 
 G. A. Petersson, H. Nakatsuji, X. Li, M. Caricato, A. V. Marenich, 
 J. Bloino, B. G. Janesko, R. Gomperts, B. Mennucci, H. P. Hratchian, 
 J. V. Ortiz, A. F. Izmaylov, J. L. Sonnenberg, D. Williams-Young, 
 F. Ding, F. Lipparini, F. Egidi, J. Goings, B. Peng, A. Petrone, 
 T. Henderson, D. Ranasinghe, V. G. Zakrzewski, J. Gao, N. Rega, 
 G. Zheng, W. Liang, M. Hada, M. Ehara, K. Toyota, R. Fukuda, 
 J. Hasegawa, M. Ishida, T. Nakajima, Y. Honda, O. Kitao, H. Nakai, 
 T. Vreven, K. Throssell, J. A. Montgomery, Jr., J. E. Peralta, 
 F. Ogliaro, M. J. Bearpark, J. J. Heyd, E. N. Brothers, K. N. Kudin, 
 V. N. Staroverov, T. A. Keith, R. Kobayashi, J. Normand, 
 K. Raghavachari, A. P. Rendell, J. C. Burant, S. S. Iyengar, 
 J. Tomasi, M. Cossi, J. M. Millam, M. Klene, C. Adamo, R. Cammi, 
 J. W. Ochterski, R. L. Martin, K. Morokuma, O. Farkas, 
 J. B. Foresman, and D. J. Fox, Gaussian, Inc., Wallingford CT, 2016.
 
 ******************************************
 Gaussian 16:  ES64L-G16RevB.01 20-Dec-2017
                21-Feb-2022 
 ******************************************
 %nproc=28
 Will use up to   28 processors via shared memory.
 %mem=120GB
 %chk=hoono_r4_1p163863.chk
 ---------------------------------------
 #p freq mp2/aug-cc-pvtz density=current
 ---------------------------------------
 1/10=4,30=1,38=1/1,3;
 2/12=2,17=6,18=5,40=1/2;
 3/5=16,6=1,7=10,11=9,25=1,30=1,71=2,140=1/1,2,3;
 4//1;
 5/5=2,38=5,98=1/2;
 8/6=3,8=1,10=1,19=11,30=-1/1;
 9/15=3,16=-3/6;
 11/6=1,8=1,15=11,17=12,24=-1,27=1,28=-2,29=300,32=6,42=3/1,2,10;
 10/6=2,21=1/2;
 8/6=4,8=1,10=1,19=11,30=-1/11,4;
 10/5=1,20=4/2;
 11/12=2,14=11,16=1,17=2,28=-2,42=3,76=2/2,10,12;
 6/7=2,8=2,9=2,10=2,22=-1/1;
 7/8=1,10=1,12=2,25=1,44=2/1,2,3,16;
 1/10=4,30=1/3;
 99//99;
 Leave Link    1 at Mon Feb 21 20:28:18 2022, MaxMem= 16106127360 cpu:               2.1 elap:               0.1
 (Enter /sw/contrib/gaussian/g16/B01/g16/l101.exe)
 -----
 title
 -----
 Symbolic Z-matrix:
 Charge =  0 Multiplicity = 1
 H
 O                    1    r1
 O                    2    r2       1    a1
 N                    3    r3       2    a2       1    d1       0
 O                    4    r4       3    a3       2    d2       0
       Variables:
  r1                    0.96898                  
  r2                    1.45492                  
  r3                    1.45878                  
  r4                    1.16386                  
  a1                   97.59495                  
  a2                  102.29752                  
  a3                  109.06955                  
  d1                  180.                       
  d2                  180.                       
 
 ITRead=  0  0  0  0  0
 MicOpt= -1 -1 -1 -1 -1
 NAtoms=      5 NQM=        5 NQMF=       0 NMMI=      0 NMMIF=      0
                NMic=       0 NMicF=      0.
                    Isotopes and Nuclear Properties:
 (Nuclear quadrupole moments (NQMom) in fm**2, nuclear magnetic moments (NMagM)
  in nuclear magnetons)

  Atom         1           2           3           4           5
 IAtWgt=           1          16          16          14          16
 AtmWgt=   1.0078250  15.9949146  15.9949146  14.0030740  15.9949146
 NucSpn=           1           0           0           2           0
 AtZEff=  -0.0000000  -0.0000000  -0.0000000  -0.0000000  -0.0000000
 NQMom=    0.0000000   0.0000000   0.0000000   2.0440000   0.0000000
 NMagM=    2.7928460   0.0000000   0.0000000   0.4037610   0.0000000
 AtZNuc=   1.0000000   8.0000000   8.0000000   7.0000000   8.0000000
 Leave Link  101 at Mon Feb 21 20:28:18 2022, MaxMem= 16106127360 cpu:               3.4 elap:               0.2
 (Enter /sw/contrib/gaussian/g16/B01/g16/l103.exe)

 GradGradGradGradGradGradGradGradGradGradGradGradGradGradGradGradGradGrad
 Berny optimization.
 Initialization pass.
                       ----------------------------
                       !    Initial Parameters    !
                       ! (Angstroms and Degrees)  !
 ----------------------                            ----------------------
 !      Name          Value   Derivative information (Atomic Units)     !
 ------------------------------------------------------------------------
 !       r1          0.969    calculate D2E/DX2 analytically            !
 !       r2          1.4549   calculate D2E/DX2 analytically            !
 !       r3          1.4588   calculate D2E/DX2 analytically            !
 !       r4          1.1639   calculate D2E/DX2 analytically            !
 !       a1         97.5949   calculate D2E/DX2 analytically            !
 !       a2        102.2975   calculate D2E/DX2 analytically            !
 !       a3        109.0696   calculate D2E/DX2 analytically            !
 !       d1        180.0      calculate D2E/DX2 analytically            !
 !       d2        180.0      calculate D2E/DX2 analytically            !
 ------------------------------------------------------------------------
 Trust Radius=3.00D-01 FncErr=1.00D-07 GrdErr=1.00D-07 EigMax=2.50D+02 EigMin=1.00D-04
 Number of steps in this run=      2 maximum allowed number of steps=      2.
 GradGradGradGradGradGradGradGradGradGradGradGradGradGradGradGradGradGrad

 Leave Link  103 at Mon Feb 21 20:28:18 2022, MaxMem= 16106127360 cpu:               0.5 elap:               0.0
 (Enter /sw/contrib/gaussian/g16/B01/g16/l202.exe)
                          Input orientation:                          
 ---------------------------------------------------------------------
 Center     Atomic      Atomic             Coordinates (Angstroms)
 Number     Number       Type             X           Y           Z
 ---------------------------------------------------------------------
      1          1           0        0.000000    0.000000    0.000000
      2          8           0        0.000000    0.000000    0.968976
      3          8           0        1.442156    0.000000    1.161271
      4          7           0        1.561752    0.000000    2.615144
      5          8           0        2.689217    0.000000    2.903935
 ---------------------------------------------------------------------
                    Distance matrix (angstroms):
                    1          2          3          4          5
     1  H    0.000000
     2  O    0.968976   0.000000
     3  O    1.851584   1.454919   0.000000
     4  N    3.045989   2.269127   1.458784   0.000000
     5  O    3.957869   3.312998   2.142905   1.163863   0.000000
 Stoichiometry    HNO3
 Framework group  CS[SG(HNO3)]
 Deg. of freedom     7
 Full point group                 CS      NOp   2
 Largest Abelian subgroup         CS      NOp   2
 Largest concise Abelian subgroup C1      NOp   1
                         Standard orientation:                         
 ---------------------------------------------------------------------
 Center     Atomic      Atomic             Coordinates (Angstroms)
 Number     Number       Type             X           Y           Z
 ---------------------------------------------------------------------
      1          1           0        1.551664    1.683048    0.000000
      2          8           0        1.454184    0.718988    0.000000
      3          8           0        0.000000    0.672750    0.000000
      4          7           0       -0.265250   -0.761716   -0.000000
      5          8           0       -1.416048   -0.935618   -0.000000
 ---------------------------------------------------------------------
 Rotational constants (GHZ):          55.0012966           5.0273229           4.6062908
 Leave Link  202 at Mon Feb 21 20:28:18 2022, MaxMem= 16106127360 cpu:               2.0 elap:               0.1
 (Enter /sw/contrib/gaussian/g16/B01/g16/l301.exe)
 Standard basis: Aug-CC-pVTZ (5D, 7F)
 Ernie: Thresh=  0.10000D-02 Tol=  0.10000D-05 Strict=F.
 Ernie:  12 primitive shells out of 131 were deleted.
 There are   166 symmetry adapted cartesian basis functions of A'  symmetry.
 There are    79 symmetry adapted cartesian basis functions of A"  symmetry.
 There are   136 symmetry adapted basis functions of A'  symmetry.
 There are    71 symmetry adapted basis functions of A"  symmetry.
   207 basis functions,   315 primitive gaussians,   245 cartesian basis functions
    16 alpha electrons       16 beta electrons
       nuclear repulsion energy       117.0812766236 Hartrees.
 IExCor=    0 DFT=F Ex=HF Corr=None ExCW=0 ScaHFX=  1.000000
 ScaDFX=  1.000000  1.000000  1.000000  1.000000 ScalE2=  1.000000  1.000000
 IRadAn=      5 IRanWt=     -1 IRanGd=            0 ICorTp=0 IEmpDi=  4
 NAtoms=    5 NActive=    5 NUniq=    5 SFac= 1.00D+00 NAtFMM=   60 NAOKFM=F Big=F
 Integral buffers will be    131072 words long.
 Raffenetti 1 integral format.
 Two-electron integral symmetry is turned on.
 Leave Link  301 at Mon Feb 21 20:28:18 2022, MaxMem= 16106127360 cpu:               1.5 elap:               0.1
 (Enter /sw/contrib/gaussian/g16/B01/g16/l302.exe)
 NPDir=0 NMtPBC=     1 NCelOv=     1 NCel=       1 NClECP=     1 NCelD=      1
         NCelK=      1 NCelE2=     1 NClLst=     1 CellRange=     0.0.
 One-electron integrals computed using PRISM.
 One-electron integral symmetry used in STVInt
 NBasis=   207 RedAO= T EigKep=  1.80D-04  NBF=   136    71
 NBsUse=   207 1.00D-06 EigRej= -1.00D+00 NBFU=   136    71
 Leave Link  302 at Mon Feb 21 20:28:19 2022, MaxMem= 16106127360 cpu:               5.0 elap:               0.2
 (Enter /sw/contrib/gaussian/g16/B01/g16/l303.exe)
 DipDrv:  MaxL=1.
 Leave Link  303 at Mon Feb 21 20:28:19 2022, MaxMem= 16106127360 cpu:               0.9 elap:               0.1
 (Enter /sw/contrib/gaussian/g16/B01/g16/l401.exe)
 ExpMin= 2.53D-02 ExpMax= 1.53D+04 ExpMxC= 5.22D+02 IAcc=3 IRadAn=         5 AccDes= 0.00D+00
 Harris functional with IExCor=  205 and IRadAn=       5 diagonalized for initial guess.
 HarFok:  IExCor=  205 AccDes= 0.00D+00 IRadAn=         5 IDoV= 1 UseB2=F ITyADJ=14
 ICtDFT=  3500011 ScaDFX=  1.000000  1.000000  1.000000  1.000000
 FoFCou: FMM=F IPFlag=           0 FMFlag=      100000 FMFlg1=           0
         NFxFlg=           0 DoJE=T BraDBF=F KetDBF=T FulRan=T
         wScrn=  0.000000 ICntrl=       500 IOpCl=  0 I1Cent=   200000004 NGrid=           0
         NMat0=    1 NMatS0=      1 NMatT0=    0 NMatD0=    1 NMtDS0=    0 NMtDT0=    0
 Petite list used in FoFCou.
 Harris En= -279.628541348970    
 JPrj=0 DoOrth=F DoCkMO=F.
 Initial guess orbital symmetries:
       Occupied  (A') (A') (A') (A') (A') (A') (A') (A') (A') (A')
                 (A") (A') (A') (A") (A") (A')
       Virtual   (A") (A') (A') (A') (A') (A') (A") (A') (A') (A')
                 (A") (A') (A") (A') (A') (A") (A') (A") (A') (A')
                 (A') (A') (A') (A') (A') (A") (A') (A") (A') (A')
                 (A") (A') (A") (A') (A') (A") (A') (A") (A') (A')
                 (A") (A') (A") (A') (A") (A') (A') (A') (A") (A")
                 (A') (A') (A') (A') (A") (A') (A") (A') (A") (A')
                 (A') (A') (A") (A') (A') (A") (A') (A") (A') (A')
                 (A") (A') (A') (A") (A") (A') (A') (A") (A') (A')
                 (A') (A") (A') (A") (A') (A") (A') (A") (A') (A')
                 (A') (A") (A') (A") (A') (A") (A") (A') (A') (A")
                 (A') (A') (A") (A') (A') (A') (A') (A") (A") (A')
                 (A") (A') (A') (A') (A") (A') (A') (A') (A") (A')
                 (A") (A') (A") (A') (A") (A') (A') (A") (A") (A')
                 (A') (A') (A') (A") (A") (A') (A") (A') (A') (A')
                 (A') (A") (A") (A') (A') (A") (A') (A') (A') (A')
                 (A") (A') (A') (A") (A') (A") (A') (A") (A') (A")
                 (A') (A") (A') (A") (A') (A") (A") (A") (A') (A')
                 (A") (A') (A") (A') (A") (A') (A") (A") (A') (A')
                 (A') (A') (A') (A') (A') (A') (A') (A') (A') (A')
                 (A')
 The electronic state of the initial guess is 1-A'.
 Leave Link  401 at Mon Feb 21 20:28:19 2022, MaxMem= 16106127360 cpu:               6.9 elap:               0.3
 (Enter /sw/contrib/gaussian/g16/B01/g16/l502.exe)
 Keep R1 ints in memory in symmetry-blocked form, NReq=348887737.
 FoFCou: FMM=F IPFlag=           0 FMFlag=           0 FMFlg1=           0
         NFxFlg=           0 DoJE=F BraDBF=F KetDBF=F FulRan=T
         wScrn=  0.000000 ICntrl=       600 IOpCl=  0 I1Cent=           0 NGrid=           0
         NMat0=    1 NMatS0=  21528 NMatT0=    0 NMatD0=    1 NMtDS0=    0 NMtDT0=    0
 Petite list used in FoFCou.
 Closed shell SCF:
 Using DIIS extrapolation, IDIIS=  1040.
 NGot= 16106127360 LenX= 15988850015 LenY= 15988789549
 Requested convergence on RMS density matrix=1.00D-08 within 128 cycles.
 Requested convergence on MAX density matrix=1.00D-06.
 Requested convergence on             energy=1.00D-06.
 No special actions if energy rises.

 Cycle   1  Pass 1  IDiag  1:
 E= -279.372936453471    
 DIIS: error= 2.69D-02 at cycle   1 NSaved=   1.
 NSaved= 1 IEnMin= 1 EnMin= -279.372936453471     IErMin= 1 ErrMin= 2.69D-02
 ErrMax= 2.69D-02  0.00D+00 EMaxC= 1.00D-01 BMatC= 4.37D-01 BMatP= 4.37D-01
 IDIUse=3 WtCom= 7.31D-01 WtEn= 2.69D-01
 Coeff-Com:  0.100D+01
 Coeff-En:   0.100D+01
 Coeff:      0.100D+01
 Gap=     0.515 Goal=   None    Shift=    0.000
 GapD=    0.515 DampG=2.000 DampE=0.500 DampFc=1.0000 IDamp=-1.
 RMSDP=1.61D-03 MaxDP=9.87D-02              OVMax= 1.10D-01

 Cycle   2  Pass 1  IDiag  1:
 E= -279.455470735960     Delta-E=       -0.082534282489 Rises=F Damp=F
 DIIS: error= 1.77D-02 at cycle   2 NSaved=   2.
 NSaved= 2 IEnMin= 2 EnMin= -279.455470735960     IErMin= 2 ErrMin= 1.77D-02
 ErrMax= 1.77D-02  0.00D+00 EMaxC= 1.00D-01 BMatC= 6.91D-02 BMatP= 4.37D-01
 IDIUse=3 WtCom= 8.23D-01 WtEn= 1.77D-01
 Coeff-Com:  0.190D+00 0.810D+00
 Coeff-En:   0.000D+00 0.100D+01
 Coeff:      0.156D+00 0.844D+00
 Gap=     0.526 Goal=   None    Shift=    0.000
 RMSDP=8.86D-04 MaxDP=3.68D-02 DE=-8.25D-02 OVMax= 6.83D-02

 Cycle   3  Pass 1  IDiag  1:
 E= -279.483382170088     Delta-E=       -0.027911434128 Rises=F Damp=F
 DIIS: error= 1.02D-02 at cycle   3 NSaved=   3.
 NSaved= 3 IEnMin= 3 EnMin= -279.483382170088     IErMin= 3 ErrMin= 1.02D-02
 ErrMax= 1.02D-02  0.00D+00 EMaxC= 1.00D-01 BMatC= 2.77D-02 BMatP= 6.91D-02
 IDIUse=3 WtCom= 8.98D-01 WtEn= 1.02D-01
 Coeff-Com: -0.328D-01 0.379D+00 0.654D+00
 Coeff-En:   0.000D+00 0.240D+00 0.760D+00
 Coeff:     -0.294D-01 0.364D+00 0.665D+00
 Gap=     0.509 Goal=   None    Shift=    0.000
 RMSDP=3.70D-04 MaxDP=1.50D-02 DE=-2.79D-02 OVMax= 3.70D-02

 Cycle   4  Pass 1  IDiag  1:
 E= -279.501736637522     Delta-E=       -0.018354467434 Rises=F Damp=F
 DIIS: error= 1.28D-03 at cycle   4 NSaved=   4.
 NSaved= 4 IEnMin= 4 EnMin= -279.501736637522     IErMin= 4 ErrMin= 1.28D-03
 ErrMax= 1.28D-03  0.00D+00 EMaxC= 1.00D-01 BMatC= 4.85D-04 BMatP= 2.77D-02
 IDIUse=3 WtCom= 9.87D-01 WtEn= 1.28D-02
 Coeff-Com: -0.117D-01 0.588D-01 0.161D+00 0.792D+00
 Coeff-En:   0.000D+00 0.000D+00 0.000D+00 0.100D+01
 Coeff:     -0.115D-01 0.581D-01 0.159D+00 0.795D+00
 Gap=     0.501 Goal=   None    Shift=    0.000
 RMSDP=8.91D-05 MaxDP=2.76D-03 DE=-1.84D-02 OVMax= 1.10D-02

 Cycle   5  Pass 1  IDiag  1:
 E= -279.502394707304     Delta-E=       -0.000658069781 Rises=F Damp=F
 DIIS: error= 7.30D-04 at cycle   5 NSaved=   5.
 NSaved= 5 IEnMin= 5 EnMin= -279.502394707304     IErMin= 5 ErrMin= 7.30D-04
 ErrMax= 7.30D-04  0.00D+00 EMaxC= 1.00D-01 BMatC= 8.53D-05 BMatP= 4.85D-04
 IDIUse=3 WtCom= 9.93D-01 WtEn= 7.30D-03
 Coeff-Com:  0.604D-02-0.722D-01-0.117D+00 0.214D-01 0.116D+01
 Coeff-En:   0.000D+00 0.000D+00 0.000D+00 0.000D+00 0.100D+01
 Coeff:      0.600D-02-0.716D-01-0.117D+00 0.212D-01 0.116D+01
 Gap=     0.501 Goal=   None    Shift=    0.000
 RMSDP=7.52D-05 MaxDP=2.07D-03 DE=-6.58D-04 OVMax= 1.09D-02

 Cycle   6  Pass 1  IDiag  1:
 E= -279.502701129095     Delta-E=       -0.000306421791 Rises=F Damp=F
 DIIS: error= 2.78D-04 at cycle   6 NSaved=   6.
 NSaved= 6 IEnMin= 6 EnMin= -279.502701129095     IErMin= 6 ErrMin= 2.78D-04
 ErrMax= 2.78D-04  0.00D+00 EMaxC= 1.00D-01 BMatC= 1.63D-05 BMatP= 8.53D-05
 IDIUse=3 WtCom= 9.97D-01 WtEn= 2.78D-03
 Coeff-Com:  0.716D-03 0.619D-04 0.165D-02-0.128D+00-0.210D+00 0.134D+01
 Coeff-En:   0.000D+00 0.000D+00 0.000D+00 0.000D+00 0.000D+00 0.100D+01
 Coeff:      0.714D-03 0.617D-04 0.164D-02-0.128D+00-0.210D+00 0.133D+01
 Gap=     0.501 Goal=   None    Shift=    0.000
 RMSDP=4.44D-05 MaxDP=1.22D-03 DE=-3.06D-04 OVMax= 5.40D-03

 Cycle   7  Pass 1  IDiag  1:
 E= -279.502771513385     Delta-E=       -0.000070384290 Rises=F Damp=F
 DIIS: error= 1.22D-04 at cycle   7 NSaved=   7.
 NSaved= 7 IEnMin= 7 EnMin= -279.502771513385     IErMin= 7 ErrMin= 1.22D-04
 ErrMax= 1.22D-04  0.00D+00 EMaxC= 1.00D-01 BMatC= 4.67D-06 BMatP= 1.63D-05
 IDIUse=3 WtCom= 9.99D-01 WtEn= 1.22D-03
 Coeff-Com: -0.920D-03 0.136D-01 0.265D-01-0.260D-01-0.294D+00 0.411D+00
 Coeff-Com:  0.869D+00
 Coeff-En:   0.000D+00 0.000D+00 0.000D+00 0.000D+00 0.000D+00 0.000D+00
 Coeff-En:   0.100D+01
 Coeff:     -0.919D-03 0.136D-01 0.265D-01-0.260D-01-0.293D+00 0.411D+00
 Coeff:      0.870D+00
 Gap=     0.501 Goal=   None    Shift=    0.000
 RMSDP=1.34D-05 MaxDP=3.77D-04 DE=-7.04D-05 OVMax= 1.54D-03

 Cycle   8  Pass 1  IDiag  1:
 E= -279.502780515212     Delta-E=       -0.000009001827 Rises=F Damp=F
 DIIS: error= 5.49D-05 at cycle   8 NSaved=   8.
 NSaved= 8 IEnMin= 8 EnMin= -279.502780515212     IErMin= 8 ErrMin= 5.49D-05
 ErrMax= 5.49D-05  0.00D+00 EMaxC= 1.00D-01 BMatC= 5.79D-07 BMatP= 4.67D-06
 IDIUse=1 WtCom= 1.00D+00 WtEn= 0.00D+00
 Coeff-Com: -0.451D-03 0.356D-02 0.781D-02 0.271D-01-0.433D-01-0.190D+00
 Coeff-Com:  0.144D+00 0.105D+01
 Coeff:     -0.451D-03 0.356D-02 0.781D-02 0.271D-01-0.433D-01-0.190D+00
 Coeff:      0.144D+00 0.105D+01
 Gap=     0.501 Goal=   None    Shift=    0.000
 RMSDP=6.92D-06 MaxDP=2.00D-04 DE=-9.00D-06 OVMax= 7.51D-04

 Cycle   9  Pass 1  IDiag  1:
 E= -279.502782249015     Delta-E=       -0.000001733803 Rises=F Damp=F
 DIIS: error= 1.49D-05 at cycle   9 NSaved=   9.
 NSaved= 9 IEnMin= 9 EnMin= -279.502782249015     IErMin= 9 ErrMin= 1.49D-05
 ErrMax= 1.49D-05  0.00D+00 EMaxC= 1.00D-01 BMatC= 6.34D-08 BMatP= 5.79D-07
 IDIUse=1 WtCom= 1.00D+00 WtEn= 0.00D+00
 Coeff-Com:  0.115D-03-0.166D-02-0.297D-02-0.165D-02 0.332D-01-0.225D-02
 Coeff-Com: -0.154D+00-0.103D+00 0.123D+01
 Coeff:      0.115D-03-0.166D-02-0.297D-02-0.165D-02 0.332D-01-0.225D-02
 Coeff:     -0.154D+00-0.103D+00 0.123D+01
 Gap=     0.501 Goal=   None    Shift=    0.000
 RMSDP=1.85D-06 MaxDP=6.22D-05 DE=-1.73D-06 OVMax= 1.63D-04

 Cycle  10  Pass 1  IDiag  1:
 E= -279.502782394150     Delta-E=       -0.000000145135 Rises=F Damp=F
 DIIS: error= 3.96D-06 at cycle  10 NSaved=  10.
 NSaved=10 IEnMin=10 EnMin= -279.502782394150     IErMin=10 ErrMin= 3.96D-06
 ErrMax= 3.96D-06  0.00D+00 EMaxC= 1.00D-01 BMatC= 5.04D-09 BMatP= 6.34D-08
 IDIUse=1 WtCom= 1.00D+00 WtEn= 0.00D+00
 Coeff-Com:  0.331D-04-0.276D-03-0.396D-03-0.265D-02 0.232D-02 0.191D-01
 Coeff-Com: -0.135D-01-0.784D-01-0.595D-01 0.113D+01
 Coeff:      0.331D-04-0.276D-03-0.396D-03-0.265D-02 0.232D-02 0.191D-01
 Coeff:     -0.135D-01-0.784D-01-0.595D-01 0.113D+01
 Gap=     0.501 Goal=   None    Shift=    0.000
 RMSDP=4.79D-07 MaxDP=1.97D-05 DE=-1.45D-07 OVMax= 3.76D-05

 Cycle  11  Pass 1  IDiag  1:
 E= -279.502782405193     Delta-E=       -0.000000011043 Rises=F Damp=F
 DIIS: error= 1.88D-06 at cycle  11 NSaved=  11.
 NSaved=11 IEnMin=11 EnMin= -279.502782405193     IErMin=11 ErrMin= 1.88D-06
 ErrMax= 1.88D-06  0.00D+00 EMaxC= 1.00D-01 BMatC= 5.81D-10 BMatP= 5.04D-09
 IDIUse=1 WtCom= 1.00D+00 WtEn= 0.00D+00
 Coeff-Com: -0.200D-04 0.233D-03 0.469D-03 0.485D-03-0.414D-02-0.315D-02
 Coeff-Com:  0.186D-01 0.311D-01-0.134D+00-0.180D+00 0.127D+01
 Coeff:     -0.200D-04 0.233D-03 0.469D-03 0.485D-03-0.414D-02-0.315D-02
 Coeff:      0.186D-01 0.311D-01-0.134D+00-0.180D+00 0.127D+01
 Gap=     0.501 Goal=   None    Shift=    0.000
 RMSDP=1.65D-07 MaxDP=6.02D-06 DE=-1.10D-08 OVMax= 1.63D-05

 Cycle  12  Pass 1  IDiag  1:
 E= -279.502782406739     Delta-E=       -0.000000001546 Rises=F Damp=F
 DIIS: error= 5.58D-07 at cycle  12 NSaved=  12.
 NSaved=12 IEnMin=12 EnMin= -279.502782406739     IErMin=12 ErrMin= 5.58D-07
 ErrMax= 5.58D-07  0.00D+00 EMaxC= 1.00D-01 BMatC= 6.29D-11 BMatP= 5.81D-10
 IDIUse=1 WtCom= 1.00D+00 WtEn= 0.00D+00
 Coeff-Com:  0.103D-05-0.261D-04-0.572D-04 0.167D-03 0.100D-02-0.213D-02
 Coeff-Com: -0.386D-02 0.520D-02 0.397D-01-0.104D+00-0.299D+00 0.136D+01
 Coeff:      0.103D-05-0.261D-04-0.572D-04 0.167D-03 0.100D-02-0.213D-02
 Coeff:     -0.386D-02 0.520D-02 0.397D-01-0.104D+00-0.299D+00 0.136D+01
 Gap=     0.501 Goal=   None    Shift=    0.000
 RMSDP=6.64D-08 MaxDP=2.62D-06 DE=-1.55D-09 OVMax= 6.34D-06

 Cycle  13  Pass 1  IDiag  1:
 E= -279.502782406941     Delta-E=       -0.000000000202 Rises=F Damp=F
 DIIS: error= 1.56D-07 at cycle  13 NSaved=  13.
 NSaved=13 IEnMin=13 EnMin= -279.502782406941     IErMin=13 ErrMin= 1.56D-07
 ErrMax= 1.56D-07  0.00D+00 EMaxC= 1.00D-01 BMatC= 3.55D-12 BMatP= 6.29D-11
 IDIUse=1 WtCom= 1.00D+00 WtEn= 0.00D+00
 Coeff-Com:  0.123D-05-0.136D-04-0.221D-04-0.825D-04 0.123D-03 0.706D-03
 Coeff-Com: -0.697D-03-0.325D-02 0.445D-03 0.394D-01-0.287D-01-0.337D+00
 Coeff-Com:  0.133D+01
 Coeff:      0.123D-05-0.136D-04-0.221D-04-0.825D-04 0.123D-03 0.706D-03
 Coeff:     -0.697D-03-0.325D-02 0.445D-03 0.394D-01-0.287D-01-0.337D+00
 Coeff:      0.133D+01
 Gap=     0.501 Goal=   None    Shift=    0.000
 RMSDP=1.80D-08 MaxDP=5.26D-07 DE=-2.02D-10 OVMax= 1.49D-06

 Cycle  14  Pass 1  IDiag  1:
 E= -279.502782406950     Delta-E=       -0.000000000010 Rises=F Damp=F
 DIIS: error= 2.31D-08 at cycle  14 NSaved=  14.
 NSaved=14 IEnMin=14 EnMin= -279.502782406950     IErMin=14 ErrMin= 2.31D-08
 ErrMax= 2.31D-08  0.00D+00 EMaxC= 1.00D-01 BMatC= 1.73D-13 BMatP= 3.55D-12
 IDIUse=1 WtCom= 1.00D+00 WtEn= 0.00D+00
 Coeff-Com: -0.184D-06 0.302D-05 0.547D-05 0.458D-05-0.798D-04 0.411D-04
 Coeff-Com:  0.262D-03 0.239D-03-0.237D-02 0.112D-02 0.176D-01-0.252D-01
 Coeff-Com: -0.204D+00 0.121D+01
 Coeff:     -0.184D-06 0.302D-05 0.547D-05 0.458D-05-0.798D-04 0.411D-04
 Coeff:      0.262D-03 0.239D-03-0.237D-02 0.112D-02 0.176D-01-0.252D-01
 Coeff:     -0.204D+00 0.121D+01
 Gap=     0.501 Goal=   None    Shift=    0.000
 RMSDP=3.61D-09 MaxDP=8.62D-08 DE=-9.78D-12 OVMax= 3.23D-07

 SCF Done:  E(RHF) =  -279.502782407     A.U. after   14 cycles
            NFock= 14  Conv=0.36D-08     -V/T= 2.0022
 KE= 2.788793868112D+02 PE=-8.955160327623D+02 EE= 2.200525869206D+02
 Leave Link  502 at Mon Feb 21 20:28:23 2022, MaxMem= 16106127360 cpu:              59.8 elap:               3.9
 (Enter /sw/contrib/gaussian/g16/B01/g16/l801.exe)
 ExpMin= 2.53D-02 ExpMax= 1.53D+04 ExpMxC= 5.22D+02 IAcc=3 IRadAn=         5 AccDes= 0.00D+00
 HarFok:  IExCor=  205 AccDes= 0.00D+00 IRadAn=         5 IDoV=-2 UseB2=F ITyADJ=14
 ICtDFT= 12500011 ScaDFX=  1.000000  1.000000  1.000000  1.000000
 Largest valence mixing into a core orbital is  2.08D-04
 Largest core mixing into a valence orbital is  3.60D-05
 Range of M.O.s used for correlation:     5   207
 NBasis=   207 NAE=    16 NBE=    16 NFC=     4 NFV=     0
 NROrb=    203 NOA=    12 NOB=    12 NVA=   191 NVB=   191

 **** Warning!!: The largest alpha MO coefficient is  0.17654965D+02

 Leave Link  801 at Mon Feb 21 20:28:23 2022, MaxMem= 16106127360 cpu:               2.2 elap:               0.1
 (Enter /sw/contrib/gaussian/g16/B01/g16/l906.exe)
 Frozen-core derivative calculation, NFC=   4 NFV=   0.
 FulOut=F Deriv=T AODrv=T NAtomX=     5
   MMem=           0  MDisk=          12 MDiskD=          12
  W3Min=      811440 MinDsk=     2425030 NBas6D=         245
 NBas2D=       30762    NTT=       30135    LW2=     7400000
    MDV= 16105574283 MDiskM=      328644 NBas2p=       30702
 Disk-based method using ON**2 memory for 12 occupieds at a time.
 Permanent disk used for amplitudes=    11516536 words.
 Estimated scratch disk usage=   321251614 words.
 IMap=   1   2   3   4   5   6   7   8   9  10  11  12  13  14  15  16
 Actual    scratch disk usage=   310331678 words.
 JobTyp=1 Pass  1:  I=   5 to  16 NPSUse= 28 ParTrn=T ParDer=T DoDerP=T.
 (rs|ai) integrals will be sorted in core.
 Spin components of T(2) and E(2):
     alpha-alpha T2 =       0.3388399555D-01 E2=     -0.1222576140D+00
     alpha-beta  T2 =       0.1860609228D+00 E2=     -0.6993625626D+00
     beta-beta   T2 =       0.3388399555D-01 E2=     -0.1222576140D+00
 The integrals were generated   1 times.
 ANorm=    0.1119745022D+01
 E2 =    -0.9438777907D+00 EUMP2 =    -0.28044666019764D+03
 Leave Link  906 at Mon Feb 21 20:30:00 2022, MaxMem= 16106127360 cpu:            2700.5 elap:              96.6
 (Enter /sw/contrib/gaussian/g16/B01/g16/l1101.exe)
 Using compressed Sx but separate Hx and Fx, NAtomX=     5.
 Will process      6 centers per pass.
 Leave Link 1101 at Mon Feb 21 20:30:00 2022, MaxMem= 16106127360 cpu:               5.1 elap:               0.2
 (Enter /sw/contrib/gaussian/g16/B01/g16/l1102.exe)
 Leave Link 1102 at Mon Feb 21 20:30:00 2022, MaxMem= 16106127360 cpu:               1.4 elap:               0.1
 (Enter /sw/contrib/gaussian/g16/B01/g16/l1110.exe)
 Forming Gx(P) for the SCF density, NAtomX=     5.
 Integral derivatives from FoFJK, PRISM(SPDF).
 Do as many integral derivatives as possible in FoFJK.
 G2DrvN: MDV=   16106126844.
 G2DrvN: will do     6 centers at a time, making    1 passes.
 Calling FoFCou, ICntrl=  3107 FMM=F I1Cent=   0 AccDes= 0.00D+00.
 FoFJK:  IHMeth= 1 ICntrl=    3107 DoSepK=F KAlg= 0 I1Cent=           0 FoldK=F
 IRaf=         0 NMat=       1 IRICut=       1 DoRegI=T DoRafI=F ISym2E= 1 IDoP0=0 IntGTp=1.
 FoFCou: FMM=F IPFlag=           0 FMFlag=      100000 FMFlg1=           0
         NFxFlg=           0 DoJE=F BraDBF=F KetDBF=F FulRan=T
         wScrn=  0.000000 ICntrl=      3107 IOpCl=  0 I1Cent=           0 NGrid=           0
         NMat0=    1 NMatS0=      1 NMatT0=    0 NMatD0=    1 NMtDS0=    0 NMtDT0=    0
 Petite list used in FoFCou.
 End of G2Drv F.D. properties file   721 does not exist.
 End of G2Drv F.D. properties file   722 does not exist.
 End of G2Drv F.D. properties file   788 does not exist.
 Leave Link 1110 at Mon Feb 21 20:30:03 2022, MaxMem= 16106127360 cpu:              82.8 elap:               3.0
 (Enter /sw/contrib/gaussian/g16/B01/g16/l1002.exe)
 Minotr:  Closed shell wavefunction.
          IDoAtm=11111
          Frozen-core window.
          Direct CPHF calculation.
          Differentiating once with respect to electric field.
                with respect to dipole field.
          Differentiating once with respect to nuclear coordinates.
          Requested convergence is 1.0D-08 RMS, and 1.0D-07 maximum.
          Secondary convergence is 1.0D-12 RMS, and 1.0D-12 maximum.
          NewPWx=T KeepS1=T KeepF1=T KeepIn=T MapXYZ=F SortEE=F KeepMc=T.
 Keep R1 ints in memory in symmetry-blocked form, NReq=348888983.
 FoFCou: FMM=F IPFlag=           0 FMFlag=           0 FMFlg1=           0
         NFxFlg=           0 DoJE=F BraDBF=F KetDBF=F FulRan=T
         wScrn=  0.000000 ICntrl=       600 IOpCl=  0 I1Cent=           0 NGrid=           0
         NMat0=    1 NMatS0=  21528 NMatT0=    0 NMatD0=    1 NMtDS0=    0 NMtDT0=    0
 Petite list used in FoFCou.
          MDV=   16106127360 using IRadAn=       1.
          Solving linear equations simultaneously, MaxMat=       0.
          There are    18 degrees of freedom in the 1st order CPHF.  IDoFFX=6 NUNeed=    18.
     15 vectors produced by pass  0 Test12= 1.70D-14 5.56D-09 XBig12= 8.22D+00 1.08D+00.
 AX will form    15 AO Fock derivatives at one time.
     15 vectors produced by pass  1 Test12= 1.70D-14 5.56D-09 XBig12= 1.31D+00 2.59D-01.
     15 vectors produced by pass  2 Test12= 1.70D-14 5.56D-09 XBig12= 1.37D-01 9.47D-02.
     15 vectors produced by pass  3 Test12= 1.70D-14 5.56D-09 XBig12= 4.77D-03 1.07D-02.
     15 vectors produced by pass  4 Test12= 1.70D-14 5.56D-09 XBig12= 9.28D-05 1.76D-03.
     15 vectors produced by pass  5 Test12= 1.70D-14 5.56D-09 XBig12= 1.33D-06 1.67D-04.
     15 vectors produced by pass  6 Test12= 1.70D-14 5.56D-09 XBig12= 1.05D-08 1.45D-05.
     13 vectors produced by pass  7 Test12= 1.70D-14 5.56D-09 XBig12= 7.71D-11 1.18D-06.
      3 vectors produced by pass  8 Test12= 1.70D-14 5.56D-09 XBig12= 5.39D-13 1.19D-07.
      2 vectors produced by pass  9 Test12= 1.70D-14 5.56D-09 XBig12= 3.54D-15 1.04D-08.
 InvSVY:  IOpt=1 It=  1 EMax= 8.88D-16
 Solved reduced A of dimension   123 with    15 vectors.
 FullF1:  Do perturbations      1 to      18.
 Saving first derivative matrices.
 End of Minotr F.D. properties file   721 does not exist.
 End of Minotr F.D. properties file   722 does not exist.
 End of Minotr F.D. properties file   788 does not exist.
 Leave Link 1002 at Mon Feb 21 20:30:06 2022, MaxMem= 16106127360 cpu:              80.2 elap:               2.9
 (Enter /sw/contrib/gaussian/g16/B01/g16/l811.exe)
 MDV= 16106127360.
 Form MO integral derivatives with frozen-active canonical formalism.
 MOERI=1 MOERIx=1 NAtoms=     5 NAtomX=     5.
 Discarding MO integrals.
 MO basis two electron integral derivatives will not be stored on disk.
 IAlg= 3 DoFC=T DoPWx=T Debug=F.
 Frozen-core window:  NFC=   4 NFV=   0.
 Reordered first order wavefunction length =     18678272
 In DefCFB: NBatch=  1 ICI= 16 ICA=191 LFMax= 96
            Large arrays: LIAPS=   619940160 LIARS=   288257200 words.
 In StABat: MaxSiz= 55 MinSiz= 25 NAtomB=  5
 DoIAMN: NPSUse= 28.
 Leave Link  811 at Mon Feb 21 20:31:26 2022, MaxMem= 16106127360 cpu:            2235.0 elap:              80.0
 (Enter /sw/contrib/gaussian/g16/B01/g16/l804.exe)
 Frozen-core window:  NFC=   4 NFV=   0.
 Closed-shell transformation, MDV= 16106127360 ITran=4 ISComp=1.
 Semi-Direct transformation.
 ModeAB=           2 MOrb=            16 LenV=   16104923037
 LASXX=     67341636 LTotXX=    67341636 LenRXX=    67341636
 LTotAB=    68301760 MaxLAS=    99807120 LenRXY=    99807120
 NonZer=   134683272 LenScr=   202817536 LnRSAI=           0
 LnScr1=           0 LExtra=           0 Total=    369966292
 MaxDsk=          -1 SrtSym=           F ITran=            4
 DoSDTr:  NPSUse= 28
 JobTyp=0 Pass  1:  I=   1 to  16.
 (rs|ai) integrals will be sorted in core.
 Complete sort for first half transformation.
 First half transformation complete.
 Begin second half transformation for I=  10.
 Begin second half transformation for I=  10.
 Complete sort for second half transformation.
 Second half transformation complete.
 Spin components of T(2) and E(2):
     alpha-alpha T2 =       0.3388399555D-01 E2=     -0.1222576140D+00
     alpha-beta  T2 =       0.1860609228D+00 E2=     -0.6993625626D+00
     beta-beta   T2 =       0.3388399555D-01 E2=     -0.1222576140D+00
 ANorm=    0.1583558596D+01
 E2 =    -0.9438777907D+00 EUMP2 =    -0.28044666019764D+03
 Leave Link  804 at Mon Feb 21 20:31:41 2022, MaxMem= 16106127360 cpu:             424.5 elap:              15.2
 (Enter /sw/contrib/gaussian/g16/B01/g16/l1002.exe)
 Minotr:  Closed shell wavefunction.
          Computing MP2/KS-MP2 derivatives.
          Using Z-Vector for PSCF gradient.
          Skipping F1 and S1 gradient terms here.
          IDoAtm=11111
          Frozen-core window.
          Using MO integrals in the linear equations.
          Forming densities via direct SCF.
          Differentiating once with respect to electric field.
                with respect to dipole field.
          Differentiating once with respect to nuclear coordinates.
          Using symmetry in CPHF.
          Requested convergence is 1.0D-10 RMS, and 1.0D-09 maximum.
          NewPWx=F KeepS1=T KeepF1=T KeepIn=T MapXYZ=F SortEE=F KeepMc=T.
          MDV=   16106127360 using IRadAn=       5.
          Solving linear equations separately, MaxMat=       0.
          There are     1 degrees of freedom in the 1st order CPHF.  IDoFFX=0 NUNeed=     1.
 FoFJK:  IHMeth= 1 ICntrl=       0 DoSepK=F KAlg= 0 I1Cent=           0 FoldK=F
 IRaf=         0 NMat=       1 IRICut=       1 DoRegI=T DoRafI=F ISym2E= 0 IDoP0=0 IntGTp=1.
 FoFCou: FMM=F IPFlag=           0 FMFlag=      100000 FMFlg1=           0
         NFxFlg=           0 DoJE=F BraDBF=F KetDBF=F FulRan=T
         wScrn=  0.000000 ICntrl=         0 IOpCl=  0 I1Cent=           0 NGrid=           0
         NMat0=    1 NMatS0=      1 NMatT0=    0 NMatD0=    1 NMtDS0=    0 NMtDT0=    0
 Symmetry not used in FoFCou.
 LinEq1:  Iter=  0 NonCon=     1 RMS=5.92D-03 Max=1.30D-01 NDo=     1
 LinEq1:  Iter=  1 NonCon=     1 RMS=1.88D-03 Max=3.73D-02 NDo=     1
 LinEq1:  Iter=  2 NonCon=     1 RMS=8.55D-04 Max=1.38D-02 NDo=     1
 LinEq1:  Iter=  3 NonCon=     1 RMS=3.78D-04 Max=7.49D-03 NDo=     1
 LinEq1:  Iter=  4 NonCon=     1 RMS=1.17D-04 Max=1.86D-03 NDo=     1
 LinEq1:  Iter=  5 NonCon=     1 RMS=4.33D-05 Max=6.85D-04 NDo=     1
 LinEq1:  Iter=  6 NonCon=     1 RMS=1.94D-05 Max=2.30D-04 NDo=     1
 LinEq1:  Iter=  7 NonCon=     1 RMS=7.76D-06 Max=1.56D-04 NDo=     1
 LinEq1:  Iter=  8 NonCon=     1 RMS=3.31D-06 Max=3.30D-05 NDo=     1
 LinEq1:  Iter=  9 NonCon=     1 RMS=9.05D-07 Max=1.28D-05 NDo=     1
 LinEq1:  Iter= 10 NonCon=     1 RMS=1.78D-07 Max=1.93D-06 NDo=     1
 LinEq1:  Iter= 11 NonCon=     1 RMS=3.33D-08 Max=3.43D-07 NDo=     1
 LinEq1:  Iter= 12 NonCon=     1 RMS=8.00D-09 Max=1.25D-07 NDo=     1
 LinEq1:  Iter= 13 NonCon=     1 RMS=1.44D-09 Max=2.50D-08 NDo=     1
 LinEq1:  Iter= 14 NonCon=     1 RMS=2.61D-10 Max=3.67D-09 NDo=     1
 LinEq1:  Iter= 15 NonCon=     0 RMS=4.78D-11 Max=5.48D-10 NDo=     1
 Linear equations converged to 1.000D-10 1.000D-09 after    15 iterations.
 End of Minotr F.D. properties file   721 does not exist.
 End of Minotr F.D. properties file   722 does not exist.
 End of Minotr F.D. properties file   788 does not exist.
 Leave Link 1002 at Mon Feb 21 20:31:44 2022, MaxMem= 16106127360 cpu:              67.1 elap:               2.5
 (Enter /sw/contrib/gaussian/g16/B01/g16/l1102.exe)
 Use density number 2.
 Symmetrizing basis deriv contribution to polar:
 IMax=3 JMax=2 DiffMx= 0.00D+00
 Leave Link 1102 at Mon Feb 21 20:31:44 2022, MaxMem= 16106127360 cpu:               0.7 elap:               0.1
 (Enter /sw/contrib/gaussian/g16/B01/g16/l1110.exe)
 Forming Gx(P) for generalized density number  2 NAtomX=     5.
 Integral derivatives from FoFJK, PRISM(SPDF).
 Do as many integral derivatives as possible in FoFJK.
 G2DrvN: MDV=   16106126844.
 G2DrvN: will do     6 centers at a time, making    1 passes.
 Calling FoFCou, ICntrl=  3107 FMM=F I1Cent=   0 AccDes= 0.00D+00.
 FoFJK:  IHMeth= 1 ICntrl=    3107 DoSepK=F KAlg= 0 I1Cent=           0 FoldK=F
 IRaf=         0 NMat=       1 IRICut=       1 DoRegI=T DoRafI=F ISym2E= 1 IDoP0=0 IntGTp=1.
 FoFCou: FMM=F IPFlag=           0 FMFlag=      100000 FMFlg1=           0
         NFxFlg=           0 DoJE=F BraDBF=F KetDBF=F FulRan=T
         wScrn=  0.000000 ICntrl=      3107 IOpCl=  0 I1Cent=           0 NGrid=           0
         NMat0=    1 NMatS0=      1 NMatT0=    0 NMatD0=    1 NMtDS0=    0 NMtDT0=    0
 Petite list used in FoFCou.
 End of G2Drv F.D. properties file   721 does not exist.
 End of G2Drv F.D. properties file   722 does not exist.
 End of G2Drv F.D. properties file   788 does not exist.
 Leave Link 1110 at Mon Feb 21 20:31:47 2022, MaxMem= 16106127360 cpu:              83.3 elap:               3.0
 (Enter /sw/contrib/gaussian/g16/B01/g16/l1112.exe)
 MP22nd: MDV=   16106127360
 This link is doing NAtomX=     5 total of    18 degrees of freedom.
 Using ON3 I/O method in MakUI.
 Frozen-core window:  NFC=   4 NFV=   0.
 Using Ix for Sx.
 Use MO integrals over full window.
 Using OV2 memory method for fx*t*t/D, MaxI=    16 DoOO2=F NP=  28.
 R2 and R3 integrals will be kept in memory, NReq=   915591705.
 FoFCou: FMM=F IPFlag=           0 FMFlag=           0 FMFlg1=           0
         NFxFlg=           0 DoJE=F BraDBF=F KetDBF=F FulRan=T
         wScrn=  0.000000 ICntrl=       600 IOpCl=  0 I1Cent=           0 NGrid=           0
         NMat0=    1 NMatS0=      1 NMatT0=    0 NMatD0=    1 NMtDS0=    0 NMtDT0=    0
 Symmetry not used in FoFCou.
 DD1Dir will call FoFMem   1 times, MxPair=       272
 NAB=   136 NAA=     0 NBB=     0.
 Symmetry is being used.
 FoFJK:  IHMeth= 1 ICntrl=       0 DoSepK=F KAlg= 0 I1Cent=           0 FoldK=F
 IRaf=         0 NMat=      18 IRICut=      45 DoRegI=T DoRafI=T ISym2E= 2 IDoP0=3 IntGTp=3.
 Discarding MO integrals.
 Leave Link 1112 at Mon Feb 21 20:32:20 2022, MaxMem= 16106127360 cpu:             928.3 elap:              33.5
 (Enter /sw/contrib/gaussian/g16/B01/g16/l601.exe)
 Copying SCF densities to generalized density rwf, IOpCl= 0 IROHF=0.

 **********************************************************************

            Population analysis using the MP2 Density.

 **********************************************************************

 Orbital symmetries:
       Occupied  (A') (A') (A') (A') (A') (A') (A') (A') (A') (A')
                 (A") (A') (A") (A') (A") (A')
       Virtual   (A') (A") (A') (A') (A") (A') (A') (A') (A") (A')
                 (A") (A') (A') (A') (A") (A') (A') (A") (A') (A')
                 (A') (A') (A') (A') (A") (A') (A') (A") (A') (A')
                 (A") (A') (A") (A') (A') (A") (A') (A') (A") (A')
                 (A") (A') (A") (A') (A') (A") (A') (A') (A") (A')
                 (A") (A') (A') (A') (A") (A') (A") (A') (A") (A')
                 (A') (A') (A") (A') (A') (A") (A') (A") (A') (A')
                 (A") (A') (A') (A") (A") (A') (A') (A") (A') (A')
                 (A') (A") (A') (A") (A") (A') (A') (A") (A') (A')
                 (A") (A') (A') (A") (A') (A") (A') (A") (A') (A')
                 (A") (A') (A") (A') (A') (A") (A') (A') (A") (A')
                 (A") (A') (A') (A') (A") (A') (A') (A') (A") (A')
                 (A") (A') (A") (A') (A') (A") (A") (A') (A") (A')
                 (A') (A') (A') (A") (A") (A") (A') (A') (A') (A')
                 (A") (A') (A") (A') (A') (A") (A') (A') (A') (A')
                 (A") (A') (A') (A") (A') (A") (A') (A") (A') (A")
                 (A') (A") (A') (A") (A') (A") (A") (A') (A") (A')
                 (A") (A') (A") (A') (A") (A') (A") (A") (A') (A')
                 (A') (A') (A') (A') (A') (A') (A') (A') (A') (A')
                 (A')
 The electronic state is 1-A'.
 Alpha  occ. eigenvalues --  -20.68927 -20.68459 -20.65910 -15.81183  -1.62968
 Alpha  occ. eigenvalues --   -1.49580  -1.25371  -0.94713  -0.77362  -0.76101
 Alpha  occ. eigenvalues --   -0.71326  -0.68017  -0.62181  -0.58897  -0.48464
 Alpha  occ. eigenvalues --   -0.47115
 Alpha virt. eigenvalues --    0.02981   0.07379   0.08583   0.10172   0.13383
 Alpha virt. eigenvalues --    0.13405   0.14423   0.15470   0.17838   0.19409
 Alpha virt. eigenvalues --    0.20006   0.20637   0.22104   0.23601   0.23743
 Alpha virt. eigenvalues --    0.26613   0.29413   0.30416   0.31078   0.34336
 Alpha virt. eigenvalues --    0.34997   0.38749   0.42233   0.43174   0.52720
 Alpha virt. eigenvalues --    0.53017   0.55888   0.58180   0.62963   0.63804
 Alpha virt. eigenvalues --    0.67234   0.68499   0.70646   0.71132   0.72435
 Alpha virt. eigenvalues --    0.72982   0.74466   0.79193   0.79248   0.81009
 Alpha virt. eigenvalues --    0.81334   0.83242   0.86881   0.90894   0.92259
 Alpha virt. eigenvalues --    0.92696   0.95698   0.97901   0.98523   1.01681
 Alpha virt. eigenvalues --    1.05245   1.05544   1.08382   1.11862   1.14186
 Alpha virt. eigenvalues --    1.18993   1.22176   1.23370   1.33937   1.35091
 Alpha virt. eigenvalues --    1.38735   1.45386   1.48815   1.50985   1.53823
 Alpha virt. eigenvalues --    1.56692   1.57958   1.61378   1.66579   1.67002
 Alpha virt. eigenvalues --    1.70305   1.79351   1.83068   1.83495   1.88017
 Alpha virt. eigenvalues --    1.90996   1.95436   1.99397   2.00569   2.07808
 Alpha virt. eigenvalues --    2.12121   2.13272   2.15066   2.22482   2.26509
 Alpha virt. eigenvalues --    2.26539   2.29023   2.31518   2.34627   2.38677
 Alpha virt. eigenvalues --    2.42602   2.43050   2.45437   2.46375   2.47782
 Alpha virt. eigenvalues --    2.50263   2.59047   2.59805   2.62226   2.62751
 Alpha virt. eigenvalues --    2.63556   2.66973   2.76023   2.82797   2.85842
 Alpha virt. eigenvalues --    2.88758   2.89590   2.92678   2.95981   3.02672
 Alpha virt. eigenvalues --    3.06707   3.12398   3.20532   3.22855   3.31804
 Alpha virt. eigenvalues --    3.34275   3.52006   3.64404   3.83935   3.84661
 Alpha virt. eigenvalues --    4.14958   4.16412   4.18494   4.27410   4.35250
 Alpha virt. eigenvalues --    4.39436   4.46520   4.52070   4.67039   4.71194
 Alpha virt. eigenvalues --    4.80857   4.82623   4.83081   4.89542   5.02219
 Alpha virt. eigenvalues --    5.07815   5.10622   5.14095   5.18121   5.24511
 Alpha virt. eigenvalues --    5.27278   5.30746   5.33079   5.36217   5.60781
 Alpha virt. eigenvalues --    5.68516   5.77626   5.83210   5.95543   6.17046
 Alpha virt. eigenvalues --    6.31009   6.33903   6.39545   6.49362   6.50552
 Alpha virt. eigenvalues --    6.61478   6.66893   6.70239   6.75892   6.76467
 Alpha virt. eigenvalues --    6.83693   6.90089   7.01583   7.05824   7.05851
 Alpha virt. eigenvalues --    7.09117   7.12790   7.15161   7.18258   7.23016
 Alpha virt. eigenvalues --    7.24328   7.31072   7.33839   7.35248   7.40642
 Alpha virt. eigenvalues --    7.43272   7.48545   7.60951   7.62884   7.63611
 Alpha virt. eigenvalues --    7.66788   7.79523   7.89829   8.09603   8.31754
 Alpha virt. eigenvalues --    8.41007   8.54601  13.40389  14.44860  15.16506
 Alpha virt. eigenvalues --   16.36529
          Condensed to atoms (all electrons):
               1          2          3          4          5
     1  H    0.589712   0.128396   0.020047   0.012470  -0.000651
     2  O    0.128396   8.322435  -0.173758  -0.090459   0.015533
     3  O    0.020047  -0.173758   8.475515  -0.132860  -0.040256
     4  N    0.012470  -0.090459  -0.132860   6.974735  -0.056330
     5  O   -0.000651   0.015533  -0.040256  -0.056330   8.273340
 Mulliken charges:
               1
     1  H    0.250027
     2  O   -0.202147
     3  O   -0.148689
     4  N    0.292444
     5  O   -0.191635
 Sum of Mulliken charges =  -0.00000
 Mulliken charges with hydrogens summed into heavy atoms:
               1
     2  O    0.047880
     3  O   -0.148689
     4  N    0.292444
     5  O   -0.191635
 APT charges:
               1
     1  H    0.298815
     2  O   -0.288153
     3  O   -0.499800
     4  N    0.886151
     5  O   -0.397013
 Sum of APT charges =  -0.00000
 APT charges with hydrogens summed into heavy atoms:
               1
     2  O    0.010662
     3  O   -0.499800
     4  N    0.886151
     5  O   -0.397013
 Electronic spatial extent (au):  <R**2>=            252.2545
 Charge=             -0.0000 electrons
 Dipole moment (field-independent basis, Debye):
    X=              0.4821    Y=              1.3303    Z=              0.0000  Tot=              1.4149
 Quadrupole moment (field-independent basis, Debye-Ang):
   XX=            -22.4325   YY=            -18.6158   ZZ=            -21.9989
   XY=              3.2794   XZ=              0.0000   YZ=             -0.0000
 Traceless Quadrupole moment (field-independent basis, Debye-Ang):
   XX=             -1.4168   YY=              2.4000   ZZ=             -0.9832
   XY=              3.2794   XZ=              0.0000   YZ=             -0.0000
 Octapole moment (field-independent basis, Debye-Ang**2):
  XXX=              2.8063  YYY=             11.1292  ZZZ=             -0.0000  XYY=              7.8470
  XXY=              6.5561  XXZ=              0.0000  XZZ=             -1.6013  YZZ=             -0.8773
  YYZ=              0.0000  XYZ=              0.0000
 Hexadecapole moment (field-independent basis, Debye-Ang**3):
 XXXX=           -158.1779 YYYY=            -89.2759 ZZZZ=            -18.2309 XXXY=            -36.4269
 XXXZ=             -0.0000 YYYX=            -30.5259 YYYZ=             -0.0000 ZZZX=             -0.0000
 ZZZY=             -0.0000 XXYY=            -33.8194 XXZZ=            -30.8303 YYZZ=            -20.5692
 XXYZ=             -0.0000 YYXZ=             -0.0000 ZZXY=            -14.9749
 N-N= 1.170812766236D+02 E-N=-8.962913718558D+02  KE= 2.802269395598D+02
 Symmetry A'   KE= 2.662526003695D+02
 Symmetry A"   KE= 1.397433919028D+01
  Exact polarizability:  33.929   9.397  30.161   0.000   0.000  17.915
 Approx polarizability:  28.858   5.051  23.462   0.000   0.000  15.492
 No NMR shielding tensors so no spin-rotation constants.
 Leave Link  601 at Mon Feb 21 20:32:20 2022, MaxMem= 16106127360 cpu:               4.2 elap:               0.2
 (Enter /sw/contrib/gaussian/g16/B01/g16/l701.exe)
 ... and contract with generalized density number  2.
 Compute integral second derivatives.
 Leave Link  701 at Mon Feb 21 20:32:21 2022, MaxMem= 16106127360 cpu:               6.1 elap:               0.2
 (Enter /sw/contrib/gaussian/g16/B01/g16/l702.exe)
 L702 exits ... SP integral derivatives will be done elsewhere.
 Leave Link  702 at Mon Feb 21 20:32:21 2022, MaxMem= 16106127360 cpu:               0.5 elap:               0.0
 (Enter /sw/contrib/gaussian/g16/B01/g16/l703.exe)
 Integral derivatives from FoFJK, PRISM(SPDF).
 Compute integral second derivatives, UseDBF=F ICtDFT=           0.
 Calling FoFJK, ICntrl=  10100127 FMM=F ISym2X=1 I1Cent= 0 IOpClX= 0 NMat=1 NMatS=1 NMatT=0.
 FoFJK:  IHMeth= 1 ICntrl=10100127 DoSepK=F KAlg= 0 I1Cent=           0 FoldK=F
 IRaf=         0 NMat=       1 IRICut=       1 DoRegI=T DoRafI=F ISym2E= 1 IDoP0=0 IntGTp=1.
 FoFCou: FMM=F IPFlag=           0 FMFlag=      100000 FMFlg1=         800
         NFxFlg=           0 DoJE=F BraDBF=F KetDBF=F FulRan=T
         wScrn=  0.000000 ICntrl=  10100127 IOpCl=  0 I1Cent=           0 NGrid=           0
         NMat0=    1 NMatS0=      1 NMatT0=    0 NMatD0=    1 NMtDS0=    0 NMtDT0=    0
 Petite list used in FoFCou.
 Leave Link  703 at Mon Feb 21 20:32:36 2022, MaxMem= 16106127360 cpu:             421.4 elap:              15.1
 (Enter /sw/contrib/gaussian/g16/B01/g16/l716.exe)
 Dipole        = 1.89653746D-01 5.23381637D-01 1.55527105D-31
 Polarizability= 3.39294551D+01 9.39715702D+00 3.01612287D+01
                 2.05771104D-30 6.50415963D-30 1.79148668D+01
 Full mass-weighted force constant matrix:
 Low frequencies --- -268.3963  -83.8671  -45.6541  -32.1423   -0.0005    0.0009
 Low frequencies ---    0.0012  206.9803  335.6875
 ******    1 imaginary frequencies (negative Signs) ****** 
 Diagonal vibrational polarizability:
       13.9120548      24.6678731      47.2660560
 Harmonic frequencies (cm**-1), IR intensities (KM/Mole), Raman scattering
 activities (A**4/AMU), depolarization ratios for plane and unpolarized
 incident light, reduced masses (AMU), force constants (mDyne/A),
 and normal coordinates:
                      1                      2                      3
                     A"                     A"                     A'
 Frequencies --   -268.2778               203.7888               335.5691
 Red. masses --      1.1472                 9.8581                 8.6972
 Frc consts  --      0.0486                 0.2412                 0.5770
 IR Inten    --    124.2345                 1.2560                 3.1844
  Atom  AN      X      Y      Z        X      Y      Z        X      Y      Z
     1   1     0.00  -0.00   1.00     0.00   0.00  -0.61     0.53  -0.45  -0.00
     2   8     0.00  -0.00  -0.07     0.00   0.00  -0.29    -0.10  -0.38   0.00
     3   8    -0.00   0.00  -0.04    -0.00   0.00   0.32    -0.15   0.42   0.00
     4   7     0.00   0.00   0.06    -0.00  -0.00   0.50     0.05   0.27  -0.00
     5   8     0.00  -0.00  -0.01    -0.00  -0.00  -0.43     0.17  -0.25   0.00
                      4                      5                      6
                     A'                     A'                     A'
 Frequencies --    455.5563               784.9412               968.0087
 Red. masses --     12.2223                12.7642                15.3996
 Frc consts  --      1.4945                 4.6336                 8.5020
 IR Inten    --    200.5281               171.0707                21.7232
  Atom  AN      X      Y      Z        X      Y      Z        X      Y      Z
     1   1     0.43   0.18   0.00    -0.35   0.19   0.00    -0.17  -0.04  -0.00
     2   8     0.32   0.19   0.00     0.42   0.09  -0.00    -0.52   0.03  -0.00
     3   8     0.17   0.45  -0.00    -0.06  -0.27   0.00     0.75  -0.02   0.00
     4   7    -0.35  -0.39  -0.00    -0.15   0.61   0.00    -0.12   0.24   0.00
     5   8    -0.22  -0.31   0.00    -0.21  -0.36  -0.00    -0.11  -0.22  -0.00
                      7                      8                      9
                     A'                     A'                     A'
 Frequencies --   1371.7643              1721.9153              3778.6376
 Red. masses --      1.1307                13.6809                 1.0675
 Frc consts  --      1.2536                23.8994                 8.9806
 IR Inten    --    149.6827               156.9785                82.0172
  Atom  AN      X      Y      Z        X      Y      Z        X      Y      Z
     1   1     0.99  -0.05   0.00    -0.29   0.00  -0.00     0.11   0.99  -0.00
     2   8    -0.03   0.05   0.00    -0.00  -0.03  -0.00    -0.01  -0.06   0.00
     3   8    -0.02  -0.05  -0.00     0.00   0.14   0.00     0.00   0.00   0.00
     4   7     0.02   0.01  -0.00     0.72  -0.05   0.00    -0.00  -0.00  -0.00
     5   8    -0.03  -0.01   0.00    -0.61  -0.07  -0.00     0.00   0.00  -0.00

 -------------------
 - Thermochemistry -
 -------------------
 Temperature   298.150 Kelvin.  Pressure   1.00000 Atm.
 Atom     1 has atomic number  1 and mass   1.00783
 Atom     2 has atomic number  8 and mass  15.99491
 Atom     3 has atomic number  8 and mass  15.99491
 Atom     4 has atomic number  7 and mass  14.00307
 Atom     5 has atomic number  8 and mass  15.99491
 Molecular mass:    62.99564 amu.
 Principal axes and moments of inertia in atomic units:
                           1         2         3
     Eigenvalues --    32.81270 358.98653 391.79923
           X            0.81105  -0.58498   0.00000
           Y            0.58498   0.81105   0.00000
           Z           -0.00000   0.00000   1.00000
 This molecule is an asymmetric top.
 Rotational symmetry number  1.
 Rotational temperatures (Kelvin)      2.63965     0.24127     0.22107
 Rotational constants (GHZ):          55.00130     5.02732     4.60629
    1 imaginary frequencies ignored.
 Zero-point vibrational energy      57541.5 (Joules/Mol)
                                   13.75274 (Kcal/Mol)
 Warning -- explicit consideration of   3 degrees of freedom as
           vibrations may cause significant error
 Vibrational temperatures:    293.21   482.81   655.44  1129.36  1392.75
          (Kelvin)           1973.66  2477.45  5436.62
 
 Zero-point correction=                           0.021916 (Hartree/Particle)
 Thermal correction to Energy=                    0.026075
 Thermal correction to Enthalpy=                  0.027019
 Thermal correction to Gibbs Free Energy=        -0.004269
 Sum of electronic and zero-point Energies=           -280.424744
 Sum of electronic and thermal Energies=              -280.420585
 Sum of electronic and thermal Enthalpies=            -280.419641
 Sum of electronic and thermal Free Energies=         -280.450929
 
                     E (Thermal)             CV                S
                      KCal/Mol        Cal/Mol-Kelvin    Cal/Mol-Kelvin
 Total                   16.362             11.989             65.852
 Electronic               0.000              0.000              0.000
 Translational            0.889              2.981             38.341
 Rotational               0.889              2.981             23.050
 Vibrational             14.585              6.027              4.462
 Vibration     1          0.639              1.835              2.099
 Vibration     2          0.717              1.604              1.233
 Vibration     3          0.814              1.349              0.779
                       Q            Log10(Q)             Ln(Q)
 Total Bot       0.919652D+02          1.963624          4.521410
 Total V=0       0.110778D+13         12.044452         27.733376
 Vib (Bot)       0.192427D-09         -9.715734        -22.371303
 Vib (Bot)    1  0.977011D+00         -0.010101         -0.023257
 Vib (Bot)    2  0.554885D+00         -0.255797         -0.588994
 Vib (Bot)    3  0.374732D+00         -0.426280         -0.981545
 Vib (V=0)       0.231790D+01          0.365095          0.840662
 Vib (V=0)    1  0.159752D+01          0.203446          0.468453
 Vib (V=0)    2  0.124693D+01          0.095840          0.220681
 Vib (V=0)    3  0.112484D+01          0.051090          0.117640
 Electronic      0.100000D+01          0.000000          0.000000
 Translational   0.196526D+08          7.293420         16.793719
 Rotational      0.243185D+05          4.385937         10.098994
 
                                                                title
                                                             IR Spectrum
 
     3                                                                     1          1                                              
     7                                                                     7          3             9     7          4   3    2      
     7                                                                     2          7             6     8          5   3    0      
     9                                                                     2          2             8     5          6   6    4      
 
     X                                                                     X          X             X     X          X   X    X      
     X                                                                     X          X             X     X          X               
     X                                                                     X          X                   X          X               
     X                                                                     X          X                   X          X               
     X                                                                     X          X                   X          X               
     X                                                                     X          X                   X          X               
     X                                                                     X          X                   X          X               
     X                                                                     X          X                   X          X               
                                                                           X          X                   X          X               
                                                                           X          X                   X          X               
                                                                           X          X                   X          X               
                                                                           X          X                   X          X               
                                                                           X          X                   X          X               
                                                                           X          X                   X          X               
                                                                           X          X                   X          X               
                                                                           X                              X          X               
                                                                                                          X          X               
                                                                                                                     X               
                                                                                                                     X               
                                                                                                                     X               
 
 ***** Axes restored to original set *****
 -------------------------------------------------------------------
 Center     Atomic                   Forces (Hartrees/Bohr)
 Number     Number              X              Y              Z
 -------------------------------------------------------------------
      1        1           0.000033254   -0.000000000    0.000048706
      2        8           0.000142882    0.000000000   -0.000086858
      3        8          -0.000797249    0.000000000   -0.001832780
      4        7          -0.010120806   -0.000000000   -0.001375576
      5        8           0.010741919    0.000000000    0.003246509
 -------------------------------------------------------------------
 Cartesian Forces:  Max     0.010741919 RMS     0.003952026
 -----------------------------------------------------------------------------------------------
                       Internal Coordinate Forces (Hartree/Bohr or radian)
  Cent   Atom   N1       Length/X         N2         Alpha/Y        N3         Beta/Z          J
 -----------------------------------------------------------------------------------------------
      1  H 
      2  O        1  -0.000049(     1)
      3  O        2  -0.000170(     2)      1  -0.000061(     5)
      4  N        3   0.001916(     3)      2   0.000229(     6)      1   0.000000(     8)     0
      5  O        4   0.011212(     4)      3   0.001055(     7)      2   0.000000(     9)     0
 -----------------------------------------------------------------------------------------------
 Internal  Forces:  Max     0.011211541 RMS     0.003808874
 Force constants in Cartesian coordinates: 
                1             2             3             4             5 
      1  0.646144D-01
      2  0.000000D+00 -0.232139D-02
      3  0.533215D-02  0.000000D+00  0.512345D+00
      4 -0.357104D-01  0.000000D+00 -0.163578D-01  0.273001D+00
      5  0.000000D+00  0.300398D-02  0.000000D+00  0.000000D+00  0.215191D-02
      6  0.481520D-01  0.000000D+00 -0.508510D+00  0.337466D-01  0.000000D+00
      7 -0.184149D-01  0.000000D+00  0.125786D-01 -0.220463D+00  0.000000D+00
      8  0.000000D+00  0.997745D-03  0.000000D+00  0.000000D+00 -0.660548D-02
      9 -0.531326D-01  0.000000D+00 -0.491878D-03 -0.196711D-01  0.000000D+00
     10 -0.925024D-02  0.000000D+00 -0.491621D-02 -0.172169D-01  0.000000D+00
     11  0.000000D+00 -0.271621D-02  0.000000D+00  0.000000D+00 -0.492456D-02
     12  0.548036D-02  0.000000D+00 -0.474285D-02  0.117030D-01  0.000000D+00
     13 -0.123889D-02  0.000000D+00  0.336325D-02  0.389385D-03  0.000000D+00
     14  0.000000D+00  0.103588D-02  0.000000D+00  0.000000D+00  0.637416D-02
     15 -0.583192D-02  0.000000D+00  0.140034D-02 -0.942066D-02  0.000000D+00
                6             7             8             9            10 
      6  0.594427D+00
      7 -0.212530D-01  0.342000D+00
      8  0.000000D+00  0.000000D+00  0.362532D-02
      9 -0.784474D-01  0.368086D-01  0.000000D+00  0.182432D+00
     10 -0.525160D-01 -0.780567D-01  0.000000D+00  0.177001D+00  0.870714D+00
     11  0.000000D+00  0.000000D+00  0.899148D-02  0.000000D+00  0.000000D+00
     12  0.175458D-01  0.636660D-01  0.000000D+00 -0.822518D-01 -0.913863D-02
     13 -0.812960D-02 -0.250654D-01  0.000000D+00 -0.141006D+00 -0.766190D+00
     14  0.000000D+00  0.000000D+00 -0.700907D-02  0.000000D+00  0.000000D+00
     15 -0.250147D-01 -0.918002D-01  0.000000D+00 -0.212410D-01 -0.110430D+00
               11            12            13            14            15 
     11  0.352904D-02
     12  0.000000D+00  0.185954D+00
     13  0.000000D+00 -0.717107D-01  0.792105D+00
     14 -0.487975D-02  0.000000D+00  0.000000D+00  0.447878D-02
     15  0.000000D+00 -0.116505D+00  0.217483D+00  0.000000D+00  0.161360D+00
 Force constants in internal coordinates: 
                1             2             3             4             5 
      1  0.512345D+00
      2 -0.104221D-01  0.281682D+00
      3  0.345857D-02  0.241058D-02  0.118695D+00
      4 -0.360553D-02  0.595186D-02  0.156066D+00  0.857824D+00
      5  0.979698D-02  0.654057D-01  0.221634D-02  0.484729D-02  0.216559D+00
      6  0.465935D-02  0.590289D-01  0.409309D-01  0.220304D-01  0.311080D-01
      7 -0.114811D-02  0.380585D-01  0.335017D-01  0.854923D-01  0.215156D-01
      8  0.000000D+00  0.000000D+00  0.000000D+00  0.000000D+00  0.000000D+00
      9  0.000000D+00  0.000000D+00  0.000000D+00  0.000000D+00  0.000000D+00
                6             7             8             9 
      6  0.282127D+00
      7  0.968711D-01  0.487304D+00
      8  0.000000D+00  0.000000D+00 -0.772646D-02
      9  0.000000D+00  0.000000D+00 -0.390763D-02  0.410532D-01
 Leave Link  716 at Mon Feb 21 20:32:36 2022, MaxMem= 16106127360 cpu:               1.2 elap:               0.1
 (Enter /sw/contrib/gaussian/g16/B01/g16/l103.exe)

 GradGradGradGradGradGradGradGradGradGradGradGradGradGradGradGradGradGrad
 Berny optimization.
 Search for a local minimum.
 Step number   1 out of a maximum of    2
 All quantities printed in internal units (Hartrees-Bohrs-Radians)
 Second derivative matrix not updated -- analytic derivatives used.
 The second derivative matrix:
                          r1        r2        r3        r4        a1
           r1           0.51234
           r2          -0.01042   0.28168
           r3           0.00346   0.00241   0.11869
           r4          -0.00361   0.00595   0.15607   0.85782
           a1           0.00980   0.06541   0.00222   0.00485   0.21656
           a2           0.00466   0.05903   0.04093   0.02203   0.03111
           a3          -0.00115   0.03806   0.03350   0.08549   0.02152
           d1           0.00000  -0.00000   0.00000   0.00000  -0.00000
           d2          -0.00000  -0.00000   0.00000   0.00000  -0.00000
                          a2        a3        d1        d2
           a2           0.28213
           a3           0.09687   0.48730
           d1          -0.00000  -0.00000  -0.00773
           d2          -0.00000  -0.00000  -0.00391   0.04105
 ITU=  0
     Eigenvalues ---   -0.00804   0.04136   0.08023   0.17520   0.22494
     Eigenvalues ---    0.32543   0.51303   0.52391   0.91380
 Eigenvalue     1 is  -8.04D-03 should be greater than     0.000000 Eigenvector:
                          d1        d2        r3        a2        a3
   1                    0.99685   0.07935  -0.00000   0.00000   0.00000
                          r4        a1        r1        r2
   1                    0.00000  -0.00000   0.00000   0.00000
 Angle between quadratic step and forces=  16.96 degrees.
 Linear search not attempted -- first point.
 Variable       Old X    -DE/DX   Delta X   Delta X   Delta X     New X
                                 (Linear)    (Quad)   (Total)
    r1        1.83110  -0.00005   0.00000  -0.00000  -0.00000   1.83109
    r2        2.74940  -0.00017   0.00000  -0.00083  -0.00083   2.74857
    r3        2.75670   0.00192   0.00000  -0.00143  -0.00143   2.75527
    r4        2.19938   0.01121   0.00000   0.01334   0.01334   2.21272
    a1        1.70335  -0.00006   0.00000  -0.00034  -0.00034   1.70301
    a2        1.78543   0.00023   0.00000   0.00020   0.00020   1.78563
    a3        1.90362   0.00105   0.00000  -0.00004  -0.00004   1.90359
    d1        3.14159   0.00000   0.00000  -0.00000   0.00000   3.14159
    d2        3.14159   0.00000   0.00000   0.00000   0.00000   3.14159
         Item               Value     Threshold  Converged?
 Maximum Force            0.011212     0.000450     NO 
 RMS     Force            0.003809     0.000300     NO 
 Maximum Displacement     0.013337     0.001800     NO 
 RMS     Displacement     0.004482     0.001200     NO 
 Predicted change in Energy=-7.347395D-05
                       ----------------------------
                       ! Non-Optimized Parameters !
                       ! (Angstroms and Degrees)  !
 ----------------------                            ----------------------
 !      Name          Value   Derivative information (Atomic Units)     !
 ------------------------------------------------------------------------
 !       r1          0.969    -DE/DX =    0.0                           !
 !       r2          1.4545   -DE/DX =   -0.0002                        !
 !       r3          1.458    -DE/DX =    0.0019                        !
 !       r4          1.1709   -DE/DX =    0.0112                        !
 !       a1         97.5755   -DE/DX =   -0.0001                        !
 !       a2        102.3091   -DE/DX =    0.0002                        !
 !       a3        109.0674   -DE/DX =    0.0011                        !
 !       d1        180.0      -DE/DX =    0.0                           !
 !       d2        180.0      -DE/DX =    0.0                           !
 ------------------------------------------------------------------------
 GradGradGradGradGradGradGradGradGradGradGradGradGradGradGradGradGradGrad

 Leave Link  103 at Mon Feb 21 20:32:36 2022, MaxMem= 16106127360 cpu:               0.5 elap:               0.0
 (Enter /sw/contrib/gaussian/g16/B01/g16/l9999.exe)

 ----------------------------------------------------------------------

 Electric dipole moment (input orientation):
 (Debye = 10**-18 statcoulomb cm , SI units = C m)
                  (au)            (Debye)         (10**-30 SI)
   Tot        0.556684D+00      0.141495D+01      0.471976D+01
   x         -0.136039D+00     -0.345776D+00     -0.115339D+01
   y          0.000000D+00      0.000000D+00      0.000000D+00
   z         -0.539806D+00     -0.137205D+01     -0.457666D+01

 Dipole polarizability, Alpha (input orientation).
 (esu units = cm**3 , SI units = C**2 m**2 J**-1)
 Alpha(0;0):
               (au)            (10**-24 esu)      (10**-40 SI)
   iso        0.273352D+02      0.405066D+01      0.450696D+01
   aniso      0.218000D+02      0.323043D+01      0.359433D+01
   xx         0.320102D+02      0.474342D+01      0.527777D+01
   yx         0.000000D+00      0.000000D+00      0.000000D+00
   yy         0.179149D+02      0.265471D+01      0.295376D+01
   zx         0.958411D+01      0.142022D+01      0.158021D+01
   zy         0.000000D+00      0.000000D+00      0.000000D+00
   zz         0.320805D+02      0.475384D+01      0.528936D+01

 ----------------------------------------------------------------------

 Dipole orientation:
     1         -0.00000000          0.00000000         -0.00000000
     8         -0.44747225          0.00000000         -1.77558161
     8          2.10637767         -0.00000000         -2.79393598
     7          1.65413135         -0.00000000         -5.51328905
     8          3.58677065         -0.00000000         -6.56314193

 Electric dipole moment (dipole orientation):
 (Debye = 10**-18 statcoulomb cm , SI units = C m)
                  (au)            (Debye)         (10**-30 SI)
   Tot        0.556684D+00      0.141495D+01      0.471976D+01
   x          0.000000D+00      0.000000D+00      0.000000D+00
   y          0.000000D+00      0.000000D+00      0.000000D+00
   z          0.556684D+00      0.141495D+01      0.471976D+01

 Dipole polarizability, Alpha (dipole orientation).
 (esu units = cm**3 , SI units = C**2 m**2 J**-1)
 Alpha(0;0):
               (au)            (10**-24 esu)      (10**-40 SI)
   iso        0.273352D+02      0.405066D+01      0.450696D+01
   aniso      0.218000D+02      0.323043D+01      0.359433D+01
   xx         0.274722D+02      0.407096D+01      0.452955D+01
   yx         0.000000D+00      0.000000D+00      0.000000D+00
   yy         0.179149D+02      0.265471D+01      0.295376D+01
   zx        -0.842275D+01     -0.124812D+01     -0.138872D+01
   zy         0.000000D+00      0.000000D+00      0.000000D+00
   zz         0.366185D+02      0.542630D+01      0.603757D+01

 ----------------------------------------------------------------------
 1\1\GINC-N2109\Freq\RMP2-FC\Aug-CC-pVTZ\H1N1O3\CGAVINH\21-Feb-2022\1\\
 #p freq mp2/aug-cc-pvtz density=current\\title\\0,1\H\O,1,r1\O,2,r2,1,
 a1\N,3,r3,2,a2,1,d1,0\O,4,r4,3,a3,2,d2,0\\r1=0.96897556\r2=1.45491931\
 r3=1.45878406\r4=1.16386338\a1=97.59494903\a2=102.29752444\a3=109.0695
 5123\d1=180.\d2=180.\\Version=ES64L-G16RevB.01\State=1-A'\HF=-279.5027
 824\MP2=-280.4466602\RMSD=3.608e-09\RMSF=3.952e-03\ZeroPoint=0.0219164
 \Thermal=0.0260752\Dipole=-0.1360389,0.,-0.5398058\DipoleDeriv=0.26634
 61,0.,0.048181,0.,0.3553243,0.,0.0816885,0.,0.2747742,-0.3267967,0.,-0
 .2055513,0.,-0.3148763,0.,-0.1103897,0.,-0.2227859,-0.0509925,0.,0.146
 8674,0.,-0.0895778,0.,-0.7539091,0.,-1.3588298,0.9136436,0.,0.9260709,
 0.,0.0664535,0.,0.9293448,0.,1.6783555,-0.8022004,0.,-0.9155679,0.,-0.
 0173238,0.,-0.1467344,0.,-0.371514\Polar=32.0101831,0.,17.9148668,9.58
 41122,0.,32.0805007\Quadrupole=-1.5126763,-0.7309854,2.2436618,0.,2.10
 4774,0.\PG=CS [SG(H1N1O3)]\NImag=1\\0.06461442,0.,-0.00232139,0.005332
 15,0.,0.51234469,-0.03571042,0.,-0.01635777,0.27300082,0.,0.00300398,0
 .,0.,0.00215191,0.04815199,0.,-0.50851030,0.03374660,0.,0.59442662,-0.
 01841487,0.,0.01257859,-0.22046284,0.,-0.02125304,0.34199975,0.,0.0009
 9774,0.,0.,-0.00660548,0.,0.,0.00362532,-0.05313258,0.,-0.00049188,-0.
 01967114,0.,-0.07844743,0.03680864,0.,0.18243218,-0.00925024,0.,-0.004
 91621,-0.01721694,0.,-0.05251596,-0.07805665,0.,0.17700059,0.87071371,
 0.,-0.00271621,0.,0.,-0.00492456,0.,0.,0.00899148,0.,0.,0.00352904,0.0
 0548036,0.,-0.00474285,0.01170297,0.,0.01754576,0.06366604,0.,-0.08225
 185,-0.00913863,0.,0.18595394,-0.00123889,0.,0.00336325,0.00038938,0.,
 -0.00812960,-0.02506539,0.,-0.14100551,-0.76618988,0.,-0.07171075,0.79
 210477,0.,0.00103588,0.,0.,0.00637416,0.,0.,-0.00700907,0.,0.,-0.00487
 975,0.,0.,0.00447878,-0.00583192,0.,0.00140034,-0.00942066,0.,-0.02501
 466,-0.09180023,0.,-0.02124103,-0.11042979,0.,-0.11650501,0.21748260,0
 .,0.16136035\\-0.00003325,0.,-0.00004871,-0.00014288,0.,0.00008686,0.0
 0079725,0.,0.00183278,0.01012081,0.,0.00137558,-0.01074192,0.,-0.00324
 651\\\@


 A BIRD IN THE HAND IS SAFER THAN ONE OVERHEAD.

                       -- NEWTON'S SEVENTH LAW
 Job cpu time:       0 days  1 hours 58 minutes 49.5 seconds.
 Elapsed time:       0 days  0 hours  4 minutes 17.8 seconds.
 File lengths (MBytes):  RWF=   7239 Int=      0 D2E=      0 Chk=      8 Scr=      1
 Normal termination of Gaussian 16 at Mon Feb 21 20:32:37 2022.
