 Entering Gaussian System, Link 0=g16
 Input=hoono_r2_1p434715.gjf
 Output=hoono_r2_1p434715.log
 Initial command:
 /sw/contrib/gaussian/g16/B01/g16/l1.exe "/scr/Gau-29583.inp" -scrdir="/scr/"
 Entering Link 1 = /sw/contrib/gaussian/g16/B01/g16/l1.exe PID=     29584.
  
 Copyright (c) 1988-2017, Gaussian, Inc.  All Rights Reserved.
  
 This is part of the Gaussian(R) 16 program.  It is based on
 the Gaussian(R) 09 system (copyright 2009, Gaussian, Inc.),
 the Gaussian(R) 03 system (copyright 2003, Gaussian, Inc.),
 the Gaussian(R) 98 system (copyright 1998, Gaussian, Inc.),
 the Gaussian(R) 94 system (copyright 1995, Gaussian, Inc.),
 the Gaussian 92(TM) system (copyright 1992, Gaussian, Inc.),
 the Gaussian 90(TM) system (copyright 1990, Gaussian, Inc.),
 the Gaussian 88(TM) system (copyright 1988, Gaussian, Inc.),
 the Gaussian 86(TM) system (copyright 1986, Carnegie Mellon
 University), and the Gaussian 82(TM) system (copyright 1983,
 Carnegie Mellon University). Gaussian is a federally registered
 trademark of Gaussian, Inc.
  
 This software contains proprietary and confidential information,
 including trade secrets, belonging to Gaussian, Inc.
  
 This software is provided under written license and may be
 used, copied, transmitted, or stored only in accord with that
 written license.
  
 The following legend is applicable only to US Government
 contracts under FAR:
  
                    RESTRICTED RIGHTS LEGEND
  
 Use, reproduction and disclosure by the US Government is
 subject to restrictions as set forth in subparagraphs (a)
 and (c) of the Commercial Computer Software - Restricted
 Rights clause in FAR 52.227-19.
  
 Gaussian, Inc.
 340 Quinnipiac St., Bldg. 40, Wallingford CT 06492
  
  
 ---------------------------------------------------------------
 Warning -- This program may not be used in any manner that
 competes with the business of Gaussian, Inc. or will provide
 assistance to any competitor of Gaussian, Inc.  The licensee
 of this program is prohibited from giving any competitor of
 Gaussian, Inc. access to this program.  By using this program,
 the user acknowledges that Gaussian, Inc. is engaged in the
 business of creating and licensing software in the field of
 computational chemistry and represents and warrants to the
 licensee that it is not a competitor of Gaussian, Inc. and that
 it will not use this program in any manner prohibited above.
 ---------------------------------------------------------------
  

 Cite this work as:
 Gaussian 16, Revision B.01,
 M. J. Frisch, G. W. Trucks, H. B. Schlegel, G. E. Scuseria, 
 M. A. Robb, J. R. Cheeseman, G. Scalmani, V. Barone, 
 G. A. Petersson, H. Nakatsuji, X. Li, M. Caricato, A. V. Marenich, 
 J. Bloino, B. G. Janesko, R. Gomperts, B. Mennucci, H. P. Hratchian, 
 J. V. Ortiz, A. F. Izmaylov, J. L. Sonnenberg, D. Williams-Young, 
 F. Ding, F. Lipparini, F. Egidi, J. Goings, B. Peng, A. Petrone, 
 T. Henderson, D. Ranasinghe, V. G. Zakrzewski, J. Gao, N. Rega, 
 G. Zheng, W. Liang, M. Hada, M. Ehara, K. Toyota, R. Fukuda, 
 J. Hasegawa, M. Ishida, T. Nakajima, Y. Honda, O. Kitao, H. Nakai, 
 T. Vreven, K. Throssell, J. A. Montgomery, Jr., J. E. Peralta, 
 F. Ogliaro, M. J. Bearpark, J. J. Heyd, E. N. Brothers, K. N. Kudin, 
 V. N. Staroverov, T. A. Keith, R. Kobayashi, J. Normand, 
 K. Raghavachari, A. P. Rendell, J. C. Burant, S. S. Iyengar, 
 J. Tomasi, M. Cossi, J. M. Millam, M. Klene, C. Adamo, R. Cammi, 
 J. W. Ochterski, R. L. Martin, K. Morokuma, O. Farkas, 
 J. B. Foresman, and D. J. Fox, Gaussian, Inc., Wallingford CT, 2016.
 
 ******************************************
 Gaussian 16:  ES64L-G16RevB.01 20-Dec-2017
                21-Feb-2022 
 ******************************************
 %nproc=28
 Will use up to   28 processors via shared memory.
 %mem=120GB
 %chk=hoono_r2_1p434715.chk
 ---------------------------------------
 #p freq mp2/aug-cc-pvtz density=current
 ---------------------------------------
 1/10=4,30=1,38=1/1,3;
 2/12=2,17=6,18=5,40=1/2;
 3/5=16,6=1,7=10,11=9,25=1,30=1,71=2,140=1/1,2,3;
 4//1;
 5/5=2,38=5,98=1/2;
 8/6=3,8=1,10=1,19=11,30=-1/1;
 9/15=3,16=-3/6;
 11/6=1,8=1,15=11,17=12,24=-1,27=1,28=-2,29=300,32=6,42=3/1,2,10;
 10/6=2,21=1/2;
 8/6=4,8=1,10=1,19=11,30=-1/11,4;
 10/5=1,20=4/2;
 11/12=2,14=11,16=1,17=2,28=-2,42=3,76=2/2,10,12;
 6/7=2,8=2,9=2,10=2,22=-1/1;
 7/8=1,10=1,12=2,25=1,44=2/1,2,3,16;
 1/10=4,30=1/3;
 99//99;
 Leave Link    1 at Mon Feb 21 20:11:59 2022, MaxMem= 16106127360 cpu:               2.5 elap:               0.1
 (Enter /sw/contrib/gaussian/g16/B01/g16/l101.exe)
 -----
 title
 -----
 Symbolic Z-matrix:
 Charge =  0 Multiplicity = 1
 H
 O                    1    r1
 O                    2    r2       1    a1
 N                    3    r3       2    a2       1    d1       0
 O                    4    r4       3    a3       2    d2       0
       Variables:
  r1                    0.96898                  
  r2                    1.43472                  
  r3                    1.45878                  
  r4                    1.17073                  
  a1                   97.59495                  
  a2                  102.29752                  
  a3                  109.06955                  
  d1                  180.                       
  d2                  180.                       
 
 ITRead=  0  0  0  0  0
 MicOpt= -1 -1 -1 -1 -1
 NAtoms=      5 NQM=        5 NQMF=       0 NMMI=      0 NMMIF=      0
                NMic=       0 NMicF=      0.
                    Isotopes and Nuclear Properties:
 (Nuclear quadrupole moments (NQMom) in fm**2, nuclear magnetic moments (NMagM)
  in nuclear magnetons)

  Atom         1           2           3           4           5
 IAtWgt=           1          16          16          14          16
 AtmWgt=   1.0078250  15.9949146  15.9949146  14.0030740  15.9949146
 NucSpn=           1           0           0           2           0
 AtZEff=  -0.0000000  -0.0000000  -0.0000000  -0.0000000  -0.0000000
 NQMom=    0.0000000   0.0000000   0.0000000   2.0440000   0.0000000
 NMagM=    2.7928460   0.0000000   0.0000000   0.4037610   0.0000000
 AtZNuc=   1.0000000   8.0000000   8.0000000   7.0000000   8.0000000
 Leave Link  101 at Mon Feb 21 20:11:59 2022, MaxMem= 16106127360 cpu:               2.9 elap:               0.1
 (Enter /sw/contrib/gaussian/g16/B01/g16/l103.exe)

 GradGradGradGradGradGradGradGradGradGradGradGradGradGradGradGradGradGrad
 Berny optimization.
 Initialization pass.
                       ----------------------------
                       !    Initial Parameters    !
                       ! (Angstroms and Degrees)  !
 ----------------------                            ----------------------
 !      Name          Value   Derivative information (Atomic Units)     !
 ------------------------------------------------------------------------
 !       r1          0.969    calculate D2E/DX2 analytically            !
 !       r2          1.4347   calculate D2E/DX2 analytically            !
 !       r3          1.4588   calculate D2E/DX2 analytically            !
 !       r4          1.1707   calculate D2E/DX2 analytically            !
 !       a1         97.5949   calculate D2E/DX2 analytically            !
 !       a2        102.2975   calculate D2E/DX2 analytically            !
 !       a3        109.0696   calculate D2E/DX2 analytically            !
 !       d1        180.0      calculate D2E/DX2 analytically            !
 !       d2        180.0      calculate D2E/DX2 analytically            !
 ------------------------------------------------------------------------
 Trust Radius=3.00D-01 FncErr=1.00D-07 GrdErr=1.00D-07 EigMax=2.50D+02 EigMin=1.00D-04
 Number of steps in this run=      2 maximum allowed number of steps=      2.
 GradGradGradGradGradGradGradGradGradGradGradGradGradGradGradGradGradGrad

 Leave Link  103 at Mon Feb 21 20:11:59 2022, MaxMem= 16106127360 cpu:               1.1 elap:               0.1
 (Enter /sw/contrib/gaussian/g16/B01/g16/l202.exe)
                          Input orientation:                          
 ---------------------------------------------------------------------
 Center     Atomic      Atomic             Coordinates (Angstroms)
 Number     Number       Type             X           Y           Z
 ---------------------------------------------------------------------
      1          1           0        0.000000    0.000000    0.000000
      2          8           0        0.000000    0.000000    0.968976
      3          8           0        1.422129    0.000000    1.158601
      4          7           0        1.541725    0.000000    2.612474
      5          8           0        2.675841    0.000000    2.902969
 ---------------------------------------------------------------------
                    Distance matrix (angstroms):
                    1          2          3          4          5
     1  H    0.000000
     2  O    0.968976   0.000000
     3  O    1.834341   1.434716   0.000000
     4  N    3.033470   2.253443   1.458784   0.000000
     5  O    3.948082   3.301584   2.148165   1.170729   0.000000
 Stoichiometry    HNO3
 Framework group  CS[SG(HNO3)]
 Deg. of freedom     7
 Full point group                 CS      NOp   2
 Largest Abelian subgroup         CS      NOp   2
 Largest concise Abelian subgroup C1      NOp   1
                         Standard orientation:                         
 ---------------------------------------------------------------------
 Center     Atomic      Atomic             Coordinates (Angstroms)
 Number     Number       Type             X           Y           Z
 ---------------------------------------------------------------------
      1          1           0        1.520317    1.699602    0.000000
      2          8           0        1.433406    0.734532    0.000000
      3          8           0       -0.000000    0.673228    0.000000
      4          7           0       -0.249517   -0.764059   -0.000000
      5          8           0       -1.405118   -0.951659   -0.000000
 ---------------------------------------------------------------------
 Rotational constants (GHZ):          55.4555629           5.0587800           4.6358843
 Leave Link  202 at Mon Feb 21 20:11:59 2022, MaxMem= 16106127360 cpu:               1.0 elap:               0.1
 (Enter /sw/contrib/gaussian/g16/B01/g16/l301.exe)
 Standard basis: Aug-CC-pVTZ (5D, 7F)
 Ernie: Thresh=  0.10000D-02 Tol=  0.10000D-05 Strict=F.
 Ernie:  12 primitive shells out of 131 were deleted.
 There are   166 symmetry adapted cartesian basis functions of A'  symmetry.
 There are    79 symmetry adapted cartesian basis functions of A"  symmetry.
 There are   136 symmetry adapted basis functions of A'  symmetry.
 There are    71 symmetry adapted basis functions of A"  symmetry.
   207 basis functions,   315 primitive gaussians,   245 cartesian basis functions
    16 alpha electrons       16 beta electrons
       nuclear repulsion energy       117.3764558312 Hartrees.
 IExCor=    0 DFT=F Ex=HF Corr=None ExCW=0 ScaHFX=  1.000000
 ScaDFX=  1.000000  1.000000  1.000000  1.000000 ScalE2=  1.000000  1.000000
 IRadAn=      5 IRanWt=     -1 IRanGd=            0 ICorTp=0 IEmpDi=  4
 NAtoms=    5 NActive=    5 NUniq=    5 SFac= 1.00D+00 NAtFMM=   60 NAOKFM=F Big=F
 Integral buffers will be    131072 words long.
 Raffenetti 1 integral format.
 Two-electron integral symmetry is turned on.
 Leave Link  301 at Mon Feb 21 20:11:59 2022, MaxMem= 16106127360 cpu:               1.5 elap:               0.1
 (Enter /sw/contrib/gaussian/g16/B01/g16/l302.exe)
 NPDir=0 NMtPBC=     1 NCelOv=     1 NCel=       1 NClECP=     1 NCelD=      1
         NCelK=      1 NCelE2=     1 NClLst=     1 CellRange=     0.0.
 One-electron integrals computed using PRISM.
 One-electron integral symmetry used in STVInt
 NBasis=   207 RedAO= T EigKep=  1.79D-04  NBF=   136    71
 NBsUse=   207 1.00D-06 EigRej= -1.00D+00 NBFU=   136    71
 Leave Link  302 at Mon Feb 21 20:12:00 2022, MaxMem= 16106127360 cpu:               4.3 elap:               0.2
 (Enter /sw/contrib/gaussian/g16/B01/g16/l303.exe)
 DipDrv:  MaxL=1.
 Leave Link  303 at Mon Feb 21 20:12:00 2022, MaxMem= 16106127360 cpu:               0.8 elap:               0.1
 (Enter /sw/contrib/gaussian/g16/B01/g16/l401.exe)
 ExpMin= 2.53D-02 ExpMax= 1.53D+04 ExpMxC= 5.22D+02 IAcc=3 IRadAn=         5 AccDes= 0.00D+00
 Harris functional with IExCor=  205 and IRadAn=       5 diagonalized for initial guess.
 HarFok:  IExCor=  205 AccDes= 0.00D+00 IRadAn=         5 IDoV= 1 UseB2=F ITyADJ=14
 ICtDFT=  3500011 ScaDFX=  1.000000  1.000000  1.000000  1.000000
 FoFCou: FMM=F IPFlag=           0 FMFlag=      100000 FMFlg1=           0
         NFxFlg=           0 DoJE=T BraDBF=F KetDBF=T FulRan=T
         wScrn=  0.000000 ICntrl=       500 IOpCl=  0 I1Cent=   200000004 NGrid=           0
         NMat0=    1 NMatS0=      1 NMatT0=    0 NMatD0=    1 NMtDS0=    0 NMtDT0=    0
 Petite list used in FoFCou.
 Harris En= -279.629359909714    
 JPrj=0 DoOrth=F DoCkMO=F.
 Initial guess orbital symmetries:
       Occupied  (A') (A') (A') (A') (A') (A') (A') (A') (A') (A')
                 (A") (A') (A") (A') (A") (A')
       Virtual   (A") (A') (A') (A') (A') (A') (A") (A') (A') (A')
                 (A") (A') (A") (A') (A') (A") (A') (A") (A') (A')
                 (A') (A') (A') (A') (A') (A") (A') (A") (A') (A')
                 (A") (A') (A") (A') (A') (A") (A') (A") (A') (A')
                 (A") (A') (A") (A') (A") (A') (A') (A') (A") (A")
                 (A') (A') (A') (A') (A") (A') (A") (A') (A") (A')
                 (A') (A') (A") (A') (A') (A") (A') (A") (A') (A')
                 (A") (A') (A') (A") (A") (A') (A') (A") (A') (A')
                 (A') (A") (A') (A") (A") (A') (A') (A") (A') (A')
                 (A') (A") (A') (A") (A') (A") (A") (A') (A') (A")
                 (A') (A') (A") (A') (A') (A') (A') (A") (A") (A')
                 (A") (A') (A') (A') (A') (A") (A') (A') (A") (A')
                 (A") (A') (A') (A") (A') (A") (A') (A") (A") (A')
                 (A') (A') (A') (A") (A") (A') (A") (A') (A') (A')
                 (A') (A") (A") (A') (A') (A") (A') (A') (A') (A')
                 (A") (A') (A') (A") (A') (A") (A') (A") (A') (A")
                 (A') (A") (A') (A") (A') (A") (A") (A") (A') (A')
                 (A") (A') (A") (A') (A") (A') (A") (A") (A') (A')
                 (A') (A') (A') (A') (A') (A') (A') (A') (A') (A')
                 (A')
 The electronic state of the initial guess is 1-A'.
 Leave Link  401 at Mon Feb 21 20:12:00 2022, MaxMem= 16106127360 cpu:               6.3 elap:               0.3
 (Enter /sw/contrib/gaussian/g16/B01/g16/l502.exe)
 Keep R1 ints in memory in symmetry-blocked form, NReq=348887737.
 FoFCou: FMM=F IPFlag=           0 FMFlag=           0 FMFlg1=           0
         NFxFlg=           0 DoJE=F BraDBF=F KetDBF=F FulRan=T
         wScrn=  0.000000 ICntrl=       600 IOpCl=  0 I1Cent=           0 NGrid=           0
         NMat0=    1 NMatS0=  21528 NMatT0=    0 NMatD0=    1 NMtDS0=    0 NMtDT0=    0
 Petite list used in FoFCou.
 Closed shell SCF:
 Using DIIS extrapolation, IDIIS=  1040.
 NGot= 16106127360 LenX= 15988850015 LenY= 15988789549
 Requested convergence on RMS density matrix=1.00D-08 within 128 cycles.
 Requested convergence on MAX density matrix=1.00D-06.
 Requested convergence on             energy=1.00D-06.
 No special actions if energy rises.

 Cycle   1  Pass 1  IDiag  1:
 E= -279.372389747424    
 DIIS: error= 2.45D-02 at cycle   1 NSaved=   1.
 NSaved= 1 IEnMin= 1 EnMin= -279.372389747424     IErMin= 1 ErrMin= 2.45D-02
 ErrMax= 2.45D-02  0.00D+00 EMaxC= 1.00D-01 BMatC= 4.39D-01 BMatP= 4.39D-01
 IDIUse=3 WtCom= 7.55D-01 WtEn= 2.45D-01
 Coeff-Com:  0.100D+01
 Coeff-En:   0.100D+01
 Coeff:      0.100D+01
 Gap=     0.509 Goal=   None    Shift=    0.000
 GapD=    0.509 DampG=2.000 DampE=0.500 DampFc=1.0000 IDamp=-1.
 RMSDP=1.62D-03 MaxDP=9.92D-02              OVMax= 1.12D-01

 Cycle   2  Pass 1  IDiag  1:
 E= -279.454929777637     Delta-E=       -0.082540030212 Rises=F Damp=F
 DIIS: error= 1.75D-02 at cycle   2 NSaved=   2.
 NSaved= 2 IEnMin= 2 EnMin= -279.454929777637     IErMin= 2 ErrMin= 1.75D-02
 ErrMax= 1.75D-02  0.00D+00 EMaxC= 1.00D-01 BMatC= 7.02D-02 BMatP= 4.39D-01
 IDIUse=3 WtCom= 8.25D-01 WtEn= 1.75D-01
 Coeff-Com:  0.192D+00 0.808D+00
 Coeff-En:   0.000D+00 0.100D+01
 Coeff:      0.158D+00 0.842D+00
 Gap=     0.527 Goal=   None    Shift=    0.000
 RMSDP=8.92D-04 MaxDP=3.75D-02 DE=-8.25D-02 OVMax= 6.82D-02

 Cycle   3  Pass 1  IDiag  1:
 E= -279.483496316544     Delta-E=       -0.028566538908 Rises=F Damp=F
 DIIS: error= 1.02D-02 at cycle   3 NSaved=   3.
 NSaved= 3 IEnMin= 3 EnMin= -279.483496316544     IErMin= 3 ErrMin= 1.02D-02
 ErrMax= 1.02D-02  0.00D+00 EMaxC= 1.00D-01 BMatC= 2.80D-02 BMatP= 7.02D-02
 IDIUse=3 WtCom= 8.98D-01 WtEn= 1.02D-01
 Coeff-Com: -0.327D-01 0.377D+00 0.655D+00
 Coeff-En:   0.000D+00 0.237D+00 0.763D+00
 Coeff:     -0.294D-01 0.363D+00 0.666D+00
 Gap=     0.509 Goal=   None    Shift=    0.000
 RMSDP=3.73D-04 MaxDP=1.58D-02 DE=-2.86D-02 OVMax= 3.77D-02

 Cycle   4  Pass 1  IDiag  1:
 E= -279.502037240580     Delta-E=       -0.018540924036 Rises=F Damp=F
 DIIS: error= 1.27D-03 at cycle   4 NSaved=   4.
 NSaved= 4 IEnMin= 4 EnMin= -279.502037240580     IErMin= 4 ErrMin= 1.27D-03
 ErrMax= 1.27D-03  0.00D+00 EMaxC= 1.00D-01 BMatC= 4.83D-04 BMatP= 2.80D-02
 IDIUse=3 WtCom= 9.87D-01 WtEn= 1.27D-02
 Coeff-Com: -0.114D-01 0.561D-01 0.156D+00 0.799D+00
 Coeff-En:   0.000D+00 0.000D+00 0.000D+00 0.100D+01
 Coeff:     -0.113D-01 0.554D-01 0.154D+00 0.802D+00
 Gap=     0.502 Goal=   None    Shift=    0.000
 RMSDP=9.04D-05 MaxDP=2.70D-03 DE=-1.85D-02 OVMax= 1.11D-02

 Cycle   5  Pass 1  IDiag  1:
 E= -279.502714389334     Delta-E=       -0.000677148754 Rises=F Damp=F
 DIIS: error= 7.27D-04 at cycle   5 NSaved=   5.
 NSaved= 5 IEnMin= 5 EnMin= -279.502714389334     IErMin= 5 ErrMin= 7.27D-04
 ErrMax= 7.27D-04  0.00D+00 EMaxC= 1.00D-01 BMatC= 8.68D-05 BMatP= 4.83D-04
 IDIUse=3 WtCom= 9.93D-01 WtEn= 7.27D-03
 Coeff-Com:  0.615D-02-0.728D-01-0.119D+00 0.142D-01 0.117D+01
 Coeff-En:   0.000D+00 0.000D+00 0.000D+00 0.000D+00 0.100D+01
 Coeff:      0.610D-02-0.723D-01-0.118D+00 0.141D-01 0.117D+01
 Gap=     0.501 Goal=   None    Shift=    0.000
 RMSDP=7.77D-05 MaxDP=2.14D-03 DE=-6.77D-04 OVMax= 1.14D-02

 Cycle   6  Pass 1  IDiag  1:
 E= -279.503035287314     Delta-E=       -0.000320897980 Rises=F Damp=F
 DIIS: error= 2.71D-04 at cycle   6 NSaved=   6.
 NSaved= 6 IEnMin= 6 EnMin= -279.503035287314     IErMin= 6 ErrMin= 2.71D-04
 ErrMax= 2.71D-04  0.00D+00 EMaxC= 1.00D-01 BMatC= 1.66D-05 BMatP= 8.68D-05
 IDIUse=3 WtCom= 9.97D-01 WtEn= 2.71D-03
 Coeff-Com:  0.401D-03 0.417D-02 0.899D-02-0.135D+00-0.264D+00 0.139D+01
 Coeff-En:   0.000D+00 0.000D+00 0.000D+00 0.000D+00 0.000D+00 0.100D+01
 Coeff:      0.400D-03 0.416D-02 0.896D-02-0.135D+00-0.264D+00 0.138D+01
 Gap=     0.502 Goal=   None    Shift=    0.000
 RMSDP=4.65D-05 MaxDP=1.26D-03 DE=-3.21D-04 OVMax= 5.77D-03

 Cycle   7  Pass 1  IDiag  1:
 E= -279.503109740945     Delta-E=       -0.000074453630 Rises=F Damp=F
 DIIS: error= 1.12D-04 at cycle   7 NSaved=   7.
 NSaved= 7 IEnMin= 7 EnMin= -279.503109740945     IErMin= 7 ErrMin= 1.12D-04
 ErrMax= 1.12D-04  0.00D+00 EMaxC= 1.00D-01 BMatC= 3.67D-06 BMatP= 1.66D-05
 IDIUse=3 WtCom= 9.99D-01 WtEn= 1.12D-03
 Coeff-Com: -0.946D-03 0.129D-01 0.256D-01-0.118D-01-0.257D+00 0.263D+00
 Coeff-Com:  0.968D+00
 Coeff-En:   0.000D+00 0.000D+00 0.000D+00 0.000D+00 0.000D+00 0.000D+00
 Coeff-En:   0.100D+01
 Coeff:     -0.945D-03 0.129D-01 0.256D-01-0.118D-01-0.256D+00 0.262D+00
 Coeff:      0.968D+00
 Gap=     0.502 Goal=   None    Shift=    0.000
 RMSDP=1.33D-05 MaxDP=3.82D-04 DE=-7.45D-05 OVMax= 1.58D-03

 Cycle   8  Pass 1  IDiag  1:
 E= -279.503117864270     Delta-E=       -0.000008123326 Rises=F Damp=F
 DIIS: error= 6.06D-05 at cycle   8 NSaved=   8.
 NSaved= 8 IEnMin= 8 EnMin= -279.503117864270     IErMin= 8 ErrMin= 6.06D-05
 ErrMax= 6.06D-05  0.00D+00 EMaxC= 1.00D-01 BMatC= 6.00D-07 BMatP= 3.67D-06
 IDIUse=1 WtCom= 1.00D+00 WtEn= 0.00D+00
 Coeff-Com: -0.445D-03 0.342D-02 0.759D-02 0.270D-01-0.398D-01-0.201D+00
 Coeff-Com:  0.269D+00 0.934D+00
 Coeff:     -0.445D-03 0.342D-02 0.759D-02 0.270D-01-0.398D-01-0.201D+00
 Coeff:      0.269D+00 0.934D+00
 Gap=     0.502 Goal=   None    Shift=    0.000
 RMSDP=6.11D-06 MaxDP=1.83D-04 DE=-8.12D-06 OVMax= 6.61D-04

 Cycle   9  Pass 1  IDiag  1:
 E= -279.503119371387     Delta-E=       -0.000001507117 Rises=F Damp=F
 DIIS: error= 1.58D-05 at cycle   9 NSaved=   9.
 NSaved= 9 IEnMin= 9 EnMin= -279.503119371387     IErMin= 9 ErrMin= 1.58D-05
 ErrMax= 1.58D-05  0.00D+00 EMaxC= 1.00D-01 BMatC= 7.39D-08 BMatP= 6.00D-07
 IDIUse=1 WtCom= 1.00D+00 WtEn= 0.00D+00
 Coeff-Com:  0.122D-03-0.172D-02-0.310D-02-0.221D-02 0.341D-01-0.140D-03
 Coeff-Com: -0.196D+00-0.444D-01 0.121D+01
 Coeff:      0.122D-03-0.172D-02-0.310D-02-0.221D-02 0.341D-01-0.140D-03
 Coeff:     -0.196D+00-0.444D-01 0.121D+01
 Gap=     0.502 Goal=   None    Shift=    0.000
 RMSDP=1.94D-06 MaxDP=6.65D-05 DE=-1.51D-06 OVMax= 1.77D-04

 Cycle  10  Pass 1  IDiag  1:
 E= -279.503119531941     Delta-E=       -0.000000160554 Rises=F Damp=F
 DIIS: error= 4.21D-06 at cycle  10 NSaved=  10.
 NSaved=10 IEnMin=10 EnMin= -279.503119531941     IErMin=10 ErrMin= 4.21D-06
 ErrMax= 4.21D-06  0.00D+00 EMaxC= 1.00D-01 BMatC= 5.56D-09 BMatP= 7.39D-08
 IDIUse=1 WtCom= 1.00D+00 WtEn= 0.00D+00
 Coeff-Com:  0.325D-04-0.261D-03-0.356D-03-0.275D-02 0.199D-02 0.201D-01
 Coeff-Com: -0.212D-01-0.698D-01-0.710D-01 0.114D+01
 Coeff:      0.325D-04-0.261D-03-0.356D-03-0.275D-02 0.199D-02 0.201D-01
 Coeff:     -0.212D-01-0.698D-01-0.710D-01 0.114D+01
 Gap=     0.502 Goal=   None    Shift=    0.000
 RMSDP=5.00D-07 MaxDP=2.09D-05 DE=-1.61D-07 OVMax= 4.25D-05

 Cycle  11  Pass 1  IDiag  1:
 E= -279.503119544410     Delta-E=       -0.000000012469 Rises=F Damp=F
 DIIS: error= 2.05D-06 at cycle  11 NSaved=  11.
 NSaved=11 IEnMin=11 EnMin= -279.503119544410     IErMin=11 ErrMin= 2.05D-06
 ErrMax= 2.05D-06  0.00D+00 EMaxC= 1.00D-01 BMatC= 6.76D-10 BMatP= 5.56D-09
 IDIUse=1 WtCom= 1.00D+00 WtEn= 0.00D+00
 Coeff-Com: -0.213D-04 0.245D-03 0.496D-03 0.563D-03-0.428D-02-0.386D-02
 Coeff-Com:  0.268D-01 0.228D-01-0.138D+00-0.178D+00 0.127D+01
 Coeff:     -0.213D-04 0.245D-03 0.496D-03 0.563D-03-0.428D-02-0.386D-02
 Coeff:      0.268D-01 0.228D-01-0.138D+00-0.178D+00 0.127D+01
 Gap=     0.502 Goal=   None    Shift=    0.000
 RMSDP=1.79D-07 MaxDP=6.63D-06 DE=-1.25D-08 OVMax= 1.73D-05

 Cycle  12  Pass 1  IDiag  1:
 E= -279.503119546247     Delta-E=       -0.000000001838 Rises=F Damp=F
 DIIS: error= 5.97D-07 at cycle  12 NSaved=  12.
 NSaved=12 IEnMin=12 EnMin= -279.503119546247     IErMin=12 ErrMin= 5.97D-07
 ErrMax= 5.97D-07  0.00D+00 EMaxC= 1.00D-01 BMatC= 7.22D-11 BMatP= 6.76D-10
 IDIUse=1 WtCom= 1.00D+00 WtEn= 0.00D+00
 Coeff-Com:  0.125D-05-0.290D-04-0.637D-04 0.173D-03 0.107D-02-0.233D-02
 Coeff-Com: -0.417D-02 0.641D-02 0.408D-01-0.111D+00-0.287D+00 0.136D+01
 Coeff:      0.125D-05-0.290D-04-0.637D-04 0.173D-03 0.107D-02-0.233D-02
 Coeff:     -0.417D-02 0.641D-02 0.408D-01-0.111D+00-0.287D+00 0.136D+01
 Gap=     0.502 Goal=   None    Shift=    0.000
 RMSDP=7.20D-08 MaxDP=2.82D-06 DE=-1.84D-09 OVMax= 6.69D-06

 Cycle  13  Pass 1  IDiag  1:
 E= -279.503119546478     Delta-E=       -0.000000000230 Rises=F Damp=F
 DIIS: error= 1.60D-07 at cycle  13 NSaved=  13.
 NSaved=13 IEnMin=13 EnMin= -279.503119546478     IErMin=13 ErrMin= 1.60D-07
 ErrMax= 1.60D-07  0.00D+00 EMaxC= 1.00D-01 BMatC= 3.93D-12 BMatP= 7.22D-11
 IDIUse=1 WtCom= 1.00D+00 WtEn= 0.00D+00
 Coeff-Com:  0.126D-05-0.138D-04-0.222D-04-0.907D-04 0.122D-03 0.791D-03
 Coeff-Com: -0.121D-02-0.290D-02 0.570D-03 0.404D-01-0.316D-01-0.330D+00
 Coeff-Com:  0.132D+01
 Coeff:      0.126D-05-0.138D-04-0.222D-04-0.907D-04 0.122D-03 0.791D-03
 Coeff:     -0.121D-02-0.290D-02 0.570D-03 0.404D-01-0.316D-01-0.330D+00
 Coeff:      0.132D+01
 Gap=     0.502 Goal=   None    Shift=    0.000
 RMSDP=1.89D-08 MaxDP=5.59D-07 DE=-2.30D-10 OVMax= 1.53D-06

 Cycle  14  Pass 1  IDiag  1:
 E= -279.503119546490     Delta-E=       -0.000000000013 Rises=F Damp=F
 DIIS: error= 2.32D-08 at cycle  14 NSaved=  14.
 NSaved=14 IEnMin=14 EnMin= -279.503119546490     IErMin=14 ErrMin= 2.32D-08
 ErrMax= 2.32D-08  0.00D+00 EMaxC= 1.00D-01 BMatC= 1.76D-13 BMatP= 3.93D-12
 IDIUse=1 WtCom= 1.00D+00 WtEn= 0.00D+00
 Coeff-Com: -0.183D-06 0.298D-05 0.543D-05 0.473D-05-0.785D-04 0.407D-04
 Coeff-Com:  0.324D-03 0.136D-03-0.233D-02 0.135D-02 0.163D-01-0.247D-01
 Coeff-Com: -0.191D+00 0.120D+01
 Coeff:     -0.183D-06 0.298D-05 0.543D-05 0.473D-05-0.785D-04 0.407D-04
 Coeff:      0.324D-03 0.136D-03-0.233D-02 0.135D-02 0.163D-01-0.247D-01
 Coeff:     -0.191D+00 0.120D+01
 Gap=     0.502 Goal=   None    Shift=    0.000
 RMSDP=3.61D-09 MaxDP=8.99D-08 DE=-1.27D-11 OVMax= 3.14D-07

 SCF Done:  E(RHF) =  -279.503119546     A.U. after   14 cycles
            NFock= 14  Conv=0.36D-08     -V/T= 2.0022
 KE= 2.788814173234D+02 PE=-8.961022173819D+02 EE= 2.203412246808D+02
 Leave Link  502 at Mon Feb 21 20:12:04 2022, MaxMem= 16106127360 cpu:              54.6 elap:               3.6
 (Enter /sw/contrib/gaussian/g16/B01/g16/l801.exe)
 ExpMin= 2.53D-02 ExpMax= 1.53D+04 ExpMxC= 5.22D+02 IAcc=3 IRadAn=         5 AccDes= 0.00D+00
 HarFok:  IExCor=  205 AccDes= 0.00D+00 IRadAn=         5 IDoV=-2 UseB2=F ITyADJ=14
 ICtDFT= 12500011 ScaDFX=  1.000000  1.000000  1.000000  1.000000
 Largest valence mixing into a core orbital is  2.08D-04
 Largest core mixing into a valence orbital is  3.61D-05
 Range of M.O.s used for correlation:     5   207
 NBasis=   207 NAE=    16 NBE=    16 NFC=     4 NFV=     0
 NROrb=    203 NOA=    12 NOB=    12 NVA=   191 NVB=   191

 **** Warning!!: The largest alpha MO coefficient is  0.17749774D+02

 Leave Link  801 at Mon Feb 21 20:12:04 2022, MaxMem= 16106127360 cpu:               2.2 elap:               0.1
 (Enter /sw/contrib/gaussian/g16/B01/g16/l906.exe)
 Frozen-core derivative calculation, NFC=   4 NFV=   0.
 FulOut=F Deriv=T AODrv=T NAtomX=     5
   MMem=           0  MDisk=          12 MDiskD=          12
  W3Min=      811440 MinDsk=     2425030 NBas6D=         245
 NBas2D=       30762    NTT=       30135    LW2=     7400000
    MDV= 16105574227 MDiskM=      328644 NBas2p=       30702
 Disk-based method using ON**2 memory for 12 occupieds at a time.
 Permanent disk used for amplitudes=    11516536 words.
 Estimated scratch disk usage=   321251614 words.
 IMap=   1   2   3   4   5   6   7   8   9  10  11  12  13  14  15  16
 Actual    scratch disk usage=   310331678 words.
 JobTyp=1 Pass  1:  I=   5 to  16 NPSUse= 28 ParTrn=T ParDer=T DoDerP=T.
 (rs|ai) integrals will be sorted in core.
 Spin components of T(2) and E(2):
     alpha-alpha T2 =       0.3383693334D-01 E2=     -0.1222807447D+00
     alpha-beta  T2 =       0.1854150631D+00 E2=     -0.6988498551D+00
     beta-beta   T2 =       0.3383693334D-01 E2=     -0.1222807447D+00
 The integrals were generated   1 times.
 ANorm=    0.1119414548D+01
 E2 =    -0.9434113444D+00 EUMP2 =    -0.28044653089094D+03
 Leave Link  906 at Mon Feb 21 20:13:41 2022, MaxMem= 16106127360 cpu:            2709.3 elap:              96.9
 (Enter /sw/contrib/gaussian/g16/B01/g16/l1101.exe)
 Using compressed Sx but separate Hx and Fx, NAtomX=     5.
 Will process      6 centers per pass.
 Leave Link 1101 at Mon Feb 21 20:13:41 2022, MaxMem= 16106127360 cpu:               6.3 elap:               0.3
 (Enter /sw/contrib/gaussian/g16/B01/g16/l1102.exe)
 Leave Link 1102 at Mon Feb 21 20:13:41 2022, MaxMem= 16106127360 cpu:               1.6 elap:               0.1
 (Enter /sw/contrib/gaussian/g16/B01/g16/l1110.exe)
 Forming Gx(P) for the SCF density, NAtomX=     5.
 Integral derivatives from FoFJK, PRISM(SPDF).
 Do as many integral derivatives as possible in FoFJK.
 G2DrvN: MDV=   16106126844.
 G2DrvN: will do     6 centers at a time, making    1 passes.
 Calling FoFCou, ICntrl=  3107 FMM=F I1Cent=   0 AccDes= 0.00D+00.
 FoFJK:  IHMeth= 1 ICntrl=    3107 DoSepK=F KAlg= 0 I1Cent=           0 FoldK=F
 IRaf=         0 NMat=       1 IRICut=       1 DoRegI=T DoRafI=F ISym2E= 1 IDoP0=0 IntGTp=1.
 FoFCou: FMM=F IPFlag=           0 FMFlag=      100000 FMFlg1=           0
         NFxFlg=           0 DoJE=F BraDBF=F KetDBF=F FulRan=T
         wScrn=  0.000000 ICntrl=      3107 IOpCl=  0 I1Cent=           0 NGrid=           0
         NMat0=    1 NMatS0=      1 NMatT0=    0 NMatD0=    1 NMtDS0=    0 NMtDT0=    0
 Petite list used in FoFCou.
 End of G2Drv F.D. properties file   721 does not exist.
 End of G2Drv F.D. properties file   722 does not exist.
 End of G2Drv F.D. properties file   788 does not exist.
 Leave Link 1110 at Mon Feb 21 20:13:44 2022, MaxMem= 16106127360 cpu:              83.7 elap:               3.0
 (Enter /sw/contrib/gaussian/g16/B01/g16/l1002.exe)
 Minotr:  Closed shell wavefunction.
          IDoAtm=11111
          Frozen-core window.
          Direct CPHF calculation.
          Differentiating once with respect to electric field.
                with respect to dipole field.
          Differentiating once with respect to nuclear coordinates.
          Requested convergence is 1.0D-08 RMS, and 1.0D-07 maximum.
          Secondary convergence is 1.0D-12 RMS, and 1.0D-12 maximum.
          NewPWx=T KeepS1=T KeepF1=T KeepIn=T MapXYZ=F SortEE=F KeepMc=T.
 Keep R1 ints in memory in symmetry-blocked form, NReq=348888983.
 FoFCou: FMM=F IPFlag=           0 FMFlag=           0 FMFlg1=           0
         NFxFlg=           0 DoJE=F BraDBF=F KetDBF=F FulRan=T
         wScrn=  0.000000 ICntrl=       600 IOpCl=  0 I1Cent=           0 NGrid=           0
         NMat0=    1 NMatS0=  21528 NMatT0=    0 NMatD0=    1 NMtDS0=    0 NMtDT0=    0
 Petite list used in FoFCou.
          MDV=   16106127360 using IRadAn=       1.
          Solving linear equations simultaneously, MaxMat=       0.
          There are    18 degrees of freedom in the 1st order CPHF.  IDoFFX=6 NUNeed=    18.
     15 vectors produced by pass  0 Test12= 1.70D-14 5.56D-09 XBig12= 8.04D+00 1.12D+00.
 AX will form    15 AO Fock derivatives at one time.
     15 vectors produced by pass  1 Test12= 1.70D-14 5.56D-09 XBig12= 1.30D+00 2.55D-01.
     15 vectors produced by pass  2 Test12= 1.70D-14 5.56D-09 XBig12= 1.37D-01 1.01D-01.
     15 vectors produced by pass  3 Test12= 1.70D-14 5.56D-09 XBig12= 4.83D-03 1.13D-02.
     15 vectors produced by pass  4 Test12= 1.70D-14 5.56D-09 XBig12= 9.69D-05 1.95D-03.
     15 vectors produced by pass  5 Test12= 1.70D-14 5.56D-09 XBig12= 1.37D-06 1.76D-04.
     15 vectors produced by pass  6 Test12= 1.70D-14 5.56D-09 XBig12= 1.09D-08 1.47D-05.
     13 vectors produced by pass  7 Test12= 1.70D-14 5.56D-09 XBig12= 8.03D-11 1.35D-06.
      3 vectors produced by pass  8 Test12= 1.70D-14 5.56D-09 XBig12= 5.49D-13 1.16D-07.
      2 vectors produced by pass  9 Test12= 1.70D-14 5.56D-09 XBig12= 3.53D-15 9.64D-09.
 InvSVY:  IOpt=1 It=  1 EMax= 1.11D-15
 Solved reduced A of dimension   123 with    15 vectors.
 FullF1:  Do perturbations      1 to      18.
 Saving first derivative matrices.
 End of Minotr F.D. properties file   721 does not exist.
 End of Minotr F.D. properties file   722 does not exist.
 End of Minotr F.D. properties file   788 does not exist.
 Leave Link 1002 at Mon Feb 21 20:13:47 2022, MaxMem= 16106127360 cpu:              79.1 elap:               2.9
 (Enter /sw/contrib/gaussian/g16/B01/g16/l811.exe)
 MDV= 16106127360.
 Form MO integral derivatives with frozen-active canonical formalism.
 MOERI=1 MOERIx=1 NAtoms=     5 NAtomX=     5.
 Discarding MO integrals.
 MO basis two electron integral derivatives will not be stored on disk.
 IAlg= 3 DoFC=T DoPWx=T Debug=F.
 Frozen-core window:  NFC=   4 NFV=   0.
 Reordered first order wavefunction length =     18678272
 In DefCFB: NBatch=  1 ICI= 16 ICA=191 LFMax= 96
            Large arrays: LIAPS=   619940160 LIARS=   288257200 words.
 In StABat: MaxSiz= 55 MinSiz= 25 NAtomB=  5
 DoIAMN: NPSUse= 28.
 Leave Link  811 at Mon Feb 21 20:15:06 2022, MaxMem= 16106127360 cpu:            2214.1 elap:              79.2
 (Enter /sw/contrib/gaussian/g16/B01/g16/l804.exe)
 Frozen-core window:  NFC=   4 NFV=   0.
 Closed-shell transformation, MDV= 16106127360 ITran=4 ISComp=1.
 Semi-Direct transformation.
 ModeAB=           2 MOrb=            16 LenV=   16104923023
 LASXX=     67341636 LTotXX=    67341636 LenRXX=    67341636
 LTotAB=    68301760 MaxLAS=    99807120 LenRXY=    99807120
 NonZer=   134683272 LenScr=   202817536 LnRSAI=           0
 LnScr1=           0 LExtra=           0 Total=    369966292
 MaxDsk=          -1 SrtSym=           F ITran=            4
 DoSDTr:  NPSUse= 28
 JobTyp=0 Pass  1:  I=   1 to  16.
 (rs|ai) integrals will be sorted in core.
 Complete sort for first half transformation.
 First half transformation complete.
 Begin second half transformation for I=  10.
 Begin second half transformation for I=  10.
 Complete sort for second half transformation.
 Second half transformation complete.
 Spin components of T(2) and E(2):
     alpha-alpha T2 =       0.3383693334D-01 E2=     -0.1222807447D+00
     alpha-beta  T2 =       0.1854150631D+00 E2=     -0.6988498551D+00
     beta-beta   T2 =       0.3383693334D-01 E2=     -0.1222807447D+00
 ANorm=    0.1583091235D+01
 E2 =    -0.9434113444D+00 EUMP2 =    -0.28044653089094D+03
 Leave Link  804 at Mon Feb 21 20:15:23 2022, MaxMem= 16106127360 cpu:             458.1 elap:              16.5
 (Enter /sw/contrib/gaussian/g16/B01/g16/l1002.exe)
 Minotr:  Closed shell wavefunction.
          Computing MP2/KS-MP2 derivatives.
          Using Z-Vector for PSCF gradient.
          Skipping F1 and S1 gradient terms here.
          IDoAtm=11111
          Frozen-core window.
          Using MO integrals in the linear equations.
          Forming densities via direct SCF.
          Differentiating once with respect to electric field.
                with respect to dipole field.
          Differentiating once with respect to nuclear coordinates.
          Using symmetry in CPHF.
          Requested convergence is 1.0D-10 RMS, and 1.0D-09 maximum.
          NewPWx=F KeepS1=T KeepF1=T KeepIn=T MapXYZ=F SortEE=F KeepMc=T.
          MDV=   16106127360 using IRadAn=       5.
          Solving linear equations separately, MaxMat=       0.
          There are     1 degrees of freedom in the 1st order CPHF.  IDoFFX=0 NUNeed=     1.
 FoFJK:  IHMeth= 1 ICntrl=       0 DoSepK=F KAlg= 0 I1Cent=           0 FoldK=F
 IRaf=         0 NMat=       1 IRICut=       1 DoRegI=T DoRafI=F ISym2E= 0 IDoP0=0 IntGTp=1.
 FoFCou: FMM=F IPFlag=           0 FMFlag=      100000 FMFlg1=           0
         NFxFlg=           0 DoJE=F BraDBF=F KetDBF=F FulRan=T
         wScrn=  0.000000 ICntrl=         0 IOpCl=  0 I1Cent=           0 NGrid=           0
         NMat0=    1 NMatS0=      1 NMatT0=    0 NMatD0=    1 NMtDS0=    0 NMtDT0=    0
 Symmetry not used in FoFCou.
 LinEq1:  Iter=  0 NonCon=     1 RMS=5.92D-03 Max=1.31D-01 NDo=     1
 LinEq1:  Iter=  1 NonCon=     1 RMS=1.90D-03 Max=3.86D-02 NDo=     1
 LinEq1:  Iter=  2 NonCon=     1 RMS=8.65D-04 Max=1.37D-02 NDo=     1
 LinEq1:  Iter=  3 NonCon=     1 RMS=3.86D-04 Max=7.90D-03 NDo=     1
 LinEq1:  Iter=  4 NonCon=     1 RMS=1.20D-04 Max=1.94D-03 NDo=     1
 LinEq1:  Iter=  5 NonCon=     1 RMS=4.72D-05 Max=7.55D-04 NDo=     1
 LinEq1:  Iter=  6 NonCon=     1 RMS=2.05D-05 Max=2.63D-04 NDo=     1
 LinEq1:  Iter=  7 NonCon=     1 RMS=8.09D-06 Max=1.56D-04 NDo=     1
 LinEq1:  Iter=  8 NonCon=     1 RMS=3.43D-06 Max=3.45D-05 NDo=     1
 LinEq1:  Iter=  9 NonCon=     1 RMS=9.33D-07 Max=1.29D-05 NDo=     1
 LinEq1:  Iter= 10 NonCon=     1 RMS=1.83D-07 Max=1.94D-06 NDo=     1
 LinEq1:  Iter= 11 NonCon=     1 RMS=3.41D-08 Max=3.73D-07 NDo=     1
 LinEq1:  Iter= 12 NonCon=     1 RMS=8.11D-09 Max=1.35D-07 NDo=     1
 LinEq1:  Iter= 13 NonCon=     1 RMS=1.42D-09 Max=2.73D-08 NDo=     1
 LinEq1:  Iter= 14 NonCon=     1 RMS=2.55D-10 Max=3.55D-09 NDo=     1
 LinEq1:  Iter= 15 NonCon=     0 RMS=4.56D-11 Max=5.02D-10 NDo=     1
 Linear equations converged to 1.000D-10 1.000D-09 after    15 iterations.
 End of Minotr F.D. properties file   721 does not exist.
 End of Minotr F.D. properties file   722 does not exist.
 End of Minotr F.D. properties file   788 does not exist.
 Leave Link 1002 at Mon Feb 21 20:15:25 2022, MaxMem= 16106127360 cpu:              65.9 elap:               2.4
 (Enter /sw/contrib/gaussian/g16/B01/g16/l1102.exe)
 Use density number 2.
 Symmetrizing basis deriv contribution to polar:
 IMax=3 JMax=2 DiffMx= 0.00D+00
 Leave Link 1102 at Mon Feb 21 20:15:25 2022, MaxMem= 16106127360 cpu:               1.4 elap:               0.1
 (Enter /sw/contrib/gaussian/g16/B01/g16/l1110.exe)
 Forming Gx(P) for generalized density number  2 NAtomX=     5.
 Integral derivatives from FoFJK, PRISM(SPDF).
 Do as many integral derivatives as possible in FoFJK.
 G2DrvN: MDV=   16106126844.
 G2DrvN: will do     6 centers at a time, making    1 passes.
 Calling FoFCou, ICntrl=  3107 FMM=F I1Cent=   0 AccDes= 0.00D+00.
 FoFJK:  IHMeth= 1 ICntrl=    3107 DoSepK=F KAlg= 0 I1Cent=           0 FoldK=F
 IRaf=         0 NMat=       1 IRICut=       1 DoRegI=T DoRafI=F ISym2E= 1 IDoP0=0 IntGTp=1.
 FoFCou: FMM=F IPFlag=           0 FMFlag=      100000 FMFlg1=           0
         NFxFlg=           0 DoJE=F BraDBF=F KetDBF=F FulRan=T
         wScrn=  0.000000 ICntrl=      3107 IOpCl=  0 I1Cent=           0 NGrid=           0
         NMat0=    1 NMatS0=      1 NMatT0=    0 NMatD0=    1 NMtDS0=    0 NMtDT0=    0
 Petite list used in FoFCou.
 End of G2Drv F.D. properties file   721 does not exist.
 End of G2Drv F.D. properties file   722 does not exist.
 End of G2Drv F.D. properties file   788 does not exist.
 Leave Link 1110 at Mon Feb 21 20:15:28 2022, MaxMem= 16106127360 cpu:              83.3 elap:               3.0
 (Enter /sw/contrib/gaussian/g16/B01/g16/l1112.exe)
 MP22nd: MDV=   16106127360
 This link is doing NAtomX=     5 total of    18 degrees of freedom.
 Using ON3 I/O method in MakUI.
 Frozen-core window:  NFC=   4 NFV=   0.
 Using Ix for Sx.
 Use MO integrals over full window.
 Using OV2 memory method for fx*t*t/D, MaxI=    16 DoOO2=F NP=  28.
 R2 and R3 integrals will be kept in memory, NReq=   915591705.
 FoFCou: FMM=F IPFlag=           0 FMFlag=           0 FMFlg1=           0
         NFxFlg=           0 DoJE=F BraDBF=F KetDBF=F FulRan=T
         wScrn=  0.000000 ICntrl=       600 IOpCl=  0 I1Cent=           0 NGrid=           0
         NMat0=    1 NMatS0=      1 NMatT0=    0 NMatD0=    1 NMtDS0=    0 NMtDT0=    0
 Symmetry not used in FoFCou.
 DD1Dir will call FoFMem   1 times, MxPair=       272
 NAB=   136 NAA=     0 NBB=     0.
 Symmetry is being used.
 FoFJK:  IHMeth= 1 ICntrl=       0 DoSepK=F KAlg= 0 I1Cent=           0 FoldK=F
 IRaf=         0 NMat=      18 IRICut=      45 DoRegI=T DoRafI=T ISym2E= 2 IDoP0=3 IntGTp=3.
 Discarding MO integrals.
 Leave Link 1112 at Mon Feb 21 20:16:11 2022, MaxMem= 16106127360 cpu:            1185.8 elap:              43.0
 (Enter /sw/contrib/gaussian/g16/B01/g16/l601.exe)
 Copying SCF densities to generalized density rwf, IOpCl= 0 IROHF=0.

 **********************************************************************

            Population analysis using the MP2 Density.

 **********************************************************************

 Orbital symmetries:
       Occupied  (A') (A') (A') (A') (A') (A') (A') (A') (A') (A')
                 (A") (A') (A") (A') (A") (A')
       Virtual   (A') (A") (A') (A') (A") (A') (A') (A') (A") (A')
                 (A") (A') (A') (A") (A') (A') (A') (A") (A') (A')
                 (A') (A') (A') (A') (A") (A') (A') (A") (A') (A')
                 (A") (A') (A") (A') (A') (A") (A') (A") (A') (A')
                 (A") (A') (A") (A') (A') (A") (A') (A') (A") (A')
                 (A") (A') (A') (A') (A") (A') (A") (A') (A") (A')
                 (A') (A') (A") (A') (A') (A") (A') (A") (A') (A')
                 (A") (A') (A') (A") (A") (A') (A') (A") (A') (A')
                 (A') (A") (A') (A") (A") (A') (A') (A") (A') (A')
                 (A") (A') (A') (A") (A') (A") (A') (A") (A') (A')
                 (A") (A') (A") (A') (A') (A") (A') (A') (A") (A')
                 (A") (A') (A') (A') (A") (A') (A') (A') (A") (A')
                 (A") (A') (A") (A') (A') (A") (A") (A') (A") (A')
                 (A') (A') (A') (A") (A") (A") (A') (A') (A') (A')
                 (A") (A') (A") (A') (A') (A") (A') (A') (A') (A')
                 (A") (A') (A') (A") (A') (A") (A') (A") (A') (A")
                 (A') (A") (A') (A') (A") (A") (A") (A') (A") (A')
                 (A") (A') (A") (A') (A") (A') (A") (A") (A') (A')
                 (A') (A') (A') (A') (A') (A') (A') (A') (A') (A')
                 (A')
 The electronic state is 1-A'.
 Alpha  occ. eigenvalues --  -20.68972 -20.68393 -20.65824 -15.81241  -1.62473
 Alpha  occ. eigenvalues --   -1.50396  -1.25077  -0.94836  -0.77502  -0.76086
 Alpha  occ. eigenvalues --   -0.71375  -0.67948  -0.62239  -0.59206  -0.48151
 Alpha  occ. eigenvalues --   -0.47200
 Alpha virt. eigenvalues --    0.02966   0.07170   0.08640   0.10179   0.13394
 Alpha virt. eigenvalues --    0.13480   0.14419   0.15462   0.17820   0.19399
 Alpha virt. eigenvalues --    0.19973   0.20653   0.22243   0.23755   0.24498
 Alpha virt. eigenvalues --    0.26625   0.29360   0.30405   0.31098   0.34481
 Alpha virt. eigenvalues --    0.35053   0.38765   0.42311   0.43199   0.52767
 Alpha virt. eigenvalues --    0.52968   0.55884   0.58220   0.62635   0.63815
 Alpha virt. eigenvalues --    0.67437   0.68420   0.70803   0.71056   0.72521
 Alpha virt. eigenvalues --    0.72890   0.74450   0.79223   0.79298   0.81032
 Alpha virt. eigenvalues --    0.81308   0.83206   0.86845   0.91032   0.92233
 Alpha virt. eigenvalues --    0.92804   0.95576   0.97856   0.98593   1.01656
 Alpha virt. eigenvalues --    1.05338   1.05438   1.08432   1.11986   1.14423
 Alpha virt. eigenvalues --    1.19090   1.22075   1.23414   1.33934   1.35163
 Alpha virt. eigenvalues --    1.38642   1.45414   1.48748   1.50750   1.53919
 Alpha virt. eigenvalues --    1.56853   1.58101   1.61449   1.66609   1.67239
 Alpha virt. eigenvalues --    1.70363   1.79549   1.83283   1.83515   1.88037
 Alpha virt. eigenvalues --    1.91183   1.95633   1.99468   2.00375   2.07882
 Alpha virt. eigenvalues --    2.12471   2.13237   2.15502   2.22543   2.26624
 Alpha virt. eigenvalues --    2.26872   2.29080   2.31664   2.34996   2.38374
 Alpha virt. eigenvalues --    2.42755   2.43188   2.45548   2.46259   2.47929
 Alpha virt. eigenvalues --    2.50368   2.59203   2.59892   2.62381   2.62974
 Alpha virt. eigenvalues --    2.64069   2.67608   2.75890   2.82582   2.86129
 Alpha virt. eigenvalues --    2.89434   2.90330   2.93086   2.96288   3.03716
 Alpha virt. eigenvalues --    3.06798   3.11740   3.22350   3.24223   3.32300
 Alpha virt. eigenvalues --    3.33422   3.52507   3.64699   3.83866   3.84931
 Alpha virt. eigenvalues --    4.15246   4.17030   4.18676   4.26016   4.35684
 Alpha virt. eigenvalues --    4.39775   4.48390   4.51641   4.66501   4.72130
 Alpha virt. eigenvalues --    4.80646   4.82232   4.83123   4.89754   5.02493
 Alpha virt. eigenvalues --    5.07828   5.10713   5.14459   5.17999   5.24536
 Alpha virt. eigenvalues --    5.27244   5.30884   5.33256   5.36030   5.61746
 Alpha virt. eigenvalues --    5.67399   5.77532   5.86084   5.96716   6.17357
 Alpha virt. eigenvalues --    6.27746   6.34145   6.39001   6.49223   6.50513
 Alpha virt. eigenvalues --    6.60791   6.65505   6.69713   6.75616   6.77319
 Alpha virt. eigenvalues --    6.83302   6.90033   7.03022   7.06960   7.07888
 Alpha virt. eigenvalues --    7.10757   7.12798   7.16599   7.18997   7.23040
 Alpha virt. eigenvalues --    7.24959   7.30953   7.32583   7.34815   7.40438
 Alpha virt. eigenvalues --    7.45720   7.48670   7.62252   7.62527   7.63605
 Alpha virt. eigenvalues --    7.67285   7.81049   7.89236   8.12554   8.34005
 Alpha virt. eigenvalues --    8.42849   8.54792  13.45339  14.42091  15.19081
 Alpha virt. eigenvalues --   16.15524
          Condensed to atoms (all electrons):
               1          2          3          4          5
     1  H    0.590891   0.129124   0.018757   0.012845  -0.000736
     2  O    0.129124   8.347898  -0.199985  -0.093942   0.016195
     3  O    0.018757  -0.199985   8.494410  -0.127688  -0.039668
     4  N    0.012845  -0.093942  -0.127688   6.975373  -0.056514
     5  O   -0.000736   0.016195  -0.039668  -0.056514   8.274651
 Mulliken charges:
               1
     1  H    0.249119
     2  O   -0.199291
     3  O   -0.145826
     4  N    0.289926
     5  O   -0.193928
 Sum of Mulliken charges =  -0.00000
 Mulliken charges with hydrogens summed into heavy atoms:
               1
     2  O    0.049828
     3  O   -0.145826
     4  N    0.289926
     5  O   -0.193928
 APT charges:
               1
     1  H    0.300544
     2  O   -0.287525
     3  O   -0.494981
     4  N    0.875828
     5  O   -0.393865
 Sum of APT charges =  -0.00000
 APT charges with hydrogens summed into heavy atoms:
               1
     2  O    0.013018
     3  O   -0.494981
     4  N    0.875828
     5  O   -0.393865
 Electronic spatial extent (au):  <R**2>=            250.9734
 Charge=             -0.0000 electrons
 Dipole moment (field-independent basis, Debye):
    X=              0.5044    Y=              1.3793    Z=              0.0000  Tot=              1.4687
 Quadrupole moment (field-independent basis, Debye-Ang):
   XX=            -22.5797   YY=            -18.5424   ZZ=            -21.9819
   XY=              3.1903   XZ=              0.0000   YZ=             -0.0000
 Traceless Quadrupole moment (field-independent basis, Debye-Ang):
   XX=             -1.5450   YY=              2.4923   ZZ=             -0.9472
   XY=              3.1903   XZ=              0.0000   YZ=             -0.0000
 Octapole moment (field-independent basis, Debye-Ang**2):
  XXX=              2.5727  YYY=             11.5739  ZZZ=             -0.0000  XYY=              7.8821
  XXY=              6.3778  XXZ=              0.0000  XZZ=             -1.5382  YZZ=             -0.8390
  YYZ=              0.0000  XYZ=              0.0000
 Hexadecapole moment (field-independent basis, Debye-Ang**3):
 XXXX=           -155.4339 YYYY=            -90.6220 ZZZZ=            -18.1869 XXXY=            -37.1138
 XXXZ=             -0.0000 YYYX=            -30.6232 YYYZ=             -0.0000 ZZZX=             -0.0000
 ZZZY=             -0.0000 XXYY=            -33.9471 XXZZ=            -30.2358 YYZZ=            -20.8851
 XXYZ=             -0.0000 YYXZ=             -0.0000 ZZXY=            -15.0176
 N-N= 1.173764558312D+02 E-N=-8.968767941769D+02  KE= 2.802269420035D+02
 Symmetry A'   KE= 2.662437238213D+02
 Symmetry A"   KE= 1.398321818221D+01
  Exact polarizability:  33.503   9.435  30.335   0.000   0.000  17.861
 Approx polarizability:  28.432   5.118  23.567   0.000   0.000  15.489
 No NMR shielding tensors so no spin-rotation constants.
 Leave Link  601 at Mon Feb 21 20:16:12 2022, MaxMem= 16106127360 cpu:               9.5 elap:               0.4
 (Enter /sw/contrib/gaussian/g16/B01/g16/l701.exe)
 ... and contract with generalized density number  2.
 Compute integral second derivatives.
 Leave Link  701 at Mon Feb 21 20:16:12 2022, MaxMem= 16106127360 cpu:               6.5 elap:               0.3
 (Enter /sw/contrib/gaussian/g16/B01/g16/l702.exe)
 L702 exits ... SP integral derivatives will be done elsewhere.
 Leave Link  702 at Mon Feb 21 20:16:12 2022, MaxMem= 16106127360 cpu:               0.5 elap:               0.0
 (Enter /sw/contrib/gaussian/g16/B01/g16/l703.exe)
 Integral derivatives from FoFJK, PRISM(SPDF).
 Compute integral second derivatives, UseDBF=F ICtDFT=           0.
 Calling FoFJK, ICntrl=  10100127 FMM=F ISym2X=1 I1Cent= 0 IOpClX= 0 NMat=1 NMatS=1 NMatT=0.
 FoFJK:  IHMeth= 1 ICntrl=10100127 DoSepK=F KAlg= 0 I1Cent=           0 FoldK=F
 IRaf=         0 NMat=       1 IRICut=       1 DoRegI=T DoRafI=F ISym2E= 1 IDoP0=0 IntGTp=1.
 FoFCou: FMM=F IPFlag=           0 FMFlag=      100000 FMFlg1=         800
         NFxFlg=           0 DoJE=F BraDBF=F KetDBF=F FulRan=T
         wScrn=  0.000000 ICntrl=  10100127 IOpCl=  0 I1Cent=           0 NGrid=           0
         NMat0=    1 NMatS0=      1 NMatT0=    0 NMatD0=    1 NMtDS0=    0 NMtDT0=    0
 Petite list used in FoFCou.
 Leave Link  703 at Mon Feb 21 20:16:27 2022, MaxMem= 16106127360 cpu:             421.3 elap:              15.1
 (Enter /sw/contrib/gaussian/g16/B01/g16/l716.exe)
 Dipole        = 1.98449379D-01 5.42670210D-01 1.51311531D-32
 Polarizability= 3.35034366D+01 9.43465880D+00 3.03347376D+01
                 2.82239864D-31 5.28253635D-31 1.78609216D+01
 Full mass-weighted force constant matrix:
 Low frequencies --- -262.8186  -78.8247  -47.2402   -0.0012   -0.0004    0.0011
 Low frequencies ---   30.5226  222.4062  337.0360
 ******    1 imaginary frequencies (negative Signs) ****** 
 Diagonal vibrational polarizability:
       13.3633172      25.6274472      49.4336005
 Harmonic frequencies (cm**-1), IR intensities (KM/Mole), Raman scattering
 activities (A**4/AMU), depolarization ratios for plane and unpolarized
 incident light, reduced masses (AMU), force constants (mDyne/A),
 and normal coordinates:
                      1                      2                      3
                     A"                     A"                     A'
 Frequencies --   -262.2018               220.8905               336.8496
 Red. masses --      1.1352                10.8635                 8.5009
 Frc consts  --      0.0460                 0.3123                 0.5683
 IR Inten    --    125.4706                 0.5798                 8.3132
  Atom  AN      X      Y      Z        X      Y      Z        X      Y      Z
     1   1    -0.00   0.00   1.00    -0.00   0.00  -0.55     0.56  -0.43   0.00
     2   8     0.00   0.00  -0.06     0.00   0.00  -0.32    -0.07  -0.37  -0.00
     3   8     0.00  -0.00  -0.04    -0.00  -0.00   0.33    -0.14   0.44   0.00
     4   7    -0.00  -0.00   0.06     0.00  -0.00   0.53     0.02   0.24   0.00
     5   8    -0.00   0.00  -0.01    -0.00   0.00  -0.45     0.16  -0.26  -0.00
                      4                      5                      6
                     A'                     A'                     A'
 Frequencies --    457.8240               795.8295              1011.7386
 Red. masses --     12.4674                12.7655                15.7674
 Frc consts  --      1.5397                 4.7635                 9.5092
 IR Inten    --    198.8824               175.2637                15.2705
  Atom  AN      X      Y      Z        X      Y      Z        X      Y      Z
     1   1     0.38   0.22  -0.00    -0.35   0.18  -0.00    -0.07  -0.07   0.00
     2   8     0.32   0.23   0.00     0.38   0.09   0.00    -0.57   0.02  -0.00
     3   8     0.19   0.42   0.00     0.01  -0.26  -0.00     0.76   0.01   0.00
     4   7    -0.35  -0.43   0.00    -0.16   0.63  -0.00    -0.10   0.18   0.00
     5   8    -0.23  -0.29  -0.00    -0.22  -0.39   0.00    -0.09  -0.18  -0.00
                      7                      8                      9
                     A'                     A'                     A'
 Frequencies --   1393.9829              1678.4265              3776.6945
 Red. masses --      1.1355                12.9530                 1.0674
 Frc consts  --      1.3000                21.4994                 8.9702
 IR Inten    --    155.3466               138.9071                83.4498
  Atom  AN      X      Y      Z        X      Y      Z        X      Y      Z
     1   1     0.99  -0.05  -0.00    -0.37   0.00   0.00     0.10   0.99   0.00
     2   8    -0.03   0.05  -0.00    -0.00  -0.04  -0.00    -0.01  -0.06  -0.00
     3   8    -0.02  -0.05   0.00     0.00   0.15  -0.00     0.00   0.00  -0.00
     4   7     0.02   0.01   0.00     0.70  -0.04   0.00    -0.00  -0.00   0.00
     5   8    -0.03  -0.01  -0.00    -0.59  -0.07   0.00     0.00   0.00   0.00

 -------------------
 - Thermochemistry -
 -------------------
 Temperature   298.150 Kelvin.  Pressure   1.00000 Atm.
 Atom     1 has atomic number  1 and mass   1.00783
 Atom     2 has atomic number  8 and mass  15.99491
 Atom     3 has atomic number  8 and mass  15.99491
 Atom     4 has atomic number  7 and mass  14.00307
 Atom     5 has atomic number  8 and mass  15.99491
 Molecular mass:    62.99564 amu.
 Principal axes and moments of inertia in atomic units:
                           1         2         3
     Eigenvalues --    32.54392 356.75424 389.29816
           X            0.80269  -0.59640   0.00000
           Y            0.59640   0.80269   0.00000
           Z            0.00000  -0.00000   1.00000
 This molecule is an asymmetric top.
 Rotational symmetry number  1.
 Rotational temperatures (Kelvin)      2.66145     0.24278     0.22249
 Rotational constants (GHZ):          55.45556     5.05878     4.63588
    1 imaginary frequencies ignored.
 Zero-point vibrational energy      57852.8 (Joules/Mol)
                                   13.82716 (Kcal/Mol)
 Warning -- explicit consideration of   3 degrees of freedom as
           vibrations may cause significant error
 Vibrational temperatures:    317.81   484.65   658.71  1145.02  1455.67
          (Kelvin)           2005.63  2414.88  5433.82
 
 Zero-point correction=                           0.022035 (Hartree/Particle)
 Thermal correction to Energy=                    0.026154
 Thermal correction to Enthalpy=                  0.027098
 Thermal correction to Gibbs Free Energy=        -0.004091
 Sum of electronic and zero-point Energies=           -280.424496
 Sum of electronic and thermal Energies=              -280.420377
 Sum of electronic and thermal Enthalpies=            -280.419432
 Sum of electronic and thermal Free Energies=         -280.450622
 
                     E (Thermal)             CV                S
                      KCal/Mol        Cal/Mol-Kelvin    Cal/Mol-Kelvin
 Total                   16.412             11.886             65.645
 Electronic               0.000              0.000              0.000
 Translational            0.889              2.981             38.341
 Rotational               0.889              2.981             23.029
 Vibrational             14.635              5.925              4.275
 Vibration     1          0.648              1.809              1.952
 Vibration     2          0.718              1.602              1.227
 Vibration     3          0.816              1.344              0.772
                       Q            Log10(Q)             Ln(Q)
 Total Bot       0.761872D+02          1.881882          4.333194
 Total V=0       0.104054D+13         12.017258         27.670760
 Vib (Bot)       0.161085D-09         -9.792944        -22.549086
 Vib (Bot)    1  0.895148D+00         -0.048105         -0.110767
 Vib (Bot)    2  0.552333D+00         -0.257799         -0.593604
 Vib (Bot)    3  0.372181D+00         -0.429245         -0.988374
 Vib (V=0)       0.220005D+01          0.342432          0.788480
 Vib (V=0)    1  0.152532D+01          0.183362          0.422207
 Vib (V=0)    2  0.124503D+01          0.095180          0.219161
 Vib (V=0)    3  0.112331D+01          0.050501          0.116282
 Electronic      0.100000D+01          0.000000          0.000000
 Translational   0.196526D+08          7.293420         16.793719
 Rotational      0.240661D+05          4.381406         10.088561
 
                                                                title
                                                             IR Spectrum
 
     3                                                                      1         1           1                                  
     7                                                                      6         3           0       7          4   3   2       
     7                                                                      7         9           1       9          5   3   2       
     7                                                                      8         4           2       6          8   7   1       
 
     X                                                                      X         X           X       X          X   X   X       
     X                                                                      X         X           X       X          X               
     X                                                                      X         X                   X          X               
     X                                                                      X         X                   X          X               
     X                                                                      X         X                   X          X               
     X                                                                      X         X                   X          X               
     X                                                                      X         X                   X          X               
     X                                                                      X         X                   X          X               
                                                                            X         X                   X          X               
                                                                            X         X                   X          X               
                                                                            X         X                   X          X               
                                                                            X         X                   X          X               
                                                                            X         X                   X          X               
                                                                            X         X                   X          X               
                                                                                      X                   X          X               
                                                                                      X                   X          X               
                                                                                                          X          X               
                                                                                                          X          X               
                                                                                                                     X               
                                                                                                                     X               
 
 ***** Axes restored to original set *****
 -------------------------------------------------------------------
 Center     Atomic                   Forces (Hartrees/Bohr)
 Number     Number              X              Y              Z
 -------------------------------------------------------------------
      1        1          -0.001345911   -0.000000000    0.000388930
      2        8          -0.009471409   -0.000000000   -0.003603180
      3        8           0.009472198    0.000000000    0.003306297
      4        7           0.000896553    0.000000000   -0.000869099
      5        8           0.000448568    0.000000000    0.000777053
 -------------------------------------------------------------------
 Cartesian Forces:  Max     0.009472198 RMS     0.003720856
 -----------------------------------------------------------------------------------------------
                       Internal Coordinate Forces (Hartree/Bohr or radian)
  Cent   Atom   N1       Length/X         N2         Alpha/Y        N3         Beta/Z          J
 -----------------------------------------------------------------------------------------------
      1  H 
      2  O        1  -0.000389(     1)
      3  O        2   0.011147(     2)      1   0.002465(     5)
      4  N        3   0.000019(     3)      2   0.002297(     6)      1  -0.000000(     8)     0
      5  O        4   0.000627(     4)      3   0.001419(     7)      2   0.000000(     9)     0
 -----------------------------------------------------------------------------------------------
 Internal  Forces:  Max     0.011147246 RMS     0.003918214
 Force constants in Cartesian coordinates: 
                1             2             3             4             5 
      1  0.668052D-01
      2  0.000000D+00 -0.221033D-02
      3  0.664273D-02  0.000000D+00  0.511859D+00
      4 -0.355360D-01  0.000000D+00 -0.171594D-01  0.302982D+00
      5  0.000000D+00  0.243157D-02  0.000000D+00  0.000000D+00 -0.665231D-03
      6  0.492722D-01  0.000000D+00 -0.507451D+00  0.413449D-01  0.000000D+00
      7 -0.207337D-01  0.000000D+00  0.121616D-01 -0.248687D+00  0.000000D+00
      8  0.000000D+00  0.158353D-02  0.000000D+00  0.000000D+00 -0.364282D-02
      9 -0.556400D-01  0.000000D+00 -0.121080D-02 -0.259168D-01  0.000000D+00
     10 -0.917424D-02  0.000000D+00 -0.506315D-02 -0.183612D-01  0.000000D+00
     11  0.000000D+00 -0.290065D-02  0.000000D+00  0.000000D+00 -0.455992D-02
     12  0.556030D-02  0.000000D+00 -0.453924D-02  0.117738D-01  0.000000D+00
     13 -0.136128D-02  0.000000D+00  0.341820D-02 -0.398193D-03  0.000000D+00
     14  0.000000D+00  0.109588D-02  0.000000D+00  0.000000D+00  0.643641D-02
     15 -0.583525D-02  0.000000D+00  0.134215D-02 -0.100424D-01  0.000000D+00
                6             7             8             9            10 
      6  0.595169D+00
      7 -0.272484D-01  0.372961D+00
      8  0.000000D+00  0.000000D+00  0.105592D-02
      9 -0.790331D-01  0.438761D-01  0.000000D+00  0.182450D+00
     10 -0.551132D-01 -0.796143D-01  0.000000D+00  0.175534D+00  0.831001D+00
     11  0.000000D+00  0.000000D+00  0.811121D-02  0.000000D+00  0.000000D+00
     12  0.165845D-01  0.616503D-01  0.000000D+00 -0.821106D-01 -0.160527D-01
     13 -0.825545D-02 -0.239263D-01  0.000000D+00 -0.137854D+00 -0.723851D+00
     14  0.000000D+00  0.000000D+00 -0.710783D-02  0.000000D+00  0.000000D+00
     15 -0.252692D-01 -0.904396D-01  0.000000D+00 -0.200951D-01 -0.993053D-01
               11            12            13            14            15 
     11  0.905414D-02
     12  0.000000D+00  0.187790D+00
     13  0.000000D+00 -0.629317D-01  0.749537D+00
     14 -0.970478D-02  0.000000D+00  0.000000D+00  0.928032D-02
     15  0.000000D+00 -0.117725D+00  0.205623D+00  0.000000D+00  0.161747D+00
 Force constants in internal coordinates: 
                1             2             3             4             5 
      1  0.511859D+00
      2 -0.984179D-02  0.316095D+00
      3  0.332119D-02  0.321148D-02  0.118680D+00
      4 -0.364433D-02  0.699872D-02  0.152852D+00  0.812199D+00
      5  0.108176D-01  0.702870D-01  0.208348D-02  0.506593D-02  0.223281D+00
      6  0.479684D-02  0.641595D-01  0.437241D-01  0.214602D-01  0.313562D-01
      7 -0.100001D-02  0.391992D-01  0.334863D-01  0.856726D-01  0.215325D-01
      8  0.000000D+00  0.000000D+00  0.000000D+00  0.000000D+00  0.000000D+00
      9  0.000000D+00  0.000000D+00  0.000000D+00  0.000000D+00  0.000000D+00
                6             7             8             9 
      6  0.293671D+00
      7  0.972943D-01  0.486362D+00
      8  0.000000D+00  0.000000D+00 -0.830349D-02
      9  0.000000D+00  0.000000D+00 -0.415835D-02  0.413758D-01
 Leave Link  716 at Mon Feb 21 20:16:27 2022, MaxMem= 16106127360 cpu:               1.3 elap:               0.1
 (Enter /sw/contrib/gaussian/g16/B01/g16/l103.exe)

 GradGradGradGradGradGradGradGradGradGradGradGradGradGradGradGradGradGrad
 Berny optimization.
 Search for a local minimum.
 Step number   1 out of a maximum of    2
 All quantities printed in internal units (Hartrees-Bohrs-Radians)
 Second derivative matrix not updated -- analytic derivatives used.
 The second derivative matrix:
                          r1        r2        r3        r4        a1
           r1           0.51186
           r2          -0.00984   0.31609
           r3           0.00332   0.00321   0.11868
           r4          -0.00364   0.00700   0.15285   0.81220
           a1           0.01082   0.07029   0.00208   0.00507   0.22328
           a2           0.00480   0.06416   0.04372   0.02146   0.03136
           a3          -0.00100   0.03920   0.03349   0.08567   0.02153
           d1           0.00000  -0.00000  -0.00000  -0.00000  -0.00000
           d2          -0.00000   0.00000   0.00000   0.00000   0.00000
                          a2        a3        d1        d2
           a2           0.29367
           a3           0.09729   0.48636
           d1          -0.00000  -0.00000  -0.00830
           d2          -0.00000  -0.00000  -0.00416   0.04138
 ITU=  0
     Eigenvalues ---   -0.00865   0.04172   0.07910   0.18470   0.23636
     Eigenvalues ---    0.34962   0.51258   0.52740   0.87239
 Eigenvalue     1 is  -8.65D-03 should be greater than     0.000000 Eigenvector:
                          d1        d2        a3        a2        r3
   1                    0.99656   0.08284   0.00000   0.00000  -0.00000
                          r4        a1        r2        r1
   1                    0.00000  -0.00000   0.00000  -0.00000
 Angle between quadratic step and forces=  18.34 degrees.
 Linear search not attempted -- first point.
 Variable       Old X    -DE/DX   Delta X   Delta X   Delta X     New X
                                 (Linear)    (Quad)   (Total)
    r1        1.83110  -0.00039   0.00000  -0.00007  -0.00007   1.83103
    r2        2.71122   0.01115   0.00000   0.03521   0.03521   2.74643
    r3        2.75670   0.00002   0.00000  -0.00201  -0.00201   2.75469
    r4        2.21236   0.00063   0.00000   0.00084   0.00084   2.21319
    a1        1.70335   0.00246   0.00000  -0.00010  -0.00010   1.70326
    a2        1.78543   0.00230   0.00000   0.00038   0.00038   1.78581
    a3        1.90362   0.00142   0.00000  -0.00000  -0.00000   1.90362
    d1        3.14159  -0.00000   0.00000   0.00000   0.00000   3.14159
    d2        3.14159   0.00000   0.00000  -0.00000   0.00000   3.14159
         Item               Value     Threshold  Converged?
 Maximum Force            0.011147     0.000450     NO 
 RMS     Force            0.003918     0.000300     NO 
 Maximum Displacement     0.035210     0.001800     NO 
 RMS     Displacement     0.011760     0.001200     NO 
 Predicted change in Energy=-1.968202D-04
                       ----------------------------
                       ! Non-Optimized Parameters !
                       ! (Angstroms and Degrees)  !
 ----------------------                            ----------------------
 !      Name          Value   Derivative information (Atomic Units)     !
 ------------------------------------------------------------------------
 !       r1          0.9689   -DE/DX =   -0.0004                        !
 !       r2          1.4533   -DE/DX =    0.0111                        !
 !       r3          1.4577   -DE/DX =    0.0                           !
 !       r4          1.1712   -DE/DX =    0.0006                        !
 !       a1         97.5894   -DE/DX =    0.0025                        !
 !       a2        102.3193   -DE/DX =    0.0023                        !
 !       a3        109.0695   -DE/DX =    0.0014                        !
 !       d1        180.0      -DE/DX =    0.0                           !
 !       d2        180.0      -DE/DX =    0.0                           !
 ------------------------------------------------------------------------
 GradGradGradGradGradGradGradGradGradGradGradGradGradGradGradGradGradGrad

 Leave Link  103 at Mon Feb 21 20:16:27 2022, MaxMem= 16106127360 cpu:               0.5 elap:               0.0
 (Enter /sw/contrib/gaussian/g16/B01/g16/l9999.exe)

 ----------------------------------------------------------------------

 Electric dipole moment (input orientation):
 (Debye = 10**-18 statcoulomb cm , SI units = C m)
                  (au)            (Debye)         (10**-30 SI)
   Tot        0.577818D+00      0.146867D+01      0.489894D+01
   x         -0.148975D+00     -0.378658D+00     -0.126307D+01
   y          0.000000D+00      0.000000D+00      0.000000D+00
   z         -0.558283D+00     -0.141901D+01     -0.473332D+01

 Dipole polarizability, Alpha (input orientation).
 (esu units = cm**3 , SI units = C**2 m**2 J**-1)
 Alpha(0;0):
               (au)            (10**-24 esu)      (10**-40 SI)
   iso        0.272330D+02      0.403552D+01      0.449012D+01
   aniso      0.217302D+02      0.322008D+01      0.358282D+01
   xx         0.317923D+02      0.471113D+01      0.524184D+01
   yx         0.000000D+00      0.000000D+00      0.000000D+00
   yy         0.178609D+02      0.264672D+01      0.294487D+01
   zx         0.956592D+01      0.141752D+01      0.157721D+01
   zy         0.000000D+00      0.000000D+00      0.000000D+00
   zz         0.320459D+02      0.474871D+01      0.528365D+01

 ----------------------------------------------------------------------

 Dipole orientation:
     1          0.00000000          0.00000000         -0.00000000
     8         -0.47210153          0.00000000         -1.76919236
     8          2.03208793          0.00000000         -2.80830277
     7          1.54209868          0.00000000         -5.52110914
     8          3.47127644          0.00000000         -6.60406628

 Electric dipole moment (dipole orientation):
 (Debye = 10**-18 statcoulomb cm , SI units = C m)
                  (au)            (Debye)         (10**-30 SI)
   Tot        0.577818D+00      0.146867D+01      0.489894D+01
   x          0.000000D+00      0.000000D+00      0.000000D+00
   y          0.000000D+00      0.000000D+00      0.000000D+00
   z          0.577818D+00      0.146867D+01      0.489894D+01

 Dipole polarizability, Alpha (dipole orientation).
 (esu units = cm**3 , SI units = C**2 m**2 J**-1)
 Alpha(0;0):
               (au)            (10**-24 esu)      (10**-40 SI)
   iso        0.272330D+02      0.403552D+01      0.449012D+01
   aniso      0.217302D+02      0.322008D+01      0.358282D+01
   xx         0.270433D+02      0.400740D+01      0.445883D+01
   yx         0.000000D+00      0.000000D+00      0.000000D+00
   yy         0.178609D+02      0.264672D+01      0.294487D+01
   zx        -0.823100D+01     -0.121971D+01     -0.135711D+01
   zy         0.000000D+00      0.000000D+00      0.000000D+00
   zz         0.367949D+02      0.545244D+01      0.606666D+01

 ----------------------------------------------------------------------
 1\1\GINC-N2128\Freq\RMP2-FC\Aug-CC-pVTZ\H1N1O3\CGAVINH\21-Feb-2022\1\\
 #p freq mp2/aug-cc-pvtz density=current\\title\\0,1\H\O,1,r1\O,2,r2,1,
 a1\N,3,r3,2,a2,1,d1,0\O,4,r4,3,a3,2,d2,0\\r1=0.96897556\r2=1.43471598\
 r3=1.45878406\r4=1.17072885\a1=97.59494903\a2=102.29752444\a3=109.0695
 5123\d1=180.\d2=180.\\Version=ES64L-G16RevB.01\State=1-A'\HF=-279.5031
 195\MP2=-280.4465309\RMSD=3.610e-09\RMSF=3.721e-03\ZeroPoint=0.022035\
 Thermal=0.0261543\Dipole=-0.1489754,0.,-0.5582826\DipoleDeriv=0.267129
 6,0.,0.04945,0.,0.3564286,0.,0.0789154,0.,0.2780728,-0.3300215,0.,-0.2
 17062,0.,-0.3146102,0.,-0.1026552,0.,-0.2179446,-0.0400004,0.,0.161522
 4,0.,-0.0859638,0.,-0.7520605,0.,-1.3589791,0.8941154,0.,0.9084897,0.,
 0.0658741,0.,0.9153652,0.,1.6674935,-0.7912231,0.,-0.9024002,0.,-0.021
 7287,0.,-0.1395649,0.,-0.3686426\Polar=31.7923055,0.,17.8609216,9.5659
 227,0.,32.0458686\Quadrupole=-1.5483238,-0.7042556,2.2525794,0.,2.0655
 683,0.\PG=CS [SG(H1N1O3)]\NImag=1\\0.06680524,0.,-0.00221033,0.0066427
 3,0.,0.51185936,-0.03553600,0.,-0.01715937,0.30298229,0.,0.00243157,0.
 ,0.,-0.00066523,0.04927222,0.,-0.50745146,0.04134488,0.,0.59516927,-0.
 02073373,0.,0.01216159,-0.24868689,0.,-0.02724844,0.37296126,0.,0.0015
 8353,0.,0.,-0.00364282,0.,0.,0.00105592,-0.05564000,0.,-0.00121080,-0.
 02591683,0.,-0.07903313,0.04387607,0.,0.18244960,-0.00917424,0.,-0.005
 06315,-0.01836121,0.,-0.05511321,-0.07961429,0.,0.17553442,0.83100077,
 0.,-0.00290065,0.,0.,-0.00455992,0.,0.,0.00811121,0.,0.,0.00905414,0.0
 0556030,0.,-0.00453924,0.01177375,0.,0.01658451,0.06165033,0.,-0.08211
 060,-0.01605272,0.,0.18779019,-0.00136128,0.,0.00341820,-0.00039819,0.
 ,-0.00825545,-0.02392635,0.,-0.13785366,-0.72385103,0.,-0.06293165,0.7
 4953685,0.,0.00109588,0.,0.,0.00643641,0.,0.,-0.00710783,0.,0.,-0.0097
 0478,0.,0.,0.00928032,-0.00583525,0.,0.00134215,-0.01004243,0.,-0.0252
 6919,-0.09043955,0.,-0.02009507,-0.09930534,0.,-0.11772486,0.20562257,
 0.,0.16174697\\0.00134591,0.,-0.00038893,0.00947141,0.,0.00360318,-0.0
 0947220,0.,-0.00330630,-0.00089655,0.,0.00086910,-0.00044857,0.,-0.000
 77705\\\@


 WE HAVE LEARNED THAT NOTHING IS SIMPLE AND
 RATIONAL EXCEPT WHAT WE OURSELVES HAVE INVENTED;
 THAT GOD THINKS IN TERMS NEITHER OF EUCLID OR RIEMANN; THAT SCIENCE HAS "EXPLAINED" NOTHING;
 THAT THE MORE WE KNOW THE MORE FANTASTIC THE WORLD BECOMES
 AND THE PROFOUNDER THE SURROUNDING DARKNESS.
   --  ALDOUS HUXLEY
 Job cpu time:       0 days  2 hours  3 minutes 27.5 seconds.
 Elapsed time:       0 days  0 hours  4 minutes 28.0 seconds.
 File lengths (MBytes):  RWF=   7239 Int=      0 D2E=      0 Chk=      8 Scr=      1
 Normal termination of Gaussian 16 at Mon Feb 21 20:16:28 2022.
